                         Program Version 6.0.1  -  RELEASE   -
|  1> ! pbe def2-sv(p) def2/J RI DEFGRID1 loosescf d4 GCP(DFT/SV(P)) printgap
|  2> %output
|  3>     printlevel normal
|  4> end
|  5> * xyz 0 1
|  6> C -2.3037761154 0.1867522234 0.2833486115
|  7> C -0.9547210024 0.3248465868 -0.4166904278
|  8> C 0.0007344668 -0.7463202383 0.0130424373
|  9> C 1.3070203114 -0.598351065 0.1711247573
| 10> C 2.0635704035 0.6758165395 -0.0536382181
| 11> H -2.7560424932 -0.7767026668 0.0570186471
| 12> H -2.9850099951 0.9706150788 -0.0409807504
| 13> H -2.1799281626 0.2625343087 1.361708095
| 14> H -1.1056741944 0.2523613944 -1.4994967919
| 15> H -0.5337166661 1.3091998351 -0.2073191368
| 16> H -0.4493787642 -1.713860292 0.1935706935
| 17> H 1.8972150281 -1.4460756841 0.4921937127
| 18> H 3.1345456213 0.4924392548 -0.0444525479
| 19> H 1.8363313457 1.3992522317 0.7304243077
| 20> H 1.7971023959 1.1242332245 -1.0091460206
| 21> *
| 22>
| 23>                          ****END OF INPUT****

CARTESIAN COORDINATES (ANGSTROEM)
---------------------------------
  C     -2.303776    0.186752    0.283349
  C     -0.954721    0.324847   -0.416690
  C      0.000734   -0.746320    0.013042
  C      1.307020   -0.598351    0.171125
  C      2.063570    0.675817   -0.053638
  H     -2.756042   -0.776703    0.057019
  H     -2.985010    0.970615   -0.040981
  H     -2.179928    0.262534    1.361708
  H     -1.105674    0.252361   -1.499497
  H     -0.533717    1.309200   -0.207319
  H     -0.449379   -1.713860    0.193571
  H      1.897215   -1.446076    0.492194
  H      3.134546    0.492439   -0.044453
  H      1.836331    1.399252    0.730424
  H      1.797102    1.124233   -1.009146

 Total Charge           Charge          ....    0
 Multiplicity           Mult            ....    1
 Number of Electrons    NEL             ....   40
 Basis Dimension        Dim             ....   90

ORBITAL ENERGIES
----------------

  NO   OCC          E(Eh)            E(eV)
   0   2.0000      -9.885277      -268.9921
   1   2.0000      -9.879165      -268.8257
   2   2.0000      -9.876717      -268.7591
   3   2.0000      -9.876604      -268.7561
   4   2.0000      -9.874205      -268.6908
   5   2.0000      -0.723039       -19.6749
   6   2.0000      -0.672475       -18.2990
   7   2.0000      -0.604660       -16.4536
   8   2.0000      -0.545983       -14.8570
   9   2.0000      -0.467044       -12.7089
  10   2.0000      -0.424731       -11.5575
  11   2.0000      -0.392666       -10.6850
  12   2.0000      -0.380862       -10.3638
  13   2.0000      -0.364116        -9.9081
  14   2.0000      -0.334292        -9.0966
  15   2.0000      -0.324768        -8.8374
  16   2.0000      -0.314770        -8.5653
  17   2.0000      -0.299808        -8.1582
  18   2.0000      -0.279178        -7.5968
  19   2.0000      -0.207918        -5.6577
  20   0.0000      -0.008718        -0.2372
  21   0.0000       0.044360         1.2071
  22   0.0000       0.064937         1.7670
  23   0.0000       0.068368         1.8604
  24   0.0000       0.091519         2.4904

MULLIKEN ATOMIC CHARGES
-----------------------
   0 C :   -0.295575
   1 C :   -0.132169
   2 C :   -0.136191
   3 C :   -0.162347
   4 C :   -0.241791
   5 H :    0.103924
   6 H :    0.101644
   7 H :    0.106834
   8 H :    0.101872
   9 H :    0.090476
  10 H :    0.057806
  11 H :    0.065161
  12 H :    0.102273
  13 H :    0.120298
  14 H :    0.117787
Sum of atomic charges:   -0.0000000

LOEWDIN ATOMIC CHARGES
----------------------
   0 C :   -0.337312
   1 C :   -0.232648
   2 C :   -0.150414
   3 C :   -0.157827
   4 C :   -0.342664
   5 H :    0.117453
   6 H :    0.118275
   7 H :    0.119485
   8 H :    0.127109
   9 H :    0.120326
  10 H :    0.116827
  11 H :    0.117628
  12 H :    0.124361
  13 H :    0.131378
  14 H :    0.128020

  Mayer bond orders larger than 0.100000
B(  0-C ,  1-C ) :   1.1349 B(  0-C ,  5-H ) :   0.9555 B(  0-C ,  6-H ) :   0.9524
B(  0-C ,  7-H ) :   0.9596 B(  1-C ,  2-C ) :   1.0804 B(  1-C ,  8-H ) :   0.9079
B(  1-C ,  9-H ) :   0.9118 B(  2-C ,  3-C ) :   1.9995 B(  2-C , 10-H ) :   0.9331
B(  3-C ,  4-C ) :   1.1132 B(  3-C , 11-H ) :   0.9322 B(  4-C , 12-H ) :   0.9468
B(  4-C , 13-H ) :   0.9344 B(  4-C , 14-H ) :   0.9393

Dispersion correction           -0.009744623
FINAL SINGLE POINT ENERGY      -196.028891814513

DIPOLE MOMENT
-------------

Method             : SCF
Type of density    : Electron Density
Multiplicity       :   1
Irrep              :   0
Energy             :  -196.0770059118528650 Eh
Relativity type    :
Basis              : AO
                                X                 Y                 Z
Electronic contribution:      1.255165031      -1.637395665      -0.072645628
Nuclear contribution   :     -1.261412636       1.758114426       0.031447421
                        -----------------------------------------
Total Dipole Moment    :     -0.006247604       0.120718762      -0.041198207
                        -----------------------------------------
Magnitude (a.u.)       :      0.127708043
Magnitude (Debye)      :      0.324608048

Rotational constants in cm-1:             0.426013             0.085011             0.076365
Rotational constants in MHz :         12771.562263          2548.573470          2289.362414

                             ****ORCA TERMINATED NORMALLY****
TOTAL RUN TIME: 0 days 0 hours 0 minutes 6 seconds 329 msec
