                         Program Version 6.0.1  -  RELEASE   -
|  1> ! pbe def2-sv(p) def2/J RI DEFGRID1 loosescf d4 GCP(DFT/SV(P)) printgap
|  2> %output
|  3>     printlevel normal
|  4> end
|  5> * xyz 0 1
|  6> C 0.6440979354 1.4191575181 -9.90105e-05
|  7> C 0.5173764857 -0.0748769789 -8.65183e-05
|  8> C 1.5898989065 -0.865480197 0.0001962884
|  9> C -0.8189622713 -0.6554431406 -0.0003391383
| 10> C -1.9619157 0.0206732272 0.0002780063
| 11> H 0.1630401587 1.8392966347 -0.882169363
| 12> H 1.6898722806 1.7148226739 0.0004909703
| 13> H 0.1619930348 1.8395415525 0.8812761447
| 14> H 1.5035568021 -1.9392149787 0.0004655067
| 15> H 2.5909618685 -0.4686916508 0.0005409456
| 16> H -0.8444630513 -1.738180919 -0.0009438835
| 17> H -2.91250565 -0.4853467374 1.61661e-05
| 18> H -2.0008528284 1.096440474 0.0009237927
| 19> *
| 20>
| 21>                          ****END OF INPUT****

CARTESIAN COORDINATES (ANGSTROEM)
---------------------------------
  C      0.644098    1.419158   -0.000099
  C      0.517376   -0.074877   -0.000087
  C      1.589899   -0.865480    0.000196
  C     -0.818962   -0.655443   -0.000339
  C     -1.961916    0.020673    0.000278
  H      0.163040    1.839297   -0.882169
  H      1.689872    1.714823    0.000491
  H      0.161993    1.839542    0.881276
  H      1.503557   -1.939215    0.000466
  H      2.590962   -0.468692    0.000541
  H     -0.844463   -1.738181   -0.000944
  H     -2.912506   -0.485347    0.000016
  H     -2.000853    1.096440    0.000924

 Total Charge           Charge          ....    0
 Multiplicity           Mult            ....    1
 Number of Electrons    NEL             ....   38
 Basis Dimension        Dim             ....   86

ORBITAL ENERGIES
----------------

  NO   OCC          E(Eh)            E(eV)
   0   2.0000      -9.905154      -269.5329
   1   2.0000      -9.894201      -269.2349
   2   2.0000      -9.882727      -268.9227
   3   2.0000      -9.881593      -268.8918
   4   2.0000      -9.879395      -268.8320
   5   2.0000      -0.741945       -20.1893
   6   2.0000      -0.664668       -18.0865
   7   2.0000      -0.619288       -16.8517
   8   2.0000      -0.537184       -14.6175
   9   2.0000      -0.465222       -12.6593
  10   2.0000      -0.426943       -11.6177
  11   2.0000      -0.410261       -11.1638
  12   2.0000      -0.377040       -10.2598
  13   2.0000      -0.354670        -9.6511
  14   2.0000      -0.339278        -9.2322
  15   2.0000      -0.325940        -8.8693
  16   2.0000      -0.296292        -8.0625
  17   2.0000      -0.275428        -7.4948
  18   2.0000      -0.207369        -5.6428
  19   0.0000      -0.055699        -1.5157
  20   0.0000       0.042221         1.1489
  21   0.0000       0.052410         1.4261
  22   0.0000       0.066186         1.8010
  23   0.0000       0.081352         2.2137

MULLIKEN ATOMIC CHARGES
-----------------------
   0 C :   -0.226658
   1 C :   -0.022149
   2 C :   -0.239916
   3 C :   -0.072879
   4 C :   -0.204624
   5 H :    0.116871
   6 H :    0.099114
   7 H :    0.116879
   8 H :    0.091157
   9 H :    0.089993
  10 H :    0.054802
  11 H :    0.101497
  12 H :    0.095911
Sum of atomic charges:    0.0000000

LOEWDIN ATOMIC CHARGES
----------------------
   0 C :   -0.323189
   1 C :   -0.058521
   2 C :   -0.242834
   3 C :   -0.123419
   4 C :   -0.248840
   5 H :    0.131732
   6 H :    0.125407
   7 H :    0.131719
   8 H :    0.119766
   9 H :    0.119750
  10 H :    0.122844
  11 H :    0.124656
  12 H :    0.120931

  Mayer bond orders larger than 0.100000
B(  0-C ,  1-C ) :   1.1327 B(  0-C ,  5-H ) :   0.9243 B(  0-C ,  6-H ) :   0.9389
B(  0-C ,  7-H ) :   0.9243 B(  1-C ,  2-C ) :   1.9177 B(  1-C ,  3-C ) :   1.1359
B(  2-C ,  4-C ) :   0.1430 B(  2-C ,  8-H ) :   0.9153 B(  2-C ,  9-H ) :   0.9089
B(  3-C ,  4-C ) :   1.9518 B(  3-C , 10-H ) :   0.9328 B(  4-C , 11-H ) :   0.9212
B(  4-C , 12-H ) :   0.9039

Dispersion correction           -0.009212267
FINAL SINGLE POINT ENERGY      -194.829262140620

DIPOLE MOMENT
-------------

Method             : SCF
Type of density    : Electron Density
Multiplicity       :   1
Irrep              :   0
Energy             :  -194.8676383056172483 Eh
Relativity type    :
Basis              : AO
                                X                 Y                 Z
Electronic contribution:     -0.317974038      -1.639656050      -0.000511412
Nuclear contribution   :      0.329861407       1.743737113       0.000563162
                        -----------------------------------------
Total Dipole Moment    :      0.011887369       0.104081063       0.000051749
                        -----------------------------------------
Magnitude (a.u.)       :      0.104757720
Magnitude (Debye)      :      0.266272962

Rotational constants in cm-1:             0.289258             0.140837             0.096417
Rotational constants in MHz :          8671.739621          4222.189973          2890.520081

                             ****ORCA TERMINATED NORMALLY****
TOTAL RUN TIME: 0 days 0 hours 0 minutes 10 seconds 716 msec
