                         Program Version 6.0.1  -  RELEASE   -
|  1> ! pbe def2-sv(p) def2/J RI DEFGRID1 loosescf d4 GCP(DFT/SV(P)) printgap
|  2> %output
|  3>     printlevel normal
|  4> end
|  5> * xyz 0 1
|  6> C -2.0693031505 -1.3893227933 -0.0528246531
|  7> C -0.9649405349 -0.5355110091 0.5987665276
|  8> H -1.3388807193 -0.1515397264 1.5604150839
|  9> C -0.6214233357 0.6673221146 -0.291229857
| 10> H -0.5087608783 0.3419062168 -1.3356018915
| 11> C 0.7113287746 1.2683685329 0.1699387085
| 12> H 0.6244514544 1.5089062329 1.2458699791
| 13> C 1.8315132619 0.2324014232 -0.0246538441
| 14> H 2.2722568037 0.3836784762 -1.0136800215
| 15> C 1.2604977989 -1.2057423583 0.0325804391
| 16> H 2.0289558557 -1.8583601006 0.4755622177
| 17> O 0.1716603069 -1.3254458204 0.9164443237
| 18> O 0.9355366871 -1.6144510254 -1.2598081891
| 19> O 2.8769961013 0.385353979 0.8914835152
| 20> O 1.0184164703 2.4245004953 -0.5544699621
| 21> O -1.611605609 1.6648249162 -0.194217386
| 22> O -3.2769742584 -0.6706002738 -0.1597092856
| 23> H -2.2002644782 -2.3121205438 0.5256342799
| 24> H -1.7831756938 -1.6492200351 -1.0747074819
| 25> H 0.6996016155 -2.5501747284 -1.2501221864
| 26> H 2.5198473484 0.3608076523 1.7878151205
| 27> H 0.2084023572 2.9491304596 -0.6082039694
| 28> H -2.4495904277 1.2665348133 -0.4715726347
| 29> H -3.6427459306 -0.5377890398 0.7226647008
| 30> *
| 31>
| 32>                          ****END OF INPUT****

CARTESIAN COORDINATES (ANGSTROEM)
---------------------------------
  C     -2.069303   -1.389323   -0.052825
  C     -0.964941   -0.535511    0.598767
  H     -1.338881   -0.151540    1.560415
  C     -0.621423    0.667322   -0.291230
  H     -0.508761    0.341906   -1.335602
  C      0.711329    1.268369    0.169939
  H      0.624451    1.508906    1.245870
  C      1.831513    0.232401   -0.024654
  H      2.272257    0.383678   -1.013680
  C      1.260498   -1.205742    0.032580
  H      2.028956   -1.858360    0.475562
  O      0.171660   -1.325446    0.916444
  O      0.935537   -1.614451   -1.259808
  O      2.876996    0.385354    0.891484
  O      1.018416    2.424500   -0.554470
  O     -1.611606    1.664825   -0.194217
  O     -3.276974   -0.670600   -0.159709
  H     -2.200264   -2.312121    0.525634
  H     -1.783176   -1.649220   -1.074707
  H      0.699602   -2.550175   -1.250122
  H      2.519847    0.360808    1.787815
  H      0.208402    2.949130   -0.608204
  H     -2.449590    1.266535   -0.471573
  H     -3.642746   -0.537789    0.722665

 Total Charge           Charge          ....    0
 Multiplicity           Mult            ....    1
 Number of Electrons    NEL             ....   96
 Basis Dimension        Dim             ....  192

ORBITAL ENERGIES
----------------

  NO   OCC          E(Eh)            E(eV)
   0   2.0000     -18.780245      -511.0365
   1   2.0000     -18.777112      -510.9512
   2   2.0000     -18.770589      -510.7737
   3   2.0000     -18.753791      -510.3166
   4   2.0000     -18.746538      -510.1192
   5   2.0000     -18.739020      -509.9147
   6   2.0000      -9.986716      -271.7523
   7   2.0000      -9.949334      -270.7351
   8   2.0000      -9.945655      -270.6350
   9   2.0000      -9.939719      -270.4735
  10   2.0000      -9.938899      -270.4512
  11   2.0000      -9.936877      -270.3962
  12   2.0000      -0.988704       -26.9040
  13   2.0000      -0.955782       -26.0081
  14   2.0000      -0.940185       -25.5837
  15   2.0000      -0.928289       -25.2600
  16   2.0000      -0.920224       -25.0406
  17   2.0000      -0.910398       -24.7732
  18   2.0000      -0.705767       -19.2049
  19   2.0000      -0.692435       -18.8421
  20   2.0000      -0.626486       -17.0476
  21   2.0000      -0.585442       -15.9307
  22   2.0000      -0.572170       -15.5695
  23   2.0000      -0.519486       -14.1359
  24   2.0000      -0.506767       -13.7898
  25   2.0000      -0.497940       -13.5496
  26   2.0000      -0.484103       -13.1731
  27   2.0000      -0.469995       -12.7892
  28   2.0000      -0.445942       -12.1347
  29   2.0000      -0.427672       -11.6376
  30   2.0000      -0.409405       -11.1405
  31   2.0000      -0.397797       -10.8246
  32   2.0000      -0.388345       -10.5674
  33   2.0000      -0.381944       -10.3932
  34   2.0000      -0.371399       -10.1063
  35   2.0000      -0.357434        -9.7263
  36   2.0000      -0.330679        -8.9982
  37   2.0000      -0.319867        -8.7040
  38   2.0000      -0.308876        -8.4049
  39   2.0000      -0.299103        -8.1390
  40   2.0000      -0.289937        -7.8896
  41   2.0000      -0.269846        -7.3429
  42   2.0000      -0.264654        -7.2016
  43   2.0000      -0.251306        -6.8384
  44   2.0000      -0.231336        -6.2950
  45   2.0000      -0.221919        -6.0387
  46   2.0000      -0.217087        -5.9072
  47   2.0000      -0.203649        -5.5416
  48   0.0000       0.004213         0.1146
  49   0.0000       0.018739         0.5099
  50   0.0000       0.028602         0.7783
  51   0.0000       0.049140         1.3372
  52   0.0000       0.061859         1.6833

MULLIKEN ATOMIC CHARGES
-----------------------
   0 C :    0.058320
   1 C :    0.016728
   2 H :    0.058035
   3 C :    0.003598
   4 H :    0.076768
   5 C :    0.075614
   6 H :    0.031264
   7 C :    0.119494
   8 H :    0.088113
   9 C :    0.112675
  10 H :    0.069555
  11 O :   -0.315618
  12 O :   -0.386633
  13 O :   -0.413172
  14 O :   -0.408146
  15 O :   -0.433078
  16 O :   -0.434367
  17 H :    0.088505
  18 H :    0.083213
  19 H :    0.304921
  20 H :    0.294120
  21 H :    0.304434
  22 H :    0.299101
  23 H :    0.306555
Sum of atomic charges:   -0.0000000

LOEWDIN ATOMIC CHARGES
----------------------
   0 C :   -0.136361
   1 C :   -0.081929
   2 H :    0.106711
   3 C :   -0.087827
   4 H :    0.111680
   5 C :   -0.063146
   6 H :    0.096089
   7 C :   -0.070236
   8 H :    0.132269
   9 C :   -0.014197
  10 H :    0.100359
  11 O :   -0.149833
  12 O :   -0.305245
  13 O :   -0.304332
  14 O :   -0.313014
  15 O :   -0.329819
  16 O :   -0.321436
  17 H :    0.101906
  18 H :    0.114378
  19 H :    0.286232
  20 H :    0.280524
  21 H :    0.283723
  22 H :    0.273975
  23 H :    0.289528

  Mayer bond orders larger than 0.100000
B(  0-C ,  1-C ) :   1.0414 B(  0-C , 16-O ) :   1.0302 B(  0-C , 17-H ) :   0.9224
B(  0-C , 18-H ) :   0.9104 B(  1-C ,  2-H ) :   0.8850 B(  1-C ,  3-C ) :   0.9586
B(  1-C , 11-O ) :   0.9762 B(  3-C ,  4-H ) :   0.8756 B(  3-C ,  5-C ) :   1.0595
B(  3-C , 15-O ) :   1.0655 B(  5-C ,  6-H ) :   0.8509 B(  5-C ,  7-C ) :   1.0209
B(  5-C , 14-O ) :   1.1104 B(  7-C ,  8-H ) :   0.8602 B(  7-C ,  9-C ) :   0.9936
B(  7-C , 13-O ) :   1.0447 B(  9-C , 10-H ) :   0.8993 B(  9-C , 11-O ) :   1.0570
B(  9-C , 12-O ) :   1.0964 B( 12-O , 19-H ) :   0.8356 B( 13-O , 20-H ) :   0.8508
B( 14-O , 21-H ) :   0.8323 B( 15-O , 22-H ) :   0.8093 B( 16-O , 22-H ) :   0.1044
B( 16-O , 23-H ) :   0.8434

Dispersion correction           -0.024709179
FINAL SINGLE POINT ENERGY      -685.694230412314

DIPOLE MOMENT
-------------

Method             : SCF
Type of density    : Electron Density
Multiplicity       :   1
Irrep              :   0
Energy             :  -685.8261258896435493 Eh
Relativity type    :
Basis              : AO
                                X                 Y                 Z
Electronic contribution:      2.117999008       1.084874647       0.147405786
Nuclear contribution   :     -3.347486739      -2.096429468       0.523859297
                        -----------------------------------------
Total Dipole Moment    :     -1.229487730      -1.011554821       0.671265083
                        -----------------------------------------
Magnitude (a.u.)       :      1.727854174
Magnitude (Debye)      :      4.391856285

Rotational constants in cm-1:             0.044264             0.026062             0.019228
Rotational constants in MHz :          1327.015461           781.319389           576.436003

                             ****ORCA TERMINATED NORMALLY****
TOTAL RUN TIME: 0 days 0 hours 16 minutes 21 seconds 823 msec
