                         Program Version 6.0.1  -  RELEASE   -
|  1> ! r2scan-3c def2/J RI DEFGRID2 scfconv6 printgap
|  2> %output
|  3>     printlevel normal
|  4> end
|  5> * xyz 0 1
|  6> C -1.8542341906 -0.8395115116 0.4628601333
|  7> S -0.8933902651 0.4119168516 -0.4718041393
|  8> S 0.8988503087 0.4177299061 0.4718885886
|  9> C 1.8412984606 -0.8360390683 -0.4645815568
| 10> H -1.2123311821 -1.2789662063 1.2178035042
| 11> H -2.1986663092 -1.5966339184 -0.2340026948
| 12> H -2.6991179786 -0.3448579359 0.9301555698
| 13> H 2.8361952659 -0.8509210921 -0.0331627512
| 14> H 1.8852645146 -0.5439106875 -1.5083986125
| 15> H 1.3691319816 -1.8074078853 -0.3545672829
| 16> *
| 17>
| 18>                          ****END OF INPUT****

CARTESIAN COORDINATES (ANGSTROEM)
---------------------------------
  C     -1.854234   -0.839512    0.462860
  S     -0.893390    0.411917   -0.471804
  S      0.898850    0.417730    0.471889
  C      1.841298   -0.836039   -0.464582
  H     -1.212331   -1.278966    1.217804
  H     -2.198666   -1.596634   -0.234003
  H     -2.699118   -0.344858    0.930156
  H      2.836195   -0.850921   -0.033163
  H      1.885265   -0.543911   -1.508399
  H      1.369132   -1.807408   -0.354567

 Total Charge           Charge          ....    0
 Multiplicity           Mult            ....    1
 Number of Electrons    NEL             ....   50
 Basis Dimension        Dim             ....  122

ORBITAL ENERGIES
----------------

  NO   OCC          E(Eh)            E(eV)
   0   2.0000     -88.576595     -2410.2917
   1   2.0000     -88.575923     -2410.2734
   2   2.0000     -10.058453      -273.7044
   3   2.0000     -10.057877      -273.6888
   4   2.0000      -7.868463      -214.1118
   5   2.0000      -7.867856      -214.0952
   6   2.0000      -5.816717      -158.2809
   7   2.0000      -5.816131      -158.2650
   8   2.0000      -5.812057      -158.1541
   9   2.0000      -5.811455      -158.1377
  10   2.0000      -5.804855      -157.9581
  11   2.0000      -5.804137      -157.9386
  12   2.0000      -0.787652       -21.4331
  13   2.0000      -0.719587       -19.5810
  14   2.0000      -0.642466       -17.4824
  15   2.0000      -0.549492       -14.9524
  16   2.0000      -0.422082       -11.4854
  17   2.0000      -0.408313       -11.1108
  18   2.0000      -0.405413       -11.0319
  19   2.0000      -0.393267       -10.7013
  20   2.0000      -0.371473       -10.1083
  21   2.0000      -0.334177        -9.0934
  22   2.0000      -0.296267        -8.0618
  23   2.0000      -0.212919        -5.7938
  24   2.0000      -0.211725        -5.7613
  25   0.0000      -0.034621        -0.9421
  26   0.0000       0.019378         0.5273
  27   0.0000       0.024053         0.6545
  28   0.0000       0.081667         2.2223
  29   0.0000       0.136516         3.7148

MULLIKEN ATOMIC CHARGES
-----------------------
   0 C :   -0.386051
   1 S :   -0.104495
   2 S :   -0.111472
   3 C :   -0.368833
   4 H :    0.172398
   5 H :    0.157872
   6 H :    0.163737
   7 H :    0.150334
   8 H :    0.169280
   9 H :    0.157230
Sum of atomic charges:   -0.0000000

LOEWDIN ATOMIC CHARGES
----------------------
   0 C :   -0.473032
   1 S :   -0.003402
   2 S :   -0.017828
   3 C :   -0.471406
   4 H :    0.168781
   5 H :    0.157029
   6 H :    0.159645
   7 H :    0.163518
   8 H :    0.161333
   9 H :    0.155361

  Mayer bond orders larger than 0.100000
B(  0-C ,  1-S ) :   0.8965 B(  0-C ,  4-H ) :   0.9536 B(  0-C ,  5-H ) :   0.9517
B(  0-C ,  6-H ) :   0.9551 B(  1-S ,  2-S ) :   1.1980 B(  2-S ,  3-C ) :   0.9135
B(  3-C ,  7-H ) :   0.9458 B(  3-C ,  8-H ) :   0.9571 B(  3-C ,  9-H ) :   0.9546

Dispersion correction           -0.002443508
FINAL SINGLE POINT ENERGY      -876.132586294999

DIPOLE MOMENT
-------------

Method             : SCF
Type of density    : Electron Density
Multiplicity       :   1
Irrep              :   0
Energy             :  -876.1402826531500523 Eh
Relativity type    :
Basis              : AO
                                X                 Y                 Z
Electronic contribution:      0.022174588       5.217657741      -0.001885841
Nuclear contribution   :     -0.018474631      -6.049603209       0.016723008
                        -----------------------------------------
Total Dipole Moment    :      0.003699957      -0.831945468       0.014837167
                        -----------------------------------------
Magnitude (a.u.)       :      0.832085989
Magnitude (Debye)      :      2.114994503

Rotational constants in cm-1:             0.277104             0.091086             0.085423
Rotational constants in MHz :          8307.372832          2730.693668          2560.923465

                             ****ORCA TERMINATED NORMALLY****
TOTAL RUN TIME: 0 days 0 hours 0 minutes 14 seconds 834 msec
