                         Program Version 6.0.1  -  RELEASE   -
|  1> ! pbe def2-sv(p) def2/J RI DEFGRID1 loosescf d4 GCP(DFT/SV(P)) printgap
|  2> %output
|  3>     printlevel normal
|  4> end
|  5> * xyz 0 1
|  6> C -2.8179858151 1.3675991441 0.1970432063
|  7> C -2.3705158331 -0.0392678665 -0.1836913853
|  8> C -0.8893702914 -0.2890380457 -0.0682573767
|  9> C -0.4362553531 -1.5951321347 0.1023424494
| 10> C 0.9144970283 -1.86818014 0.191008385
| 11> C 1.842609304 -0.8444942576 0.1142984337
| 12> C 1.4030292976 0.4605303602 -0.0560969577
| 13> C 0.0418732181 0.732323909 -0.1485492154
| 14> O 2.268086404 1.5108313667 -0.1392123769
| 15> H -3.9045807705 1.4171302539 0.2136369065
| 16> H -2.4602028833 2.1025112979 -0.5192428779
| 17> H -2.4457011231 1.6319524935 1.184142795
| 18> H -2.6733709488 -0.2433524288 -1.2162254059
| 19> H -2.8902026055 -0.7629971811 0.4495328987
| 20> H -1.1515318372 -2.4022871661 0.1657797798
| 21> H 1.2528631541 -2.8852924665 0.3239435382
| 22> H 2.9016031428 -1.055623815 0.1867529417
| 23> H -0.253988797 1.7593480194 -0.2826823885
| 24> H 3.1747039246 1.1910122775 -0.0606387247
| 25> *
| 26>
| 27>                          ****END OF INPUT****

CARTESIAN COORDINATES (ANGSTROEM)
---------------------------------
  C     -2.817986    1.367599    0.197043
  C     -2.370516   -0.039268   -0.183691
  C     -0.889370   -0.289038   -0.068257
  C     -0.436255   -1.595132    0.102342
  C      0.914497   -1.868180    0.191008
  C      1.842609   -0.844494    0.114298
  C      1.403029    0.460530   -0.056097
  C      0.041873    0.732324   -0.148549
  O      2.268086    1.510831   -0.139212
  H     -3.904581    1.417130    0.213637
  H     -2.460203    2.102511   -0.519243
  H     -2.445701    1.631952    1.184143
  H     -2.673371   -0.243352   -1.216225
  H     -2.890203   -0.762997    0.449533
  H     -1.151532   -2.402287    0.165780
  H      1.252863   -2.885292    0.323944
  H      2.901603   -1.055624    0.186753
  H     -0.253989    1.759348   -0.282682
  H      3.174704    1.191012   -0.060639

 Total Charge           Charge          ....    0
 Multiplicity           Mult            ....    1
 Number of Electrons    NEL             ....   66
 Basis Dimension        Dim             ....  146

ORBITAL ENERGIES
----------------

  NO   OCC          E(Eh)            E(eV)
   0   2.0000     -18.777089      -510.9506
   1   2.0000      -9.947363      -270.6815
   2   2.0000      -9.898259      -269.3453
   3   2.0000      -9.889791      -269.1149
   4   2.0000      -9.889666      -269.1115
   5   2.0000      -9.885803      -269.0064
   6   2.0000      -9.879755      -268.8418
   7   2.0000      -9.878526      -268.8084
   8   2.0000      -9.875964      -268.7386
   9   2.0000      -0.959837       -26.1185
  10   2.0000      -0.771891       -21.0042
  11   2.0000      -0.707047       -19.2397
  12   2.0000      -0.662803       -18.0358
  13   2.0000      -0.646051       -17.5799
  14   2.0000      -0.572434       -15.5767
  15   2.0000      -0.548872       -14.9356
  16   2.0000      -0.525416       -14.2973
  17   2.0000      -0.471562       -12.8319
  18   2.0000      -0.442531       -12.0419
  19   2.0000      -0.421009       -11.4562
  20   2.0000      -0.403104       -10.9690
  21   2.0000      -0.383235       -10.4284
  22   2.0000      -0.378186       -10.2910
  23   2.0000      -0.358490        -9.7550
  24   2.0000      -0.345578        -9.4037
  25   2.0000      -0.330256        -8.9867
  26   2.0000      -0.320849        -8.7308
  27   2.0000      -0.309716        -8.4278
  28   2.0000      -0.300026        -8.1641
  29   2.0000      -0.285170        -7.7599
  30   2.0000      -0.282381        -7.6840
  31   2.0000      -0.219058        -5.9609
  32   2.0000      -0.190576        -5.1858
  33   0.0000      -0.028585        -0.7778
  34   0.0000      -0.015698        -0.4272
  35   0.0000       0.026135         0.7112
  36   0.0000       0.047708         1.2982
  37   0.0000       0.059968         1.6318

MULLIKEN ATOMIC CHARGES
-----------------------
   0 C :   -0.280872
   1 C :   -0.144501
   2 C :    0.080741
   3 C :   -0.118267
   4 C :   -0.050657
   5 C :   -0.168710
   6 C :    0.255910
   7 C :   -0.211691
   8 O :   -0.334508
   9 H :    0.103145
  10 H :    0.113678
  11 H :    0.109035
  12 H :    0.106246
  13 H :    0.090441
  14 H :    0.031226
  15 H :    0.048610
  16 H :    0.024708
  17 H :    0.031183
  18 H :    0.314285
Sum of atomic charges:   -0.0000000

LOEWDIN ATOMIC CHARGES
----------------------
   0 C :   -0.340156
   1 C :   -0.218654
   2 C :   -0.031905
   3 C :   -0.149397
   4 C :   -0.114513
   5 C :   -0.184569
   6 C :    0.025583
   7 C :   -0.153279
   8 O :   -0.238113
   9 H :    0.121450
  10 H :    0.119872
  11 H :    0.122331
  12 H :    0.132020
  13 H :    0.124078
  14 H :    0.119032
  15 H :    0.122928
  16 H :    0.118134
  17 H :    0.129019
  18 H :    0.296140

  Mayer bond orders larger than 0.100000
B(  0-C ,  1-C ) :   1.1785 B(  0-C ,  9-H ) :   0.9481 B(  0-C , 10-H ) :   0.9394
B(  0-C , 11-H ) :   0.9558 B(  1-C ,  2-C ) :   1.0587 B(  1-C , 12-H ) :   0.8987
B(  1-C , 13-H ) :   0.9142 B(  2-C ,  3-C ) :   1.3714 B(  2-C ,  7-C ) :   1.3837
B(  3-C ,  4-C ) :   1.3824 B(  3-C , 14-H ) :   0.9655 B(  4-C ,  5-C ) :   1.3552
B(  4-C , 15-H ) :   0.9595 B(  5-C ,  6-C ) :   1.3291 B(  5-C , 16-H ) :   0.9568
B(  6-C ,  7-C ) :   1.3220 B(  6-C ,  8-O ) :   1.1889 B(  7-C , 17-H ) :   0.9598
B(  8-O , 18-H ) :   0.8445

Dispersion correction           -0.018635578
FINAL SINGLE POINT ENERGY      -385.234858048361

DIPOLE MOMENT
-------------

Method             : SCF
Type of density    : Electron Density
Multiplicity       :   1
Irrep              :   0
Energy             :  -385.2945337693579404 Eh
Relativity type    :
Basis              : AO
                                X                 Y                 Z
Electronic contribution:      8.195589366      -0.951791202      -0.395265295
Nuclear contribution   :     -7.894296009       0.728269972       0.415421442
                        -----------------------------------------
Total Dipole Moment    :      0.301293357      -0.223521230       0.020156147
                        -----------------------------------------
Magnitude (a.u.)       :      0.375693622
Magnitude (Debye)      :      0.954937297

Rotational constants in cm-1:             0.091940             0.041740             0.029240
Rotational constants in MHz :          2756.289362          1251.337528           876.585952

                             ****ORCA TERMINATED NORMALLY****
TOTAL RUN TIME: 0 days 0 hours 0 minutes 7 seconds 918 msec
