                         Program Version 6.0.0  -   RELEASE  -
|  1> ! r2SCAN-3c DEF2-TZVP FREQ
|  2> * xyzfile 0 1 censo.xyz
|  3>
|  4>                          ****END OF INPUT****

CARTESIAN COORDINATES (ANGSTROEM)
---------------------------------
  C      3.506679    0.697030   -0.559952
  C      3.506490   -0.695942   -0.561107
  C      2.375016   -1.390183   -0.137402
  C      1.243458   -0.700756    0.296397
  C      1.243435    0.701100    0.296951
  C      2.375226    1.390904   -0.135556
  C     -0.000201    1.411000    0.769624
  C     -1.243467    0.700734    0.296488
  C     -2.375076    1.390165   -0.137171
  C     -3.506540    0.695929   -0.560916
  C     -3.506668   -0.697045   -0.559959
  C     -2.375187   -1.390923   -0.135654
  C     -1.243422   -0.701121    0.296925
  C      0.000215   -1.411016    0.769585
  H      4.382985    1.243325   -0.894875
  H      4.382561   -1.241938   -0.897189
  H      2.368331   -2.476910   -0.145347
  H      2.368743    2.477643   -0.141942
  H     -0.000508    1.417665    1.871335
  H     -0.000268    2.455804    0.448162
  H     -2.368440    2.476894   -0.144990
  H     -4.382653    1.241930   -0.896878
  H     -4.382955   -1.243334   -0.894948
  H     -2.368653   -2.477660   -0.142169
  H      0.000554   -1.417585    1.871301
  H      0.000274   -2.455845    0.448202

 Total Charge           Charge          ....    0
 Multiplicity           Mult            ....    1
 Number of Electrons    NEL             ....   96
 Basis Dimension        Dim             ....  506

ORBITAL ENERGIES
----------------

  NO   OCC          E(Eh)            E(eV)
   0   2.0000     -10.044424      -273.3227
   1   2.0000     -10.044416      -273.3225
   2   2.0000     -10.044049      -273.3125
   3   2.0000     -10.044031      -273.3120
   4   2.0000     -10.043402      -273.2949
   5   2.0000     -10.043401      -273.2948
   6   2.0000     -10.034075      -273.0411
   7   2.0000     -10.034075      -273.0411
   8   2.0000     -10.034067      -273.0408
   9   2.0000     -10.034065      -273.0408
  10   2.0000     -10.033300      -273.0200
  11   2.0000     -10.033299      -273.0200
  12   2.0000     -10.032891      -273.0088
  13   2.0000     -10.032891      -273.0088
  14   2.0000      -0.845138       -22.9974
  15   2.0000      -0.816447       -22.2167
  16   2.0000      -0.764137       -20.7932
  17   2.0000      -0.747775       -20.3480
  18   2.0000      -0.712335       -19.3836
  19   2.0000      -0.704696       -19.1757
  20   2.0000      -0.669513       -18.2184
  21   2.0000      -0.628082       -17.0910
  22   2.0000      -0.574745       -15.6396
  23   2.0000      -0.568556       -15.4712
  24   2.0000      -0.560227       -15.2445
  25   2.0000      -0.521622       -14.1941
  26   2.0000      -0.480470       -13.0742
  27   2.0000      -0.470019       -12.7899
  28   2.0000      -0.445039       -12.1101
  29   2.0000      -0.419769       -11.4225
  30   2.0000      -0.415903       -11.3173
  31   2.0000      -0.412930       -11.2364
  32   2.0000      -0.411881       -11.2079
  33   2.0000      -0.389742       -10.6054
  34   2.0000      -0.384478       -10.4622
  35   2.0000      -0.371719       -10.1150
  36   2.0000      -0.368265       -10.0210
  37   2.0000      -0.358751        -9.7621
  38   2.0000      -0.335776        -9.1369
  39   2.0000      -0.331688        -9.0257
  40   2.0000      -0.321724        -8.7545
  41   2.0000      -0.312591        -8.5060
  42   2.0000      -0.297718        -8.1013
  43   2.0000      -0.295858        -8.0507
  44   2.0000      -0.233304        -6.3485
  45   2.0000      -0.228851        -6.2274
  46   2.0000      -0.223941        -6.0938
  47   2.0000      -0.221622        -6.0306
  48   0.0000      -0.040237        -1.0949
  49   0.0000      -0.032093        -0.8733
  50   0.0000      -0.025902        -0.7048
  51   0.0000      -0.023868        -0.6495
  52   0.0000       0.049292         1.3413

MULLIKEN ATOMIC CHARGES
-----------------------
   0 C :   -0.106379
   1 C :   -0.106297
   2 C :   -0.199279
   3 C :    0.078848
   4 C :    0.078557
   5 C :   -0.199210
   6 C :   -0.140141
   7 C :    0.078819
   8 C :   -0.199275
   9 C :   -0.106310
  10 C :   -0.106372
  11 C :   -0.199205
  12 C :    0.078584
  13 C :   -0.140124
  14 H :    0.106487
  15 H :    0.106490
  16 H :    0.096724
  17 H :    0.096735
  18 H :    0.084344
  19 H :    0.103116
  20 H :    0.096725
  21 H :    0.106491
  22 H :    0.106488
  23 H :    0.096735
  24 H :    0.084335
  25 H :    0.103115
Sum of atomic charges:   -0.0000000

LOEWDIN ATOMIC CHARGES
----------------------
   0 C :   -0.143976
   1 C :   -0.143982
   2 C :   -0.114054
   3 C :   -0.105569
   4 C :   -0.105593
   5 C :   -0.114056
   6 C :   -0.153149
   7 C :   -0.105568
   8 C :   -0.114053
   9 C :   -0.143982
  10 C :   -0.143976
  11 C :   -0.114057
  12 C :   -0.105595
  13 C :   -0.153150
  14 H :    0.142044
  15 H :    0.142048
  16 H :    0.144270
  17 H :    0.144273
  18 H :    0.159552
  19 H :    0.148193
  20 H :    0.144270
  21 H :    0.142048
  22 H :    0.142044
  23 H :    0.144273
  24 H :    0.159555
  25 H :    0.148190

  Mayer bond orders larger than 0.100000
B(  0-C ,  1-C ) :   1.3855 B(  0-C ,  5-C ) :   1.3976 B(  0-C , 14-H ) :   0.9712
B(  1-C ,  2-C ) :   1.3976 B(  1-C , 15-H ) :   0.9712 B(  2-C ,  3-C ) :   1.3393
B(  2-C , 16-H ) :   0.9820 B(  3-C ,  4-C ) :   1.2919 B(  3-C , 13-C ) :   1.0166
B(  4-C ,  5-C ) :   1.3393 B(  4-C ,  6-C ) :   1.0168 B(  5-C , 17-H ) :   0.9820
B(  6-C ,  7-C ) :   1.0166 B(  6-C , 18-H ) :   0.8751 B(  6-C , 19-H ) :   0.9563
B(  7-C ,  8-C ) :   1.3393 B(  7-C , 12-C ) :   1.2919 B(  8-C ,  9-C ) :   1.3976
B(  8-C , 20-H ) :   0.9820 B(  9-C , 10-C ) :   1.3855 B(  9-C , 21-H ) :   0.9712
B( 10-C , 11-C ) :   1.3976 B( 10-C , 22-H ) :   0.9712 B( 11-C , 12-C ) :   1.3393
B( 11-C , 23-H ) :   0.9820 B( 12-C , 13-C ) :   1.0168 B( 13-C , 24-H ) :   0.8751
B( 13-C , 25-H ) :   0.9563

Dispersion correction           -0.011317985
FINAL SINGLE POINT ENERGY      -540.629473355194

DIPOLE MOMENT
-------------

Method             : SCF
Type of density    : Electron Density
Multiplicity       :   1
Irrep              :   0
Energy             :  -540.6242054674553401 Eh
Relativity type    :
Basis              : AO
                                X                 Y                 Z
Electronic contribution:     -0.000005478      -0.000068930      -0.315806115
Nuclear contribution   :      0.000005941       0.000081483       0.467007303
                        -----------------------------------------
Total Dipole Moment    :      0.000000463       0.000012553       0.151201187
                        -----------------------------------------
Magnitude (a.u.)       :      0.151201188
Magnitude (Debye)      :      0.384322877

VIBRATIONAL FREQUENCIES
-----------------------

Scaling factor for frequencies =  1.000000000  (already applied!)

     0:       0.00 cm**-1
     1:       0.00 cm**-1
     2:       0.00 cm**-1
     3:       0.00 cm**-1
     4:       0.00 cm**-1
     5:       0.00 cm**-1
     6:      58.71 cm**-1
     7:     125.88 cm**-1
     8:     172.11 cm**-1
     9:     223.34 cm**-1
    10:     267.83 cm**-1
    11:     309.94 cm**-1
    12:     360.81 cm**-1
    13:     383.59 cm**-1
    14:     437.69 cm**-1
    15:     448.45 cm**-1
    16:     502.85 cm**-1
    17:     522.24 cm**-1
    18:     533.85 cm**-1
    19:     620.20 cm**-1
    20:     620.37 cm**-1
    21:     647.80 cm**-1
    22:     737.48 cm**-1
    23:     739.36 cm**-1
    24:     740.94 cm**-1
    25:     748.91 cm**-1
    26:     771.76 cm**-1
    27:     787.06 cm**-1
    28:     851.95 cm**-1
    29:     868.68 cm**-1
    30:     876.80 cm**-1
    31:     899.86 cm**-1
    32:     903.42 cm**-1
    33:     931.15 cm**-1
    34:     955.75 cm**-1
    35:     965.07 cm**-1
    36:     965.07 cm**-1
    37:     970.20 cm**-1
    38:    1054.78 cm**-1
    39:    1055.65 cm**-1
    40:    1104.15 cm**-1
    41:    1142.15 cm**-1
    42:    1169.87 cm**-1
    43:    1181.40 cm**-1
    44:    1181.74 cm**-1
    45:    1185.08 cm**-1
    46:    1198.73 cm**-1
    47:    1201.97 cm**-1
    48:    1224.10 cm**-1
    49:    1232.21 cm**-1
    50:    1255.80 cm**-1
    51:    1283.64 cm**-1
    52:    1305.80 cm**-1
    53:    1344.86 cm**-1
    54:    1358.93 cm**-1
    55:    1361.41 cm**-1
    56:    1451.19 cm**-1
    57:    1455.99 cm**-1
    58:    1478.96 cm**-1
    59:    1484.70 cm**-1
    60:    1501.97 cm**-1
    61:    1518.04 cm**-1
    62:    1604.39 cm**-1
    63:    1617.16 cm**-1
    64:    1623.76 cm**-1
    65:    1634.00 cm**-1
    66:    2959.01 cm**-1
    67:    2967.22 cm**-1
    68:    3074.09 cm**-1
    69:    3074.99 cm**-1
    70:    3146.59 cm**-1
    71:    3146.60 cm**-1
    72:    3150.36 cm**-1
    73:    3150.63 cm**-1
    74:    3163.66 cm**-1
    75:    3163.69 cm**-1
    76:    3178.01 cm**-1
    77:    3178.14 cm**-1

IR SPECTRUM
-----------

 Mode   freq       eps      Int      T**2         TX        TY        TZ
       cm**-1   L/(mol*cm) km/mol    a.u.
----------------------------------------------------------------------------
  6:     58.71   0.000018    0.09  0.000097  (-0.000000 -0.000001 -0.009865)
  7:    125.88   0.000000    0.00  0.000000  (-0.000001  0.000000 -0.000012)
  8:    172.11   0.000024    0.12  0.000043  ( 0.000003 -0.006593  0.000003)
  9:    223.34   0.000288    1.46  0.000402  ( 0.020060 -0.000030  0.000000)
 10:    267.83   0.001091    5.52  0.001272  ( 0.000000 -0.000006  0.035661)
 11:    309.94   0.000089    0.45  0.000090  (-0.000001  0.009480  0.000011)
 12:    360.81   0.000033    0.17  0.000028  ( 0.000000 -0.000002  0.005315)
 13:    383.59   0.000000    0.00  0.000000  ( 0.000000 -0.000000  0.000030)
 14:    437.69   0.000181    0.91  0.000129  ( 0.011358  0.000014  0.000000)
 15:    448.45   0.001123    5.67  0.000781  ( 0.000000  0.000000  0.027950)
 16:    502.85   0.000096    0.49  0.000060  (-0.000006 -0.007733  0.000000)
 17:    522.24   0.000000    0.00  0.000000  (-0.000002  0.000000  0.000011)
 18:    533.85   0.000000    0.00  0.000000  ( 0.000000  0.000000 -0.000022)
 19:    620.20   0.000675    3.41  0.000340  ( 0.018426 -0.000003  0.000003)
 20:    620.37   0.003371   17.03  0.001696  (-0.000001 -0.000002  0.041178)
 21:    647.80   0.000145    0.73  0.000070  (-0.000036 -0.008365  0.000006)
 22:    737.48   0.012099   61.14  0.005119  (-0.000003  0.000014 -0.071551)
 23:    739.36   0.000095    0.48  0.000040  (-0.000087  0.006331  0.000091)
 24:    740.94   0.000000    0.00  0.000000  (-0.000005 -0.000001  0.000095)
 25:    748.91   0.002805   14.18  0.001169  (-0.034191  0.000074  0.000004)
 26:    771.76   0.005571   28.16  0.002253  ( 0.000000 -0.000003  0.047464)
 27:    787.06   0.000018    0.09  0.000007  (-0.002692  0.000004 -0.000001)
 28:    851.95   0.000000    0.00  0.000000  (-0.000047  0.000216 -0.000001)
 29:    868.68   0.000000    0.00  0.000000  (-0.000002 -0.000000 -0.000015)
 30:    876.80   0.000000    0.00  0.000000  (-0.000001  0.000000  0.000000)
 31:    899.86   0.000413    2.09  0.000143  (-0.000001  0.000002 -0.011974)
 32:    903.42   0.000003    0.02  0.000001  (-0.000004  0.001045 -0.000008)
 33:    931.15   0.000036    0.18  0.000012  ( 0.003489  0.000009  0.000001)
 34:    955.75   0.001132    5.72  0.000370  (-0.000000 -0.000001  0.019228)
 35:    965.07   0.000000    0.00  0.000000  (-0.000002 -0.000211 -0.000001)
 36:    965.07   0.000008    0.04  0.000003  (-0.000011 -0.001626  0.000000)
 37:    970.20   0.000357    1.80  0.000115  (-0.000023 -0.010717  0.000000)
 38:   1054.78   0.000253    1.28  0.000075  ( 0.000008 -0.000000  0.008657)
 39:   1055.65   0.001394    7.05  0.000412  (-0.020303 -0.000002  0.000004)
 40:   1104.15   0.000000    0.00  0.000000  (-0.000002 -0.000000 -0.000016)
 41:   1142.15   0.000982    4.96  0.000268  ( 0.000007  0.016384  0.000002)
 42:   1169.87   0.000730    3.69  0.000195  (-0.013952 -0.000001  0.000000)
 43:   1181.40   0.000002    0.01  0.000000  (-0.000001 -0.000001  0.000652)
 44:   1181.74   0.000019    0.09  0.000005  (-0.002221 -0.000004 -0.000000)
 45:   1185.08   0.000000    0.00  0.000000  ( 0.000004  0.000000  0.000007)
 46:   1198.73   0.000000    0.00  0.000000  ( 0.000002  0.000001  0.000014)
 47:   1201.97   0.000532    2.69  0.000138  (-0.000002  0.011750  0.000001)
 48:   1224.10   0.003015   15.23  0.000769  ( 0.027722  0.000010 -0.000000)
 49:   1232.21   0.000005    0.02  0.000001  (-0.000000 -0.000002 -0.001071)
 50:   1255.80   0.000000    0.00  0.000000  (-0.000010  0.000000 -0.000009)
 51:   1283.64   0.001156    5.84  0.000281  ( 0.016763  0.000003 -0.000000)
 52:   1305.80   0.000450    2.27  0.000108  (-0.000004 -0.010370  0.000000)
 53:   1344.86   0.000002    0.01  0.000000  ( 0.000000  0.000002  0.000650)
 54:   1358.93   0.000000    0.00  0.000000  (-0.000003 -0.000000  0.000006)
 55:   1361.41   0.000047    0.24  0.000011  (-0.003298  0.000007 -0.000000)
 56:   1451.19   0.001290    6.52  0.000277  ( 0.000020 -0.016655 -0.000016)
 57:   1455.99   0.001008    5.09  0.000216  (-0.000000  0.000017 -0.014698)
 58:   1478.96   0.002314   11.69  0.000488  (-0.000008 -0.022097 -0.000001)
 59:   1484.70   0.000000    0.00  0.000000  ( 0.000006 -0.000001  0.000004)
 60:   1501.97   0.008828   44.61  0.001834  (-0.042828 -0.000000  0.000001)
 61:   1518.04   0.000351    1.77  0.000072  ( 0.000001  0.000000  0.008492)
 62:   1604.39   0.000717    3.62  0.000139  ( 0.011808 -0.000001 -0.000000)
 63:   1617.16   0.000011    0.06  0.000002  ( 0.000000  0.000000 -0.001484)
 64:   1623.76   0.000000    0.00  0.000000  (-0.000001 -0.000000  0.000017)
 65:   1634.00   0.000049    0.25  0.000009  (-0.000008  0.003066 -0.000002)
 66:   2959.01   0.005849   29.56  0.000617  ( 0.000000 -0.000035  0.024836)
 67:   2967.22   0.002174   10.99  0.000229  (-0.000015  0.015120  0.000059)
 68:   3074.09   0.006137   31.01  0.000623  (-0.000005 -0.024959 -0.000002)
 69:   3074.99   0.000089    0.45  0.000009  ( 0.000000 -0.000026  0.003005)
 70:   3146.59   0.000032    0.16  0.000003  ( 0.000002  0.001788  0.000015)
 71:   3146.60   0.003420   17.28  0.000339  ( 0.000057  0.018416 -0.000002)
 72:   3150.36   0.000393    1.99  0.000039  (-0.006240  0.000106 -0.000017)
 73:   3150.63   0.000147    0.74  0.000015  ( 0.000027 -0.000007 -0.003817)
 74:   3163.66   0.000025    0.13  0.000002  (-0.000002 -0.001575  0.000048)
 75:   3163.69   0.009510   48.06  0.000938  ( 0.000108 -0.030627 -0.000006)
 76:   3178.01   0.009375   47.38  0.000921  (-0.030341 -0.000103 -0.000114)
 77:   3178.14   0.000697    3.52  0.000068  ( 0.000421  0.000009 -0.008260)

--------------------------
THERMOCHEMISTRY AT 298.15K
--------------------------

Temperature         ...   298.15 K
Pressure            ...     1.00 atm
Total Mass          ...   180.25 AMU
Quasi RRHO          ...     True
Cut-Off Frequency   ...     1.00 cm^-1

Throughout the following assumptions are being made:
  (1) The electronic state is orbitally nondegenerate
  (2) There are no thermally accessible electronically excited states
  (3) Hindered rotations indicated by low frequency modes are not
      treated as such but are treated as vibrations and this may
      cause some error
  (4) All equations used are the standard statistical mechanics
      equations for an ideal gas
  (5) All vibrations are strictly harmonic

freq.      58.71  E(vib)   ...       0.51
freq.     125.88  E(vib)   ...       0.43
freq.     172.11  E(vib)   ...       0.38
freq.     223.34  E(vib)   ...       0.33
freq.     267.83  E(vib)   ...       0.29
freq.     309.94  E(vib)   ...       0.26
freq.     360.81  E(vib)   ...       0.22
freq.     383.59  E(vib)   ...       0.20
freq.     437.69  E(vib)   ...       0.17
freq.     448.45  E(vib)   ...       0.17
freq.     502.85  E(vib)   ...       0.14
freq.     522.24  E(vib)   ...       0.13
freq.     533.85  E(vib)   ...       0.13
freq.     620.20  E(vib)   ...       0.09
freq.     620.37  E(vib)   ...       0.09
freq.     647.80  E(vib)   ...       0.09
freq.     737.48  E(vib)   ...       0.06
freq.     739.36  E(vib)   ...       0.06
freq.     740.94  E(vib)   ...       0.06
freq.     748.91  E(vib)   ...       0.06
freq.     771.76  E(vib)   ...       0.05
freq.     787.06  E(vib)   ...       0.05
freq.     851.95  E(vib)   ...       0.04
freq.     868.68  E(vib)   ...       0.04
freq.     876.80  E(vib)   ...       0.04
freq.     899.86  E(vib)   ...       0.03
freq.     903.42  E(vib)   ...       0.03
freq.     931.15  E(vib)   ...       0.03
freq.     955.75  E(vib)   ...       0.03
freq.     965.07  E(vib)   ...       0.03
freq.     965.07  E(vib)   ...       0.03
freq.     970.20  E(vib)   ...       0.03
freq.    1054.78  E(vib)   ...       0.02
freq.    1055.65  E(vib)   ...       0.02
freq.    1104.15  E(vib)   ...       0.02
freq.    1142.15  E(vib)   ...       0.01
freq.    1169.87  E(vib)   ...       0.01
freq.    1181.40  E(vib)   ...       0.01
freq.    1181.74  E(vib)   ...       0.01
freq.    1185.08  E(vib)   ...       0.01
freq.    1198.73  E(vib)   ...       0.01
freq.    1201.97  E(vib)   ...       0.01
freq.    1224.10  E(vib)   ...       0.01
freq.    1232.21  E(vib)   ...       0.01
freq.    1255.80  E(vib)   ...       0.01
freq.    1283.64  E(vib)   ...       0.01
freq.    1305.80  E(vib)   ...       0.01
freq.    1344.86  E(vib)   ...       0.01
freq.    1358.93  E(vib)   ...       0.01
freq.    1361.41  E(vib)   ...       0.01
freq.    1451.19  E(vib)   ...       0.00
freq.    1455.99  E(vib)   ...       0.00
freq.    1478.96  E(vib)   ...       0.00
freq.    1484.70  E(vib)   ...       0.00
freq.    1501.97  E(vib)   ...       0.00
freq.    1518.04  E(vib)   ...       0.00
freq.    1604.39  E(vib)   ...       0.00
freq.    1617.16  E(vib)   ...       0.00
freq.    1623.76  E(vib)   ...       0.00
freq.    1634.00  E(vib)   ...       0.00
freq.    2959.01  E(vib)   ...       0.00
freq.    2967.22  E(vib)   ...       0.00
freq.    3074.09  E(vib)   ...       0.00
freq.    3074.99  E(vib)   ...       0.00
freq.    3146.59  E(vib)   ...       0.00
freq.    3146.60  E(vib)   ...       0.00
freq.    3150.36  E(vib)   ...       0.00
freq.    3150.63  E(vib)   ...       0.00
freq.    3163.66  E(vib)   ...       0.00
freq.    3163.69  E(vib)   ...       0.00
freq.    3178.01  E(vib)   ...       0.00
freq.    3178.14  E(vib)   ...       0.00

------------
INNER ENERGY
------------

The inner energy is: U= E(el) + E(ZPE) + E(vib) + E(rot) + E(trans)
    E(el)   - is the total energy from the electronic structure calculation
              = E(kin-el) + E(nuc-el) + E(el-el) + E(nuc-nuc)
    E(ZPE)  - the the zero temperature vibrational energy from the frequency calculation
    E(vib)  - the the finite temperature correction to E(ZPE) due to population
              of excited vibrational states
    E(rot)  - is the rotational thermal energy
    E(trans)- is the translational thermal energy

Summary of contributions to the inner energy U:
Electronic energy                ...   -540.62947336 Eh
Zero point energy                ...      0.21532007 Eh     135.12 kcal/mol
Thermal vibrational correction   ...      0.00719741 Eh       4.52 kcal/mol
Thermal rotational correction    ...      0.00141627 Eh       0.89 kcal/mol
Thermal translational correction ...      0.00141627 Eh       0.89 kcal/mol
-----------------------------------------------------------------------
Total thermal energy                   -540.40412333 Eh

Summary of corrections to the electronic energy:
(perhaps to be used in another calculation)
Total thermal correction                  0.01002995 Eh       6.29 kcal/mol
Non-thermal (ZPE) correction              0.21532007 Eh     135.12 kcal/mol
-----------------------------------------------------------------------
Total correction                          0.22535002 Eh     141.41 kcal/mol

--------
ENTHALPY
--------

The enthalpy is H = U + kB*T
                kB is Boltzmann's constant
Total thermal energy              ...   -540.40412333 Eh
Thermal Enthalpy correction       ...      0.00094421 Eh       0.59 kcal/mol
-----------------------------------------------------------------------
Total Enthalpy                    ...   -540.40317912 Eh

Note: Only C1 symmetry has been detected, increase convergence thresholds
      if your molecule has a higher symmetry. Symmetry factor of 1.0 is
      used for the rotational entropy correction.

Note: Rotational entropy computed according to Herzberg
Infrared and Raman Spectra, Chapter V,1, Van Nostrand Reinhold, 1945
Point Group:  C1, Symmetry Number:   1
Rotational constants in cm-1:     0.060197     0.015589     0.013264

Vibrational entropy computed according to the QRRHO of S. Grimme
Chem.Eur.J. 2012 18 9955 using a reference frequency of 100.0 cm-1

-------
ENTROPY
-------

The entropy contributions are T*S = T*(S(el)+S(vib)+S(rot)+S(trans))
     S(el)   - electronic entropy
     S(vib)  - vibrational entropy
     S(rot)  - rotational entropy
     S(trans)- translational entropy
The entropies will be listed as multiplied by the temperature to get
units of energy

                             ****ORCA TERMINATED NORMALLY****
TOTAL RUN TIME: 0 days 0 hours 53 minutes 38 seconds 432 msec
