                         Program Version 6.0.0  -   RELEASE  -
|  1> ! r2SCAN-3c DEF2-TZVP FREQ
|  2> * xyzfile 0 1 vacuum_censo.xyz
|  3>
|  4>                          ****END OF INPUT****

CARTESIAN COORDINATES (ANGSTROEM)
---------------------------------
  C      3.512596    0.695558   -0.551007
  C      3.512556   -0.695729   -0.551094
  C      2.379600   -1.388035   -0.133846
  C      1.245971   -0.699994    0.291946
  C      1.245998    0.699884    0.292025
  C      2.379682    1.387892   -0.133685
  C      0.000024    1.411009    0.758577
  C     -1.246023    0.699934    0.292154
  C     -2.379752    1.387996   -0.133339
  C     -3.512678    0.695714   -0.550720
  C     -3.512581   -0.695573   -0.551136
  C     -2.379607   -1.387931   -0.134024
  C     -1.246000   -0.699944    0.291920
  C     -0.000033   -1.411070    0.758440
  H      4.389994    1.241664   -0.882358
  H      4.389918   -1.241854   -0.882509
  H      2.373872   -2.474773   -0.142479
  H      2.374043    2.474631   -0.142211
  H      0.000101    1.435070    1.860747
  H      0.000023    2.453043    0.425389
  H     -2.374141    2.474737   -0.141648
  H     -4.390116    1.241865   -0.881887
  H     -4.389920   -1.241653   -0.882691
  H     -2.373857   -2.474667   -0.142865
  H     -0.000062   -1.434949    1.860621
  H     -0.000045   -2.453155    0.425414

 Total Charge           Charge          ....    0
 Multiplicity           Mult            ....    1
 Number of Electrons    NEL             ....   96
 Basis Dimension        Dim             ....  506

ORBITAL ENERGIES
----------------

  NO   OCC          E(Eh)            E(eV)
   0   2.0000     -10.044068      -273.3130
   1   2.0000     -10.044054      -273.3126
   2   2.0000     -10.043709      -273.3032
   3   2.0000     -10.043662      -273.3019
   4   2.0000     -10.043424      -273.2955
   5   2.0000     -10.043401      -273.2948
   6   2.0000     -10.033623      -273.0288
   7   2.0000     -10.033623      -273.0288
   8   2.0000     -10.033616      -273.0286
   9   2.0000     -10.033614      -273.0285
  10   2.0000     -10.032825      -273.0071
  11   2.0000     -10.032825      -273.0070
  12   2.0000     -10.032410      -272.9957
  13   2.0000     -10.032409      -272.9957
  14   2.0000      -0.845421       -23.0051
  15   2.0000      -0.817296       -22.2398
  16   2.0000      -0.764406       -20.8005
  17   2.0000      -0.747658       -20.3448
  18   2.0000      -0.712644       -19.3920
  19   2.0000      -0.705281       -19.1917
  20   2.0000      -0.669525       -18.2187
  21   2.0000      -0.628281       -17.0964
  22   2.0000      -0.574867       -15.6429
  23   2.0000      -0.568836       -15.4788
  24   2.0000      -0.560416       -15.2497
  25   2.0000      -0.521625       -14.1942
  26   2.0000      -0.480917       -13.0864
  27   2.0000      -0.470262       -12.7965
  28   2.0000      -0.444753       -12.1023
  29   2.0000      -0.419436       -11.4134
  30   2.0000      -0.415422       -11.3042
  31   2.0000      -0.413377       -11.2486
  32   2.0000      -0.412230       -11.2173
  33   2.0000      -0.389614       -10.6019
  34   2.0000      -0.384467       -10.4619
  35   2.0000      -0.372003       -10.1227
  36   2.0000      -0.367572       -10.0022
  37   2.0000      -0.358680        -9.7602
  38   2.0000      -0.336466        -9.1557
  39   2.0000      -0.331879        -9.0309
  40   2.0000      -0.321992        -8.7618
  41   2.0000      -0.312402        -8.5009
  42   2.0000      -0.297327        -8.0907
  43   2.0000      -0.295870        -8.0510
  44   2.0000      -0.233548        -6.3552
  45   2.0000      -0.228886        -6.2283
  46   2.0000      -0.224562        -6.1106
  47   2.0000      -0.221640        -6.0311
  48   0.0000      -0.040090        -1.0909
  49   0.0000      -0.031527        -0.8579
  50   0.0000      -0.025859        -0.7036
  51   0.0000      -0.023630        -0.6430
  52   0.0000       0.049504         1.3471

MULLIKEN ATOMIC CHARGES
-----------------------
   0 C :   -0.106123
   1 C :   -0.106096
   2 C :   -0.198788
   3 C :    0.080084
   4 C :    0.080059
   5 C :   -0.198755
   6 C :   -0.144139
   7 C :    0.080074
   8 C :   -0.198793
   9 C :   -0.106096
  10 C :   -0.106114
  11 C :   -0.198763
  12 C :    0.080081
  13 C :   -0.143971
  14 H :    0.106335
  15 H :    0.106335
  16 H :    0.096395
  17 H :    0.096391
  18 H :    0.085583
  19 H :    0.102648
  20 H :    0.096393
  21 H :    0.106334
  22 H :    0.106335
  23 H :    0.096390
  24 H :    0.085558
  25 H :    0.102643
Sum of atomic charges:    0.0000000

LOEWDIN ATOMIC CHARGES
----------------------
   0 C :   -0.144087
   1 C :   -0.144086
   2 C :   -0.114102
   3 C :   -0.106051
   4 C :   -0.106045
   5 C :   -0.114100
   6 C :   -0.152643
   7 C :   -0.106048
   8 C :   -0.114101
   9 C :   -0.144087
  10 C :   -0.144086
  11 C :   -0.114101
  12 C :   -0.106048
  13 C :   -0.152644
  14 H :    0.142178
  15 H :    0.142178
  16 H :    0.144471
  17 H :    0.144471
  18 H :    0.159355
  19 H :    0.148461
  20 H :    0.144471
  21 H :    0.142178
  22 H :    0.142179
  23 H :    0.144471
  24 H :    0.159363
  25 H :    0.148453

  Mayer bond orders larger than 0.100000
B(  0-C ,  1-C ) :   1.3852 B(  0-C ,  5-C ) :   1.3988 B(  0-C , 14-H ) :   0.9713
B(  1-C ,  2-C ) :   1.3989 B(  1-C , 15-H ) :   0.9713 B(  2-C ,  3-C ) :   1.3383
B(  2-C , 16-H ) :   0.9824 B(  3-C ,  4-C ) :   1.2932 B(  3-C , 13-C ) :   1.0165
B(  4-C ,  5-C ) :   1.3383 B(  4-C ,  6-C ) :   1.0165 B(  5-C , 17-H ) :   0.9824
B(  6-C ,  7-C ) :   1.0166 B(  6-C , 18-H ) :   0.8759 B(  6-C , 19-H ) :   0.9561
B(  7-C ,  8-C ) :   1.3383 B(  7-C , 12-C ) :   1.2932 B(  8-C ,  9-C ) :   1.3988
B(  8-C , 20-H ) :   0.9824 B(  9-C , 10-C ) :   1.3852 B(  9-C , 21-H ) :   0.9713
B( 10-C , 11-C ) :   1.3988 B( 10-C , 22-H ) :   0.9713 B( 11-C , 12-C ) :   1.3382
B( 11-C , 23-H ) :   0.9824 B( 12-C , 13-C ) :   1.0165 B( 13-C , 24-H ) :   0.8758
B( 13-C , 25-H ) :   0.9561

Dispersion correction           -0.011316799
FINAL SINGLE POINT ENERGY      -540.629572139414

DIPOLE MOMENT
-------------

Method             : SCF
Type of density    : Electron Density
Multiplicity       :   1
Irrep              :   0
Energy             :  -540.6243153735439364 Eh
Relativity type    :
Basis              : AO
                                X                 Y                 Z
Electronic contribution:     -0.000014871      -0.000154009      -0.308128252
Nuclear contribution   :      0.000019802       0.000180981       0.454786097
                        -----------------------------------------
Total Dipole Moment    :      0.000004931       0.000026973       0.146657845
                        -----------------------------------------
Magnitude (a.u.)       :      0.146657848
Magnitude (Debye)      :      0.372774625

VIBRATIONAL FREQUENCIES
-----------------------

Scaling factor for frequencies =  1.000000000  (already applied!)

     0:       0.00 cm**-1
     1:       0.00 cm**-1
     2:       0.00 cm**-1
     3:       0.00 cm**-1
     4:       0.00 cm**-1
     5:       0.00 cm**-1
     6:      54.40 cm**-1
     7:     120.38 cm**-1
     8:     169.73 cm**-1
     9:     222.83 cm**-1
    10:     267.93 cm**-1
    11:     307.72 cm**-1
    12:     360.05 cm**-1
    13:     382.93 cm**-1
    14:     435.89 cm**-1
    15:     446.29 cm**-1
    16:     501.50 cm**-1
    17:     521.07 cm**-1
    18:     533.67 cm**-1
    19:     620.06 cm**-1
    20:     620.84 cm**-1
    21:     648.23 cm**-1
    22:     737.32 cm**-1
    23:     738.19 cm**-1
    24:     740.28 cm**-1
    25:     748.36 cm**-1
    26:     771.99 cm**-1
    27:     789.01 cm**-1
    28:     852.38 cm**-1
    29:     869.07 cm**-1
    30:     877.31 cm**-1
    31:     900.61 cm**-1
    32:     903.00 cm**-1
    33:     932.07 cm**-1
    34:     956.83 cm**-1
    35:     965.39 cm**-1
    36:     965.44 cm**-1
    37:     971.09 cm**-1
    38:    1058.40 cm**-1
    39:    1059.31 cm**-1
    40:    1106.10 cm**-1
    41:    1143.74 cm**-1
    42:    1173.36 cm**-1
    43:    1182.88 cm**-1
    44:    1183.13 cm**-1
    45:    1187.82 cm**-1
    46:    1199.80 cm**-1
    47:    1201.79 cm**-1
    48:    1225.45 cm**-1
    49:    1233.24 cm**-1
    50:    1257.34 cm**-1
    51:    1288.17 cm**-1
    52:    1307.07 cm**-1
    53:    1353.05 cm**-1
    54:    1360.54 cm**-1
    55:    1367.73 cm**-1
    56:    1452.61 cm**-1
    57:    1457.03 cm**-1
    58:    1481.34 cm**-1
    59:    1486.90 cm**-1
    60:    1505.70 cm**-1
    61:    1521.47 cm**-1
    62:    1610.33 cm**-1
    63:    1623.34 cm**-1
    64:    1629.01 cm**-1
    65:    1639.27 cm**-1
    66:    2953.65 cm**-1
    67:    2961.34 cm**-1
    68:    3065.25 cm**-1
    69:    3066.21 cm**-1
    70:    3146.91 cm**-1
    71:    3146.92 cm**-1
    72:    3150.17 cm**-1
    73:    3150.44 cm**-1
    74:    3165.49 cm**-1
    75:    3165.53 cm**-1
    76:    3180.48 cm**-1
    77:    3180.59 cm**-1

IR SPECTRUM
-----------

 Mode   freq       eps      Int      T**2         TX        TY        TZ
       cm**-1   L/(mol*cm) km/mol    a.u.
----------------------------------------------------------------------------
  6:     54.40   0.000019    0.10  0.000110  (-0.000000 -0.000001 -0.010469)
  7:    120.38   0.000000    0.00  0.000000  (-0.000003 -0.000000  0.000002)
  8:    169.73   0.000025    0.13  0.000046  (-0.000001 -0.006753  0.000006)
  9:    222.83   0.000276    1.40  0.000387  ( 0.019675  0.000005 -0.000000)
 10:    267.93   0.001115    5.64  0.001299  ( 0.000001 -0.000015  0.036039)
 11:    307.72   0.000094    0.47  0.000095  ( 0.000000  0.009742  0.000024)
 12:    360.05   0.000024    0.12  0.000021  ( 0.000000 -0.000003  0.004545)
 13:    382.93   0.000000    0.00  0.000000  ( 0.000001 -0.000000 -0.000005)
 14:    435.89   0.000177    0.89  0.000127  ( 0.011252 -0.000002  0.000001)
 15:    446.29   0.001138    5.75  0.000795  ( 0.000000 -0.000000  0.028204)
 16:    501.50   0.000102    0.52  0.000064  ( 0.000001 -0.007973  0.000000)
 17:    521.07   0.000000    0.00  0.000000  (-0.000004  0.000000 -0.000002)
 18:    533.67   0.000000    0.00  0.000000  (-0.000000 -0.000000  0.000003)
 19:    620.06   0.003298   16.66  0.001660  (-0.000001 -0.000004  0.040738)
 20:    620.84   0.000679    3.43  0.000341  ( 0.018475  0.000001  0.000004)
 21:    648.23   0.000149    0.75  0.000072  ( 0.000005 -0.008457  0.000013)
 22:    737.32   0.012537   63.35  0.005306  ( 0.000001 -0.000050  0.072842)
 23:    738.19   0.000089    0.45  0.000038  ( 0.000012  0.006125  0.000430)
 24:    740.28   0.000000    0.00  0.000000  (-0.000008 -0.000002 -0.000008)
 25:    748.36   0.002742   13.86  0.001143  (-0.033814 -0.000011  0.000000)
 26:    771.99   0.005165   26.10  0.002088  (-0.000000 -0.000006  0.045693)
 27:    789.01   0.000020    0.10  0.000008  (-0.002842 -0.000000 -0.000001)
 28:    852.38   0.000001    0.00  0.000000  ( 0.000007  0.000492 -0.000001)
 29:    869.07   0.000000    0.00  0.000000  (-0.000005  0.000001  0.000002)
 30:    877.31   0.000000    0.00  0.000000  (-0.000002 -0.000000  0.000000)
 31:    900.61   0.000392    1.98  0.000136  ( 0.000001  0.000005 -0.011660)
 32:    903.00   0.000002    0.01  0.000001  ( 0.000001  0.000796 -0.000032)
 33:    932.07   0.000035    0.18  0.000012  ( 0.003407 -0.000002  0.000000)
 34:    956.83   0.001156    5.84  0.000377  ( 0.000000 -0.000003  0.019416)
 35:    965.39   0.000010    0.05  0.000003  ( 0.000003 -0.001817 -0.000001)
 36:    965.44   0.000000    0.00  0.000000  (-0.000003  0.000035 -0.000001)
 37:    971.09   0.000342    1.73  0.000110  ( 0.000003 -0.010487  0.000000)
 38:   1058.40   0.000241    1.22  0.000071  ( 0.000001 -0.000001  0.008434)
 39:   1059.31   0.001411    7.13  0.000416  (-0.020389  0.000000  0.000001)
 40:   1106.10   0.000000    0.00  0.000000  (-0.000004 -0.000000  0.000002)
 41:   1143.74   0.000982    4.96  0.000268  (-0.000001  0.016370  0.000005)
 42:   1173.36   0.000742    3.75  0.000197  (-0.014049  0.000000  0.000000)
 43:   1182.88   0.000002    0.01  0.000000  ( 0.000001 -0.000002  0.000652)
 44:   1183.13   0.000025    0.13  0.000007  (-0.002565  0.000001  0.000000)
 45:   1187.82   0.000000    0.00  0.000000  (-0.000010  0.000000  0.000001)
 46:   1199.80   0.000000    0.00  0.000000  ( 0.000004  0.000002 -0.000002)
 47:   1201.79   0.000530    2.68  0.000137  ( 0.000000  0.011726  0.000003)
 48:   1225.45   0.003029   15.31  0.000771  (-0.027774  0.000001  0.000001)
 49:   1233.24   0.000005    0.03  0.000001  (-0.000001 -0.000005 -0.001151)
 50:   1257.34   0.000000    0.00  0.000000  (-0.000021 -0.000000  0.000001)
 51:   1288.17   0.001029    5.20  0.000249  ( 0.015785 -0.000001 -0.000000)
 52:   1307.07   0.000434    2.19  0.000104  ( 0.000001 -0.010176  0.000000)
 53:   1353.05   0.000003    0.01  0.000001  (-0.000000  0.000004  0.000773)
 54:   1360.54   0.000000    0.00  0.000000  (-0.000007 -0.000000 -0.000001)
 55:   1367.73   0.000089    0.45  0.000020  (-0.004509 -0.000001 -0.000000)
 56:   1452.61   0.001344    6.79  0.000289  (-0.000003 -0.016992 -0.000038)
 57:   1457.03   0.000952    4.81  0.000204  (-0.000000  0.000043 -0.014283)
 58:   1481.34   0.002323   11.74  0.000489  ( 0.000000 -0.022122 -0.000002)
 59:   1486.90   0.000000    0.00  0.000000  ( 0.000011 -0.000001 -0.000001)
 60:   1505.70   0.008841   44.68  0.001832  (-0.042806  0.000000  0.000001)
 61:   1521.47   0.000352    1.78  0.000072  ( 0.000000  0.000001  0.008498)
 62:   1610.33   0.000773    3.90  0.000150  ( 0.012236  0.000000 -0.000000)
 63:   1623.34   0.000009    0.05  0.000002  (-0.000000 -0.000000 -0.001349)
 64:   1629.01   0.000000    0.00  0.000000  (-0.000002  0.000000 -0.000003)
 65:   1639.27   0.000052    0.26  0.000010  ( 0.000001  0.003154 -0.000004)
 66:   2953.65   0.005801   29.31  0.000613  ( 0.000001 -0.000071  0.024756)
 67:   2961.34   0.002230   11.27  0.000235  ( 0.000002  0.015331  0.000116)
 68:   3065.25   0.006290   31.79  0.000640  ( 0.000001 -0.025305  0.000020)
 69:   3066.21   0.000105    0.53  0.000011  ( 0.000000  0.000138  0.003271)
 70:   3146.91   0.000005    0.02  0.000000  (-0.000007  0.000675 -0.000001)
 71:   3146.92   0.004438   22.43  0.000440  (-0.000005  0.020978 -0.000000)
 72:   3150.17   0.000284    1.44  0.000028  (-0.005309 -0.000012 -0.000004)
 73:   3150.44   0.000123    0.62  0.000012  ( 0.000006 -0.000014 -0.003491)
 74:   3165.49   0.000000    0.00  0.000000  (-0.000010 -0.000103 -0.000006)
 75:   3165.53   0.008706   44.00  0.000858  (-0.000011 -0.029296 -0.000008)
 76:   3180.48   0.009544   48.23  0.000936  (-0.030601  0.000010 -0.000003)
 77:   3180.59   0.000695    3.51  0.000068  ( 0.000014  0.000010 -0.008260)

--------------------------
THERMOCHEMISTRY AT 298.15K
--------------------------

Temperature         ...   298.15 K
Pressure            ...     1.00 atm
Total Mass          ...   180.25 AMU
Quasi RRHO          ...     True
Cut-Off Frequency   ...     1.00 cm^-1

Throughout the following assumptions are being made:
  (1) The electronic state is orbitally nondegenerate
  (2) There are no thermally accessible electronically excited states
  (3) Hindered rotations indicated by low frequency modes are not
      treated as such but are treated as vibrations and this may
      cause some error
  (4) All equations used are the standard statistical mechanics
      equations for an ideal gas
  (5) All vibrations are strictly harmonic

freq.      54.40  E(vib)   ...       0.52
freq.     120.38  E(vib)   ...       0.44
freq.     169.73  E(vib)   ...       0.38
freq.     222.83  E(vib)   ...       0.33
freq.     267.93  E(vib)   ...       0.29
freq.     307.72  E(vib)   ...       0.26
freq.     360.05  E(vib)   ...       0.22
freq.     382.93  E(vib)   ...       0.20
freq.     435.89  E(vib)   ...       0.17
freq.     446.29  E(vib)   ...       0.17
freq.     501.50  E(vib)   ...       0.14
freq.     521.07  E(vib)   ...       0.13
freq.     533.67  E(vib)   ...       0.13
freq.     620.06  E(vib)   ...       0.09
freq.     620.84  E(vib)   ...       0.09
freq.     648.23  E(vib)   ...       0.08
freq.     737.32  E(vib)   ...       0.06
freq.     738.19  E(vib)   ...       0.06
freq.     740.28  E(vib)   ...       0.06
freq.     748.36  E(vib)   ...       0.06
freq.     771.99  E(vib)   ...       0.05
freq.     789.01  E(vib)   ...       0.05
freq.     852.38  E(vib)   ...       0.04
freq.     869.07  E(vib)   ...       0.04
freq.     877.31  E(vib)   ...       0.04
freq.     900.61  E(vib)   ...       0.03
freq.     903.00  E(vib)   ...       0.03
freq.     932.07  E(vib)   ...       0.03
freq.     956.83  E(vib)   ...       0.03
freq.     965.39  E(vib)   ...       0.03
freq.     965.44  E(vib)   ...       0.03
freq.     971.09  E(vib)   ...       0.03
freq.    1058.40  E(vib)   ...       0.02
freq.    1059.31  E(vib)   ...       0.02
freq.    1106.10  E(vib)   ...       0.02
freq.    1143.74  E(vib)   ...       0.01
freq.    1173.36  E(vib)   ...       0.01
freq.    1182.88  E(vib)   ...       0.01
freq.    1183.13  E(vib)   ...       0.01
freq.    1187.82  E(vib)   ...       0.01
freq.    1199.80  E(vib)   ...       0.01
freq.    1201.79  E(vib)   ...       0.01
freq.    1225.45  E(vib)   ...       0.01
freq.    1233.24  E(vib)   ...       0.01
freq.    1257.34  E(vib)   ...       0.01
freq.    1288.17  E(vib)   ...       0.01
freq.    1307.07  E(vib)   ...       0.01
freq.    1353.05  E(vib)   ...       0.01
freq.    1360.54  E(vib)   ...       0.01
freq.    1367.73  E(vib)   ...       0.01
freq.    1452.61  E(vib)   ...       0.00
freq.    1457.03  E(vib)   ...       0.00
freq.    1481.34  E(vib)   ...       0.00
freq.    1486.90  E(vib)   ...       0.00
freq.    1505.70  E(vib)   ...       0.00
freq.    1521.47  E(vib)   ...       0.00
freq.    1610.33  E(vib)   ...       0.00
freq.    1623.34  E(vib)   ...       0.00
freq.    1629.01  E(vib)   ...       0.00
freq.    1639.27  E(vib)   ...       0.00
freq.    2953.65  E(vib)   ...       0.00
freq.    2961.34  E(vib)   ...       0.00
freq.    3065.25  E(vib)   ...       0.00
freq.    3066.21  E(vib)   ...       0.00
freq.    3146.91  E(vib)   ...       0.00
freq.    3146.92  E(vib)   ...       0.00
freq.    3150.17  E(vib)   ...       0.00
freq.    3150.44  E(vib)   ...       0.00
freq.    3165.49  E(vib)   ...       0.00
freq.    3165.53  E(vib)   ...       0.00
freq.    3180.48  E(vib)   ...       0.00
freq.    3180.59  E(vib)   ...       0.00

------------
INNER ENERGY
------------

The inner energy is: U= E(el) + E(ZPE) + E(vib) + E(rot) + E(trans)
    E(el)   - is the total energy from the electronic structure calculation
              = E(kin-el) + E(nuc-el) + E(el-el) + E(nuc-nuc)
    E(ZPE)  - the the zero temperature vibrational energy from the frequency calculation
    E(vib)  - the the finite temperature correction to E(ZPE) due to population
              of excited vibrational states
    E(rot)  - is the rotational thermal energy
    E(trans)- is the translational thermal energy

Summary of contributions to the inner energy U:
Electronic energy                ...   -540.62957214 Eh
Zero point energy                ...      0.21542540 Eh     135.18 kcal/mol
Thermal vibrational correction   ...      0.00722589 Eh       4.53 kcal/mol
Thermal rotational correction    ...      0.00141627 Eh       0.89 kcal/mol
Thermal translational correction ...      0.00141627 Eh       0.89 kcal/mol
-----------------------------------------------------------------------
Total thermal energy                   -540.40408830 Eh

Summary of corrections to the electronic energy:
(perhaps to be used in another calculation)
Total thermal correction                  0.01005843 Eh       6.31 kcal/mol
Non-thermal (ZPE) correction              0.21542540 Eh     135.18 kcal/mol
-----------------------------------------------------------------------
Total correction                          0.22548384 Eh     141.49 kcal/mol

--------
ENTHALPY
--------

The enthalpy is H = U + kB*T
                kB is Boltzmann's constant
Total thermal energy              ...   -540.40408830 Eh
Thermal Enthalpy correction       ...      0.00094421 Eh       0.59 kcal/mol
-----------------------------------------------------------------------
Total Enthalpy                    ...   -540.40314409 Eh

WARNING (ORCA/SYM): A non-planar off-center atom subset has been encountered
in function TSymmetryFinder::FilterSubsetShapes() which cannot occur under
regular conditions. The full point group may not be assigned correctly. If the
symmetry appears to be too low, please try increasing the cleaning tolerance
using option SymThresh in the %symmetry input block. If the problem persists,
you may post a message in the ORCA forum.

Note: Only C1 symmetry has been detected, increase convergence thresholds
      if your molecule has a higher symmetry. Symmetry factor of 1.0 is
      used for the rotational entropy correction.

Note: Rotational entropy computed according to Herzberg
Infrared and Raman Spectra, Chapter V,1, Van Nostrand Reinhold, 1945
Point Group:  C1, Symmetry Number:   1
Rotational constants in cm-1:     0.060576     0.015554     0.013230

Vibrational entropy computed according to the QRRHO of S. Grimme
Chem.Eur.J. 2012 18 9955 using a reference frequency of 100.0 cm-1

-------
ENTROPY
-------

The entropy contributions are T*S = T*(S(el)+S(vib)+S(rot)+S(trans))

                             ****ORCA TERMINATED NORMALLY****
TOTAL RUN TIME: 0 days 0 hours 52 minutes 48 seconds 765 msec
