                         Program Version 6.0.1  -  RELEASE   -
|  1> ! pbe def2-sv(p) def2/J RI DEFGRID1 loosescf d4 GCP(DFT/SV(P)) printgap
|  2> %output
|  3>     printlevel normal
|  4> end
|  5> * xyz 0 1
|  6> C -3.0739196489 0.8117704143 0.4417608402
|  7> O -1.8968308573 0.6699812181 -0.3403181458
|  8> C -1.0716915259 -0.339845037 -0.0256777032
|  9> O -1.2856370296 -1.1112315346 0.8717600903
| 10> C 0.1141799921 -0.3866698281 -0.9729899126
| 11> C 1.1335288854 -1.4381613756 -0.5295554365
| 12> C 1.8524467268 -1.0135558976 0.7483498956
| 13> C 2.5111565704 0.3507492407 0.5740594261
| 14> C 1.468642151 1.3931702721 0.1830676067
| 15> C 0.7764428649 0.9886212133 -1.1147061422
| 16> H -3.8868905826 0.2379110659 -0.0078649274
| 17> H -3.3238542302 1.8705844124 0.4488163484
| 18> H -2.8983792172 0.448428888 1.4562312021
| 19> H -0.3029885122 -0.6737542325 -1.9465693967
| 20> H 0.6225344603 -2.3873096603 -0.3612888884
| 21> H 1.862784701 -1.5772630357 -1.3307814848
| 22> H 1.1301207409 -0.9698497765 1.5641989157
| 23> H 2.6047565392 -1.7613917554 1.0068655787
| 24> H 3.0044568249 0.6464156368 1.5020847631
| 25> H 3.2737460441 0.2918961391 -0.206768368
| 26> H 0.7267128369 1.479991028 0.9802248601
| 27> H 1.9420096479 2.369428318 0.0574506712
| 28> H 0.0260365078 1.7299927313 -1.3915809136
| 29> H 1.51652927 0.9368146947 -1.9166702411
| 30> *
| 31>
| 32>                          ****END OF INPUT****

CARTESIAN COORDINATES (ANGSTROEM)
---------------------------------
  C     -3.073920    0.811770    0.441761
  O     -1.896831    0.669981   -0.340318
  C     -1.071692   -0.339845   -0.025678
  O     -1.285637   -1.111232    0.871760
  C      0.114180   -0.386670   -0.972990
  C      1.133529   -1.438161   -0.529555
  C      1.852447   -1.013556    0.748350
  C      2.511157    0.350749    0.574059
  C      1.468642    1.393170    0.183068
  C      0.776443    0.988621   -1.114706
  H     -3.886891    0.237911   -0.007865
  H     -3.323854    1.870584    0.448816
  H     -2.898379    0.448429    1.456231
  H     -0.302989   -0.673754   -1.946569
  H      0.622534   -2.387310   -0.361289
  H      1.862785   -1.577263   -1.330781
  H      1.130121   -0.969850    1.564199
  H      2.604757   -1.761392    1.006866
  H      3.004457    0.646416    1.502085
  H      3.273746    0.291896   -0.206768
  H      0.726713    1.479991    0.980225
  H      1.942010    2.369428    0.057451
  H      0.026037    1.729993   -1.391581
  H      1.516529    0.936815   -1.916670

 Total Charge           Charge          ....    0
 Multiplicity           Mult            ....    1
 Number of Electrons    NEL             ....   78
 Basis Dimension        Dim             ....  168

ORBITAL ENERGIES
----------------

  NO   OCC          E(Eh)            E(eV)
   0   2.0000     -18.797428      -511.5040
   1   2.0000     -18.739646      -509.9317
   2   2.0000     -10.006042      -272.2782
   3   2.0000      -9.939019      -270.4545
   4   2.0000      -9.904300      -269.5097
   5   2.0000      -9.886535      -269.0263
   6   2.0000      -9.882520      -268.9170
   7   2.0000      -9.881519      -268.8898
   8   2.0000      -9.878963      -268.8203
   9   2.0000      -9.874803      -268.7071
  10   2.0000      -1.006396       -27.3854
  11   2.0000      -0.917585       -24.9688
  12   2.0000      -0.760222       -20.6867
  13   2.0000      -0.690475       -18.7888
  14   2.0000      -0.665788       -18.1170
  15   2.0000      -0.648499       -17.6466
  16   2.0000      -0.558317       -15.1926
  17   2.0000      -0.540077       -14.6962
  18   2.0000      -0.514512       -14.0006
  19   2.0000      -0.492309       -13.3964
  20   2.0000      -0.447610       -12.1801
  21   2.0000      -0.435463       -11.8496
  22   2.0000      -0.425293       -11.5728
  23   2.0000      -0.411731       -11.2038
  24   2.0000      -0.392958       -10.6929
  25   2.0000      -0.389774       -10.6063
  26   2.0000      -0.378495       -10.2994
  27   2.0000      -0.358101        -9.7444
  28   2.0000      -0.334312        -9.0971
  29   2.0000      -0.333008        -9.0616
  30   2.0000      -0.326734        -8.8909
  31   2.0000      -0.325012        -8.8440
  32   2.0000      -0.300964        -8.1896
  33   2.0000      -0.298399        -8.1199
  34   2.0000      -0.281314        -7.6549
  35   2.0000      -0.263059        -7.1582
  36   2.0000      -0.258237        -7.0270
  37   2.0000      -0.255101        -6.9416
  38   2.0000      -0.221688        -6.0324
  39   0.0000      -0.022830        -0.6212
  40   0.0000       0.034180         0.9301
  41   0.0000       0.049571         1.3489
  42   0.0000       0.064916         1.7665
  43   0.0000       0.076620         2.0849

MULLIKEN ATOMIC CHARGES
-----------------------
   0 C :   -0.123981
   1 O :   -0.247043
   2 C :    0.134084
   3 O :   -0.181908
   4 C :   -0.187882
   5 C :   -0.097598
   6 C :   -0.166653
   7 C :   -0.153282
   8 C :   -0.162855
   9 C :   -0.120918
  10 H :    0.118009
  11 H :    0.120225
  12 H :    0.126871
  13 H :    0.097533
  14 H :    0.092402
  15 H :    0.073158
  16 H :    0.097058
  17 H :    0.082513
  18 H :    0.083687
  19 H :    0.070241
  20 H :    0.086008
  21 H :    0.085091
  22 H :    0.098353
  23 H :    0.076888
Sum of atomic charges:   -0.0000000

LOEWDIN ATOMIC CHARGES
----------------------
   0 C :   -0.210303
   1 O :   -0.075715
   2 C :    0.045976
   3 O :   -0.148446
   4 C :   -0.167081
   5 C :   -0.213920
   6 C :   -0.230703
   7 C :   -0.226244
   8 C :   -0.227848
   9 C :   -0.214631
  10 H :    0.117526
  11 H :    0.119174
  12 H :    0.121015
  13 H :    0.139290
  14 H :    0.123524
  15 H :    0.115724
  16 H :    0.121001
  17 H :    0.116456
  18 H :    0.115491
  19 H :    0.111406
  20 H :    0.114921
  21 H :    0.117183
  22 H :    0.119900
  23 H :    0.116306

  Mayer bond orders larger than 0.100000
B(  0-C ,  1-O ) :   0.9487 B(  0-C , 10-H ) :   0.9591 B(  0-C , 11-H ) :   0.9600
B(  0-C , 12-H ) :   0.9360 B(  1-O ,  2-C ) :   1.1908 B(  2-C ,  3-O ) :   2.0708
B(  2-C ,  4-C ) :   0.9419 B(  4-C ,  5-C ) :   1.0990 B(  4-C ,  9-C ) :   1.0816
B(  4-C , 13-H ) :   0.8626 B(  5-C ,  6-C ) :   1.1298 B(  5-C , 14-H ) :   0.9073
B(  5-C , 15-H ) :   0.9110 B(  6-C ,  7-C ) :   1.1299 B(  6-C , 16-H ) :   0.9109
B(  6-C , 17-H ) :   0.9175 B(  7-C ,  8-C ) :   1.1281 B(  7-C , 18-H ) :   0.9196
B(  7-C , 19-H ) :   0.9147 B(  8-C ,  9-C ) :   1.1290 B(  8-C , 20-H ) :   0.9122
B(  8-C , 21-H ) :   0.9175 B(  9-C , 22-H ) :   0.9095 B(  9-C , 23-H ) :   0.9108

Dispersion correction           -0.023710523
FINAL SINGLE POINT ENERGY      -462.706736615021

DIPOLE MOMENT
-------------

Method             : SCF
Type of density    : Electron Density
Multiplicity       :   1
Irrep              :   0
Energy             :  -462.7949504467412680 Eh
Relativity type    :
Basis              : AO
                                X                 Y                 Z
Electronic contribution:     -6.040785912      -1.952206603      -0.213032029
Nuclear contribution   :      5.860993761       2.471996492      -0.128766478
                        -----------------------------------------
Total Dipole Moment    :     -0.179792151       0.519789889      -0.341798507
                        -----------------------------------------
Magnitude (a.u.)       :      0.647559237
Magnitude (Debye)      :      1.645964774

Rotational constants in cm-1:             0.078293             0.032043             0.028285
Rotational constants in MHz :          2347.175766           960.625815           847.959229

                             ****ORCA TERMINATED NORMALLY****
TOTAL RUN TIME: 0 days 0 hours 0 minutes 8 seconds 481 msec
