                         Program Version 6.0.1  -  RELEASE   -
|  1> ! pbe def2-sv(p) def2/J RI DEFGRID1 loosescf d4 GCP(DFT/SV(P)) printgap
|  2> %output
|  3>     printlevel normal
|  4> end
|  5> * xyz 0 1
|  6> C -2.3876829757 -0.8499695195 0.4290583962
|  7> C -0.9379741228 -0.402754495 0.6565480431
|  8> H -0.6852170248 -0.4909753742 1.7240723258
|  9> C -0.7400866451 1.0667760519 0.2162843025
| 10> H -1.5256040617 1.3289050843 -0.5036953759
| 11> C 0.6385695738 1.2330933248 -0.4574203363
| 12> H 0.9372292883 2.2880411714 -0.3541973604
| 13> C 1.6546686282 0.3466862332 0.2720382354
| 14> H 2.6458607364 0.4816210226 -0.1830836021
| 15> C 1.2522480905 -1.1349748454 0.0530870125
| 16> H 1.5933886815 -1.7367413491 0.9147792996
| 17> O -0.1381785526 -1.2856556925 -0.1092740892
| 18> O 1.8725384971 -1.6570603195 -1.0614028562
| 19> O 1.6684915461 0.7229448704 1.6308455947
| 20> O 0.6500127767 0.8423297798 -1.8102795516
| 21> O -0.887343608 1.9536174862 1.2880548115
| 22> O -2.7137048905 -0.8130637032 -0.9332709378
| 23> H -3.0657496691 -0.1649407911 0.9408524611
| 24> H -2.5159259936 -1.8630884027 0.8330535296
| 25> H 1.546551189 -1.1590908275 -1.8269726083
| 26> H 2.3602839846 0.2295188773 2.0851296925
| 27> H -0.0813017678 1.2770616725 -2.2637860381
| 28> H -0.1420859189 1.8153411471 1.8895538753
| 29> H -2.0397173376 -1.330058717 -1.3937934402
| 30> *
| 31>
| 32>                          ****END OF INPUT****

CARTESIAN COORDINATES (ANGSTROEM)
---------------------------------
  C     -2.387683   -0.849970    0.429058
  C     -0.937974   -0.402754    0.656548
  H     -0.685217   -0.490975    1.724072
  C     -0.740087    1.066776    0.216284
  H     -1.525604    1.328905   -0.503695
  C      0.638570    1.233093   -0.457420
  H      0.937229    2.288041   -0.354197
  C      1.654669    0.346686    0.272038
  H      2.645861    0.481621   -0.183084
  C      1.252248   -1.134975    0.053087
  H      1.593389   -1.736741    0.914779
  O     -0.138179   -1.285656   -0.109274
  O      1.872538   -1.657060   -1.061403
  O      1.668492    0.722945    1.630846
  O      0.650013    0.842330   -1.810280
  O     -0.887344    1.953617    1.288055
  O     -2.713705   -0.813064   -0.933271
  H     -3.065750   -0.164941    0.940852
  H     -2.515926   -1.863088    0.833054
  H      1.546551   -1.159091   -1.826973
  H      2.360284    0.229519    2.085130
  H     -0.081302    1.277062   -2.263786
  H     -0.142086    1.815341    1.889554
  H     -2.039717   -1.330059   -1.393793

 Total Charge           Charge          ....    0
 Multiplicity           Mult            ....    1
 Number of Electrons    NEL             ....   96
 Basis Dimension        Dim             ....  192

ORBITAL ENERGIES
----------------

  NO   OCC          E(Eh)            E(eV)
   0   2.0000     -18.785266      -511.1731
   1   2.0000     -18.775321      -510.9025
   2   2.0000     -18.771052      -510.7863
   3   2.0000     -18.752469      -510.2806
   4   2.0000     -18.745754      -510.0979
   5   2.0000     -18.745114      -510.0805
   6   2.0000      -9.990560      -271.8570
   7   2.0000      -9.954288      -270.8699
   8   2.0000      -9.951997      -270.8076
   9   2.0000      -9.941074      -270.5104
  10   2.0000      -9.939986      -270.4808
  11   2.0000      -9.929787      -270.2033
  12   2.0000      -0.988788       -26.9063
  13   2.0000      -0.957503       -26.0550
  14   2.0000      -0.948239       -25.8029
  15   2.0000      -0.932222       -25.3670
  16   2.0000      -0.923701       -25.1352
  17   2.0000      -0.908743       -24.7282
  18   2.0000      -0.703905       -19.1542
  19   2.0000      -0.690161       -18.7802
  20   2.0000      -0.617946       -16.8152
  21   2.0000      -0.595693       -16.2096
  22   2.0000      -0.565763       -15.3952
  23   2.0000      -0.531490       -14.4626
  24   2.0000      -0.512737       -13.9523
  25   2.0000      -0.502597       -13.6764
  26   2.0000      -0.475059       -12.9270
  27   2.0000      -0.461655       -12.5623
  28   2.0000      -0.447534       -12.1780
  29   2.0000      -0.442209       -12.0331
  30   2.0000      -0.424881       -11.5616
  31   2.0000      -0.392703       -10.6860
  32   2.0000      -0.383758       -10.4426
  33   2.0000      -0.372335       -10.1318
  34   2.0000      -0.363989        -9.9046
  35   2.0000      -0.352570        -9.5939
  36   2.0000      -0.344357        -9.3704
  37   2.0000      -0.333428        -9.0730
  38   2.0000      -0.315915        -8.5965
  39   2.0000      -0.302332        -8.2269
  40   2.0000      -0.281853        -7.6696
  41   2.0000      -0.272839        -7.4243
  42   2.0000      -0.260611        -7.0916
  43   2.0000      -0.249677        -6.7941
  44   2.0000      -0.241911        -6.5827
  45   2.0000      -0.223097        -6.0708
  46   2.0000      -0.220910        -6.0113
  47   2.0000      -0.197552        -5.3757
  48   0.0000      -0.002992        -0.0814
  49   0.0000       0.017991         0.4896
  50   0.0000       0.049806         1.3553
  51   0.0000       0.053406         1.4533
  52   0.0000       0.068017         1.8508

MULLIKEN ATOMIC CHARGES
-----------------------
   0 C :    0.073565
   1 C :    0.009408
   2 H :    0.049479
   3 C :    0.045976
   4 H :    0.064007
   5 C :    0.058402
   6 H :    0.077719
   7 C :   -0.042428
   8 H :    0.088994
   9 C :    0.228528
  10 H :    0.047102
  11 O :   -0.310857
  12 O :   -0.392290
  13 O :   -0.423084
  14 O :   -0.424722
  15 O :   -0.423680
  16 O :   -0.439746
  17 H :    0.097737
  18 H :    0.079002
  19 H :    0.303530
  20 H :    0.316163
  21 H :    0.313978
  22 H :    0.304636
  23 H :    0.298582
Sum of atomic charges:    0.0000000

LOEWDIN ATOMIC CHARGES
----------------------
   0 C :   -0.122840
   1 C :   -0.081843
   2 H :    0.102356
   3 C :   -0.079488
   4 H :    0.112340
   5 C :   -0.071477
   6 H :    0.107181
   7 C :   -0.092522
   8 H :    0.114069
   9 C :    0.001160
  10 H :    0.090483
  11 O :   -0.155192
  12 O :   -0.294223
  13 O :   -0.311922
  14 O :   -0.314166
  15 O :   -0.312086
  16 O :   -0.333001
  17 H :    0.120606
  18 H :    0.101220
  19 H :    0.277958
  20 H :    0.295130
  21 H :    0.292486
  22 H :    0.275171
  23 H :    0.278599

  Mayer bond orders larger than 0.100000
B(  0-C ,  1-C ) :   1.0458 B(  0-C , 16-O ) :   1.0579 B(  0-C , 17-H ) :   0.9234
B(  0-C , 18-H ) :   0.9103 B(  1-C ,  2-H ) :   0.8725 B(  1-C ,  3-C ) :   0.9603
B(  1-C , 11-O ) :   1.0128 B(  3-C ,  4-H ) :   0.8792 B(  3-C ,  5-C ) :   0.9849
B(  3-C , 15-O ) :   1.0467 B(  5-C ,  6-H ) :   0.8950 B(  5-C ,  7-C ) :   1.0310
B(  5-C , 14-O ) :   1.0304 B(  7-C ,  8-H ) :   0.8989 B(  7-C ,  9-C ) :   0.9398
B(  7-C , 13-O ) :   1.0296 B(  9-C , 10-H ) :   0.9034 B(  9-C , 11-O ) :   1.0174
B(  9-C , 12-O ) :   1.1506 B( 12-O , 19-H ) :   0.8244 B( 13-O , 20-H ) :   0.8403
B( 14-O , 21-H ) :   0.8396 B( 15-O , 22-H ) :   0.8265 B( 16-O , 23-H ) :   0.8382

Dispersion correction           -0.025488070
FINAL SINGLE POINT ENERGY      -685.697104898456

DIPOLE MOMENT
-------------

Method             : SCF
Type of density    : Electron Density
Multiplicity       :   1
Irrep              :   0
Energy             :  -685.8299727296949868 Eh
Relativity type    :
Basis              : AO
                                X                 Y                 Z
Electronic contribution:      1.707290796      -0.463659481      -1.430207220
Nuclear contribution   :     -0.905478027       0.630312278       1.732045649
                        -----------------------------------------
Total Dipole Moment    :      0.801812769       0.166652797       0.301838430
                        -----------------------------------------
Magnitude (a.u.)       :      0.872801987
Magnitude (Debye)      :      2.218486345

Rotational constants in cm-1:             0.039030             0.029678             0.023766
Rotational constants in MHz :          1170.096321           889.725600           712.496095

                             ****ORCA TERMINATED NORMALLY****
TOTAL RUN TIME: 0 days 0 hours 26 minutes 7 seconds 357 msec
