                         Program Version 6.0.1  -  RELEASE   -
|  1> ! pbe def2-sv(p) def2/J RI DEFGRID1 loosescf d4 GCP(DFT/SV(P)) printgap
|  2> %output
|  3>     printlevel normal
|  4> end
|  5> * xyz 0 1
|  6> C -2.3721064975 -0.759691575 -0.1243482758
|  7> C -1.0221311164 -0.2418217709 0.3963505418
|  8> H -1.1599159886 0.0869256192 1.4374048009
|  9> C -0.5487297286 0.9585958815 -0.4211907179
| 10> H -0.600752314 0.7039587904 -1.4920802349
| 11> C 0.9113304382 1.3472127701 -0.0974224603
| 12> H 0.8963261574 2.1422042066 0.6631842938
| 13> C 1.7407546864 0.1679505987 0.4734810479
| 14> H 2.7856851471 0.291475167 0.1620120461
| 15> C 1.1893459499 -1.1416836493 -0.1029544853
| 16> H 1.7453335152 -2.0071082373 0.2803610293
| 17> O -0.1170669999 -1.3481674114 0.3802545021
| 18> O 1.2977275564 -1.1943246 -1.485303559
| 19> O 1.7431578775 0.1504990346 1.8729251349
| 20> O 1.4640784072 1.8164486238 -1.313141129
| 21> O -1.4287374489 2.0168420232 -0.1420523478
| 22> O -2.8482811924 -1.8160870259 0.6584010333
| 23> H -2.2471791364 -1.0751710248 -1.1707862746
| 24> H -3.1108825292 0.0410769427 -0.0701329965
| 25> H 1.166787208 -0.3180537714 -1.8744033759
| 26> H 0.9645941325 -0.3300625384 2.1816807685
| 27> H 2.3419661901 2.1799049378 -1.150920712
| 28> H -1.1882507227 2.7694284189 -0.6949007229
| 29> H -2.1437985285 -2.4744370568 0.7109145678
| 30> *
| 31>
| 32>                          ****END OF INPUT****

CARTESIAN COORDINATES (ANGSTROEM)
---------------------------------
  C     -2.372106   -0.759692   -0.124348
  C     -1.022131   -0.241822    0.396351
  H     -1.159916    0.086926    1.437405
  C     -0.548730    0.958596   -0.421191
  H     -0.600752    0.703959   -1.492080
  C      0.911330    1.347213   -0.097422
  H      0.896326    2.142204    0.663184
  C      1.740755    0.167951    0.473481
  H      2.785685    0.291475    0.162012
  C      1.189346   -1.141684   -0.102954
  H      1.745334   -2.007108    0.280361
  O     -0.117067   -1.348167    0.380255
  O      1.297728   -1.194325   -1.485304
  O      1.743158    0.150499    1.872925
  O      1.464078    1.816449   -1.313141
  O     -1.428737    2.016842   -0.142052
  O     -2.848281   -1.816087    0.658401
  H     -2.247179   -1.075171   -1.170786
  H     -3.110883    0.041077   -0.070133
  H      1.166787   -0.318054   -1.874403
  H      0.964594   -0.330063    2.181681
  H      2.341966    2.179905   -1.150921
  H     -1.188251    2.769428   -0.694901
  H     -2.143799   -2.474437    0.710915

 Total Charge           Charge          ....    0
 Multiplicity           Mult            ....    1
 Number of Electrons    NEL             ....   96
 Basis Dimension        Dim             ....  192

ORBITAL ENERGIES
----------------

  NO   OCC          E(Eh)            E(eV)
   0   2.0000     -18.783702      -511.1305
   1   2.0000     -18.782996      -511.1113
   2   2.0000     -18.767060      -510.6777
   3   2.0000     -18.763361      -510.5770
   4   2.0000     -18.762254      -510.5469
   5   2.0000     -18.739899      -509.9386
   6   2.0000      -9.993486      -271.9366
   7   2.0000      -9.960513      -271.0393
   8   2.0000      -9.956802      -270.9384
   9   2.0000      -9.954297      -270.8702
  10   2.0000      -9.951909      -270.8052
  11   2.0000      -9.928081      -270.1568
  12   2.0000      -0.991258       -26.9735
  13   2.0000      -0.960978       -26.1495
  14   2.0000      -0.944874       -25.7113
  15   2.0000      -0.940268       -25.5860
  16   2.0000      -0.927295       -25.2330
  17   2.0000      -0.911869       -24.8132
  18   2.0000      -0.718271       -19.5451
  19   2.0000      -0.695475       -18.9248
  20   2.0000      -0.625256       -17.0141
  21   2.0000      -0.603571       -16.4240
  22   2.0000      -0.573383       -15.6025
  23   2.0000      -0.530441       -14.4340
  24   2.0000      -0.518424       -14.1070
  25   2.0000      -0.507603       -13.8126
  26   2.0000      -0.484978       -13.1969
  27   2.0000      -0.462007       -12.5718
  28   2.0000      -0.457897       -12.4600
  29   2.0000      -0.445369       -12.1191
  30   2.0000      -0.422434       -11.4950
  31   2.0000      -0.394203       -10.7268
  32   2.0000      -0.389957       -10.6113
  33   2.0000      -0.384205       -10.4547
  34   2.0000      -0.377048       -10.2600
  35   2.0000      -0.358104        -9.7445
  36   2.0000      -0.334120        -9.0919
  37   2.0000      -0.329508        -8.9664
  38   2.0000      -0.318093        -8.6557
  39   2.0000      -0.304061        -8.2739
  40   2.0000      -0.287221        -7.8157
  41   2.0000      -0.274501        -7.4696
  42   2.0000      -0.264587        -7.1998
  43   2.0000      -0.260579        -7.0907
  44   2.0000      -0.241198        -6.5633
  45   2.0000      -0.236864        -6.4454
  46   2.0000      -0.216143        -5.8815
  47   2.0000      -0.210697        -5.7334
  48   0.0000       0.002849         0.0775
  49   0.0000       0.017749         0.4830
  50   0.0000       0.029514         0.8031
  51   0.0000       0.042969         1.1692
  52   0.0000       0.054615         1.4861

MULLIKEN ATOMIC CHARGES
-----------------------
   0 C :    0.087244
   1 C :    0.013094
   2 H :    0.065664
   3 C :    0.036184
   4 H :    0.056948
   5 C :    0.018209
   6 H :    0.071948
   7 C :    0.026091
   8 H :    0.070285
   9 C :    0.163506
  10 H :    0.079031
  11 O :   -0.330633
  12 O :   -0.387695
  13 O :   -0.409265
  14 O :   -0.418151
  15 O :   -0.407426
  16 O :   -0.430422
  17 H :    0.064649
  18 H :    0.096599
  19 H :    0.302493
  20 H :    0.312319
  21 H :    0.310043
  22 H :    0.309621
  23 H :    0.299664
Sum of atomic charges:    0.0000000

LOEWDIN ATOMIC CHARGES
----------------------
   0 C :   -0.125112
   1 C :   -0.075034
   2 H :    0.108242
   3 C :   -0.073973
   4 H :    0.105864
   5 C :   -0.089492
   6 H :    0.112758
   7 C :   -0.097161
   8 H :    0.114574
   9 C :   -0.011075
  10 H :    0.111580
  11 O :   -0.153900
  12 O :   -0.299744
  13 O :   -0.306315
  14 O :   -0.319862
  15 O :   -0.309585
  16 O :   -0.332507
  17 H :    0.098245
  18 H :    0.120656
  19 H :    0.271384
  20 H :    0.286204
  21 H :    0.290786
  22 H :    0.292874
  23 H :    0.280595

  Mayer bond orders larger than 0.100000
B(  0-C ,  1-C ) :   1.0640 B(  0-C , 16-O ) :   1.0845 B(  0-C , 17-H ) :   0.9029
B(  0-C , 18-H ) :   0.9142 B(  1-C ,  2-H ) :   0.8645 B(  1-C ,  3-C ) :   1.0335
B(  1-C , 11-O ) :   0.9507 B(  3-C ,  4-H ) :   0.8650 B(  3-C ,  5-C ) :   1.0311
B(  3-C , 15-O ) :   1.0663 B(  5-C ,  6-H ) :   0.8578 B(  5-C ,  7-C ) :   0.9562
B(  5-C , 14-O ) :   1.0302 B(  7-C ,  8-H ) :   0.8902 B(  7-C ,  9-C ) :   1.0394
B(  7-C , 13-O ) :   1.0621 B(  9-C , 10-H ) :   0.9028 B(  9-C , 11-O ) :   1.0264
B(  9-C , 12-O ) :   1.1450 B( 12-O , 19-H ) :   0.8146 B( 13-O , 20-H ) :   0.8349
B( 14-O , 21-H ) :   0.8421 B( 15-O , 22-H ) :   0.8452 B( 16-O , 23-H ) :   0.8424

Dispersion correction           -0.024874477
FINAL SINGLE POINT ENERGY      -685.691008525908

DIPOLE MOMENT
-------------

Method             : SCF
Type of density    : Electron Density
Multiplicity       :   1
Irrep              :   0
Energy             :  -685.8233957162667593 Eh
Relativity type    :
Basis              : AO
                                X                 Y                 Z
Electronic contribution:      1.390991732      -0.853012114       0.578685872
Nuclear contribution   :     -0.514432459       1.880302331      -0.955172973
                        -----------------------------------------
Total Dipole Moment    :      0.876559273       1.027290217      -0.376487101
                        -----------------------------------------
Magnitude (a.u.)       :      1.401935764
Magnitude (Debye)      :      3.563437521

Rotational constants in cm-1:             0.040626             0.026012             0.021521
Rotational constants in MHz :          1217.928063           779.819287           645.194492

                             ****ORCA TERMINATED NORMALLY****
TOTAL RUN TIME: 0 days 0 hours 0 minutes 9 seconds 684 msec
