                         Program Version 6.0.1  -  RELEASE   -
|  1> ! pbe def2-sv(p) def2/J RI DEFGRID1 loosescf d4 GCP(DFT/SV(P)) printgap
|  2> %output
|  3>     printlevel normal
|  4> end
|  5> * xyz 0 1
|  6> C -2.0498724804 -1.3974173167 -0.1300913622
|  7> C -1.0155906835 -0.5096702326 0.5823405163
|  8> H -1.4741913013 -0.1346409063 1.506692566
|  9> C -0.6362453637 0.695775011 -0.2857661567
| 10> H -0.487689515 0.3764593712 -1.3285020809
| 11> C 0.700379273 1.2415840848 0.240368932
| 12> H 0.6529859836 1.331156448 1.3348957772
| 13> C 1.7738524918 0.2125671541 -0.1265534988
| 14> H 1.9787834069 0.3015176158 -1.2038998056
| 15> C 1.2344796506 -1.2089563551 0.1325777624
| 16> H 2.0118516779 -1.7684626409 0.6726177556
| 17> O 0.131793012 -1.2391684802 0.9948084241
| 18> O 0.9491496358 -1.7862690647 -1.1067382396
| 19> O 2.9468381258 0.3865103547 0.6185821522
| 20> O 1.0492457421 2.4797207638 -0.3421556846
| 21> O -1.6820364482 1.6434696784 -0.2188057033
| 22> O -3.3106300357 -0.7853958254 -0.1690966778
| 23> H -2.1668317926 -2.3312286556 0.4262871551
| 24> H -1.6974742997 -1.6304555 -1.1468579256
| 25> H 0.6750044849 -2.7016261806 -0.9702278386
| 26> H 3.2515634012 1.2917643241 0.4791020813
| 27> H 0.49071115 3.1667645184 0.0389358811
| 28> H -1.4736685008 2.3629315976 -0.8273028732
| 29> H -3.1836278655 0.1550874364 -0.3555856484
| 30> *
| 31>
| 32>                          ****END OF INPUT****

CARTESIAN COORDINATES (ANGSTROEM)
---------------------------------
  C     -2.049872   -1.397417   -0.130091
  C     -1.015591   -0.509670    0.582341
  H     -1.474191   -0.134641    1.506693
  C     -0.636245    0.695775   -0.285766
  H     -0.487690    0.376459   -1.328502
  C      0.700379    1.241584    0.240369
  H      0.652986    1.331156    1.334896
  C      1.773852    0.212567   -0.126553
  H      1.978783    0.301518   -1.203900
  C      1.234480   -1.208956    0.132578
  H      2.011852   -1.768463    0.672618
  O      0.131793   -1.239168    0.994808
  O      0.949150   -1.786269   -1.106738
  O      2.946838    0.386510    0.618582
  O      1.049246    2.479721   -0.342156
  O     -1.682036    1.643470   -0.218806
  O     -3.310630   -0.785396   -0.169097
  H     -2.166832   -2.331229    0.426287
  H     -1.697474   -1.630456   -1.146858
  H      0.675004   -2.701626   -0.970228
  H      3.251563    1.291764    0.479102
  H      0.490711    3.166765    0.038936
  H     -1.473669    2.362932   -0.827303
  H     -3.183628    0.155087   -0.355586

 Total Charge           Charge          ....    0
 Multiplicity           Mult            ....    1
 Number of Electrons    NEL             ....   96
 Basis Dimension        Dim             ....  192

ORBITAL ENERGIES
----------------

  NO   OCC          E(Eh)            E(eV)
   0   2.0000     -18.782276      -511.0917
   1   2.0000     -18.775520      -510.9079
   2   2.0000     -18.772754      -510.8326
   3   2.0000     -18.768201      -510.7087
   4   2.0000     -18.753920      -510.3201
   5   2.0000     -18.732743      -509.7438
   6   2.0000      -9.989066      -271.8163
   7   2.0000      -9.951499      -270.7941
   8   2.0000      -9.948520      -270.7130
   9   2.0000      -9.945540      -270.6319
  10   2.0000      -9.944899      -270.6145
  11   2.0000      -9.922658      -270.0092
  12   2.0000      -0.987981       -26.8843
  13   2.0000      -0.965057       -26.2605
  14   2.0000      -0.946025       -25.7426
  15   2.0000      -0.928827       -25.2747
  16   2.0000      -0.919189       -25.0124
  17   2.0000      -0.910424       -24.7739
  18   2.0000      -0.716376       -19.4936
  19   2.0000      -0.696124       -18.9425
  20   2.0000      -0.616101       -16.7650
  21   2.0000      -0.593617       -16.1531
  22   2.0000      -0.566273       -15.4091
  23   2.0000      -0.523181       -14.2365
  24   2.0000      -0.512006       -13.9324
  25   2.0000      -0.505481       -13.7548
  26   2.0000      -0.478498       -13.0206
  27   2.0000      -0.466108       -12.6834
  28   2.0000      -0.450577       -12.2608
  29   2.0000      -0.425004       -11.5649
  30   2.0000      -0.408311       -11.1107
  31   2.0000      -0.402474       -10.9519
  32   2.0000      -0.393352       -10.7037
  33   2.0000      -0.382364       -10.4046
  34   2.0000      -0.363087        -9.8801
  35   2.0000      -0.355570        -9.6755
  36   2.0000      -0.344307        -9.3691
  37   2.0000      -0.327317        -8.9068
  38   2.0000      -0.316093        -8.6013
  39   2.0000      -0.297281        -8.0894
  40   2.0000      -0.282805        -7.6955
  41   2.0000      -0.268921        -7.3177
  42   2.0000      -0.263279        -7.1642
  43   2.0000      -0.250453        -6.8152
  44   2.0000      -0.240086        -6.5331
  45   2.0000      -0.233981        -6.3670
  46   2.0000      -0.214302        -5.8314
  47   2.0000      -0.200857        -5.4656
  48   0.0000      -0.011922        -0.3244
  49   0.0000       0.025364         0.6902
  50   0.0000       0.034059         0.9268
  51   0.0000       0.046772         1.2727
  52   0.0000       0.062298         1.6952

MULLIKEN ATOMIC CHARGES
-----------------------
   0 C :    0.083298
   1 C :    0.023089
   2 H :    0.082444
   3 C :   -0.016218
   4 H :    0.079094
   5 C :    0.027387
   6 H :    0.065787
   7 C :    0.079015
   8 H :    0.077642
   9 C :    0.162317
  10 H :    0.079997
  11 O :   -0.307215
  12 O :   -0.396217
  13 O :   -0.410045
  14 O :   -0.416576
  15 O :   -0.418044
  16 O :   -0.445312
  17 H :    0.081610
  18 H :    0.060237
  19 H :    0.306700
  20 H :    0.305770
  21 H :    0.298997
  22 H :    0.297406
  23 H :    0.298835
Sum of atomic charges:    0.0000000

LOEWDIN ATOMIC CHARGES
----------------------
   0 C :   -0.132330
   1 C :   -0.068705
   2 H :    0.120692
   3 C :   -0.087426
   4 H :    0.110636
   5 C :   -0.085675
   6 H :    0.110673
   7 C :   -0.073563
   8 H :    0.113253
   9 C :    0.003159
  10 H :    0.108424
  11 O :   -0.136160
  12 O :   -0.307687
  13 O :   -0.313687
  14 O :   -0.320963
  15 O :   -0.311215
  16 O :   -0.341510
  17 H :    0.108990
  18 H :    0.090897
  19 H :    0.286754
  20 H :    0.288720
  21 H :    0.283710
  22 H :    0.282007
  23 H :    0.271008

  Mayer bond orders larger than 0.100000
B(  0-C ,  1-C ) :   1.0661 B(  0-C , 16-O ) :   1.0804 B(  0-C , 17-H ) :   0.9191
B(  0-C , 18-H ) :   0.8998 B(  1-C ,  2-H ) :   0.8833 B(  1-C ,  3-C ) :   0.9846
B(  1-C , 11-O ) :   0.9685 B(  3-C ,  4-H ) :   0.8837 B(  3-C ,  5-C ) :   1.0001
B(  3-C , 15-O ) :   1.0305 B(  5-C ,  6-H ) :   0.8660 B(  5-C ,  7-C ) :   1.0453
B(  5-C , 14-O ) :   1.0876 B(  7-C ,  8-H ) :   0.8824 B(  7-C ,  9-C ) :   0.9867
B(  7-C , 13-O ) :   1.0926 B(  9-C , 10-H ) :   0.8928 B(  9-C , 11-O ) :   1.0828
B(  9-C , 12-O ) :   1.0974 B( 12-O , 19-H ) :   0.8352 B( 13-O , 20-H ) :   0.8443
B( 14-O , 21-H ) :   0.8413 B( 15-O , 22-H ) :   0.8330 B( 16-O , 23-H ) :   0.8237

Dispersion correction           -0.024684953
FINAL SINGLE POINT ENERGY      -685.692849046707

DIPOLE MOMENT
-------------

Method             : SCF
Type of density    : Electron Density
Multiplicity       :   1
Irrep              :   0
Energy             :  -685.8248182123211336 Eh
Relativity type    :
Basis              : AO
                                X                 Y                 Z
Electronic contribution:      1.737984478       0.569013454       0.968822275
Nuclear contribution   :     -1.333375270       0.403697538      -1.292209927
                        -----------------------------------------
Total Dipole Moment    :      0.404609208       0.972710992      -0.323387652
                        -----------------------------------------
Magnitude (a.u.)       :      1.102023075
Magnitude (Debye)      :      2.801120049

Rotational constants in cm-1:             0.044338             0.026200             0.018691
Rotational constants in MHz :          1329.220450           785.456704           560.349365

                             ****ORCA TERMINATED NORMALLY****
TOTAL RUN TIME: 0 days 0 hours 0 minutes 8 seconds 724 msec
