                         Program Version 6.0.1  -  RELEASE   -
|  1> ! pbe def2-sv(p) def2/J RI DEFGRID1 loosescf d4 GCP(DFT/SV(P)) printgap
|  2> %output
|  3>     printlevel normal
|  4> end
|  5> * xyz 0 1
|  6> C -2.1174277797 -0.9254804311 -0.2914634815
|  7> C -1.1758434191 -0.3498173077 0.7850004737
|  8> H -1.7319848959 -0.3782485453 1.7301425546
|  9> C -0.7645170397 1.1227313445 0.5656842009
| 10> H -1.6369390249 1.6679636136 0.1877064652
| 11> C 0.3956067782 1.2964946511 -0.4325844417
| 12> H 0.8320826124 2.2874748345 -0.2467503344
| 13> C 1.5257982266 0.2853033454 -0.1160443698
| 14> H 2.1780998048 0.2219139695 -0.9976371826
| 15> C 1.0382432388 -1.141243506 0.202491018
| 16> H 1.8349645547 -1.6499822854 0.7737106925
| 17> O -0.0614580749 -1.2039630456 1.0530132516
| 18> O 0.8250627524 -1.8389705889 -1.0047320335
| 19> O 2.2113340826 0.8044175646 1.0037898623
| 20> O 0.0137784506 1.2931561389 -1.7704718716
| 21> O -0.4411693273 1.714475793 1.7979081279
| 22> O -1.6454007445 -0.8629191177 -1.6132434805
| 23> H -3.0480092141 -0.3542678778 -0.2752435919
| 24> H -2.3401626017 -1.9661753812 -0.0173392016
| 25> H 0.6611801407 -2.7686940253 -0.8015878005
| 26> H 3.0221946882 0.3066345396 1.1556468674
| 27> H -0.6617893517 0.6033637041 -1.9203231857
| 28> H 0.4492781268 1.4268656901 2.0448852993
| 29> H -0.7932173047 -1.3397286955 -1.6583982518
| 30> *
| 31>
| 32>                          ****END OF INPUT****

CARTESIAN COORDINATES (ANGSTROEM)
---------------------------------
  C     -2.117428   -0.925480   -0.291463
  C     -1.175843   -0.349817    0.785000
  H     -1.731985   -0.378249    1.730143
  C     -0.764517    1.122731    0.565684
  H     -1.636939    1.667964    0.187706
  C      0.395607    1.296495   -0.432584
  H      0.832083    2.287475   -0.246750
  C      1.525798    0.285303   -0.116044
  H      2.178100    0.221914   -0.997637
  C      1.038243   -1.141244    0.202491
  H      1.834965   -1.649982    0.773711
  O     -0.061458   -1.203963    1.053013
  O      0.825063   -1.838971   -1.004732
  O      2.211334    0.804418    1.003790
  O      0.013778    1.293156   -1.770472
  O     -0.441169    1.714476    1.797908
  O     -1.645401   -0.862919   -1.613243
  H     -3.048009   -0.354268   -0.275244
  H     -2.340163   -1.966175   -0.017339
  H      0.661180   -2.768694   -0.801588
  H      3.022195    0.306635    1.155647
  H     -0.661789    0.603364   -1.920323
  H      0.449278    1.426866    2.044885
  H     -0.793217   -1.339729   -1.658398

 Total Charge           Charge          ....    0
 Multiplicity           Mult            ....    1
 Number of Electrons    NEL             ....   96
 Basis Dimension        Dim             ....  192

ORBITAL ENERGIES
----------------

  NO   OCC          E(Eh)            E(eV)
   0   2.0000     -18.801332      -511.6103
   1   2.0000     -18.781069      -511.0589
   2   2.0000     -18.778252      -510.9822
   3   2.0000     -18.763835      -510.5899
   4   2.0000     -18.736389      -509.8431
   5   2.0000     -18.728872      -509.6385
   6   2.0000     -10.007065      -272.3061
   7   2.0000      -9.952056      -270.8092
   8   2.0000      -9.947039      -270.6727
   9   2.0000      -9.942691      -270.5544
  10   2.0000      -9.939518      -270.4680
  11   2.0000      -9.937301      -270.4077
  12   2.0000      -1.004083       -27.3225
  13   2.0000      -0.954953       -25.9856
  14   2.0000      -0.942295       -25.6412
  15   2.0000      -0.936882       -25.4939
  16   2.0000      -0.919195       -25.0126
  17   2.0000      -0.907571       -24.6963
  18   2.0000      -0.705784       -19.2053
  19   2.0000      -0.694381       -18.8951
  20   2.0000      -0.627806       -17.0835
  21   2.0000      -0.599557       -16.3148
  22   2.0000      -0.583979       -15.8909
  23   2.0000      -0.534792       -14.5524
  24   2.0000      -0.498547       -13.5662
  25   2.0000      -0.489593       -13.3225
  26   2.0000      -0.483141       -13.1469
  27   2.0000      -0.472034       -12.8447
  28   2.0000      -0.453302       -12.3350
  29   2.0000      -0.433084       -11.7848
  30   2.0000      -0.426753       -11.6125
  31   2.0000      -0.413860       -11.2617
  32   2.0000      -0.391360       -10.6495
  33   2.0000      -0.373486       -10.1631
  34   2.0000      -0.369753       -10.0615
  35   2.0000      -0.356687        -9.7059
  36   2.0000      -0.349401        -9.5077
  37   2.0000      -0.320447        -8.7198
  38   2.0000      -0.313611        -8.5338
  39   2.0000      -0.302729        -8.2377
  40   2.0000      -0.286865        -7.8060
  41   2.0000      -0.278038        -7.5658
  42   2.0000      -0.267516        -7.2795
  43   2.0000      -0.254642        -6.9292
  44   2.0000      -0.245481        -6.6799
  45   2.0000      -0.228891        -6.2284
  46   2.0000      -0.215267        -5.8577
  47   2.0000      -0.196540        -5.3481
  48   0.0000      -0.002652        -0.0722
  49   0.0000       0.004190         0.1140
  50   0.0000       0.043604         1.1865
  51   0.0000       0.055691         1.5154
  52   0.0000       0.068219         1.8563

MULLIKEN ATOMIC CHARGES
-----------------------
   0 C :    0.025476
   1 C :    0.022649
   2 H :    0.083046
   3 C :    0.043803
   4 H :    0.077698
   5 C :    0.050412
   6 H :    0.085820
   7 C :    0.022283
   8 H :    0.086885
   9 C :    0.176361
  10 H :    0.054598
  11 O :   -0.306635
  12 O :   -0.404676
  13 O :   -0.419549
  14 O :   -0.415802
  15 O :   -0.424055
  16 O :   -0.442252
  17 H :    0.097550
  18 H :    0.080653
  19 H :    0.315691
  20 H :    0.307045
  21 H :    0.283392
  22 H :    0.300696
  23 H :    0.298910
Sum of atomic charges:   -0.0000000

LOEWDIN ATOMIC CHARGES
----------------------
   0 C :   -0.137382
   1 C :   -0.080489
   2 H :    0.128142
   3 C :   -0.070478
   4 H :    0.120491
   5 C :   -0.073103
   6 H :    0.121545
   7 C :   -0.085681
   8 H :    0.115911
   9 C :   -0.014386
  10 H :    0.096687
  11 O :   -0.140104
  12 O :   -0.305426
  13 O :   -0.307377
  14 O :   -0.325390
  15 O :   -0.318513
  16 O :   -0.333834
  17 H :    0.122734
  18 H :    0.102665
  19 H :    0.293005
  20 H :    0.289539
  21 H :    0.263496
  22 H :    0.273523
  23 H :    0.264426

  Mayer bond orders larger than 0.100000
B(  0-C ,  1-C ) :   1.0329 B(  0-C , 16-O ) :   1.0563 B(  0-C , 17-H ) :   0.9186
B(  0-C , 18-H ) :   0.9136 B(  1-C ,  2-H ) :   0.8805 B(  1-C ,  3-C ) :   0.9786
B(  1-C , 11-O ) :   0.9643 B(  3-C ,  4-H ) :   0.8945 B(  3-C ,  5-C ) :   0.9996
B(  3-C , 15-O ) :   1.0551 B(  5-C ,  6-H ) :   0.8961 B(  5-C ,  7-C ) :   0.9609
B(  5-C , 14-O ) :   1.1229 B(  7-C ,  8-H ) :   0.8912 B(  7-C ,  9-C ) :   0.9734
B(  7-C , 13-O ) :   1.0130 B(  9-C , 10-H ) :   0.9017 B(  9-C , 11-O ) :   1.1040
B(  9-C , 12-O ) :   1.0406 B( 12-O , 19-H ) :   0.8294 B( 12-O , 23-H ) :   0.1458
B( 13-O , 20-H ) :   0.8417 B( 14-O , 21-H ) :   0.7738 B( 15-O , 22-H ) :   0.8226
B( 16-O , 21-H ) :   0.1687 B( 16-O , 23-H ) :   0.7599

Dispersion correction           -0.026543217
FINAL SINGLE POINT ENERGY      -685.704144620035

DIPOLE MOMENT
-------------

Method             : SCF
Type of density    : Electron Density
Multiplicity       :   1
Irrep              :   0
Energy             :  -685.8402793956896630 Eh
Relativity type    :
Basis              : AO
                                X                 Y                 Z
Electronic contribution:      1.945422724       0.176776574       0.474511905
Nuclear contribution   :     -1.144620839      -1.824142037      -0.031537348
                        -----------------------------------------
Total Dipole Moment    :      0.800801885      -1.647365463       0.442974556
                        -----------------------------------------
Magnitude (a.u.)       :      1.884495446
Magnitude (Debye)      :      4.790006756

Rotational constants in cm-1:             0.039175             0.031383             0.027829
Rotational constants in MHz :          1174.449203           940.832681           834.285811

                             ****ORCA TERMINATED NORMALLY****
TOTAL RUN TIME: 0 days 0 hours 7 minutes 56 seconds 129 msec
