                         Program Version 6.0.1  -  RELEASE   -
|  1> ! pbe def2-sv(p) def2/J RI DEFGRID1 loosescf d4 GCP(DFT/SV(P)) printgap
|  2> %output
|  3>     printlevel normal
|  4> end
|  5> * xyz 0 1
|  6> C -2.3306488638 -0.8470070853 -0.2338402927
|  7> O -0.9331944187 -0.5869104104 -0.1756488699
|  8> C -0.5543036049 0.6765264818 -0.0625868705
|  9> O -1.2960063488 1.6214109018 -0.0184222539
| 10> C 0.9563388652 0.8371248095 -0.0244056949
| 11> Cl 1.816135374 -0.6933584371 0.2228451689
| 12> H -2.4548087923 -1.7520770773 -0.8240012068
| 13> H -2.8515581663 -0.0059426837 -0.6946394875
| 14> H -2.7156527242 -1.0013534464 0.7756111518
| 15> H 1.2215251024 1.5208312488 0.7829365721
| 16> H 1.2870560804 1.2615461751 -0.9745084553
| 17> *
| 18>
| 19>                          ****END OF INPUT****

CARTESIAN COORDINATES (ANGSTROEM)
---------------------------------
  C     -2.330649   -0.847007   -0.233840
  O     -0.933194   -0.586910   -0.175649
  C     -0.554304    0.676526   -0.062587
  O     -1.296006    1.621411   -0.018422
  C      0.956339    0.837125   -0.024406
  Cl     1.816135   -0.693358    0.222845
  H     -2.454809   -1.752077   -0.824001
  H     -2.851558   -0.005943   -0.694639
  H     -2.715653   -1.001353    0.775611
  H      1.221525    1.520831    0.782937
  H      1.287056    1.261546   -0.974508

 Total Charge           Charge          ....    0
 Multiplicity           Mult            ....    1
 Number of Electrons    NEL             ....   56
 Basis Dimension        Dim             ....   98

ORBITAL ENERGIES
----------------

  NO   OCC          E(Eh)            E(eV)
   0   2.0000    -100.625538     -2738.1601
   1   2.0000     -18.813168      -511.9323
   2   2.0000     -18.751403      -510.2516
   3   2.0000     -10.022985      -272.7393
   4   2.0000      -9.956679      -270.9350
   5   2.0000      -9.947760      -270.6923
   6   2.0000      -9.161594      -249.2996
   7   2.0000      -6.993584      -190.3051
   8   2.0000      -6.980993      -189.9625
   9   2.0000      -6.980897      -189.9599
  10   2.0000      -1.022986       -27.8369
  11   2.0000      -0.932036       -25.3620
  12   2.0000      -0.786789       -21.4096
  13   2.0000      -0.682681       -18.5767
  14   2.0000      -0.625252       -17.0140
  15   2.0000      -0.521529       -14.1915
  16   2.0000      -0.465576       -12.6690
  17   2.0000      -0.457043       -12.4368
  18   2.0000      -0.423968       -11.5367
  19   2.0000      -0.415459       -11.3052
  20   2.0000      -0.380032       -10.3412
  21   2.0000      -0.379947       -10.3389
  22   2.0000      -0.350554        -9.5391
  23   2.0000      -0.313290        -8.5251
  24   2.0000      -0.274624        -7.4729
  25   2.0000      -0.266484        -7.2514
  26   2.0000      -0.250999        -6.8300
  27   2.0000      -0.229109        -6.2344
  28   0.0000      -0.034414        -0.9365
  29   0.0000       0.011138         0.3031
  30   0.0000       0.045994         1.2516
  31   0.0000       0.056417         1.5352
  32   0.0000       0.088927         2.4198

MULLIKEN ATOMIC CHARGES
-----------------------
   0 C :   -0.127713
   1 O :   -0.217719
   2 C :    0.124544
   3 O :   -0.192058
   4 C :   -0.173666
   5 Cl:   -0.124855
   6 H :    0.128432
   7 H :    0.129932
   8 H :    0.125880
   9 H :    0.161676
  10 H :    0.165548
Sum of atomic charges:   -0.0000000

LOEWDIN ATOMIC CHARGES
----------------------
   0 C :   -0.205933
   1 O :   -0.060090
   2 C :    0.007483
   3 O :   -0.150091
   4 C :   -0.308608
   5 Cl:    0.051443
   6 H :    0.124154
   7 H :    0.122713
   8 H :    0.122348
   9 H :    0.146820
  10 H :    0.149763

  Mayer bond orders larger than 0.100000
B(  0-C ,  1-O ) :   0.9389 B(  0-C ,  6-H ) :   0.9595 B(  0-C ,  7-H ) :   0.9376
B(  0-C ,  8-H ) :   0.9582 B(  1-O ,  2-C ) :   1.2618 B(  1-O ,  3-O ) :   0.1044
B(  2-C ,  3-O ) :   2.0592 B(  2-C ,  4-C ) :   0.9749 B(  4-C ,  5-Cl) :   1.0672
B(  4-C ,  9-H ) :   0.9148 B(  4-C , 10-H ) :   0.9050

Dispersion correction           -0.008310667
FINAL SINGLE POINT ENERGY      -727.081532937781

DIPOLE MOMENT
-------------

Method             : SCF
Type of density    : Electron Density
Multiplicity       :   1
Irrep              :   0
Energy             :  -727.1235565878662328 Eh
Relativity type    :
Basis              : AO
                                X                 Y                 Z
Electronic contribution:      7.334749577      -1.187361945       1.024030671
Nuclear contribution   :     -7.643187306       0.967525217      -1.178795144
                        -----------------------------------------
Total Dipole Moment    :     -0.308437729      -0.219836729      -0.154764473
                        -----------------------------------------
Magnitude (a.u.)       :      0.409162635
Magnitude (Debye)      :      1.040008768

Rotational constants in cm-1:             0.179751             0.061516             0.046791
Rotational constants in MHz :          5388.799452          1844.203705          1402.748229

                             ****ORCA TERMINATED NORMALLY****
TOTAL RUN TIME: 0 days 0 hours 0 minutes 7 seconds 422 msec
