                         Program Version 6.0.1  -  RELEASE   -
|  1> ! r2scan-3c def2/J RI DEFGRID2 scfconv6 printgap
|  2> %output
|  3>     printlevel normal
|  4> end
|  5> * xyz 0 1
|  6> C -2.1949054672 -0.9053948771 -0.1494005616
|  7> C -1.1279067309 -0.3284726645 0.8050239765
|  8> H -1.5947695078 -0.3101823655 1.7987853003
|  9> C -0.7259131881 1.1289156391 0.4898211697
| 10> H -1.5854499921 1.6461347384 0.0477040209
| 11> C 0.4712053754 1.2449364687 -0.4858260724
| 12> H 0.7990329899 2.2959433566 -0.4510596092
| 13> C 1.606590933 0.3331014812 0.000795536
| 14> H 2.4079062309 0.313864973 -0.7536710321
| 15> C 1.068631536 -1.1107005551 0.1274524067
| 16> H 1.8421921906 -1.7277761547 0.6066942835
| 17> O -0.0216406893 -1.2113414468 0.9814247808
| 18> O 0.8377017235 -1.6146956511 -1.1626703874
| 19> O 2.1045100696 0.7261727267 1.2571761128
| 20> O 0.108741198 0.9594283608 -1.816950573
| 21> O -0.4363021545 1.8216730375 1.6758027523
| 22> O -1.7938117662 -1.0285907656 -1.4905391024
| 23> H -3.0944306826 -0.2819906217 -0.0694181465
| 24> H -2.4374841904 -1.9184841445 0.1809130119
| 25> H -0.1268802066 -1.749662779 -1.2852638981
| 26> H 2.5480979063 1.5782837514 1.1691814337
| 27> H 0.5213946633 0.1150908213 -2.0699022179
| 28> H 0.3260645065 1.3864978868 2.0898893141
| 29> H -1.5395947373 -0.1523238303 -1.8306693799
| 30> *
| 31>
| 32>                          ****END OF INPUT****

CARTESIAN COORDINATES (ANGSTROEM)
---------------------------------
  C     -2.194905   -0.905395   -0.149401
  C     -1.127907   -0.328473    0.805024
  H     -1.594770   -0.310182    1.798785
  C     -0.725913    1.128916    0.489821
  H     -1.585450    1.646135    0.047704
  C      0.471205    1.244936   -0.485826
  H      0.799033    2.295943   -0.451060
  C      1.606591    0.333101    0.000796
  H      2.407906    0.313865   -0.753671
  C      1.068632   -1.110701    0.127452
  H      1.842192   -1.727776    0.606694
  O     -0.021641   -1.211341    0.981425
  O      0.837702   -1.614696   -1.162670
  O      2.104510    0.726173    1.257176
  O      0.108741    0.959428   -1.816951
  O     -0.436302    1.821673    1.675803
  O     -1.793812   -1.028591   -1.490539
  H     -3.094431   -0.281991   -0.069418
  H     -2.437484   -1.918484    0.180913
  H     -0.126880   -1.749663   -1.285264
  H      2.548098    1.578284    1.169181
  H      0.521395    0.115091   -2.069902
  H      0.326065    1.386498    2.089889
  H     -1.539595   -0.152324   -1.830669

 Total Charge           Charge          ....    0
 Multiplicity           Mult            ....    1
 Number of Electrons    NEL             ....   96
 Basis Dimension        Dim             ....  318

ORBITAL ENERGIES
----------------

  NO   OCC          E(Eh)            E(eV)
   0   2.0000     -18.985858      -516.6315
   1   2.0000     -18.978486      -516.4308
   2   2.0000     -18.971763      -516.2479
   3   2.0000     -18.971495      -516.2406
   4   2.0000     -18.959499      -515.9142
   5   2.0000     -18.952763      -515.7309
   6   2.0000     -10.143698      -276.0240
   7   2.0000     -10.105596      -274.9872
   8   2.0000     -10.102142      -274.8933
   9   2.0000     -10.099372      -274.8179
  10   2.0000     -10.098308      -274.7889
  11   2.0000     -10.093256      -274.6515
  12   2.0000      -1.058714       -28.8091
  13   2.0000      -1.024277       -27.8720
  14   2.0000      -1.014819       -27.6146
  15   2.0000      -1.005275       -27.3549
  16   2.0000      -0.997809       -27.1518
  17   2.0000      -0.977127       -26.5890
  18   2.0000      -0.754314       -20.5259
  19   2.0000      -0.746180       -20.3046
  20   2.0000      -0.672999       -18.3132
  21   2.0000      -0.628906       -17.1134
  22   2.0000      -0.624226       -16.9861
  23   2.0000      -0.555444       -15.1144
  24   2.0000      -0.526965       -14.3394
  25   2.0000      -0.523251       -14.2384
  26   2.0000      -0.505701       -13.7608
  27   2.0000      -0.482365       -13.1258
  28   2.0000      -0.471713       -12.8360
  29   2.0000      -0.454923       -12.3791
  30   2.0000      -0.448445       -12.2028
  31   2.0000      -0.441168       -12.0048
  32   2.0000      -0.412428       -11.2227
  33   2.0000      -0.408039       -11.1033
  34   2.0000      -0.399484       -10.8705
  35   2.0000      -0.373996       -10.1769
  36   2.0000      -0.366347        -9.9688
  37   2.0000      -0.357367        -9.7245
  38   2.0000      -0.347317        -9.4510
  39   2.0000      -0.326898        -8.8954
  40   2.0000      -0.324368        -8.8265
  41   2.0000      -0.306082        -8.3289
  42   2.0000      -0.288724        -7.8566
  43   2.0000      -0.279713        -7.6114
  44   2.0000      -0.270355        -7.3567
  45   2.0000      -0.243194        -6.6176
  46   2.0000      -0.240037        -6.5317
  47   2.0000      -0.228165        -6.2087
  48   0.0000       0.021024         0.5721
  49   0.0000       0.039213         1.0670
  50   0.0000       0.066458         1.8084
  51   0.0000       0.079198         2.1551
  52   0.0000       0.085761         2.3337

MULLIKEN ATOMIC CHARGES
-----------------------
   0 C :   -0.225642
   1 C :    0.044110
   2 H :    0.173102
   3 C :   -0.116066
   4 H :    0.172469
   5 C :   -0.004629
   6 H :    0.172043
   7 C :   -0.094322
   8 H :    0.162601
   9 C :   -0.050898
  10 H :    0.146297
  11 O :   -0.195006
  12 O :   -0.461903
  13 O :   -0.423540
  14 O :   -0.442292
  15 O :   -0.410927
  16 O :   -0.477772
  17 H :    0.141344
  18 H :    0.157887
  19 H :    0.399616
  20 H :    0.308373
  21 H :    0.344144
  22 H :    0.337021
  23 H :    0.343990
Sum of atomic charges:   -0.0000000

LOEWDIN ATOMIC CHARGES
----------------------
   0 C :    0.025756
   1 C :    0.101910
   2 H :    0.211649
   3 C :    0.104565
   4 H :    0.197474
   5 C :    0.108546
   6 H :    0.191546
   7 C :    0.118540
   8 H :    0.187462
   9 C :    0.299708
  10 H :    0.209659
  11 O :   -0.637521
  12 O :   -0.543861
  13 O :   -0.572127
  14 O :   -0.592083
  15 O :   -0.579880
  16 O :   -0.614401
  17 H :    0.171341
  18 H :    0.188803
  19 H :    0.294109
  20 H :    0.276327
  21 H :    0.287034
  22 H :    0.282731
  23 H :    0.282713

  Mayer bond orders larger than 0.100000
B(  0-C ,  1-C ) :   0.8900 B(  0-C , 16-O ) :   0.9820 B(  0-C , 17-H ) :   0.9786
B(  0-C , 18-H ) :   0.9742 B(  1-C ,  2-H ) :   0.9501 B(  1-C ,  3-C ) :   0.8259
B(  1-C , 11-O ) :   0.8766 B(  3-C ,  4-H ) :   0.9928 B(  3-C ,  5-C ) :   0.8009
B(  3-C , 15-O ) :   0.9749 B(  5-C ,  6-H ) :   0.9993 B(  5-C ,  7-C ) :   0.8629
B(  5-C , 14-O ) :   0.9414 B(  7-C ,  8-H ) :   0.9742 B(  7-C ,  9-C ) :   0.9585
B(  7-C , 13-O ) :   0.9365 B(  9-C , 10-H ) :   0.9553 B(  9-C , 11-O ) :   1.0339
B(  9-C , 12-O ) :   0.9576 B( 12-O , 19-H ) :   0.7766 B( 13-O , 20-H ) :   0.8935
B( 14-O , 21-H ) :   0.8188 B( 15-O , 22-H ) :   0.8323 B( 16-O , 23-H ) :   0.8277

Dispersion correction           -0.008946238
FINAL SINGLE POINT ENERGY      -687.073302788388

DIPOLE MOMENT
-------------

Method             : SCF
Type of density    : Electron Density
Multiplicity       :   1
Irrep              :   0
Energy             :  -687.0877412055457398 Eh
Relativity type    :
Basis              : AO
                                X                 Y                 Z
Electronic contribution:      2.051320215      -0.644276555       0.598476228
Nuclear contribution   :     -1.802507015       1.116338592      -0.540003945
                        -----------------------------------------
Total Dipole Moment    :      0.248813200       0.472062037       0.058472283
                        -----------------------------------------
Magnitude (a.u.)       :      0.536814291
Magnitude (Debye)      :      1.364473492

Rotational constants in cm-1:             0.041577             0.031581             0.027599
Rotational constants in MHz :          1246.448822           946.782516           827.409617

                             ****ORCA TERMINATED NORMALLY****
TOTAL RUN TIME: 0 days 0 hours 0 minutes 41 seconds 459 msec
