                         Program Version 6.0.1  -  RELEASE   -
|  1> ! pbe def2-sv(p) def2/J RI DEFGRID1 loosescf d4 GCP(DFT/SV(P)) printgap
|  2> %output
|  3>     printlevel normal
|  4> end
|  5> * xyz 0 1
|  6> C -2.2197350845 -0.982178279 -0.0576732505
|  7> C -1.0936256184 -0.353475775 0.8000151642
|  8> H -1.5099231736 -0.301902398 1.818207103
|  9> C -0.7308904451 1.0949513304 0.3973361817
| 10> H -1.5532315376 1.4994523689 -0.209496603
| 11> C 0.5568036671 1.2613554139 -0.4319001683
| 12> H 0.8888914541 2.2953856815 -0.2589230001
| 13> C 1.6627775135 0.308405911 0.0612235352
| 14> H 2.5133380178 0.3360877096 -0.6311203474
| 15> C 1.0954795119 -1.1262553267 0.0675549387
| 16> H 1.829149256 -1.8255743646 0.485141576
| 17> O 0.0129249418 -1.2290991287 0.9585038087
| 18> O 0.8060188885 -1.5535002072 -1.2252975624
| 19> O 2.1568962327 0.6953395453 1.3084706473
| 20> O 0.2530934336 1.0546906103 -1.7967720122
| 21> O -0.5222845534 1.8884334004 1.552032273
| 22> O -1.9608817803 -1.0940165536 -1.4237992171
| 23> H -3.1100856425 -0.3536969756 0.0334589277
| 24> H -2.4381244681 -1.9659031485 0.381450636
| 25> H 0.4253188243 -0.7993304307 -1.7179716664
| 26> H 1.4082698392 0.8371634833 1.904889785
| 27> H 0.9661800899 1.4100059588 -2.3383222197
| 28> H -1.340885194 1.9487537454 2.0559591129
| 29> H -1.2275437449 -1.7167901649 -1.541590643
| 30> *
| 31>
| 32>                          ****END OF INPUT****

CARTESIAN COORDINATES (ANGSTROEM)
---------------------------------
  C     -2.219735   -0.982178   -0.057673
  C     -1.093626   -0.353476    0.800015
  H     -1.509923   -0.301902    1.818207
  C     -0.730890    1.094951    0.397336
  H     -1.553232    1.499452   -0.209497
  C      0.556804    1.261355   -0.431900
  H      0.888891    2.295386   -0.258923
  C      1.662778    0.308406    0.061224
  H      2.513338    0.336088   -0.631120
  C      1.095480   -1.126255    0.067555
  H      1.829149   -1.825574    0.485142
  O      0.012925   -1.229099    0.958504
  O      0.806019   -1.553500   -1.225298
  O      2.156896    0.695340    1.308471
  O      0.253093    1.054691   -1.796772
  O     -0.522285    1.888433    1.552032
  O     -1.960882   -1.094017   -1.423799
  H     -3.110086   -0.353697    0.033459
  H     -2.438124   -1.965903    0.381451
  H      0.425319   -0.799330   -1.717972
  H      1.408270    0.837163    1.904890
  H      0.966180    1.410006   -2.338322
  H     -1.340885    1.948754    2.055959
  H     -1.227544   -1.716790   -1.541591

 Total Charge           Charge          ....    0
 Multiplicity           Mult            ....    1
 Number of Electrons    NEL             ....   96
 Basis Dimension        Dim             ....  192

ORBITAL ENERGIES
----------------

  NO   OCC          E(Eh)            E(eV)
   0   2.0000     -18.788429      -511.2591
   1   2.0000     -18.775970      -510.9201
   2   2.0000     -18.765052      -510.6230
   3   2.0000     -18.758530      -510.4456
   4   2.0000     -18.747950      -510.1577
   5   2.0000     -18.742820      -510.0181
   6   2.0000      -9.980310      -271.5780
   7   2.0000      -9.960684      -271.0440
   8   2.0000      -9.959700      -271.0172
   9   2.0000      -9.950714      -270.7727
  10   2.0000      -9.944938      -270.6155
  11   2.0000      -9.933710      -270.3100
  12   2.0000      -0.985090       -26.8057
  13   2.0000      -0.959549       -26.1107
  14   2.0000      -0.951797       -25.8997
  15   2.0000      -0.928379       -25.2625
  16   2.0000      -0.921142       -25.0656
  17   2.0000      -0.911173       -24.7943
  18   2.0000      -0.712553       -19.3895
  19   2.0000      -0.691532       -18.8176
  20   2.0000      -0.629196       -17.1213
  21   2.0000      -0.596343       -16.2273
  22   2.0000      -0.572343       -15.5743
  23   2.0000      -0.530569       -14.4375
  24   2.0000      -0.513847       -13.9825
  25   2.0000      -0.498903       -13.5758
  26   2.0000      -0.472208       -12.8494
  27   2.0000      -0.468225       -12.7411
  28   2.0000      -0.449724       -12.2376
  29   2.0000      -0.431652       -11.7459
  30   2.0000      -0.427631       -11.6364
  31   2.0000      -0.403880       -10.9901
  32   2.0000      -0.388046       -10.5593
  33   2.0000      -0.386489       -10.5169
  34   2.0000      -0.370932       -10.0936
  35   2.0000      -0.353959        -9.6317
  36   2.0000      -0.329279        -8.9601
  37   2.0000      -0.326077        -8.8730
  38   2.0000      -0.309011        -8.4086
  39   2.0000      -0.301099        -8.1933
  40   2.0000      -0.290422        -7.9028
  41   2.0000      -0.279494        -7.6054
  42   2.0000      -0.262382        -7.1398
  43   2.0000      -0.255552        -6.9539
  44   2.0000      -0.243683        -6.6309
  45   2.0000      -0.241259        -6.5650
  46   2.0000      -0.206071        -5.6075
  47   2.0000      -0.200536        -5.4569
  48   0.0000      -0.005468        -0.1488
  49   0.0000       0.009227         0.2511
  50   0.0000       0.045136         1.2282
  51   0.0000       0.059928         1.6307
  52   0.0000       0.064141         1.7454

MULLIKEN ATOMIC CHARGES
-----------------------
   0 C :    0.043134
   1 C :    0.030502
   2 H :    0.053211
   3 C :    0.039057
   4 H :    0.090088
   5 C :    0.000576
   6 H :    0.091674
   7 C :    0.019904
   8 H :    0.072002
   9 C :    0.205987
  10 H :    0.076066
  11 O :   -0.306702
  12 O :   -0.424407
  13 O :   -0.412171
  14 O :   -0.399558
  15 O :   -0.421710
  16 O :   -0.433808
  17 H :    0.075575
  18 H :    0.082524
  19 H :    0.297723
  20 H :    0.301925
  21 H :    0.319167
  22 H :    0.307435
  23 H :    0.291807
Sum of atomic charges:    0.0000000

LOEWDIN ATOMIC CHARGES
----------------------
   0 C :   -0.135037
   1 C :   -0.085453
   2 H :    0.114847
   3 C :   -0.065018
   4 H :    0.117796
   5 C :   -0.075484
   6 H :    0.116522
   7 C :   -0.096368
   8 H :    0.113954
   9 C :   -0.009831
  10 H :    0.111908
  11 O :   -0.144205
  12 O :   -0.316626
  13 O :   -0.307049
  14 O :   -0.297951
  15 O :   -0.312754
  16 O :   -0.336378
  17 H :    0.110296
  18 H :    0.102458
  19 H :    0.262549
  20 H :    0.274819
  21 H :    0.298180
  22 H :    0.288319
  23 H :    0.270504

  Mayer bond orders larger than 0.100000
B(  0-C ,  1-C ) :   1.0237 B(  0-C , 16-O ) :   1.1212 B(  0-C , 17-H ) :   0.9154
B(  0-C , 18-H ) :   0.9119 B(  1-C ,  2-H ) :   0.8849 B(  1-C ,  3-C ) :   0.9697
B(  1-C , 11-O ) :   1.0062 B(  3-C ,  4-H ) :   0.8902 B(  3-C ,  5-C ) :   1.0101
B(  3-C , 15-O ) :   1.0256 B(  5-C ,  6-H ) :   0.8945 B(  5-C ,  7-C ) :   0.9823
B(  5-C , 14-O ) :   1.0274 B(  7-C ,  8-H ) :   0.8965 B(  7-C ,  9-C ) :   0.9778
B(  7-C , 13-O ) :   1.0777 B(  9-C , 10-H ) :   0.9070 B(  9-C , 11-O ) :   1.0440
B(  9-C , 12-O ) :   1.0867 B( 12-O , 19-H ) :   0.7602 B( 12-O , 23-H ) :   0.1041
B( 13-O , 20-H ) :   0.8204 B( 14-O , 19-H ) :   0.1416 B( 14-O , 21-H ) :   0.8371
B( 15-O , 22-H ) :   0.8433 B( 16-O , 23-H ) :   0.8001

Dispersion correction           -0.026364393
FINAL SINGLE POINT ENERGY      -685.694741194020

DIPOLE MOMENT
-------------

Method             : SCF
Type of density    : Electron Density
Multiplicity       :   1
Irrep              :   0
Energy             :  -685.8298443702741451 Eh
Relativity type    :
Basis              : AO
                                X                 Y                 Z
Electronic contribution:      2.507114596      -0.375097539       0.127117313
Nuclear contribution   :     -2.942917690       1.275808950      -0.026471423
                        -----------------------------------------
Total Dipole Moment    :     -0.435803094       0.900711411       0.100645890
                        -----------------------------------------
Magnitude (a.u.)       :      1.005651519
Magnitude (Debye)      :      2.556163020

Rotational constants in cm-1:             0.040119             0.030801             0.026904
Rotational constants in MHz :          1202.749724           923.393792           806.552585

                             ****ORCA TERMINATED NORMALLY****
TOTAL RUN TIME: 0 days 0 hours 0 minutes 9 seconds 251 msec
