                         Program Version 6.0.0  -   RELEASE  -
|  1> ! r2SCAN-3c DEF2-TZVP FREQ
|  2> * xyzfile 0 1 censo.xyz
|  3>
|  4>                          ****END OF INPUT****

CARTESIAN COORDINATES (ANGSTROEM)
---------------------------------
  C     -0.144063   -1.207063    0.000120
  C     -1.530052   -1.146122    0.000070
  N     -2.225331   -0.000022   -0.000259
  C     -1.530080    1.146092    0.000039
  C     -0.144094    1.207055    0.000089
  C      0.560049    0.000003   -0.000445
  C      1.983027    0.000043   -0.000251
  N      3.142315    0.000062   -0.000187
  H      0.375604   -2.157782    0.000405
  H     -2.109094   -2.065898   -0.000139
  H     -2.109142    2.065854   -0.000182
  H      0.375560    2.157780    0.000353

 Total Charge           Charge          ....    0
 Multiplicity           Mult            ....    1
 Number of Electrons    NEL             ....   54
 Basis Dimension        Dim             ....  272

ORBITAL ENERGIES
----------------

  NO   OCC          E(Eh)            E(eV)
   0   2.0000     -14.188159      -386.0794
   1   2.0000     -14.177694      -385.7947
   2   2.0000     -10.115178      -275.2480
   3   2.0000     -10.098144      -274.7845
   4   2.0000     -10.098141      -274.7844
   5   2.0000     -10.089639      -274.5530
   6   2.0000     -10.081779      -274.3392
   7   2.0000     -10.081770      -274.3389
   8   2.0000      -0.937215       -25.5029
   9   2.0000      -0.890060       -24.2198
  10   2.0000      -0.818640       -22.2763
  11   2.0000      -0.763221       -20.7683
  12   2.0000      -0.663595       -18.0573
  13   2.0000      -0.632673       -17.2159
  14   2.0000      -0.557375       -15.1669
  15   2.0000      -0.490738       -13.3537
  16   2.0000      -0.475745       -12.9457
  17   2.0000      -0.437415       -11.9027
  18   2.0000      -0.429674       -11.6920
  19   2.0000      -0.414117       -11.2687
  20   2.0000      -0.372916       -10.1476
  21   2.0000      -0.358958        -9.7677
  22   2.0000      -0.346080        -9.4173
  23   2.0000      -0.325288        -8.8515
  24   2.0000      -0.286697        -7.8014
  25   2.0000      -0.280292        -7.6271
  26   2.0000      -0.254221        -6.9177
  27   0.0000      -0.111281        -3.0281
  28   0.0000      -0.072413        -1.9705
  29   0.0000      -0.012378        -0.3368
  30   0.0000       0.022155         0.6029
  31   0.0000       0.037651         1.0245

MULLIKEN ATOMIC CHARGES
-----------------------
   0 C :   -0.162226
   1 C :    0.003398
   2 N :   -0.242514
   3 C :    0.003396
   4 C :   -0.162221
   5 C :    0.230722
   6 C :   -0.149805
   7 N :   -0.051289
   8 H :    0.138973
   9 H :    0.126298
  10 H :    0.126297
  11 H :    0.138971
Sum of atomic charges:    0.0000000

LOEWDIN ATOMIC CHARGES
----------------------
   0 C :   -0.083293
   1 C :   -0.184829
   2 N :    0.137667
   3 C :   -0.184831
   4 C :   -0.083292
   5 C :   -0.140310
   6 C :   -0.143675
   7 N :    0.082001
   8 H :    0.158039
   9 H :    0.142243
  10 H :    0.142243
  11 H :    0.158038

  Mayer bond orders larger than 0.100000
B(  0-C ,  1-C ) :   1.4119 B(  0-C ,  5-C ) :   1.3123 B(  0-C ,  8-H ) :   0.9633
B(  1-C ,  2-N ) :   1.4359 B(  1-C ,  9-H ) :   0.9770 B(  2-N ,  3-C ) :   1.4359
B(  3-C ,  4-C ) :   1.4119 B(  3-C , 10-H ) :   0.9770 B(  4-C ,  5-C ) :   1.3123
B(  4-C , 11-H ) :   0.9633 B(  5-C ,  6-C ) :   0.9330 B(  6-C ,  7-N ) :   2.9743

Dispersion correction           -0.003876945
FINAL SINGLE POINT ENERGY      -340.460162342989

DIPOLE MOMENT
-------------

Method             : SCF
Type of density    : Electron Density
Multiplicity       :   1
Irrep              :   0
Energy             :  -340.4610527474419541 Eh
Relativity type    :
Basis              : AO
                                X                 Y                 Z
Electronic contribution:      2.408062300       0.000041394      -0.000569220
Nuclear contribution   :     -3.236033857      -0.000065092       0.000781848
                        -----------------------------------------
Total Dipole Moment    :     -0.827971557      -0.000023698       0.000212627
                        -----------------------------------------
Magnitude (a.u.)       :      0.827971585
Magnitude (Debye)      :      2.104536518

VIBRATIONAL FREQUENCIES
-----------------------

Scaling factor for frequencies =  1.000000000  (already applied!)

     0:       0.00 cm**-1
     1:       0.00 cm**-1
     2:       0.00 cm**-1
     3:       0.00 cm**-1
     4:       0.00 cm**-1
     5:       0.00 cm**-1
     6:     147.08 cm**-1
     7:     171.68 cm**-1
     8:     365.98 cm**-1
     9:     388.07 cm**-1
    10:     460.82 cm**-1
    11:     565.90 cm**-1
    12:     574.47 cm**-1
    13:     687.69 cm**-1
    14:     758.70 cm**-1
    15:     786.04 cm**-1
    16:     828.90 cm**-1
    17:     880.08 cm**-1
    18:     978.77 cm**-1
    19:     996.83 cm**-1
    20:    1004.12 cm**-1
    21:    1087.21 cm**-1
    22:    1108.19 cm**-1
    23:    1223.68 cm**-1
    24:    1243.21 cm**-1
    25:    1269.14 cm**-1
    26:    1347.17 cm**-1
    27:    1437.40 cm**-1
    28:    1509.57 cm**-1
    29:    1570.76 cm**-1
    30:    1621.30 cm**-1
    31:    2291.11 cm**-1
    32:    3155.28 cm**-1
    33:    3157.94 cm**-1
    34:    3198.41 cm**-1
    35:    3199.06 cm**-1

IR SPECTRUM
-----------

 Mode   freq       eps      Int      T**2         TX        TY        TZ
       cm**-1   L/(mol*cm) km/mol    a.u.
----------------------------------------------------------------------------
  6:    147.08   0.001688    8.53  0.003582  (-0.000228  0.000001 -0.059849)
  7:    171.68   0.001511    7.63  0.002746  (-0.000001 -0.052403 -0.000000)
  8:    365.98   0.000000    0.00  0.000000  (-0.000000  0.000081  0.000002)
  9:    388.07   0.000104    0.53  0.000084  ( 0.000153 -0.000000  0.009165)
 10:    460.82   0.000242    1.22  0.000164  (-0.012795 -0.000000  0.000010)
 11:    565.90   0.000007    0.03  0.000004  (-0.000000  0.001936 -0.000000)
 12:    574.47   0.004394   22.20  0.002387  (-0.000065 -0.000000 -0.048853)
 13:    687.69   0.000014    0.07  0.000006  ( 0.000000 -0.002480  0.000000)
 14:    758.70   0.000005    0.02  0.000002  ( 0.000030 -0.000001  0.001382)
 15:    786.04   0.002938   14.85  0.001166  ( 0.034151  0.000001 -0.000058)
 16:    828.90   0.007496   37.88  0.002822  ( 0.000076 -0.000003  0.053124)
 17:    880.08   0.000000    0.00  0.000000  ( 0.000000 -0.000029  0.000002)
 18:    978.77   0.000115    0.58  0.000037  (-0.000061  0.000000 -0.006051)
 19:    996.83   0.000000    0.00  0.000000  (-0.000000  0.000031 -0.000002)
 20:   1004.12   0.000887    4.48  0.000276  (-0.016603  0.000000 -0.000010)
 21:   1087.21   0.000398    2.01  0.000114  (-0.010687  0.000000  0.000007)
 22:   1108.19   0.000098    0.49  0.000028  ( 0.000001  0.005251  0.000000)
 23:   1223.68   0.000009    0.05  0.000002  ( 0.001536 -0.000000 -0.000005)
 24:   1243.21   0.001065    5.38  0.000267  ( 0.016350  0.000001  0.000008)
 25:   1269.14   0.000237    1.20  0.000058  ( 0.000003 -0.007630  0.000000)
 26:   1347.17   0.000048    0.24  0.000011  (-0.000000 -0.003344  0.000000)
 27:   1437.40   0.004159   21.02  0.000903  (-0.000000  0.030050 -0.000000)
 28:   1509.57   0.000451    2.28  0.000093  ( 0.009650 -0.000002 -0.000002)
 29:   1570.76   0.004116   20.80  0.000818  (-0.000002  0.028597 -0.000000)
 30:   1621.30   0.005829   29.46  0.001122  ( 0.033497  0.000002 -0.000007)
 31:   2291.11   0.001717    8.68  0.000234  (-0.015291 -0.000000 -0.000000)
 32:   3155.28   0.004291   21.69  0.000424  ( 0.000034  0.020601 -0.000000)
 33:   3157.94   0.000949    4.80  0.000094  (-0.009686  0.000073  0.000007)
 34:   3198.41   0.000717    3.62  0.000070  ( 0.000010  0.008365 -0.000000)
 35:   3199.06   0.000023    0.12  0.000002  (-0.001492  0.000055  0.000001)

--------------------------
THERMOCHEMISTRY AT 298.15K
--------------------------

Temperature         ...   298.15 K
Pressure            ...     1.00 atm
Total Mass          ...   104.11 AMU
Quasi RRHO          ...     True
Cut-Off Frequency   ...     1.00 cm^-1

Throughout the following assumptions are being made:
  (1) The electronic state is orbitally nondegenerate
  (2) There are no thermally accessible electronically excited states
  (3) Hindered rotations indicated by low frequency modes are not
      treated as such but are treated as vibrations and this may
      cause some error
  (4) All equations used are the standard statistical mechanics
      equations for an ideal gas
  (5) All vibrations are strictly harmonic

freq.     147.08  E(vib)   ...       0.41
freq.     171.68  E(vib)   ...       0.38
freq.     365.98  E(vib)   ...       0.22
freq.     388.07  E(vib)   ...       0.20
freq.     460.82  E(vib)   ...       0.16
freq.     565.90  E(vib)   ...       0.11
freq.     574.47  E(vib)   ...       0.11
freq.     687.69  E(vib)   ...       0.07
freq.     758.70  E(vib)   ...       0.06
freq.     786.04  E(vib)   ...       0.05
freq.     828.90  E(vib)   ...       0.04
freq.     880.08  E(vib)   ...       0.04
freq.     978.77  E(vib)   ...       0.03
freq.     996.83  E(vib)   ...       0.02
freq.    1004.12  E(vib)   ...       0.02
freq.    1087.21  E(vib)   ...       0.02
freq.    1108.19  E(vib)   ...       0.02
freq.    1223.68  E(vib)   ...       0.01
freq.    1243.21  E(vib)   ...       0.01
freq.    1269.14  E(vib)   ...       0.01
freq.    1347.17  E(vib)   ...       0.01
freq.    1437.40  E(vib)   ...       0.00
freq.    1509.57  E(vib)   ...       0.00
freq.    1570.76  E(vib)   ...       0.00
freq.    1621.30  E(vib)   ...       0.00
freq.    2291.11  E(vib)   ...       0.00
freq.    3155.28  E(vib)   ...       0.00
freq.    3157.94  E(vib)   ...       0.00
freq.    3198.41  E(vib)   ...       0.00
freq.    3199.06  E(vib)   ...       0.00

------------
INNER ENERGY
------------

The inner energy is: U= E(el) + E(ZPE) + E(vib) + E(rot) + E(trans)
    E(el)   - is the total energy from the electronic structure calculation
              = E(kin-el) + E(nuc-el) + E(el-el) + E(nuc-nuc)
    E(ZPE)  - the the zero temperature vibrational energy from the frequency calculation
    E(vib)  - the the finite temperature correction to E(ZPE) due to population
              of excited vibrational states
    E(rot)  - is the rotational thermal energy
    E(trans)- is the translational thermal energy

Summary of contributions to the inner energy U:
Electronic energy                ...   -340.46016234 Eh
Zero point energy                ...      0.08660354 Eh      54.34 kcal/mol
Thermal vibrational correction   ...      0.00318234 Eh       2.00 kcal/mol
Thermal rotational correction    ...      0.00141627 Eh       0.89 kcal/mol
Thermal translational correction ...      0.00141627 Eh       0.89 kcal/mol
-----------------------------------------------------------------------
Total thermal energy                   -340.36754392 Eh

Summary of corrections to the electronic energy:
(perhaps to be used in another calculation)
Total thermal correction                  0.00601488 Eh       3.77 kcal/mol
Non-thermal (ZPE) correction              0.08660354 Eh      54.34 kcal/mol
-----------------------------------------------------------------------
Total correction                          0.09261842 Eh      58.12 kcal/mol

--------
ENTHALPY
--------

The enthalpy is H = U + kB*T
                kB is Boltzmann's constant
Total thermal energy              ...   -340.36754392 Eh
Thermal Enthalpy correction       ...      0.00094421 Eh       0.59 kcal/mol
-----------------------------------------------------------------------
Total Enthalpy                    ...   -340.36659971 Eh

Note: Rotational entropy computed according to Herzberg
Infrared and Raman Spectra, Chapter V,1, Van Nostrand Reinhold, 1945
Point Group:  Cs, Symmetry Number:   1
Rotational constants in cm-1:     0.199393     0.051924     0.041196

Vibrational entropy computed according to the QRRHO of S. Grimme
Chem.Eur.J. 2012 18 9955 using a reference frequency of 100.0 cm-1

-------
ENTROPY
-------

The entropy contributions are T*S = T*(S(el)+S(vib)+S(rot)+S(trans))
     S(el)   - electronic entropy
     S(vib)  - vibrational entropy
     S(rot)  - rotational entropy
     S(trans)- translational entropy
The entropies will be listed as multiplied by the temperature to get
units of energy

Electronic entropy                ...      0.00000000 Eh      0.00 kcal/mol
Vibrational entropy               ...      0.00506568 Eh      3.18 kcal/mol
Rotational entropy                ...      0.01317416 Eh      8.27 kcal/mol
Translational entropy             ...      0.01892831 Eh     11.88 kcal/mol
-----------------------------------------------------------------------
Final entropy term                ...      0.03716816 Eh     23.32 kcal/mol

In case the symmetry of your molecule has not been determined correctly
or in case you have a reason to use a different symmetry number we print
out the resulting rotational entropy values for sn=1,12:

 non-linear molecules -----------------------------------
|  sn= 1 | S(rot)=       0.01317416 Eh      8.27 kcal/mol|
|  sn= 2 | S(rot)=       0.01251971 Eh      7.86 kcal/mol|
|  sn= 3 | S(rot)=       0.01213687 Eh      7.62 kcal/mol|
|  sn= 4 | S(rot)=       0.01186525 Eh      7.45 kcal/mol|
|  sn= 5 | S(rot)=       0.01165456 Eh      7.31 kcal/mol|
|  sn= 6 | S(rot)=       0.01148242 Eh      7.21 kcal/mol|
|  sn= 7 | S(rot)=       0.01133687 Eh      7.11 kcal/mol|
|  sn= 8 | S(rot)=       0.01121079 Eh      7.03 kcal/mol|
|  sn= 9 | S(rot)=       0.01109959 Eh      6.97 kcal/mol|
|  sn=10 | S(rot)=       0.01100011 Eh      6.90 kcal/mol|
|  sn=11 | S(rot)=       0.01091012 Eh      6.85 kcal/mol|
|  sn=12 | S(rot)=       0.01082796 Eh      6.79 kcal/mol|
 linear molecules ---------------------------------------
|  Dinfh | S(rot)=       0.00833718 Eh      5.23 kcal/mol|
|  Cinfv | S(rot)=       0.00899164 Eh      5.64 kcal/mol|
 --------------------------------------------------------

-------------------
GIBBS FREE ENERGY
-------------------

The Gibbs free energy is G = H - T*S

Total enthalpy                    ...   -340.36659971 Eh
Total entropy correction          ...     -0.03716816 Eh    -23.32 kcal/mol
-----------------------------------------------------------------------
Final Gibbs free energy         ...   -340.40376787 Eh

For completeness - the Gibbs free energy minus the electronic energy
G-E(el)                           ...      0.05639447 Eh     35.39 kcal/mol

                             ****ORCA TERMINATED NORMALLY****
TOTAL RUN TIME: 0 days 0 hours 7 minutes 38 seconds 497 msec
