                         Program Version 6.0.0  -   RELEASE  -
|  1> ! r2SCAN-3c DEF2-TZVP FREQ
|  2> * xyzfile 0 1 vacuum_censo.xyz
|  3>
|  4>                          ****END OF INPUT****

CARTESIAN COORDINATES (ANGSTROEM)
---------------------------------
  C     -0.144924   -1.203443   -0.000010
  C     -1.532840   -1.142403    0.000049
  N     -2.226885   -0.000022    0.000062
  C     -1.532968    1.142430    0.000018
  C     -0.145067    1.203635   -0.000031
  C      0.565923    0.000146   -0.000066
  C      1.991463    0.000458   -0.000524
  N      3.148640   -0.000895    0.000597
  H      0.375861   -2.153841   -0.000056
  H     -2.116230   -2.061018    0.000050
  H     -2.116434    2.060992    0.000016
  H      0.375629    2.154081   -0.000090

 Total Charge           Charge          ....    0
 Multiplicity           Mult            ....    1
 Number of Electrons    NEL             ....   54
 Basis Dimension        Dim             ....  272

ORBITAL ENERGIES
----------------

  NO   OCC          E(Eh)            E(eV)
   0   2.0000     -14.187572      -386.0635
   1   2.0000     -14.177655      -385.7936
   2   2.0000     -10.115563      -275.2585
   3   2.0000     -10.098021      -274.7811
   4   2.0000     -10.098014      -274.7809
   5   2.0000     -10.089831      -274.5583
   6   2.0000     -10.081899      -274.3424
   7   2.0000     -10.081883      -274.3420
   8   2.0000      -0.938642       -25.5417
   9   2.0000      -0.891081       -24.2475
  10   2.0000      -0.818922       -22.2840
  11   2.0000      -0.762359       -20.7448
  12   2.0000      -0.663023       -18.0418
  13   2.0000      -0.633150       -17.2289
  14   2.0000      -0.557076       -15.1588
  15   2.0000      -0.490788       -13.3550
  16   2.0000      -0.475284       -12.9331
  17   2.0000      -0.438766       -11.9394
  18   2.0000      -0.428334       -11.6556
  19   2.0000      -0.414295       -11.2735
  20   2.0000      -0.372265       -10.1298
  21   2.0000      -0.359756        -9.7895
  22   2.0000      -0.346383        -9.4256
  23   2.0000      -0.326046        -8.8722
  24   2.0000      -0.287500        -7.8233
  25   2.0000      -0.279598        -7.6082
  26   2.0000      -0.254308        -6.9201
  27   0.0000      -0.110898        -3.0177
  28   0.0000      -0.072535        -1.9738
  29   0.0000      -0.012459        -0.3390
  30   0.0000       0.022513         0.6126
  31   0.0000       0.037396         1.0176

MULLIKEN ATOMIC CHARGES
-----------------------
   0 C :   -0.161298
   1 C :    0.002923
   2 N :   -0.240987
   3 C :    0.002861
   4 C :   -0.161205
   5 C :    0.228746
   6 C :   -0.153729
   7 N :   -0.047057
   8 H :    0.138568
   9 H :    0.126315
  10 H :    0.126302
  11 H :    0.138562
Sum of atomic charges:    0.0000000

LOEWDIN ATOMIC CHARGES
----------------------
   0 C :   -0.083185
   1 C :   -0.186330
   2 N :    0.139118
   3 C :   -0.186337
   4 C :   -0.083226
   5 C :   -0.140044
   6 C :   -0.143890
   7 N :    0.083221
   8 H :    0.157786
   9 H :    0.142556
  10 H :    0.142551
  11 H :    0.157780

  Mayer bond orders larger than 0.100000
B(  0-C ,  1-C ) :   1.4100 B(  0-C ,  5-C ) :   1.3136 B(  0-C ,  8-H ) :   0.9635
B(  1-C ,  2-N ) :   1.4376 B(  1-C ,  9-H ) :   0.9768 B(  2-N ,  3-C ) :   1.4377
B(  3-C ,  4-C ) :   1.4100 B(  3-C , 10-H ) :   0.9768 B(  4-C ,  5-C ) :   1.3134
B(  4-C , 11-H ) :   0.9635 B(  5-C ,  6-C ) :   0.9331 B(  6-C ,  7-N ) :   2.9757

Dispersion correction           -0.003874865
FINAL SINGLE POINT ENERGY      -340.460290679146

DIPOLE MOMENT
-------------

Method             : SCF
Type of density    : Electron Density
Multiplicity       :   1
Irrep              :   0
Energy             :  -340.4611951804329806 Eh
Relativity type    :
Basis              : AO
                                X                 Y                 Z
Electronic contribution:      2.426595118       0.000288656      -0.000355466
Nuclear contribution   :     -3.254092481       0.000294832      -0.000156495
                        -----------------------------------------
Total Dipole Moment    :     -0.827497363       0.000583487      -0.000511960
                        -----------------------------------------
Magnitude (a.u.)       :      0.827497727
Magnitude (Debye)      :      2.103332067

VIBRATIONAL FREQUENCIES
-----------------------

Scaling factor for frequencies =  1.000000000  (already applied!)

     0:       0.00 cm**-1
     1:       0.00 cm**-1
     2:       0.00 cm**-1
     3:       0.00 cm**-1
     4:       0.00 cm**-1
     5:       0.00 cm**-1
     6:     143.12 cm**-1
     7:     162.56 cm**-1
     8:     369.20 cm**-1
     9:     381.77 cm**-1
    10:     459.67 cm**-1
    11:     561.89 cm**-1
    12:     573.10 cm**-1
    13:     687.75 cm**-1
    14:     758.03 cm**-1
    15:     783.99 cm**-1
    16:     833.21 cm**-1
    17:     883.03 cm**-1
    18:     981.63 cm**-1
    19:    1000.04 cm**-1
    20:    1007.36 cm**-1
    21:    1092.24 cm**-1
    22:    1105.94 cm**-1
    23:    1223.33 cm**-1
    24:    1244.37 cm**-1
    25:    1277.26 cm**-1
    26:    1349.38 cm**-1
    27:    1438.57 cm**-1
    28:    1513.65 cm**-1
    29:    1574.65 cm**-1
    30:    1619.42 cm**-1
    31:    2303.77 cm**-1
    32:    3142.92 cm**-1
    33:    3145.76 cm**-1
    34:    3195.51 cm**-1
    35:    3195.97 cm**-1

IR SPECTRUM
-----------

 Mode   freq       eps      Int      T**2         TX        TY        TZ
       cm**-1   L/(mol*cm) km/mol    a.u.
----------------------------------------------------------------------------
  6:    143.12   0.001734    8.76  0.003780  ( 0.000084  0.000003  0.061485)
  7:    162.56   0.001515    7.66  0.002909  (-0.000057 -0.053936  0.000000)
  8:    369.20   0.000000    0.00  0.000000  ( 0.000003 -0.000022  0.000012)
  9:    381.77   0.000108    0.54  0.000088  (-0.000033 -0.000001 -0.009388)
 10:    459.67   0.000241    1.22  0.000163  (-0.012780 -0.000013 -0.000031)
 11:    561.89   0.000005    0.03  0.000003  ( 0.000180  0.001711 -0.000000)
 12:    573.10   0.004299   21.73  0.002341  (-0.000032 -0.000000  0.048384)
 13:    687.75   0.000015    0.08  0.000007  ( 0.000034 -0.002638  0.000000)
 14:    758.03   0.000005    0.03  0.000002  (-0.000024  0.000001 -0.001451)
 15:    783.99   0.002959   14.95  0.001178  ( 0.034319  0.000001  0.000027)
 16:    833.21   0.007503   37.92  0.002810  ( 0.000059  0.000002 -0.053010)
 17:    883.03   0.000000    0.00  0.000000  (-0.000001 -0.000034  0.000002)
 18:    981.63   0.000095    0.48  0.000030  (-0.000017  0.000001  0.005504)
 19:   1000.04   0.000000    0.00  0.000000  (-0.000001 -0.000010 -0.000002)
 20:   1007.36   0.000785    3.97  0.000243  (-0.015596  0.000000  0.000003)
 21:   1092.24   0.000388    1.96  0.000111  (-0.010525  0.000008  0.000001)
 22:   1105.94   0.000110    0.55  0.000031  ( 0.000029  0.005559  0.000000)
 23:   1223.33   0.000108    0.55  0.000028  ( 0.005247 -0.000006  0.000006)
 24:   1244.37   0.001033    5.22  0.000259  ( 0.016097 -0.000001  0.000002)
 25:   1277.26   0.000359    1.82  0.000088  ( 0.000038 -0.009369  0.000000)
 26:   1349.38   0.000097    0.49  0.000022  (-0.000025 -0.004741  0.000000)
 27:   1438.57   0.003989   20.16  0.000865  ( 0.000019  0.029417 -0.000000)
 28:   1513.65   0.000458    2.32  0.000094  (-0.009721 -0.000008  0.000003)
 29:   1574.65   0.004139   20.92  0.000820  (-0.000031  0.028639 -0.000000)
 30:   1619.42   0.005785   29.23  0.001115  ( 0.033388 -0.000011 -0.000005)
 31:   2303.77   0.001665    8.42  0.000226  (-0.015020 -0.000025  0.000023)
 32:   3142.92   0.004501   22.75  0.000447  ( 0.000051  0.021141 -0.000000)
 33:   3145.76   0.000947    4.78  0.000094  (-0.009691  0.000127  0.000000)
 34:   3195.51   0.000708    3.58  0.000069  (-0.000009  0.008314 -0.000000)
 35:   3195.97   0.000012    0.06  0.000001  (-0.001102 -0.000083 -0.000001)

--------------------------
THERMOCHEMISTRY AT 298.15K
--------------------------

Temperature         ...   298.15 K
Pressure            ...     1.00 atm
Total Mass          ...   104.11 AMU
Quasi RRHO          ...     True
Cut-Off Frequency   ...     1.00 cm^-1

Throughout the following assumptions are being made:
  (1) The electronic state is orbitally nondegenerate
  (2) There are no thermally accessible electronically excited states
  (3) Hindered rotations indicated by low frequency modes are not
      treated as such but are treated as vibrations and this may
      cause some error
  (4) All equations used are the standard statistical mechanics
      equations for an ideal gas
  (5) All vibrations are strictly harmonic

freq.     143.12  E(vib)   ...       0.41
freq.     162.56  E(vib)   ...       0.39
freq.     369.20  E(vib)   ...       0.21
freq.     381.77  E(vib)   ...       0.21
freq.     459.67  E(vib)   ...       0.16
freq.     561.89  E(vib)   ...       0.11
freq.     573.10  E(vib)   ...       0.11
freq.     687.75  E(vib)   ...       0.07
freq.     758.03  E(vib)   ...       0.06
freq.     783.99  E(vib)   ...       0.05
freq.     833.21  E(vib)   ...       0.04
freq.     883.03  E(vib)   ...       0.04
freq.     981.63  E(vib)   ...       0.02
freq.    1000.04  E(vib)   ...       0.02
freq.    1007.36  E(vib)   ...       0.02
freq.    1092.24  E(vib)   ...       0.02
freq.    1105.94  E(vib)   ...       0.02
freq.    1223.33  E(vib)   ...       0.01
freq.    1244.37  E(vib)   ...       0.01
freq.    1277.26  E(vib)   ...       0.01
freq.    1349.38  E(vib)   ...       0.01
freq.    1438.57  E(vib)   ...       0.00
freq.    1513.65  E(vib)   ...       0.00
freq.    1574.65  E(vib)   ...       0.00
freq.    1619.42  E(vib)   ...       0.00
freq.    2303.77  E(vib)   ...       0.00
freq.    3142.92  E(vib)   ...       0.00
freq.    3145.76  E(vib)   ...       0.00
freq.    3195.51  E(vib)   ...       0.00
freq.    3195.97  E(vib)   ...       0.00

------------
INNER ENERGY
------------

The inner energy is: U= E(el) + E(ZPE) + E(vib) + E(rot) + E(trans)
    E(el)   - is the total energy from the electronic structure calculation
              = E(kin-el) + E(nuc-el) + E(el-el) + E(nuc-nuc)
    E(ZPE)  - the the zero temperature vibrational energy from the frequency calculation
    E(vib)  - the the finite temperature correction to E(ZPE) due to population
              of excited vibrational states
    E(rot)  - is the rotational thermal energy
    E(trans)- is the translational thermal energy

Summary of contributions to the inner energy U:
Electronic energy                ...   -340.46029068 Eh
Zero point energy                ...      0.08659108 Eh      54.34 kcal/mol
Thermal vibrational correction   ...      0.00320853 Eh       2.01 kcal/mol
Thermal rotational correction    ...      0.00141627 Eh       0.89 kcal/mol
Thermal translational correction ...      0.00141627 Eh       0.89 kcal/mol
-----------------------------------------------------------------------
Total thermal energy                   -340.36765853 Eh

Summary of corrections to the electronic energy:
(perhaps to be used in another calculation)
Total thermal correction                  0.00604107 Eh       3.79 kcal/mol
Non-thermal (ZPE) correction              0.08659108 Eh      54.34 kcal/mol
-----------------------------------------------------------------------
Total correction                          0.09263215 Eh      58.13 kcal/mol

--------
ENTHALPY
--------

The enthalpy is H = U + kB*T
                kB is Boltzmann's constant
Total thermal energy              ...   -340.36765853 Eh
Thermal Enthalpy correction       ...      0.00094421 Eh       0.59 kcal/mol
-----------------------------------------------------------------------
Total Enthalpy                    ...   -340.36671432 Eh

Note: Only C1 symmetry has been detected, increase convergence thresholds
      if your molecule has a higher symmetry. Symmetry factor of 1.0 is
      used for the rotational entropy correction.

Note: Rotational entropy computed according to Herzberg
Infrared and Raman Spectra, Chapter V,1, Van Nostrand Reinhold, 1945
Point Group:  C1, Symmetry Number:   1
Rotational constants in cm-1:     0.200533     0.051699     0.041103

Vibrational entropy computed according to the QRRHO of S. Grimme
Chem.Eur.J. 2012 18 9955 using a reference frequency of 100.0 cm-1

-------
ENTROPY
-------

The entropy contributions are T*S = T*(S(el)+S(vib)+S(rot)+S(trans))
     S(el)   - electronic entropy
     S(vib)  - vibrational entropy
     S(rot)  - rotational entropy
     S(trans)- translational entropy
The entropies will be listed as multiplied by the temperature to get
units of energy

Electronic entropy                ...      0.00000000 Eh      0.00 kcal/mol
Vibrational entropy               ...      0.00513900 Eh      3.22 kcal/mol
Rotational entropy                ...      0.01317460 Eh      8.27 kcal/mol
Translational entropy             ...      0.01892831 Eh     11.88 kcal/mol
-----------------------------------------------------------------------
Final entropy term                ...      0.03724191 Eh     23.37 kcal/mol

In case the symmetry of your molecule has not been determined correctly
or in case you have a reason to use a different symmetry number we print
out the resulting rotational entropy values for sn=1,12:

 non-linear molecules -----------------------------------
|  sn= 1 | S(rot)=       0.01317460 Eh      8.27 kcal/mol|
|  sn= 2 | S(rot)=       0.01252014 Eh      7.86 kcal/mol|
|  sn= 3 | S(rot)=       0.01213731 Eh      7.62 kcal/mol|
|  sn= 4 | S(rot)=       0.01186569 Eh      7.45 kcal/mol|
|  sn= 5 | S(rot)=       0.01165500 Eh      7.31 kcal/mol|
|  sn= 6 | S(rot)=       0.01148285 Eh      7.21 kcal/mol|
|  sn= 7 | S(rot)=       0.01133731 Eh      7.11 kcal/mol|
|  sn= 8 | S(rot)=       0.01121123 Eh      7.04 kcal/mol|
|  sn= 9 | S(rot)=       0.01110002 Eh      6.97 kcal/mol|
|  sn=10 | S(rot)=       0.01100054 Eh      6.90 kcal/mol|
|  sn=11 | S(rot)=       0.01091055 Eh      6.85 kcal/mol|
|  sn=12 | S(rot)=       0.01082840 Eh      6.79 kcal/mol|
 linear molecules ---------------------------------------
|  Dinfh | S(rot)=       0.00833934 Eh      5.23 kcal/mol|
|  Cinfv | S(rot)=       0.00899379 Eh      5.64 kcal/mol|
 --------------------------------------------------------

-------------------
GIBBS FREE ENERGY
-------------------

The Gibbs free energy is G = H - T*S

Total enthalpy                    ...   -340.36671432 Eh
Total entropy correction          ...     -0.03724191 Eh    -23.37 kcal/mol
-----------------------------------------------------------------------
Final Gibbs free energy         ...   -340.40395623 Eh

For completeness - the Gibbs free energy minus the electronic energy

                             ****ORCA TERMINATED NORMALLY****
TOTAL RUN TIME: 0 days 0 hours 7 minutes 34 seconds 646 msec
