                         Program Version 6.0.0  -   RELEASE  -
|  1> ! r2SCAN-3c DEF2-TZVP FREQ
|  2> * xyzfile 0 1 censo.xyz
|  3>
|  4>                          ****END OF INPUT****

CARTESIAN COORDINATES (ANGSTROEM)
---------------------------------
  C     -1.519781   -0.836289    0.754204
  C     -0.808221    0.134988    0.050560
  C     -1.492948    1.143933   -0.624659
  C     -2.880152    1.171946   -0.602827
  C     -3.611882    0.203991    0.092051
  C     -2.905365   -0.796213    0.770607
  Cl    -3.762795   -2.020836    1.667346
  Cl    -5.341803    0.243994    0.117750
  Cl    -3.700788    2.443949   -1.466408
  C      0.672143    0.149766    0.057872
  C      1.318193    1.300388    0.507314
  C      2.700506    1.375610    0.541312
  C      3.483383    0.296656    0.125519
  C      2.848257   -0.862099   -0.340203
  C      1.450828   -0.929725   -0.376449
  Cl     0.685120   -2.348993   -1.031015
  Cl     3.801786   -2.201432   -0.883134
  Cl     5.209527    0.389013    0.179346
  Cl     3.443515    2.837336    1.123839
  H     -1.001786   -1.610097    1.307636
  H     -0.948350    1.901756   -1.175692
  H      0.726301    2.141016    0.850201

 Total Charge           Charge          ....    0
 Multiplicity           Mult            ....    1
 Number of Electrons    NEL             ....  194
 Basis Dimension        Dim             ....  649

ORBITAL ENERGIES
----------------

  NO   OCC          E(Eh)            E(eV)
   0   2.0000    -101.219875     -2754.3328
   1   2.0000    -101.219547     -2754.3239
   2   2.0000    -101.218063     -2754.2835
   3   2.0000    -101.217448     -2754.2668
   4   2.0000    -101.215139     -2754.2039
   5   2.0000    -101.213561     -2754.1610
   6   2.0000    -101.212717     -2754.1380
   7   2.0000     -10.143781      -276.0263
   8   2.0000     -10.142755      -275.9984
   9   2.0000     -10.139102      -275.8990
  10   2.0000     -10.137875      -275.8656
  11   2.0000     -10.136335      -275.8237
  12   2.0000     -10.134589      -275.7762
  13   2.0000     -10.134504      -275.7739
  14   2.0000     -10.098189      -274.7857
  15   2.0000     -10.091022      -274.5907
  16   2.0000     -10.083330      -274.3814
  17   2.0000     -10.077227      -274.2153
  18   2.0000     -10.076688      -274.2006
  19   2.0000      -9.395556      -255.6661
  20   2.0000      -9.395254      -255.6579
  21   2.0000      -9.393887      -255.6207
  22   2.0000      -9.393202      -255.6020
  23   2.0000      -9.390802      -255.5367
  24   2.0000      -9.389321      -255.4964
  25   2.0000      -9.388469      -255.4732
  26   2.0000      -7.140971      -194.3157
  27   2.0000      -7.140590      -194.3053
  28   2.0000      -7.139213      -194.2679
  29   2.0000      -7.138418      -194.2462
  30   2.0000      -7.136226      -194.1866
  31   2.0000      -7.134479      -194.1391
  32   2.0000      -7.133630      -194.1159
  33   2.0000      -7.130599      -194.0335
  34   2.0000      -7.130328      -194.0261
  35   2.0000      -7.129463      -194.0025
  36   2.0000      -7.129222      -193.9960
  37   2.0000      -7.128937      -193.9882
  38   2.0000      -7.128166      -193.9672
  39   2.0000      -7.127878      -193.9594
  40   2.0000      -7.127409      -193.9467
  41   2.0000      -7.125840      -193.9040
  42   2.0000      -7.124701      -193.8730
  43   2.0000      -7.124318      -193.8626
  44   2.0000      -7.123567      -193.8421
  45   2.0000      -7.123474      -193.8396
  46   2.0000      -7.122709      -193.8188
  47   2.0000      -0.925334       -25.1796
  48   2.0000      -0.911470       -24.8024
  49   2.0000      -0.878350       -23.9011
  50   2.0000      -0.862119       -23.4594
  51   2.0000      -0.858727       -23.3672
  52   2.0000      -0.838718       -22.8227
  53   2.0000      -0.827958       -22.5299
  54   2.0000      -0.820919       -22.3383
  55   2.0000      -0.803891       -21.8750
  56   2.0000      -0.751448       -20.4479
  57   2.0000      -0.727573       -19.7983
  58   2.0000      -0.718624       -19.5548
  59   2.0000      -0.705019       -19.1845
  60   2.0000      -0.629495       -17.1294
  61   2.0000      -0.611195       -16.6315
  62   2.0000      -0.599525       -16.3139
  63   2.0000      -0.576993       -15.7008
  64   2.0000      -0.520075       -14.1520
  65   2.0000      -0.515089       -14.0163
  66   2.0000      -0.497170       -13.5287
  67   2.0000      -0.491321       -13.3695
  68   2.0000      -0.470783       -12.8107
  69   2.0000      -0.454945       -12.3797
  70   2.0000      -0.442369       -12.0375
  71   2.0000      -0.440010       -11.9733
  72   2.0000      -0.437562       -11.9067
  73   2.0000      -0.431630       -11.7453
  74   2.0000      -0.423455       -11.5228
  75   2.0000      -0.411696       -11.2028
  76   2.0000      -0.395433       -10.7603
  77   2.0000      -0.380964       -10.3666
  78   2.0000      -0.379731       -10.3330
  79   2.0000      -0.375961       -10.2304
  80   2.0000      -0.359440        -9.7809
  81   2.0000      -0.356747        -9.7076
  82   2.0000      -0.339552        -9.2397
  83   2.0000      -0.328998        -8.9525
  84   2.0000      -0.326532        -8.8854
  85   2.0000      -0.323206        -8.7949
  86   2.0000      -0.320456        -8.7200
  87   2.0000      -0.318204        -8.6588
  88   2.0000      -0.309870        -8.4320
  89   2.0000      -0.307852        -8.3771
  90   2.0000      -0.305609        -8.3161
  91   2.0000      -0.288290        -7.8448
  92   2.0000      -0.288068        -7.8387
  93   2.0000      -0.261610        -7.1188
  94   2.0000      -0.251666        -6.8482
  95   2.0000      -0.249892        -6.7999
  96   2.0000      -0.240005        -6.5309
  97   0.0000      -0.095348        -2.5945
  98   0.0000      -0.082801        -2.2531
  99   0.0000      -0.074742        -2.0338
 100   0.0000      -0.067577        -1.8389
 101   0.0000      -0.059191        -1.6107

MULLIKEN ATOMIC CHARGES
-----------------------
   0 C :   -0.324770
   1 C :    0.280885
   2 C :   -0.349271
   3 C :    0.161535
   4 C :   -0.004390
   5 C :    0.162872
   6 Cl:   -0.068594
   7 Cl:   -0.043931
   8 Cl:   -0.069002
   9 C :    0.176999
  10 C :   -0.301355
  11 C :    0.123662
  12 C :    0.026113
  13 C :    0.040800
  14 C :   -0.053431
  15 Cl:   -0.049959
  16 Cl:   -0.038093
  17 Cl:   -0.037245
  18 Cl:   -0.064080
  19 H :    0.140731
  20 H :    0.142808
  21 H :    0.147716
Sum of atomic charges:   -0.0000000

LOEWDIN ATOMIC CHARGES
----------------------
   0 C :   -0.105078
   1 C :   -0.111959
   2 C :   -0.101301
   3 C :   -0.424619
   4 C :   -0.446734
   5 C :   -0.423094
   6 Cl:    0.420076
   7 Cl:    0.441628
   8 Cl:    0.419683
   9 C :   -0.107989
  10 C :   -0.097454
  11 C :   -0.432221
  12 C :   -0.448251
  13 C :   -0.442637
  14 C :   -0.393200
  15 Cl:    0.451165
  16 Cl:    0.446660
  17 Cl:    0.447988
  18 Cl:    0.424991
  19 H :    0.158700
  20 H :    0.160227
  21 H :    0.163418

  Mayer bond orders larger than 0.100000
B(  0-C ,  1-C ) :   1.2901 B(  0-C ,  5-C ) :   1.3943 B(  0-C , 19-H ) :   0.9688
B(  1-C ,  2-C ) :   1.3208 B(  1-C ,  9-C ) :   0.7831 B(  2-C ,  3-C ) :   1.3809
B(  2-C , 20-H ) :   0.9729 B(  3-C ,  4-C ) :   1.2627 B(  3-C ,  8-Cl) :   1.0716
B(  4-C ,  5-C ) :   1.2543 B(  4-C ,  7-Cl) :   1.1786 B(  5-C ,  6-Cl) :   1.0686
B(  9-C , 10-C ) :   1.3242 B(  9-C , 14-C ) :   1.2464 B( 10-C , 11-C ) :   1.3758
B( 10-C , 21-H ) :   0.9715 B( 11-C , 12-C ) :   1.2703 B( 11-C , 18-Cl) :   1.0830
B( 12-C , 13-C ) :   1.2757 B( 12-C , 17-Cl) :   1.1954 B( 13-C , 14-C ) :   1.2989
B( 13-C , 16-Cl) :   1.1961 B( 14-C , 15-Cl) :   1.2148

Dispersion correction           -0.015152498
FINAL SINGLE POINT ENERGY     -3680.299576696731

DIPOLE MOMENT
-------------

Method             : SCF
Type of density    : Electron Density
Multiplicity       :   1
Irrep              :   0
Energy             : -3680.2974740784020469 Eh
Relativity type    :
Basis              : AO
                                X                 Y                 Z
Electronic contribution:      1.794395778      -3.086926959      -1.247458398
Nuclear contribution   :     -1.569277160       3.287618418       1.348713767
                        -----------------------------------------
Total Dipole Moment    :      0.225118619       0.200691459       0.101255369
                        -----------------------------------------
Magnitude (a.u.)       :      0.318132212
Magnitude (Debye)      :      0.808627819

VIBRATIONAL FREQUENCIES
-----------------------

Scaling factor for frequencies =  1.000000000  (already applied!)

     0:       0.00 cm**-1
     1:       0.00 cm**-1
     2:       0.00 cm**-1
     3:       0.00 cm**-1
     4:       0.00 cm**-1
     5:       0.00 cm**-1
     6:      31.11 cm**-1
     7:      42.93 cm**-1
     8:      48.93 cm**-1
     9:      84.72 cm**-1
    10:      88.41 cm**-1
    11:      93.60 cm**-1
    12:     152.60 cm**-1
    13:     189.83 cm**-1
    14:     197.23 cm**-1
    15:     212.53 cm**-1
    16:     215.19 cm**-1
    17:     220.39 cm**-1
    18:     223.45 cm**-1
    19:     232.80 cm**-1
    20:     244.38 cm**-1
    21:     275.72 cm**-1
    22:     324.23 cm**-1
    23:     331.70 cm**-1
    24:     347.21 cm**-1
    25:     357.09 cm**-1
    26:     368.19 cm**-1
    27:     445.99 cm**-1
    28:     504.23 cm**-1
    29:     512.17 cm**-1
    30:     530.01 cm**-1
    31:     536.49 cm**-1
    32:     562.88 cm**-1
    33:     565.98 cm**-1
    34:     642.87 cm**-1
    35:     650.04 cm**-1
    36:     665.66 cm**-1
    37:     720.82 cm**-1
    38:     736.90 cm**-1
    39:     765.63 cm**-1
    40:     798.33 cm**-1
    41:     822.98 cm**-1
    42:     879.70 cm**-1
    43:     893.35 cm**-1
    44:     901.01 cm**-1
    45:     917.02 cm**-1
    46:    1048.00 cm**-1
    47:    1072.34 cm**-1
    48:    1132.60 cm**-1
    49:    1159.70 cm**-1
    50:    1188.80 cm**-1
    51:    1219.24 cm**-1
    52:    1282.52 cm**-1
    53:    1301.78 cm**-1
    54:    1317.65 cm**-1
    55:    1356.14 cm**-1
    56:    1402.28 cm**-1
    57:    1418.72 cm**-1
    58:    1458.66 cm**-1
    59:    1539.90 cm**-1
    60:    1567.14 cm**-1
    61:    1589.97 cm**-1
    62:    1608.57 cm**-1
    63:    3195.90 cm**-1
    64:    3196.46 cm**-1
    65:    3202.41 cm**-1

IR SPECTRUM
-----------

 Mode   freq       eps      Int      T**2         TX        TY        TZ
       cm**-1   L/(mol*cm) km/mol    a.u.
----------------------------------------------------------------------------
  6:     31.11   0.000002    0.01  0.000018  (-0.000322 -0.003051 -0.002935)
  7:     42.93   0.000025    0.13  0.000184  ( 0.000261  0.002912 -0.013254)
  8:     48.93   0.000024    0.12  0.000154  ( 0.003336  0.011152  0.004320)
  9:     84.72   0.000003    0.02  0.000012  ( 0.001654  0.002762 -0.001370)
 10:     88.41   0.000001    0.00  0.000003  (-0.001355 -0.001209  0.000074)
 11:     93.60   0.000039    0.20  0.000130  (-0.003104 -0.004072  0.010165)
 12:    152.60   0.000004    0.02  0.000009  (-0.002229  0.001833  0.000849)
 13:    189.83   0.000001    0.00  0.000001  (-0.000928 -0.000581  0.000264)
 14:    197.23   0.000008    0.04  0.000012  ( 0.003010 -0.001281 -0.001186)
 15:    212.53   0.000005    0.02  0.000007  (-0.002182 -0.001159 -0.000814)
 16:    215.19   0.000036    0.18  0.000052  ( 0.003327  0.006380  0.000615)
 17:    220.39   0.000011    0.06  0.000016  (-0.002019 -0.000699 -0.003352)
 18:    223.45   0.000006    0.03  0.000009  ( 0.002654 -0.000902 -0.000881)
 19:    232.80   0.000003    0.01  0.000003  (-0.001657 -0.000648 -0.000442)
 20:    244.38   0.000001    0.01  0.000001  ( 0.001129  0.000062 -0.000350)
 21:    275.72   0.000128    0.65  0.000145  (-0.002978 -0.003865  0.011025)
 22:    324.23   0.000151    0.76  0.000145  (-0.000746  0.006420  0.010179)
 23:    331.70   0.000011    0.06  0.000011  (-0.001494  0.002425  0.001593)
 24:    347.21   0.000008    0.04  0.000007  (-0.001453  0.002103  0.000666)
 25:    357.09   0.000022    0.11  0.000019  (-0.003011  0.002797  0.001382)
 26:    368.19   0.000132    0.67  0.000112  ( 0.003620  0.009883  0.000941)
 27:    445.99   0.000941    4.76  0.000659  ( 0.000033  0.023592 -0.010103)
 28:    504.23   0.008171   41.29  0.005057  (-0.070091  0.008445  0.008556)
 29:    512.17   0.001546    7.81  0.000942  (-0.027450  0.006316 -0.012198)
 30:    530.01   0.000459    2.32  0.000270  ( 0.009975  0.011775 -0.005683)
 31:    536.49   0.000022    0.11  0.000013  ( 0.003407 -0.000813  0.000701)
 32:    562.88   0.002166   10.95  0.001201  ( 0.025201  0.023069  0.005815)
 33:    565.98   0.000823    4.16  0.000454  ( 0.011013  0.014563  0.010976)
 34:    642.87   0.004417   22.32  0.002144  (-0.027412 -0.034223 -0.014888)
 35:    650.04   0.001394    7.05  0.000669  ( 0.012738  0.021283  0.007350)
 36:    665.66   0.000606    3.06  0.000284  (-0.004168 -0.011250 -0.011842)
 37:    720.82   0.000903    4.56  0.000391  (-0.000407 -0.010914 -0.016479)
 38:    736.90   0.000289    1.46  0.000122  (-0.003816 -0.009722  0.003660)
 39:    765.63   0.005575   28.17  0.002272  ( 0.016278  0.040921  0.018245)
 40:    798.33   0.016956   85.69  0.006628  ( 0.000922 -0.063637  0.050769)
 41:    822.98   0.008118   41.03  0.003078  (-0.028106  0.043704  0.019453)
 42:    879.70   0.003529   17.83  0.001252  (-0.004003 -0.003490 -0.034981)
 43:    893.35   0.000386    1.95  0.000135  (-0.002996 -0.001581  0.011102)
 44:    901.01   0.000182    0.92  0.000063  ( 0.002775 -0.006497 -0.003630)
 45:    917.02   0.000766    3.87  0.000261  ( 0.016009  0.001107  0.001743)
 46:   1048.00   0.003195   16.15  0.000951  (-0.030409  0.004606  0.002351)
 47:   1072.34   0.003491   17.64  0.001016  (-0.012824 -0.026052 -0.013148)
 48:   1132.60   0.006774   34.23  0.001866  (-0.039137  0.015545  0.009644)
 49:   1159.70   0.013694   69.21  0.003685  (-0.060701  0.000253  0.000601)
 50:   1188.80   0.007811   39.47  0.002050  (-0.038397 -0.021152 -0.011345)
 51:   1219.24   0.003536   17.87  0.000905  ( 0.002997  0.025537 -0.015620)
 52:   1282.52   0.001249    6.31  0.000304  ( 0.006561 -0.014975 -0.006054)
 53:   1301.78   0.003752   18.96  0.000899  (-0.004247  0.029622  0.001970)
 54:   1317.65   0.001555    7.86  0.000368  ( 0.004259 -0.018280  0.004011)
 55:   1356.14   0.015324   77.44  0.003526  (-0.015914  0.054438  0.017588)
 56:   1402.28   0.013893   70.21  0.003092  (-0.041205 -0.027500  0.025254)
 57:   1418.72   0.030321  153.23  0.006670  ( 0.076534  0.013453  0.025123)
 58:   1458.66   0.002054   10.38  0.000439  ( 0.018712 -0.008229 -0.004641)
 59:   1539.90   0.010479   52.96  0.002124  (-0.002426  0.045768 -0.004798)
 60:   1567.14   0.008644   43.68  0.001721  (-0.003697 -0.028976  0.029460)
 61:   1589.97   0.000993    5.02  0.000195  ( 0.013561  0.003230  0.000716)
 62:   1608.57   0.002584   13.06  0.000501  ( 0.022333 -0.000160 -0.001572)
 63:   3195.90   0.000034    0.17  0.000003  ( 0.000145  0.000005  0.001820)
 64:   3196.46   0.000141    0.71  0.000014  ( 0.000803 -0.003629  0.000009)
 65:   3202.41   0.000112    0.56  0.000011  (-0.000097  0.002795 -0.001750)

--------------------------
THERMOCHEMISTRY AT 298.15K
--------------------------

Temperature         ...   298.15 K
Pressure            ...     1.00 atm
Total Mass          ...   395.33 AMU
Quasi RRHO          ...     True
Cut-Off Frequency   ...     1.00 cm^-1

Throughout the following assumptions are being made:
  (1) The electronic state is orbitally nondegenerate
  (2) There are no thermally accessible electronically excited states
  (3) Hindered rotations indicated by low frequency modes are not
      treated as such but are treated as vibrations and this may
      cause some error
  (4) All equations used are the standard statistical mechanics
      equations for an ideal gas
  (5) All vibrations are strictly harmonic

freq.      31.11  E(vib)   ...       0.55
freq.      42.93  E(vib)   ...       0.53
freq.      48.93  E(vib)   ...       0.53
freq.      84.72  E(vib)   ...       0.48
freq.      88.41  E(vib)   ...       0.48
freq.      93.60  E(vib)   ...       0.47
freq.     152.60  E(vib)   ...       0.40
freq.     189.83  E(vib)   ...       0.36
freq.     197.23  E(vib)   ...       0.35
freq.     212.53  E(vib)   ...       0.34
freq.     215.19  E(vib)   ...       0.34
freq.     220.39  E(vib)   ...       0.33
freq.     223.45  E(vib)   ...       0.33
freq.     232.80  E(vib)   ...       0.32
freq.     244.38  E(vib)   ...       0.31
freq.     275.72  E(vib)   ...       0.28
freq.     324.23  E(vib)   ...       0.25
freq.     331.70  E(vib)   ...       0.24
freq.     347.21  E(vib)   ...       0.23
freq.     357.09  E(vib)   ...       0.22
freq.     368.19  E(vib)   ...       0.21
freq.     445.99  E(vib)   ...       0.17
freq.     504.23  E(vib)   ...       0.14
freq.     512.17  E(vib)   ...       0.14
freq.     530.01  E(vib)   ...       0.13
freq.     536.49  E(vib)   ...       0.12
freq.     562.88  E(vib)   ...       0.11
freq.     565.98  E(vib)   ...       0.11
freq.     642.87  E(vib)   ...       0.09
freq.     650.04  E(vib)   ...       0.08
freq.     665.66  E(vib)   ...       0.08
freq.     720.82  E(vib)   ...       0.07
freq.     736.90  E(vib)   ...       0.06
freq.     765.63  E(vib)   ...       0.06
freq.     798.33  E(vib)   ...       0.05
freq.     822.98  E(vib)   ...       0.05
freq.     879.70  E(vib)   ...       0.04
freq.     893.35  E(vib)   ...       0.03
freq.     901.01  E(vib)   ...       0.03
freq.     917.02  E(vib)   ...       0.03
freq.    1048.00  E(vib)   ...       0.02
freq.    1072.34  E(vib)   ...       0.02
freq.    1132.60  E(vib)   ...       0.01
freq.    1159.70  E(vib)   ...       0.01
freq.    1188.80  E(vib)   ...       0.01
freq.    1219.24  E(vib)   ...       0.01
freq.    1282.52  E(vib)   ...       0.01
freq.    1301.78  E(vib)   ...       0.01
freq.    1317.65  E(vib)   ...       0.01
freq.    1356.14  E(vib)   ...       0.01
freq.    1402.28  E(vib)   ...       0.00
freq.    1418.72  E(vib)   ...       0.00
freq.    1458.66  E(vib)   ...       0.00
freq.    1539.90  E(vib)   ...       0.00
freq.    1567.14  E(vib)   ...       0.00
freq.    1589.97  E(vib)   ...       0.00
freq.    1608.57  E(vib)   ...       0.00
freq.    3195.90  E(vib)   ...       0.00
freq.    3196.46  E(vib)   ...       0.00
freq.    3202.41  E(vib)   ...       0.00

------------
INNER ENERGY
------------

The inner energy is: U= E(el) + E(ZPE) + E(vib) + E(rot) + E(trans)
    E(el)   - is the total energy from the electronic structure calculation
              = E(kin-el) + E(nuc-el) + E(el-el) + E(nuc-nuc)
    E(ZPE)  - the the zero temperature vibrational energy from the frequency calculation
    E(vib)  - the the finite temperature correction to E(ZPE) due to population
              of excited vibrational states
    E(rot)  - is the rotational thermal energy
    E(trans)- is the translational thermal energy

Summary of contributions to the inner energy U:
Electronic energy                ...  -3680.29957670 Eh
Zero point energy                ...      0.11298130 Eh      70.90 kcal/mol
Thermal vibrational correction   ...      0.01477053 Eh       9.27 kcal/mol
Thermal rotational correction    ...      0.00141627 Eh       0.89 kcal/mol
Thermal translational correction ...      0.00141627 Eh       0.89 kcal/mol
-----------------------------------------------------------------------
Total thermal energy                  -3680.16899232 Eh

Summary of corrections to the electronic energy:
(perhaps to be used in another calculation)
Total thermal correction                  0.01760307 Eh      11.05 kcal/mol
Non-thermal (ZPE) correction              0.11298130 Eh      70.90 kcal/mol
-----------------------------------------------------------------------
Total correction                          0.13058437 Eh      81.94 kcal/mol

--------
ENTHALPY
--------

The enthalpy is H = U + kB*T
                kB is Boltzmann's constant
Total thermal energy              ...  -3680.16899232 Eh
Thermal Enthalpy correction       ...      0.00094421 Eh       0.59 kcal/mol
-----------------------------------------------------------------------
Total Enthalpy                    ...  -3680.16804811 Eh

Note: Only C1 symmetry has been detected, increase convergence thresholds
      if your molecule has a higher symmetry. Symmetry factor of 1.0 is
      used for the rotational entropy correction.

Note: Rotational entropy computed according to Herzberg
Infrared and Raman Spectra, Chapter V,1, Van Nostrand Reinhold, 1945
Point Group:  C1, Symmetry Number:   1
Rotational constants in cm-1:     0.011520     0.003345     0.002879

Vibrational entropy computed according to the QRRHO of S. Grimme
Chem.Eur.J. 2012 18 9955 using a reference frequency of 100.0 cm-1

-------
ENTROPY
-------

The entropy contributions are T*S = T*(S(el)+S(vib)+S(rot)+S(trans))
     S(el)   - electronic entropy
     S(vib)  - vibrational entropy
     S(rot)  - rotational entropy
     S(trans)- translational entropy
The entropies will be listed as multiplied by the temperature to get
units of energy

Electronic entropy                ...      0.00000000 Eh      0.00 kcal/mol
Vibrational entropy               ...      0.02607429 Eh     16.36 kcal/mol
Rotational entropy                ...      0.01707101 Eh     10.71 kcal/mol
Translational entropy             ...      0.02081797 Eh     13.06 kcal/mol
-----------------------------------------------------------------------
Final entropy term                ...      0.06396328 Eh     40.14 kcal/mol

In case the symmetry of your molecule has not been determined correctly
or in case you have a reason to use a different symmetry number we print
out the resulting rotational entropy values for sn=1,12:

 non-linear molecules -----------------------------------

                             ****ORCA TERMINATED NORMALLY****
TOTAL RUN TIME: 0 days 0 hours 51 minutes 34 seconds 268 msec
