                         Program Version 6.0.0  -   RELEASE  -
|  1> ! r2SCAN-3c DEF2-TZVP FREQ
|  2> * xyzfile 0 1 vacuum_censo.xyz
|  3>
|  4>                          ****END OF INPUT****

CARTESIAN COORDINATES (ANGSTROEM)
---------------------------------
  C     -1.495700    1.139692   -0.623474
  C     -0.808171    0.127709    0.044654
  C     -1.524841   -0.844213    0.741750
  C     -2.911309   -0.803259    0.763060
  C     -3.617761    0.204544    0.091440
  C     -2.884052    1.175032   -0.600926
  Cl    -3.696584    2.450641   -1.456932
  Cl    -5.342363    0.249116    0.120227
  Cl    -3.763625   -2.030363    1.651122
  C      0.672336    0.142681    0.053163
  C      1.317226    1.295230    0.500846
  C      2.700174    1.380740    0.536260
  C      3.487108    0.301528    0.123432
  C      2.854775   -0.863498   -0.337409
  C      1.455636   -0.937406   -0.375566
  Cl     0.696424   -2.361732   -1.018301
  Cl     3.811725   -2.198473   -0.871618
  Cl     5.208573    0.400832    0.176078
  Cl     3.431206    2.845344    1.114712
  H     -0.954812    1.896070   -1.179811
  H     -1.011252   -1.629185    1.282388
  H      0.725087    2.133548    0.848166

 Total Charge           Charge          ....    0
 Multiplicity           Mult            ....    1
 Number of Electrons    NEL             ....  194
 Basis Dimension        Dim             ....  649

ORBITAL ENERGIES
----------------

  NO   OCC          E(Eh)            E(eV)
   0   2.0000    -101.219795     -2754.3306
   1   2.0000    -101.219625     -2754.3260
   2   2.0000    -101.218470     -2754.2946
   3   2.0000    -101.217600     -2754.2709
   4   2.0000    -101.215107     -2754.2031
   5   2.0000    -101.213844     -2754.1687
   6   2.0000    -101.212856     -2754.1418
   7   2.0000     -10.143884      -276.0291
   8   2.0000     -10.142255      -275.9848
   9   2.0000     -10.139500      -275.9098
  10   2.0000     -10.137006      -275.8420
  11   2.0000     -10.135398      -275.7982
  12   2.0000     -10.133804      -275.7548
  13   2.0000     -10.133344      -275.7423
  14   2.0000     -10.098118      -274.7837
  15   2.0000     -10.090630      -274.5800
  16   2.0000     -10.083080      -274.3746
  17   2.0000     -10.077127      -274.2126
  18   2.0000     -10.076320      -274.1906
  19   2.0000      -9.395550      -255.6659
  20   2.0000      -9.395393      -255.6616
  21   2.0000      -9.394295      -255.6318
  22   2.0000      -9.393404      -255.6075
  23   2.0000      -9.390853      -255.5381
  24   2.0000      -9.389651      -255.5054
  25   2.0000      -9.388669      -255.4787
  26   2.0000      -7.140929      -194.3146
  27   2.0000      -7.140694      -194.3082
  28   2.0000      -7.139605      -194.2785
  29   2.0000      -7.138605      -194.2513
  30   2.0000      -7.136234      -194.1868
  31   2.0000      -7.134789      -194.1475
  32   2.0000      -7.133806      -194.1207
  33   2.0000      -7.130604      -194.0336
  34   2.0000      -7.130475      -194.0301
  35   2.0000      -7.129462      -194.0025
  36   2.0000      -7.129370      -194.0000
  37   2.0000      -7.129356      -193.9996
  38   2.0000      -7.128368      -193.9728
  39   2.0000      -7.128288      -193.9706
  40   2.0000      -7.127611      -193.9522
  41   2.0000      -7.125905      -193.9057
  42   2.0000      -7.124758      -193.8745
  43   2.0000      -7.124650      -193.8716
  44   2.0000      -7.123901      -193.8512
  45   2.0000      -7.123675      -193.8451
  46   2.0000      -7.122912      -193.8243
  47   2.0000      -0.925250       -25.1773
  48   2.0000      -0.911493       -24.8030
  49   2.0000      -0.879065       -23.9206
  50   2.0000      -0.862601       -23.4726
  51   2.0000      -0.859690       -23.3933
  52   2.0000      -0.839301       -22.8385
  53   2.0000      -0.828911       -22.5558
  54   2.0000      -0.821578       -22.3563
  55   2.0000      -0.803688       -21.8695
  56   2.0000      -0.750552       -20.4236
  57   2.0000      -0.726722       -19.7751
  58   2.0000      -0.717744       -19.5308
  59   2.0000      -0.704369       -19.1669
  60   2.0000      -0.628866       -17.1123
  61   2.0000      -0.610581       -16.6148
  62   2.0000      -0.598897       -16.2968
  63   2.0000      -0.576931       -15.6991
  64   2.0000      -0.519724       -14.1424
  65   2.0000      -0.514871       -14.0104
  66   2.0000      -0.497007       -13.5243
  67   2.0000      -0.490799       -13.3553
  68   2.0000      -0.471277       -12.8241
  69   2.0000      -0.455459       -12.3937
  70   2.0000      -0.442454       -12.0398
  71   2.0000      -0.440110       -11.9760
  72   2.0000      -0.437360       -11.9012
  73   2.0000      -0.431343       -11.7374
  74   2.0000      -0.423244       -11.5171
  75   2.0000      -0.411580       -11.1997
  76   2.0000      -0.395462       -10.7611
  77   2.0000      -0.381400       -10.3784
  78   2.0000      -0.379518       -10.3272
  79   2.0000      -0.376237       -10.2379
  80   2.0000      -0.359889        -9.7931
  81   2.0000      -0.357108        -9.7174
  82   2.0000      -0.339729        -9.2445
  83   2.0000      -0.329418        -8.9639
  84   2.0000      -0.326319        -8.8796
  85   2.0000      -0.323260        -8.7964
  86   2.0000      -0.320214        -8.7135
  87   2.0000      -0.318078        -8.6553
  88   2.0000      -0.309925        -8.4335
  89   2.0000      -0.307806        -8.3758
  90   2.0000      -0.305844        -8.3224
  91   2.0000      -0.288675        -7.8552
  92   2.0000      -0.288359        -7.8467
  93   2.0000      -0.260971        -7.1014
  94   2.0000      -0.250883        -6.8269
  95   2.0000      -0.249254        -6.7826
  96   2.0000      -0.239307        -6.5119
  97   0.0000      -0.095334        -2.5942
  98   0.0000      -0.082571        -2.2469
  99   0.0000      -0.074156        -2.0179
 100   0.0000      -0.066045        -1.7972
 101   0.0000      -0.058708        -1.5975

MULLIKEN ATOMIC CHARGES
-----------------------
   0 C :   -0.347294
   1 C :    0.277395
   2 C :   -0.321504
   3 C :    0.158934
   4 C :   -0.002931
   5 C :    0.158765
   6 Cl:   -0.066886
   7 Cl:   -0.043046
   8 Cl:   -0.066547
   9 C :    0.172482
  10 C :   -0.300421
  11 C :    0.121888
  12 C :    0.026730
  13 C :    0.038740
  14 C :   -0.050089
  15 Cl:   -0.049188
  16 Cl:   -0.037304
  17 Cl:   -0.036509
  18 Cl:   -0.062071
  19 H :    0.142115
  20 H :    0.139651
  21 H :    0.147090
Sum of atomic charges:    0.0000000

LOEWDIN ATOMIC CHARGES
----------------------
   0 C :   -0.101687
   1 C :   -0.112559
   2 C :   -0.105775
   3 C :   -0.427664
   4 C :   -0.450915
   5 C :   -0.429265
   6 Cl:    0.424766
   7 Cl:    0.446520
   8 Cl:    0.425425
   9 C :   -0.107844
  10 C :   -0.097747
  11 C :   -0.436141
  12 C :   -0.451874
  13 C :   -0.446087
  14 C :   -0.396005
  15 Cl:    0.454045
  16 Cl:    0.450522
  17 Cl:    0.452018
  18 Cl:    0.429242
  19 H :    0.159868
  20 H :    0.158045
  21 H :    0.163114

  Mayer bond orders larger than 0.100000
B(  0-C ,  1-C ) :   1.3200 B(  0-C ,  5-C ) :   1.3803 B(  0-C , 19-H ) :   0.9726
B(  1-C ,  2-C ) :   1.2890 B(  1-C ,  9-C ) :   0.7850 B(  2-C ,  3-C ) :   1.3949
B(  2-C , 20-H ) :   0.9683 B(  3-C ,  4-C ) :   1.2527 B(  3-C ,  8-Cl) :   1.0719
B(  4-C ,  5-C ) :   1.2620 B(  4-C ,  7-Cl) :   1.1805 B(  5-C ,  6-Cl) :   1.0749
B(  9-C , 10-C ) :   1.3254 B(  9-C , 14-C ) :   1.2449 B( 10-C , 11-C ) :   1.3747
B( 10-C , 21-H ) :   0.9712 B( 11-C , 12-C ) :   1.2700 B( 11-C , 18-Cl) :   1.0867
B( 12-C , 13-C ) :   1.2750 B( 12-C , 17-Cl) :   1.1970 B( 13-C , 14-C ) :   1.2987
B( 13-C , 16-Cl) :   1.1979 B( 14-C , 15-Cl) :   1.2152

Dispersion correction           -0.015147030
FINAL SINGLE POINT ENERGY     -3680.299995833687

DIPOLE MOMENT
-------------

Method             : SCF
Type of density    : Electron Density
Multiplicity       :   1
Irrep              :   0
Energy             : -3680.2979471810549512 Eh
Relativity type    :
Basis              : AO
                                X                 Y                 Z
Electronic contribution:      1.814855726      -3.044890763      -1.208503713
Nuclear contribution   :     -1.595671405       3.240721283       1.305425367
                        -----------------------------------------
Total Dipole Moment    :      0.219184321       0.195830520       0.096921654
                        -----------------------------------------
Magnitude (a.u.)       :      0.309491787
Magnitude (Debye)      :      0.786665604

VIBRATIONAL FREQUENCIES
-----------------------

Scaling factor for frequencies =  1.000000000  (already applied!)

     0:       0.00 cm**-1
     1:       0.00 cm**-1
     2:       0.00 cm**-1
     3:       0.00 cm**-1
     4:       0.00 cm**-1
     5:       0.00 cm**-1
     6:      31.10 cm**-1
     7:      42.41 cm**-1
     8:      48.64 cm**-1
     9:      83.61 cm**-1
    10:      87.37 cm**-1
    11:      93.06 cm**-1
    12:     152.40 cm**-1
    13:     187.84 cm**-1
    14:     195.86 cm**-1
    15:     211.87 cm**-1
    16:     214.22 cm**-1
    17:     219.40 cm**-1
    18:     223.03 cm**-1
    19:     232.40 cm**-1
    20:     244.28 cm**-1
    21:     275.65 cm**-1
    22:     324.36 cm**-1
    23:     332.61 cm**-1
    24:     349.05 cm**-1
    25:     358.95 cm**-1
    26:     369.48 cm**-1
    27:     447.75 cm**-1
    28:     507.31 cm**-1
    29:     514.22 cm**-1
    30:     531.43 cm**-1
    31:     536.49 cm**-1
    32:     565.19 cm**-1
    33:     568.50 cm**-1
    34:     646.24 cm**-1
    35:     651.58 cm**-1
    36:     666.73 cm**-1
    37:     721.67 cm**-1
    38:     739.64 cm**-1
    39:     769.41 cm**-1
    40:     804.07 cm**-1
    41:     827.98 cm**-1
    42:     879.04 cm**-1
    43:     892.73 cm**-1
    44:     900.67 cm**-1
    45:     921.50 cm**-1
    46:    1051.87 cm**-1
    47:    1077.07 cm**-1
    48:    1134.06 cm**-1
    49:    1162.22 cm**-1
    50:    1190.33 cm**-1
    51:    1219.82 cm**-1
    52:    1281.73 cm**-1
    53:    1296.17 cm**-1
    54:    1312.50 cm**-1
    55:    1353.32 cm**-1
    56:    1400.55 cm**-1
    57:    1417.68 cm**-1
    58:    1456.48 cm**-1
    59:    1536.53 cm**-1
    60:    1565.33 cm**-1
    61:    1586.87 cm**-1
    62:    1607.79 cm**-1
    63:    3197.03 cm**-1
    64:    3198.16 cm**-1
    65:    3206.79 cm**-1

IR SPECTRUM
-----------

 Mode   freq       eps      Int      T**2         TX        TY        TZ
       cm**-1   L/(mol*cm) km/mol    a.u.
----------------------------------------------------------------------------
  6:     31.10   0.000002    0.01  0.000016  (-0.000373 -0.002876 -0.002812)
  7:     42.41   0.000024    0.12  0.000177  ( 0.000141  0.002682 -0.013031)
  8:     48.64   0.000023    0.12  0.000147  ( 0.003239  0.011008  0.003936)
  9:     83.61   0.000003    0.02  0.000011  ( 0.001596  0.002727 -0.001107)
 10:     87.37   0.000001    0.00  0.000003  (-0.001373 -0.001239 -0.000017)
 11:     93.06   0.000037    0.19  0.000124  (-0.002878 -0.004031  0.009994)
 12:    152.40   0.000004    0.02  0.000009  (-0.002264  0.001769  0.000794)
 13:    187.84   0.000001    0.01  0.000002  (-0.000841 -0.001058  0.000177)
 14:    195.86   0.000007    0.04  0.000011  ( 0.003045 -0.001264 -0.000694)
 15:    211.87   0.000004    0.02  0.000006  ( 0.001976  0.000927  0.000934)
 16:    214.22   0.000035    0.18  0.000052  (-0.003356 -0.006337 -0.000334)
 17:    219.40   0.000010    0.05  0.000014  (-0.001965 -0.000924 -0.002972)
 18:    223.03   0.000007    0.03  0.000010  (-0.002887  0.000780  0.000829)
 19:    232.40   0.000003    0.01  0.000003  ( 0.001621  0.000683  0.000628)
 20:    244.28   0.000001    0.00  0.000001  ( 0.001043  0.000038 -0.000253)
 21:    275.65   0.000129    0.65  0.000146  (-0.002911 -0.003522  0.011185)
 22:    324.36   0.000152    0.77  0.000146  (-0.000527  0.006520  0.010155)
 23:    332.61   0.000009    0.04  0.000008  (-0.001107  0.002309  0.001234)
 24:    349.05   0.000010    0.05  0.000009  (-0.001933  0.002093  0.000654)
 25:    358.95   0.000020    0.10  0.000018  (-0.002892  0.002750  0.001310)
 26:    369.48   0.000124    0.63  0.000105  ( 0.003538  0.009551  0.001072)
 27:    447.75   0.000860    4.34  0.000599  (-0.000226  0.022608 -0.009378)
 28:    507.31   0.007501   37.91  0.004614  (-0.066858  0.007955  0.008996)
 29:    514.22   0.001848    9.34  0.001121  (-0.030781  0.006802 -0.011291)
 30:    531.43   0.000467    2.36  0.000275  ( 0.010812  0.010935 -0.006169)
 31:    536.49   0.000018    0.09  0.000010  (-0.002726  0.001271 -0.001082)
 32:    565.19   0.001178    5.95  0.000651  (-0.019743 -0.016078 -0.001521)
 33:    568.50   0.001789    9.04  0.000982  ( 0.019425  0.021435  0.012054)
 34:    646.24   0.003502   17.70  0.001691  (-0.024823 -0.030126 -0.012939)
 35:    651.58   0.002102   10.62  0.001007  ( 0.016233  0.025622  0.009322)
 36:    666.73   0.000659    3.33  0.000309  (-0.004059 -0.011998 -0.012173)
 37:    721.67   0.000927    4.68  0.000401  ( 0.000298 -0.010897 -0.016787)
 38:    739.64   0.000227    1.15  0.000096  (-0.003737 -0.008744  0.002309)
 39:    769.41   0.005519   27.89  0.002238  (-0.015912 -0.040968 -0.017517)
 40:    804.07   0.016767   84.73  0.006507  ( 0.000919 -0.063316  0.049977)
 41:    827.98   0.008089   40.88  0.003049  (-0.027933  0.043344  0.019748)
 42:    879.04   0.003432   17.34  0.001218  (-0.004864 -0.003148 -0.034420)
 43:    892.73   0.000427    2.16  0.000149  (-0.003155 -0.002478  0.011545)
 44:    900.67   0.000156    0.79  0.000054  ( 0.001829 -0.005874 -0.004038)
 45:    921.50   0.000823    4.16  0.000279  ( 0.016574  0.001172  0.001569)
 46:   1051.87   0.003510   17.74  0.001041  ( 0.031987 -0.003784 -0.001976)
 47:   1077.07   0.003300   16.68  0.000956  (-0.010696 -0.025978 -0.012920)
 48:   1134.06   0.006736   34.04  0.001854  (-0.039003  0.015535  0.009547)
 49:   1162.22   0.013815   69.81  0.003709  ( 0.060901 -0.000128 -0.000661)
 50:   1190.33   0.008010   40.48  0.002100  (-0.038758 -0.021640 -0.011373)
 51:   1219.82   0.003810   19.25  0.000975  ( 0.003052  0.026609 -0.016039)
 52:   1281.73   0.001167    5.90  0.000284  ( 0.006408 -0.014362 -0.006074)
 53:   1296.17   0.003510   17.74  0.000845  (-0.005261  0.028491  0.002364)
 54:   1312.50   0.001688    8.53  0.000401  ( 0.003923 -0.019163  0.004325)
 55:   1353.32   0.015742   79.55  0.003630  (-0.016217  0.055384  0.017304)
 56:   1400.55   0.014714   74.36  0.003279  (-0.043792 -0.027579  0.024500)
 57:   1417.68   0.029752  150.35  0.006549  ( 0.075590  0.013333  0.025641)
 58:   1456.48   0.002275   11.50  0.000487  (-0.019879  0.008485  0.004493)
 59:   1536.53   0.010274   51.92  0.002087  (-0.002713  0.045402 -0.004230)
 60:   1565.33   0.008976   45.36  0.001789  (-0.003647 -0.030302  0.029291)
 61:   1586.87   0.001054    5.33  0.000207  ( 0.013771  0.003927  0.001503)
 62:   1607.79   0.002589   13.09  0.000503  (-0.022343 -0.000298  0.001821)
 63:   3197.03   0.000042    0.21  0.000004  ( 0.000688 -0.001177  0.001494)
 64:   3198.16   0.000105    0.53  0.000010  ( 0.000550 -0.003082 -0.000675)
 65:   3206.79   0.000097    0.49  0.000009  (-0.000095  0.002678 -0.001502)

--------------------------
THERMOCHEMISTRY AT 298.15K
--------------------------

Temperature         ...   298.15 K
Pressure            ...     1.00 atm
Total Mass          ...   395.33 AMU
Quasi RRHO          ...     True
Cut-Off Frequency   ...     1.00 cm^-1

Throughout the following assumptions are being made:
  (1) The electronic state is orbitally nondegenerate
  (2) There are no thermally accessible electronically excited states
  (3) Hindered rotations indicated by low frequency modes are not
      treated as such but are treated as vibrations and this may
      cause some error
  (4) All equations used are the standard statistical mechanics
      equations for an ideal gas
  (5) All vibrations are strictly harmonic

freq.      31.10  E(vib)   ...       0.55
freq.      42.41  E(vib)   ...       0.53
freq.      48.64  E(vib)   ...       0.53
freq.      83.61  E(vib)   ...       0.48
freq.      87.37  E(vib)   ...       0.48
freq.      93.06  E(vib)   ...       0.47
freq.     152.40  E(vib)   ...       0.40
freq.     187.84  E(vib)   ...       0.36
freq.     195.86  E(vib)   ...       0.36
freq.     211.87  E(vib)   ...       0.34
freq.     214.22  E(vib)   ...       0.34
freq.     219.40  E(vib)   ...       0.33
freq.     223.03  E(vib)   ...       0.33
freq.     232.40  E(vib)   ...       0.32
freq.     244.28  E(vib)   ...       0.31
freq.     275.65  E(vib)   ...       0.28
freq.     324.36  E(vib)   ...       0.25
freq.     332.61  E(vib)   ...       0.24
freq.     349.05  E(vib)   ...       0.23
freq.     358.95  E(vib)   ...       0.22
freq.     369.48  E(vib)   ...       0.21
freq.     447.75  E(vib)   ...       0.17
freq.     507.31  E(vib)   ...       0.14
freq.     514.22  E(vib)   ...       0.13
freq.     531.43  E(vib)   ...       0.13
freq.     536.49  E(vib)   ...       0.12
freq.     565.19  E(vib)   ...       0.11
freq.     568.50  E(vib)   ...       0.11
freq.     646.24  E(vib)   ...       0.09
freq.     651.58  E(vib)   ...       0.08
freq.     666.73  E(vib)   ...       0.08
freq.     721.67  E(vib)   ...       0.07
freq.     739.64  E(vib)   ...       0.06
freq.     769.41  E(vib)   ...       0.06
freq.     804.07  E(vib)   ...       0.05
freq.     827.98  E(vib)   ...       0.04
freq.     879.04  E(vib)   ...       0.04
freq.     892.73  E(vib)   ...       0.03
freq.     900.67  E(vib)   ...       0.03
freq.     921.50  E(vib)   ...       0.03
freq.    1051.87  E(vib)   ...       0.02
freq.    1077.07  E(vib)   ...       0.02
freq.    1134.06  E(vib)   ...       0.01
freq.    1162.22  E(vib)   ...       0.01
freq.    1190.33  E(vib)   ...       0.01
freq.    1219.82  E(vib)   ...       0.01
freq.    1281.73  E(vib)   ...       0.01
freq.    1296.17  E(vib)   ...       0.01
freq.    1312.50  E(vib)   ...       0.01
freq.    1353.32  E(vib)   ...       0.01
freq.    1400.55  E(vib)   ...       0.00
freq.    1417.68  E(vib)   ...       0.00
freq.    1456.48  E(vib)   ...       0.00
freq.    1536.53  E(vib)   ...       0.00
freq.    1565.33  E(vib)   ...       0.00
freq.    1586.87  E(vib)   ...       0.00
freq.    1607.79  E(vib)   ...       0.00
freq.    3197.03  E(vib)   ...       0.00
freq.    3198.16  E(vib)   ...       0.00
freq.    3206.79  E(vib)   ...       0.00

------------
INNER ENERGY
------------

The inner energy is: U= E(el) + E(ZPE) + E(vib) + E(rot) + E(trans)
    E(el)   - is the total energy from the electronic structure calculation
              = E(kin-el) + E(nuc-el) + E(el-el) + E(nuc-nuc)
    E(ZPE)  - the the zero temperature vibrational energy from the frequency calculation
    E(vib)  - the the finite temperature correction to E(ZPE) due to population
              of excited vibrational states
    E(rot)  - is the rotational thermal energy
    E(trans)- is the translational thermal energy

Summary of contributions to the inner energy U:
Electronic energy                ...  -3680.29999583 Eh
Zero point energy                ...      0.11304723 Eh      70.94 kcal/mol
Thermal vibrational correction   ...      0.01476357 Eh       9.26 kcal/mol
Thermal rotational correction    ...      0.00141627 Eh       0.89 kcal/mol
Thermal translational correction ...      0.00141627 Eh       0.89 kcal/mol
-----------------------------------------------------------------------
Total thermal energy                  -3680.16935249 Eh

Summary of corrections to the electronic energy:
(perhaps to be used in another calculation)
Total thermal correction                  0.01759611 Eh      11.04 kcal/mol
Non-thermal (ZPE) correction              0.11304723 Eh      70.94 kcal/mol
-----------------------------------------------------------------------
Total correction                          0.13064335 Eh      81.98 kcal/mol

--------
ENTHALPY
--------

The enthalpy is H = U + kB*T
                kB is Boltzmann's constant
Total thermal energy              ...  -3680.16935249 Eh
Thermal Enthalpy correction       ...      0.00094421 Eh       0.59 kcal/mol
-----------------------------------------------------------------------
Total Enthalpy                    ...  -3680.16840828 Eh

Note: Only C1 symmetry has been detected, increase convergence thresholds
      if your molecule has a higher symmetry. Symmetry factor of 1.0 is
      used for the rotational entropy correction.

Note: Rotational entropy computed according to Herzberg
Infrared and Raman Spectra, Chapter V,1, Van Nostrand Reinhold, 1945
Point Group:  C1, Symmetry Number:   1
Rotational constants in cm-1:     0.011514     0.003348     0.002874

Vibrational entropy computed according to the QRRHO of S. Grimme
Chem.Eur.J. 2012 18 9955 using a reference frequency of 100.0 cm-1

-------
ENTROPY
-------

The entropy contributions are T*S = T*(S(el)+S(vib)+S(rot)+S(trans))
     S(el)   - electronic entropy
     S(vib)  - vibrational entropy
     S(rot)  - rotational entropy
     S(trans)- translational entropy
The entropies will be listed as multiplied by the temperature to get
units of energy

Electronic entropy                ...      0.00000000 Eh      0.00 kcal/mol
Vibrational entropy               ...      0.02608119 Eh     16.37 kcal/mol
Rotational entropy                ...      0.01707152 Eh     10.71 kcal/mol
Translational entropy             ...      0.02081797 Eh     13.06 kcal/mol
-----------------------------------------------------------------------
Final entropy term                ...      0.06397069 Eh     40.14 kcal/mol

In case the symmetry of your molecule has not been determined correctly
or in case you have a reason to use a different symmetry number we print
out the resulting rotational entropy values for sn=1,12:

 non-linear molecules -----------------------------------

                             ****ORCA TERMINATED NORMALLY****
TOTAL RUN TIME: 0 days 0 hours 50 minutes 23 seconds 512 msec
