                         Program Version 6.0.1  -  RELEASE   -
|  1> ! pbe def2-sv(p) def2/J RI DEFGRID1 loosescf d4 GCP(DFT/SV(P)) printgap
|  2> %output
|  3>     printlevel normal
|  4> end
|  5> * xyz 0 1
|  6> C -2.0937858102 -1.1950177382 -0.2199436973
|  7> C -1.2636669332 -0.3421342361 0.7599155033
|  8> H -1.8645596921 -0.1726632044 1.6588750163
|  9> C -0.9236739909 1.0348467253 0.1631707024
| 10> H -1.2052896205 1.0532631778 -0.9020610087
| 11> C 0.5854129076 1.2894666866 0.242085773
| 12> H 0.8925472578 1.3624605501 1.2976462662
| 13> C 1.3020500582 0.1000288969 -0.3994253878
| 14> H 0.914804158 -0.0413439397 -1.4192753902
| 15> C 0.9952754963 -1.1569508433 0.4344812903
| 16> H 1.8322265715 -1.3337919881 1.1297840478
| 17> O -0.118989311 -1.0328896028 1.2603146667
| 18> O 0.8800785828 -2.2456401893 -0.4550928098
| 19> O 2.6803087252 0.3850865189 -0.4350725971
| 20> O 0.8647822089 2.4893534765 -0.4308923517
| 21> O -1.6421798589 2.0123880588 0.8685546183
| 22> O -1.5438837502 -1.2951146864 -1.5043456698
| 23> H -3.0671351526 -0.7161449251 -0.3434128395
| 24> H -2.2414054677 -2.1891132618 0.2259949849
| 25> H 0.6690418682 -3.0397435275 0.0523713425
| 26> H 3.1364538464 -0.331203871 -0.8894360878
| 27> H 1.8191249708 2.521338727 -0.5719296276
| 28> H -1.3186063427 2.8723444312 0.5713499525
| 29> H -0.6835353096 -1.7421794587 -1.4350331166
| 30> *
| 31>
| 32>                          ****END OF INPUT****

CARTESIAN COORDINATES (ANGSTROEM)
---------------------------------
  C     -2.093786   -1.195018   -0.219944
  C     -1.263667   -0.342134    0.759916
  H     -1.864560   -0.172663    1.658875
  C     -0.923674    1.034847    0.163171
  H     -1.205290    1.053263   -0.902061
  C      0.585413    1.289467    0.242086
  H      0.892547    1.362461    1.297646
  C      1.302050    0.100029   -0.399425
  H      0.914804   -0.041344   -1.419275
  C      0.995275   -1.156951    0.434481
  H      1.832227   -1.333792    1.129784
  O     -0.118989   -1.032890    1.260315
  O      0.880079   -2.245640   -0.455093
  O      2.680309    0.385087   -0.435073
  O      0.864782    2.489353   -0.430892
  O     -1.642180    2.012388    0.868555
  O     -1.543884   -1.295115   -1.504346
  H     -3.067135   -0.716145   -0.343413
  H     -2.241405   -2.189113    0.225995
  H      0.669042   -3.039744    0.052371
  H      3.136454   -0.331204   -0.889436
  H      1.819125    2.521339   -0.571930
  H     -1.318606    2.872344    0.571350
  H     -0.683535   -1.742179   -1.435033

 Total Charge           Charge          ....    0
 Multiplicity           Mult            ....    1
 Number of Electrons    NEL             ....   96
 Basis Dimension        Dim             ....  192

ORBITAL ENERGIES
----------------

  NO   OCC          E(Eh)            E(eV)
   0   2.0000     -18.791600      -511.3454
   1   2.0000     -18.777525      -510.9624
   2   2.0000     -18.772569      -510.8276
   3   2.0000     -18.753906      -510.3197
   4   2.0000     -18.742995      -510.0228
   5   2.0000     -18.738199      -509.8923
   6   2.0000      -9.999423      -272.0981
   7   2.0000      -9.951734      -270.8004
   8   2.0000      -9.942488      -270.5489
   9   2.0000      -9.941934      -270.5338
  10   2.0000      -9.936597      -270.3886
  11   2.0000      -9.928808      -270.1766
  12   2.0000      -0.997333       -27.1388
  13   2.0000      -0.954836       -25.9824
  14   2.0000      -0.938852       -25.5475
  15   2.0000      -0.928325       -25.2610
  16   2.0000      -0.915830       -24.9210
  17   2.0000      -0.914560       -24.8865
  18   2.0000      -0.707330       -19.2474
  19   2.0000      -0.699463       -19.0333
  20   2.0000      -0.621930       -16.9236
  21   2.0000      -0.587393       -15.9838
  22   2.0000      -0.574096       -15.6219
  23   2.0000      -0.533737       -14.5237
  24   2.0000      -0.507869       -13.8198
  25   2.0000      -0.484014       -13.1707
  26   2.0000      -0.468156       -12.7392
  27   2.0000      -0.464389       -12.6367
  28   2.0000      -0.454822       -12.3763
  29   2.0000      -0.433663       -11.8006
  30   2.0000      -0.421438       -11.4679
  31   2.0000      -0.399615       -10.8741
  32   2.0000      -0.393331       -10.7031
  33   2.0000      -0.382802       -10.4166
  34   2.0000      -0.363165        -9.8822
  35   2.0000      -0.347920        -9.4674
  36   2.0000      -0.341688        -9.2978
  37   2.0000      -0.321767        -8.7557
  38   2.0000      -0.312442        -8.5020
  39   2.0000      -0.295287        -8.0352
  40   2.0000      -0.287933        -7.8350
  41   2.0000      -0.274937        -7.4814
  42   2.0000      -0.265552        -7.2260
  43   2.0000      -0.248247        -6.7551
  44   2.0000      -0.237836        -6.4719
  45   2.0000      -0.224773        -6.1164
  46   2.0000      -0.214470        -5.8360
  47   2.0000      -0.204916        -5.5761
  48   0.0000       0.008560         0.2329
  49   0.0000       0.015913         0.4330
  50   0.0000       0.046974         1.2782
  51   0.0000       0.052228         1.4212
  52   0.0000       0.060593         1.6488

MULLIKEN ATOMIC CHARGES
-----------------------
   0 C :    0.014215
   1 C :    0.042361
   2 H :    0.084664
   3 C :    0.064267
   4 H :    0.078678
   5 C :    0.053067
   6 H :    0.062363
   7 C :   -0.008891
   8 H :    0.071070
   9 C :    0.177142
  10 H :    0.070306
  11 O :   -0.302863
  12 O :   -0.409767
  13 O :   -0.418099
  14 O :   -0.424879
  15 O :   -0.416699
  16 O :   -0.441252
  17 H :    0.098174
  18 H :    0.069509
  19 H :    0.310615
  20 H :    0.312207
  21 H :    0.309590
  22 H :    0.307124
  23 H :    0.297098
Sum of atomic charges:   -0.0000000

LOEWDIN ATOMIC CHARGES
----------------------
   0 C :   -0.135418
   1 C :   -0.064675
   2 H :    0.129827
   3 C :   -0.066987
   4 H :    0.110676
   5 C :   -0.074993
   6 H :    0.107087
   7 C :   -0.092076
   8 H :    0.111309
   9 C :   -0.012961
  10 H :    0.104539
  11 O :   -0.136499
  12 O :   -0.312549
  13 O :   -0.318109
  14 O :   -0.321698
  15 O :   -0.318864
  16 O :   -0.345042
  17 H :    0.121870
  18 H :    0.094957
  19 H :    0.289396
  20 H :    0.294150
  21 H :    0.287770
  22 H :    0.287299
  23 H :    0.260992

  Mayer bond orders larger than 0.100000
B(  0-C ,  1-C ) :   1.0369 B(  0-C , 16-O ) :   1.0978 B(  0-C , 17-H ) :   0.9194
B(  0-C , 18-H ) :   0.9123 B(  1-C ,  2-H ) :   0.8762 B(  1-C ,  3-C ) :   0.9898
B(  1-C , 11-O ) :   0.9907 B(  3-C ,  4-H ) :   0.8781 B(  3-C ,  5-C ) :   1.0374
B(  3-C , 15-O ) :   1.0764 B(  5-C ,  6-H ) :   0.8691 B(  5-C ,  7-C ) :   1.0179
B(  5-C , 14-O ) :   1.0852 B(  7-C ,  8-H ) :   0.8753 B(  7-C ,  9-C ) :   0.9964
B(  7-C , 13-O ) :   1.0627 B(  9-C , 10-H ) :   0.8869 B(  9-C , 11-O ) :   1.1017
B(  9-C , 12-O ) :   1.0433 B( 12-O , 19-H ) :   0.8334 B( 12-O , 23-H ) :   0.1221
B( 13-O , 20-H ) :   0.8451 B( 14-O , 21-H ) :   0.8321 B( 15-O , 22-H ) :   0.8403
B( 16-O , 23-H ) :   0.7871

Dispersion correction           -0.025272433
FINAL SINGLE POINT ENERGY      -685.701880703490

DIPOLE MOMENT
-------------

Method             : SCF
Type of density    : Electron Density
Multiplicity       :   1
Irrep              :   0
Energy             :  -685.8351567091091283 Eh
Relativity type    :
Basis              : AO
                                X                 Y                 Z
Electronic contribution:      2.084082236       0.835286921       0.697843854
Nuclear contribution   :     -1.030716223      -1.643516302      -0.596793764
                        -----------------------------------------
Total Dipole Moment    :      1.053366013      -0.808229381       0.101050090
                        -----------------------------------------
Magnitude (a.u.)       :      1.331550154
Magnitude (Debye)      :      3.384531517

Rotational constants in cm-1:             0.035927             0.032775             0.021511
Rotational constants in MHz :          1077.054800           982.583772           644.872050

                             ****ORCA TERMINATED NORMALLY****
TOTAL RUN TIME: 0 days 0 hours 0 minutes 8 seconds 6 msec
