                         Program Version 6.0.1  -  RELEASE   -
|  1> ! pbe def2-sv(p) def2/J RI DEFGRID1 loosescf d4 GCP(DFT/SV(P)) printgap
|  2> %output
|  3>     printlevel normal
|  4> end
|  5> * xyz 0 1
|  6> C -2.9263870433 -0.0006202923 0.00701735
|  7> C -2.2355640171 -1.2011838772 0.0003524927
|  8> C -0.8521220599 -1.2064981572 -0.0131968196
|  9> C -0.1666127662 0.000976996 -0.0242540435
| 10> C -0.8533938405 1.2076259956 -0.0132080414
| 11> C -2.2368835846 1.2006632434 0.0003984444
| 12> C 1.3352062686 0.0004208431 -0.0062427534
| 13> F 1.8247537442 -0.015411387 1.2510860983
| 14> F 1.8651074373 -1.0677984508 -0.6228435632
| 15> F 1.8665542524 1.0823605126 -0.5966431632
| 16> H -4.0059200741 -0.0012083262 0.0178813784
| 17> H -2.7732837116 -2.1367446838 0.0065926205
| 18> H -0.304483368 -2.1364599629 -0.0205859672
| 19> H -0.3069812119 2.1382909083 -0.0205227406
| 20> H -2.7756429103 2.1356295265 0.0065180391
| 21> *
| 22>
| 23>                          ****END OF INPUT****

CARTESIAN COORDINATES (ANGSTROEM)
---------------------------------
  C     -2.926387   -0.000620    0.007017
  C     -2.235564   -1.201184    0.000352
  C     -0.852122   -1.206498   -0.013197
  C     -0.166613    0.000977   -0.024254
  C     -0.853394    1.207626   -0.013208
  C     -2.236884    1.200663    0.000398
  C      1.335206    0.000421   -0.006243
  F      1.824754   -0.015411    1.251086
  F      1.865107   -1.067798   -0.622844
  F      1.866554    1.082361   -0.596643
  H     -4.005920   -0.001208    0.017881
  H     -2.773284   -2.136745    0.006593
  H     -0.304483   -2.136460   -0.020586
  H     -0.306981    2.138291   -0.020523
  H     -2.775643    2.135630    0.006518

 Total Charge           Charge          ....    0
 Multiplicity           Mult            ....    1
 Number of Electrons    NEL             ....   74
 Basis Dimension        Dim             ....  150

ORBITAL ENERGIES
----------------

  NO   OCC          E(Eh)            E(eV)
   0   2.0000     -24.284373      -660.8114
   1   2.0000     -24.284149      -660.8053
   2   2.0000     -24.277046      -660.6120
   3   2.0000     -10.122232      -275.4399
   4   2.0000      -9.922182      -269.9963
   5   2.0000      -9.913677      -269.7649
   6   2.0000      -9.913669      -269.7646
   7   2.0000      -9.912966      -269.7455
   8   2.0000      -9.911770      -269.7130
   9   2.0000      -9.911757      -269.7126
  10   2.0000      -1.186726       -32.2925
  11   2.0000      -1.095735       -29.8165
  12   2.0000      -1.089374       -29.6434
  13   2.0000      -0.799718       -21.7614
  14   2.0000      -0.712020       -19.3750
  15   2.0000      -0.690825       -18.7983
  16   2.0000      -0.623064       -16.9544
  17   2.0000      -0.566338       -15.4108
  18   2.0000      -0.563383       -15.3304
  19   2.0000      -0.519626       -14.1397
  20   2.0000      -0.517016       -14.0687
  21   2.0000      -0.514145       -13.9906
  22   2.0000      -0.457054       -12.4371
  23   2.0000      -0.423720       -11.5300
  24   2.0000      -0.413704       -11.2575
  25   2.0000      -0.396096       -10.7783
  26   2.0000      -0.393373       -10.7042
  27   2.0000      -0.392293       -10.6748
  28   2.0000      -0.364221        -9.9110
  29   2.0000      -0.355200        -9.6655
  30   2.0000      -0.350791        -9.5455
  31   2.0000      -0.341647        -9.2967
  32   2.0000      -0.332733        -9.0541
  33   2.0000      -0.320796        -8.7293
  34   2.0000      -0.312866        -8.5135
  35   2.0000      -0.249502        -6.7893
  36   2.0000      -0.249169        -6.7802
  37   0.0000      -0.062647        -1.7047
  38   0.0000      -0.053092        -1.4447
  39   0.0000       0.034296         0.9332
  40   0.0000       0.071086         1.9343
  41   0.0000       0.078739         2.1426

MULLIKEN ATOMIC CHARGES
-----------------------
   0 C :   -0.039423
   1 C :   -0.048244
   2 C :   -0.087688
   3 C :   -0.031958
   4 C :   -0.087793
   5 C :   -0.048326
   6 C :    0.436791
   7 F :   -0.141990
   8 F :   -0.137298
   9 F :   -0.136810
  10 H :    0.064188
  11 H :    0.064086
  12 H :    0.065274
  13 H :    0.065126
  14 H :    0.064067
Sum of atomic charges:   -0.0000000

LOEWDIN ATOMIC CHARGES
----------------------
   0 C :   -0.110502
   1 C :   -0.114622
   2 C :   -0.102933
   3 C :   -0.090161
   4 C :   -0.103218
   5 C :   -0.114646
   6 C :    0.124277
   7 F :   -0.054338
   8 F :   -0.043192
   9 F :   -0.042847
  10 H :    0.128430
  11 H :    0.129068
  12 H :    0.132820
  13 H :    0.132804
  14 H :    0.129058

  Mayer bond orders larger than 0.100000
B(  0-C ,  1-C ) :   1.3805 B(  0-C ,  5-C ) :   1.3810 B(  0-C , 10-H ) :   0.9650
B(  1-C ,  2-C ) :   1.3708 B(  1-C , 11-H ) :   0.9651 B(  2-C ,  3-C ) :   1.3850
B(  2-C , 12-H ) :   0.9646 B(  3-C ,  4-C ) :   1.3861 B(  3-C ,  6-C ) :   0.9440
B(  4-C ,  5-C ) :   1.3700 B(  4-C , 13-H ) :   0.9646 B(  5-C , 14-H ) :   0.9650
B(  6-C ,  7-F ) :   1.1858 B(  6-C ,  8-F ) :   1.1668 B(  6-C ,  9-F ) :   1.1674

Dispersion correction           -0.015552013
FINAL SINGLE POINT ENERGY      -568.180782110002

DIPOLE MOMENT
-------------

Method             : SCF
Type of density    : Electron Density
Multiplicity       :   1
Irrep              :   0
Energy             :  -568.2390471641846261 Eh
Relativity type    :
Basis              : AO
                                X                 Y                 Z
Electronic contribution:     13.690727662       0.000552302       0.014163616
Nuclear contribution   :    -14.685957690       0.000324837      -0.038768928
                        -----------------------------------------
Total Dipole Moment    :     -0.995230028       0.000877139      -0.024605312
                        -----------------------------------------
Magnitude (a.u.)       :      0.995534529
Magnitude (Debye)      :      2.530447676

Rotational constants in cm-1:             0.095859             0.031598             0.027120
Rotational constants in MHz :          2873.775090           947.289342           813.036918

                             ****ORCA TERMINATED NORMALLY****
TOTAL RUN TIME: 0 days 0 hours 0 minutes 11 seconds 200 msec
