                         Program Version 6.0.1  -  RELEASE   -
|  1> ! pbe def2-sv(p) def2/J RI DEFGRID1 loosescf d4 GCP(DFT/SV(P)) printgap
|  2> %output
|  3>     printlevel normal
|  4> end
|  5> * xyz 0 1
|  6> C -0.7164327601 -0.6013971181 0.293932134
|  7> C 0.6955991063 -0.6138940371 -0.298415583
|  8> O 1.4108157518 0.5396436597 0.085197874
|  9> O -1.4367995969 0.5240670843 -0.1357243585
| 10> H -0.6483268584 -0.610268864 1.395340097
| 11> H -1.2734640685 -1.4836087113 -0.0277385619
| 12> H 0.6396706993 -0.5730603252 -1.3882777052
| 13> H 1.2229392023 -1.5288122893 0.0004268338
| 14> H 1.5378355726 0.5260520493 1.0411397535
| 15> H -0.8179154385 1.2668093505 -0.1654046108
| 16> *
| 17>
| 18>                          ****END OF INPUT****

CARTESIAN COORDINATES (ANGSTROEM)
---------------------------------
  C     -0.716433   -0.601397    0.293932
  C      0.695599   -0.613894   -0.298416
  O      1.410816    0.539644    0.085198
  O     -1.436800    0.524067   -0.135724
  H     -0.648327   -0.610269    1.395340
  H     -1.273464   -1.483609   -0.027739
  H      0.639671   -0.573060   -1.388278
  H      1.222939   -1.528812    0.000427
  H      1.537836    0.526052    1.041140
  H     -0.817915    1.266809   -0.165405

 Total Charge           Charge          ....    0
 Multiplicity           Mult            ....    1
 Number of Electrons    NEL             ....   34
 Basis Dimension        Dim             ....   68

ORBITAL ENERGIES
----------------

  NO   OCC          E(Eh)            E(eV)
   0   2.0000     -18.761028      -510.5135
   1   2.0000     -18.738190      -509.8921
   2   2.0000      -9.936892      -270.3966
   3   2.0000      -9.931433      -270.2480
   4   2.0000      -0.942676       -25.6515
   5   2.0000      -0.911669       -24.8078
   6   2.0000      -0.659176       -17.9371
   7   2.0000      -0.569205       -15.4888
   8   2.0000      -0.473289       -12.8788
   9   2.0000      -0.443239       -12.0611
  10   2.0000      -0.415449       -11.3050
  11   2.0000      -0.390465       -10.6251
  12   2.0000      -0.355517        -9.6741
  13   2.0000      -0.295612        -8.0440
  14   2.0000      -0.278996        -7.5919
  15   2.0000      -0.238654        -6.4941
  16   2.0000      -0.208671        -5.6782
  17   0.0000       0.015977         0.4348
  18   0.0000       0.064645         1.7591
  19   0.0000       0.073222         1.9925
  20   0.0000       0.085054         2.3144
  21   0.0000       0.104566         2.8454

MULLIKEN ATOMIC CHARGES
-----------------------
   0 C :    0.000232
   1 C :   -0.041097
   2 O :   -0.437833
   3 O :   -0.439620
   4 H :    0.059510
   5 H :    0.089309
   6 H :    0.101362
   7 H :    0.080043
   8 H :    0.296725
   9 H :    0.291369
Sum of atomic charges:   -0.0000000

LOEWDIN ATOMIC CHARGES
----------------------
   0 C :   -0.146385
   1 C :   -0.151160
   2 O :   -0.336968
   3 O :   -0.343594
   4 H :    0.087509
   5 H :    0.114290
   6 H :    0.118046
   7 H :    0.099752
   8 H :    0.283842
   9 H :    0.274667

  Mayer bond orders larger than 0.100000
B(  0-C ,  1-C ) :   1.0979 B(  0-C ,  3-O ) :   1.0718 B(  0-C ,  4-H ) :   0.9089
B(  0-C ,  5-H ) :   0.9208 B(  1-C ,  2-O ) :   1.0378 B(  1-C ,  6-H ) :   0.9221
B(  1-C ,  7-H ) :   0.9180 B(  2-O ,  8-H ) :   0.8529 B(  3-O ,  9-H ) :   0.8377

Dispersion correction           -0.004900156
FINAL SINGLE POINT ENERGY      -229.726968135047

DIPOLE MOMENT
-------------

Method             : SCF
Type of density    : Electron Density
Multiplicity       :   1
Irrep              :   0
Energy             :  -229.7787137036580987 Eh
Relativity type    :
Basis              : AO
                                X                 Y                 Z
Electronic contribution:     -0.115896433       1.901058569      -0.268865707
Nuclear contribution   :      0.619498595      -2.238541361       0.801839715
                        -----------------------------------------
Total Dipole Moment    :      0.503602162      -0.337482792       0.532974008
                        -----------------------------------------
Magnitude (a.u.)       :      0.807199520
Magnitude (Debye)      :      2.051738126

Rotational constants in cm-1:             0.516377             0.184377             0.154675
Rotational constants in MHz :         15480.592701          5527.487655          4637.046620

                             ****ORCA TERMINATED NORMALLY****
TOTAL RUN TIME: 0 days 0 hours 0 minutes 5 seconds 875 msec
