                         Program Version 6.0.1  -  RELEASE   -
|  1> ! pbe def2-sv(p) def2/J RI DEFGRID1 loosescf d4 GCP(DFT/SV(P)) printgap
|  2> %output
|  3>     printlevel normal
|  4> end
|  5> * xyz 0 1
|  6> C -3.5548442248 -0.2574109747 -0.4373542192
|  7> O -2.1846554004 -0.0842829375 -0.7754262189
|  8> C -1.3136714318 0.0784906861 0.2299678962
|  9> O -1.6269910926 0.1087758495 1.3908040933
| 10> C 0.0998095275 0.1848273978 -0.2980734852
| 11> C 0.7552967243 -1.1983361312 -0.1729228593
| 12> C 2.2030243038 -1.1463707506 -0.649612606
| 13> C 2.9923257198 -0.1163721765 0.1518819505
| 14> C 2.3461172585 1.2596341829 0.0270558184
| 15> C 0.8968522034 1.217754718 0.4995420132
| 16> H -4.1416737851 0.2608744105 -1.1931649671
| 17> H -3.7487445078 0.1567126606 0.5537904445
| 18> H -3.7980094282 -1.321552716 -0.4407516953
| 19> H 0.0539833606 0.4671490278 -1.3536210468
| 20> H 0.723379803 -1.5083615075 0.8738660878
| 21> H 0.1919749434 -1.9259595601 -0.761312339
| 22> H 2.6579895817 -2.1330087596 -0.5419893729
| 23> H 2.2271168896 -0.8793674237 -1.7086721156
| 24> H 3.0113650106 -0.413112496 1.2026614901
| 25> H 4.0234718757 -0.0777570705 -0.2051351945
| 26> H 2.9030708031 1.9883467281 0.6189496911
| 27> H 2.3783560744 1.5814979262 -1.0166912728
| 28> H 0.8549561746 0.948720314 1.5564591996
| 29> H 0.4378023152 2.2022618576 0.3872886431
| 30> *
| 31>
| 32>                          ****END OF INPUT****

CARTESIAN COORDINATES (ANGSTROEM)
---------------------------------
  C     -3.554844   -0.257411   -0.437354
  O     -2.184655   -0.084283   -0.775426
  C     -1.313671    0.078491    0.229968
  O     -1.626991    0.108776    1.390804
  C      0.099810    0.184827   -0.298073
  C      0.755297   -1.198336   -0.172923
  C      2.203024   -1.146371   -0.649613
  C      2.992326   -0.116372    0.151882
  C      2.346117    1.259634    0.027056
  C      0.896852    1.217755    0.499542
  H     -4.141674    0.260874   -1.193165
  H     -3.748745    0.156713    0.553790
  H     -3.798009   -1.321553   -0.440752
  H      0.053983    0.467149   -1.353621
  H      0.723380   -1.508362    0.873866
  H      0.191975   -1.925960   -0.761312
  H      2.657990   -2.133009   -0.541989
  H      2.227117   -0.879367   -1.708672
  H      3.011365   -0.413112    1.202661
  H      4.023472   -0.077757   -0.205135
  H      2.903071    1.988347    0.618950
  H      2.378356    1.581498   -1.016691
  H      0.854956    0.948720    1.556459
  H      0.437802    2.202262    0.387289

 Total Charge           Charge          ....    0
 Multiplicity           Mult            ....    1
 Number of Electrons    NEL             ....   78
 Basis Dimension        Dim             ....  168

ORBITAL ENERGIES
----------------

  NO   OCC          E(Eh)            E(eV)
   0   2.0000     -18.794947      -511.4365
   1   2.0000     -18.735407      -509.8164
   2   2.0000     -10.001356      -272.1507
   3   2.0000      -9.936071      -270.3742
   4   2.0000      -9.901340      -269.4292
   5   2.0000      -9.890520      -269.1347
   6   2.0000      -9.885760      -269.0052
   7   2.0000      -9.883949      -268.9559
   8   2.0000      -9.883668      -268.9483
   9   2.0000      -9.883224      -268.9362
  10   2.0000      -1.002422       -27.2773
  11   2.0000      -0.913979       -24.8706
  12   2.0000      -0.762555       -20.7502
  13   2.0000      -0.693227       -18.8637
  14   2.0000      -0.669357       -18.2141
  15   2.0000      -0.649536       -17.6748
  16   2.0000      -0.558306       -15.1923
  17   2.0000      -0.545960       -14.8563
  18   2.0000      -0.508415       -13.8347
  19   2.0000      -0.491392       -13.3715
  20   2.0000      -0.456635       -12.4257
  21   2.0000      -0.431372       -11.7382
  22   2.0000      -0.421378       -11.4663
  23   2.0000      -0.413389       -11.2489
  24   2.0000      -0.396099       -10.7784
  25   2.0000      -0.391540       -10.6543
  26   2.0000      -0.377941       -10.2843
  27   2.0000      -0.365055        -9.9337
  28   2.0000      -0.343953        -9.3594
  29   2.0000      -0.338167        -9.2020
  30   2.0000      -0.322098        -8.7647
  31   2.0000      -0.308763        -8.4019
  32   2.0000      -0.304091        -8.2747
  33   2.0000      -0.300250        -8.1702
  34   2.0000      -0.284078        -7.7301
  35   2.0000      -0.269185        -7.3249
  36   2.0000      -0.262238        -7.1359
  37   2.0000      -0.254477        -6.9247
  38   2.0000      -0.219491        -5.9726
  39   0.0000      -0.015989        -0.4351
  40   0.0000       0.034479         0.9382
  41   0.0000       0.050976         1.3871
  42   0.0000       0.057626         1.5681
  43   0.0000       0.070920         1.9298

MULLIKEN ATOMIC CHARGES
-----------------------
   0 C :   -0.129021
   1 O :   -0.245185
   2 C :    0.164199
   3 O :   -0.193042
   4 C :   -0.183281
   5 C :   -0.151392
   6 C :   -0.118532
   7 C :   -0.165436
   8 C :   -0.131259
   9 C :   -0.127790
  10 H :    0.119939
  11 H :    0.129751
  12 H :    0.117550
  13 H :    0.072867
  14 H :    0.089591
  15 H :    0.089435
  16 H :    0.087345
  17 H :    0.073462
  18 H :    0.077973
  19 H :    0.085869
  20 H :    0.086788
  21 H :    0.071768
  22 H :    0.091853
  23 H :    0.086548
Sum of atomic charges:    0.0000000

LOEWDIN ATOMIC CHARGES
----------------------
   0 C :   -0.212755
   1 O :   -0.078401
   2 C :    0.048487
   3 O :   -0.155735
   4 C :   -0.165172
   5 C :   -0.208719
   6 C :   -0.224588
   7 C :   -0.227329
   8 C :   -0.225106
   9 C :   -0.212958
  10 H :    0.119084
  11 H :    0.122133
  12 H :    0.117317
  13 H :    0.125262
  14 H :    0.121525
  15 H :    0.118527
  16 H :    0.118172
  17 H :    0.114744
  18 H :    0.115761
  19 H :    0.116454
  20 H :    0.118022
  21 H :    0.113505
  22 H :    0.122949
  23 H :    0.118819

  Mayer bond orders larger than 0.100000
B(  0-C ,  1-O ) :   0.9463 B(  0-C , 10-H ) :   0.9607 B(  0-C , 11-H ) :   0.9323
B(  0-C , 12-H ) :   0.9591 B(  1-O ,  2-C ) :   1.2066 B(  2-C ,  3-O ) :   2.0787
B(  2-C ,  4-C ) :   0.9373 B(  4-C ,  5-C ) :   1.0835 B(  4-C ,  9-C ) :   1.0779
B(  4-C , 13-H ) :   0.8790 B(  5-C ,  6-C ) :   1.1374 B(  5-C , 14-H ) :   0.9076
B(  5-C , 15-H ) :   0.9153 B(  6-C ,  7-C ) :   1.1355 B(  6-C , 16-H ) :   0.9178
B(  6-C , 17-H ) :   0.9111 B(  7-C ,  8-C ) :   1.1357 B(  7-C , 18-H ) :   0.9153
B(  7-C , 19-H ) :   0.9196 B(  8-C ,  9-C ) :   1.1389 B(  8-C , 20-H ) :   0.9193
B(  8-C , 21-H ) :   0.9107 B(  9-C , 22-H ) :   0.9005 B(  9-C , 23-H ) :   0.9214

Dispersion correction           -0.022511149
FINAL SINGLE POINT ENERGY      -462.707577658740

DIPOLE MOMENT
-------------

Method             : SCF
Type of density    : Electron Density
Multiplicity       :   1
Irrep              :   0
Energy             :  -462.7956098799021447 Eh
Relativity type    :
Basis              : AO
                                X                 Y                 Z
Electronic contribution:     -7.267046760       0.504865530       1.276296051
Nuclear contribution   :      7.237773631      -0.612782207      -1.893781714
                        -----------------------------------------
Total Dipole Moment    :     -0.029273129      -0.107916676      -0.617485662
                        -----------------------------------------
Magnitude (a.u.)       :      0.627528062
Magnitude (Debye)      :      1.595049573

Rotational constants in cm-1:             0.102660             0.024408             0.022392
Rotational constants in MHz :          3077.671804           731.740708           671.292854

                             ****ORCA TERMINATED NORMALLY****
TOTAL RUN TIME: 0 days 0 hours 0 minutes 8 seconds 320 msec
