                         Program Version 6.0.1  -  RELEASE   -
|  1> ! pbe def2-sv(p) def2/J RI DEFGRID1 loosescf d4 GCP(DFT/SV(P)) printgap
|  2> %output
|  3>     printlevel normal
|  4> end
|  5> * xyz 0 1
|  6> C 1.3344447081 1.3273387721 5.4204e-06
|  7> C -0.0291147477 1.1029202697 -0.0002334874
|  8> C -0.4950127524 -0.2141929654 -0.0002628585
|  9> C 0.4516833308 -1.2404753466 -8.45116e-05
| 10> N 1.7522020681 -1.026416984 0.0001121364
| 11> C 2.1812543849 0.2254712368 0.0001819655
| 12> C -1.9355370116 -0.5024875558 -0.0001146899
| 13> O -2.8057475124 0.3285054739 0.0002916018
| 14> H 1.7359132921 2.3286025072 5.25474e-05
| 15> H -0.7436797467 1.9132867419 -0.0003476887
| 16> H 0.1439179889 -2.2789036758 -0.0001253569
| 17> H 3.2565644651 0.3464974381 0.0003526823
| 18> H -2.1717534046 -1.5849597019 -6.37328e-05
| 19> *
| 20>
| 21>                          ****END OF INPUT****

CARTESIAN COORDINATES (ANGSTROEM)
---------------------------------
  C      1.334445    1.327339    0.000005
  C     -0.029115    1.102920   -0.000233
  C     -0.495013   -0.214193   -0.000263
  C      0.451683   -1.240475   -0.000085
  N      1.752202   -1.026417    0.000112
  C      2.181254    0.225471    0.000182
  C     -1.935537   -0.502488   -0.000115
  O     -2.805748    0.328505    0.000292
  H      1.735913    2.328603    0.000053
  H     -0.743680    1.913287   -0.000348
  H      0.143918   -2.278904   -0.000125
  H      3.256564    0.346497    0.000353
  H     -2.171753   -1.584960   -0.000064

 Total Charge           Charge          ....    0
 Multiplicity           Mult            ....    1
 Number of Electrons    NEL             ....   56
 Basis Dimension        Dim             ....  122

ORBITAL ENERGIES
----------------

  NO   OCC          E(Eh)            E(eV)
   0   2.0000     -18.761362      -510.5226
   1   2.0000     -14.001183      -380.9916
   2   2.0000      -9.982136      -271.6277
   3   2.0000      -9.947463      -270.6842
   4   2.0000      -9.945832      -270.6398
   5   2.0000      -9.929083      -270.1841
   6   2.0000      -9.922838      -270.0142
   7   2.0000      -9.921108      -269.9671
   8   2.0000      -0.958021       -26.0691
   9   2.0000      -0.880795       -23.9676
  10   2.0000      -0.749230       -20.3876
  11   2.0000      -0.715112       -19.4592
  12   2.0000      -0.614036       -16.7088
  13   2.0000      -0.586813       -15.9680
  14   2.0000      -0.530048       -14.4233
  15   2.0000      -0.488191       -13.2844
  16   2.0000      -0.465229       -12.6595
  17   2.0000      -0.433902       -11.8071
  18   2.0000      -0.406253       -11.0547
  19   2.0000      -0.394712       -10.7407
  20   2.0000      -0.387259       -10.5379
  21   2.0000      -0.369194       -10.0463
  22   2.0000      -0.360422        -9.8076
  23   2.0000      -0.346063        -9.4168
  24   2.0000      -0.281026        -7.6471
  25   2.0000      -0.262228        -7.1356
  26   2.0000      -0.230327        -6.2675
  27   2.0000      -0.212190        -5.7740
  28   0.0000      -0.110218        -2.9992
  29   0.0000      -0.071046        -1.9333
  30   0.0000      -0.015952        -0.4341
  31   0.0000       0.044603         1.2137
  32   0.0000       0.060100         1.6354

MULLIKEN ATOMIC CHARGES
-----------------------
   0 C :   -0.063965
   1 C :   -0.036718
   2 C :    0.013260
   3 C :   -0.079681
   4 N :   -0.047286
   5 C :   -0.045535
   6 C :    0.050018
   7 O :   -0.145015
   8 H :    0.075070
   9 H :    0.079819
  10 H :    0.073050
  11 H :    0.082951
  12 H :    0.044033
Sum of atomic charges:    0.0000000

LOEWDIN ATOMIC CHARGES
----------------------
   0 C :   -0.134269
   1 C :   -0.058541
   2 C :   -0.115128
   3 C :   -0.056241
   4 N :   -0.067814
   5 C :   -0.058743
   6 C :    0.005616
   7 O :   -0.109049
   8 H :    0.134129
   9 H :    0.138064
  10 H :    0.119369
  11 H :    0.120352
  12 H :    0.082254

  Mayer bond orders larger than 0.100000
B(  0-C ,  1-C ) :   1.4145 B(  0-C ,  5-C ) :   1.3532 B(  0-C ,  8-H ) :   0.9508
B(  1-C ,  2-C ) :   1.3720 B(  1-C ,  9-H ) :   0.9532 B(  2-C ,  3-C ) :   1.3072
B(  2-C ,  6-C ) :   0.9726 B(  3-C ,  4-N ) :   1.5631 B(  3-C , 10-H ) :   0.9492
B(  4-N ,  5-C ) :   1.5429 B(  5-C , 11-H ) :   0.9524 B(  6-C ,  7-O ) :   2.1604
B(  6-C , 12-H ) :   0.9156

Dispersion correction           -0.013062443
FINAL SINGLE POINT ENERGY      -360.863419676549

DIPOLE MOMENT
-------------

Method             : SCF
Type of density    : Electron Density
Multiplicity       :   1
Irrep              :   0
Energy             :  -360.8995784700055651 Eh
Relativity type    :
Basis              : AO
                                X                 Y                 Z
Electronic contribution:     -1.477809399      -0.440088774      -0.000135618
Nuclear contribution   :      2.051726210       0.678953061      -0.000118482
                        -----------------------------------------
Total Dipole Moment    :      0.573916811       0.238864287      -0.000254099
                        -----------------------------------------
Magnitude (a.u.)       :      0.621640345
Magnitude (Debye)      :      1.580084185

Rotational constants in cm-1:             0.183284             0.053187             0.041224
Rotational constants in MHz :          5494.701524          1594.517668          1235.876419

                             ****ORCA TERMINATED NORMALLY****
TOTAL RUN TIME: 0 days 0 hours 0 minutes 15 seconds 157 msec
