                         Program Version 6.0.1  -  RELEASE   -
|  1> ! pbe def2-sv(p) def2/J RI DEFGRID1 loosescf d4 GCP(DFT/SV(P)) printgap
|  2> %output
|  3>     printlevel normal
|  4> end
|  5> * xyz 0 1
|  6> C -2.0036414564 -1.0017586655 -0.6601448055
|  7> C -1.2917328306 -0.1272781581 0.392600115
|  8> H -2.0023875623 0.1464655123 1.1810188353
|  9> C -0.7443357004 1.1801026789 -0.2081766707
| 10> H -0.7842957743 1.1419468836 -1.3097015015
| 11> C 0.7256111376 1.3472729352 0.1920127192
| 12> H 0.8002859824 1.4256880734 1.2877968889
| 13> C 1.5011408715 0.1092316637 -0.262994316
| 14> H 1.4053533096 0.0068467538 -1.3550849185
| 15> C 0.8808015836 -1.1463663333 0.3946630453
| 16> H 1.5641240203 -1.5101019458 1.1834597328
| 17> O -0.2985267848 -0.8666063656 1.0886295635
| 18> O 0.7174059984 -2.1247469646 -0.5886093773
| 19> O 2.8502427302 0.2998384772 0.0915260551
| 20> O 1.2113286232 2.5181578892 -0.4145489757
| 21> O -1.5270941908 2.2471057845 0.2546516248
| 22> O -2.1554608345 -2.3274882361 -0.2121453339
| 23> H -1.4083444943 -1.0684072486 -1.5734287653
| 24> H -2.9728494052 -0.5464245679 -0.9000649545
| 25> H -0.0672342219 -2.6533065378 -0.3706273056
| 26> H 3.3562379587 -0.469855613 -0.1899836839
| 27> H 2.172259467 2.5033329857 -0.3262806294
| 28> H -1.0523568145 3.0610390988 0.0408380041
| 29> H -2.568208354 -2.3137828671 0.6594977152
| 30> *
| 31>
| 32>                          ****END OF INPUT****

CARTESIAN COORDINATES (ANGSTROEM)
---------------------------------
  C     -2.003641   -1.001759   -0.660145
  C     -1.291733   -0.127278    0.392600
  H     -2.002388    0.146466    1.181019
  C     -0.744336    1.180103   -0.208177
  H     -0.784296    1.141947   -1.309702
  C      0.725611    1.347273    0.192013
  H      0.800286    1.425688    1.287797
  C      1.501141    0.109232   -0.262994
  H      1.405353    0.006847   -1.355085
  C      0.880802   -1.146366    0.394663
  H      1.564124   -1.510102    1.183460
  O     -0.298527   -0.866606    1.088630
  O      0.717406   -2.124747   -0.588609
  O      2.850243    0.299838    0.091526
  O      1.211329    2.518158   -0.414549
  O     -1.527094    2.247106    0.254652
  O     -2.155461   -2.327488   -0.212145
  H     -1.408344   -1.068407   -1.573429
  H     -2.972849   -0.546425   -0.900065
  H     -0.067234   -2.653307   -0.370627
  H      3.356238   -0.469856   -0.189984
  H      2.172259    2.503333   -0.326281
  H     -1.052357    3.061039    0.040838
  H     -2.568208   -2.313783    0.659498

 Total Charge           Charge          ....    0
 Multiplicity           Mult            ....    1
 Number of Electrons    NEL             ....   96
 Basis Dimension        Dim             ....  192

ORBITAL ENERGIES
----------------

  NO   OCC          E(Eh)            E(eV)
   0   2.0000     -18.774397      -510.8773
   1   2.0000     -18.767717      -510.6956
   2   2.0000     -18.765609      -510.6382
   3   2.0000     -18.755963      -510.3757
   4   2.0000     -18.750006      -510.2136
   5   2.0000     -18.749060      -510.1878
   6   2.0000      -9.984503      -271.6921
   7   2.0000      -9.949400      -270.7369
   8   2.0000      -9.945917      -270.6422
   9   2.0000      -9.942577      -270.5513
  10   2.0000      -9.942539      -270.5502
  11   2.0000      -9.939726      -270.4737
  12   2.0000      -0.986763       -26.8512
  13   2.0000      -0.951572       -25.8936
  14   2.0000      -0.939881       -25.5755
  15   2.0000      -0.936218       -25.4758
  16   2.0000      -0.918449       -24.9923
  17   2.0000      -0.907108       -24.6837
  18   2.0000      -0.710034       -19.3210
  19   2.0000      -0.694522       -18.8989
  20   2.0000      -0.623088       -16.9551
  21   2.0000      -0.584338       -15.9006
  22   2.0000      -0.577173       -15.7057
  23   2.0000      -0.525418       -14.2973
  24   2.0000      -0.508480       -13.8364
  25   2.0000      -0.487035       -13.2529
  26   2.0000      -0.479083       -13.0365
  27   2.0000      -0.449514       -12.2319
  28   2.0000      -0.444369       -12.0919
  29   2.0000      -0.430372       -11.7110
  30   2.0000      -0.420573       -11.4444
  31   2.0000      -0.403516       -10.9802
  32   2.0000      -0.396499       -10.7893
  33   2.0000      -0.388399       -10.5689
  34   2.0000      -0.365046        -9.9334
  35   2.0000      -0.351872        -9.5749
  36   2.0000      -0.338523        -9.2117
  37   2.0000      -0.319111        -8.6834
  38   2.0000      -0.309988        -8.4352
  39   2.0000      -0.299591        -8.1523
  40   2.0000      -0.289014        -7.8645
  41   2.0000      -0.273658        -7.4466
  42   2.0000      -0.256049        -6.9674
  43   2.0000      -0.237154        -6.4533
  44   2.0000      -0.230318        -6.2673
  45   2.0000      -0.227213        -6.1828
  46   2.0000      -0.219346        -5.9687
  47   2.0000      -0.213474        -5.8089
  48   0.0000       0.012627         0.3436
  49   0.0000       0.020287         0.5520
  50   0.0000       0.045962         1.2507
  51   0.0000       0.049928         1.3586
  52   0.0000       0.057378         1.5613

MULLIKEN ATOMIC CHARGES
-----------------------
   0 C :   -0.000742
   1 C :    0.028426
   2 H :    0.080319
   3 C :    0.061087
   4 H :    0.057089
   5 C :    0.051486
   6 H :    0.065942
   7 C :    0.013015
   8 H :    0.063353
   9 C :    0.200326
  10 H :    0.052682
  11 O :   -0.304958
  12 O :   -0.423622
  13 O :   -0.420419
  14 O :   -0.428231
  15 O :   -0.414892
  16 O :   -0.429418
  17 H :    0.101390
  18 H :    0.098859
  19 H :    0.309749
  20 H :    0.312732
  21 H :    0.311822
  22 H :    0.308958
  23 H :    0.305048
Sum of atomic charges:    0.0000000

LOEWDIN ATOMIC CHARGES
----------------------
   0 C :   -0.148396
   1 C :   -0.067938
   2 H :    0.122409
   3 C :   -0.062240
   4 H :    0.102823
   5 C :   -0.076571
   6 H :    0.110035
   7 C :   -0.091566
   8 H :    0.107354
   9 C :   -0.001140
  10 H :    0.094543
  11 O :   -0.135307
  12 O :   -0.330093
  13 O :   -0.321074
  14 O :   -0.324051
  15 O :   -0.318558
  16 O :   -0.322224
  17 H :    0.114105
  18 H :    0.110175
  19 H :    0.278098
  20 H :    0.293828
  21 H :    0.289894
  22 H :    0.287872
  23 H :    0.288024

  Mayer bond orders larger than 0.100000
B(  0-C ,  1-C ) :   1.0429 B(  0-C , 16-O ) :   1.0311 B(  0-C , 17-H ) :   0.9108
B(  0-C , 18-H ) :   0.9137 B(  1-C ,  2-H ) :   0.8795 B(  1-C ,  3-C ) :   0.9910
B(  1-C , 11-O ) :   1.0368 B(  3-C ,  4-H ) :   0.8803 B(  3-C ,  5-C ) :   1.0378
B(  3-C , 15-O ) :   1.0873 B(  5-C ,  6-H ) :   0.8661 B(  5-C ,  7-C ) :   1.0279
B(  5-C , 14-O ) :   1.0786 B(  7-C ,  8-H ) :   0.8748 B(  7-C ,  9-C ) :   0.9787
B(  7-C , 13-O ) :   1.0674 B(  9-C , 10-H ) :   0.8884 B(  9-C , 11-O ) :   1.0768
B(  9-C , 12-O ) :   1.1142 B( 12-O , 19-H ) :   0.7940 B( 13-O , 20-H ) :   0.8457
B( 14-O , 21-H ) :   0.8327 B( 15-O , 22-H ) :   0.8368 B( 16-O , 23-H ) :   0.8459

Dispersion correction           -0.024861645
FINAL SINGLE POINT ENERGY      -685.694465805595

DIPOLE MOMENT
-------------

Method             : SCF
Type of density    : Electron Density
Multiplicity       :   1
Irrep              :   0
Energy             :  -685.8270713311106874 Eh
Relativity type    :
Basis              : AO
                                X                 Y                 Z
Electronic contribution:      1.621603973       0.129735495       1.639990546
Nuclear contribution   :     -1.449300631      -0.263218853      -1.565894525
                        -----------------------------------------
Total Dipole Moment    :      0.172303342      -0.133483358       0.074096021
                        -----------------------------------------
Magnitude (a.u.)       :      0.230209619
Magnitude (Debye)      :      0.585146350

Rotational constants in cm-1:             0.041514             0.028494             0.018857
Rotational constants in MHz :          1244.562481           854.227500           565.319160

                             ****ORCA TERMINATED NORMALLY****
TOTAL RUN TIME: 0 days 0 hours 0 minutes 8 seconds 593 msec
