                         Program Version 6.0.1  -  RELEASE   -
|  1> ! pbe def2-sv(p) def2/J RI DEFGRID1 loosescf d4 GCP(DFT/SV(P)) printgap
|  2> %output
|  3>     printlevel normal
|  4> end
|  5> * xyz 0 1
|  6> C 3.057086022 0.0772726879 -0.2614256634
|  7> C 1.9492338182 -0.1508070228 0.7662166012
|  8> H 2.4326343255 -0.2923081902 1.7418490429
|  9> C 1.131077659 -1.4068746378 0.4546213785
| 10> C 0.2199339459 -1.2040591055 -0.7509316734
| 11> C -0.7823096603 -0.0646533737 -0.5356663074
| 12> H -1.3100252588 0.0927453497 -1.483270418
| 13> C 0.0228006245 1.219618011 -0.2714143055
| 14> H -0.6668103083 2.0365729128 -0.0010502482
| 15> C 1.0168731167 1.0603557456 0.8865892225
| 16> O 0.652539516 1.5668077046 -1.4920783167
| 17> C -1.8444488957 -0.3386587363 0.5479676768
| 18> C -2.9631036047 0.7042056848 0.4968737391
| 19> C -2.4726888191 -1.7241109525 0.3868768003
| 20> H 3.6599402138 0.9396443096 0.0185961476
| 21> H 3.7101446052 -0.7918421804 -0.3067128131
| 22> H 2.6444249601 0.2519002359 -1.2497940144
| 23> H 1.8097276524 -2.2411638121 0.2627680051
| 24> H 0.5292495078 -1.6666447021 1.328055248
| 25> H 0.8241144941 -0.9461703663 -1.6208885614
| 26> H -0.302809059 -2.1310070784 -0.9839474102
| 27> H 1.6154601626 1.9736257932 0.9662528099
| 28> H 0.4389688456 0.9733756332 1.8088041614
| 29> H 1.2310963538 2.3200025327 -1.3325971759
| 30> H -1.3757538519 -0.2892058964 1.5354599174
| 31> H -3.441601121 0.6953523707 -0.4800943
| 32> H -2.5920092857 1.7072329257 0.6874189858
| 33> H -3.7170776913 0.4808362169 1.2489392818
| 34> H -2.8440812725 -1.8569448415 -0.6269491068
| 35> H -3.3106027356 -1.8311883731 1.0728814534
| 36> H -1.7621858996 -2.5157325421 0.6060156875
| 37> *
| 38>
| 39>                          ****END OF INPUT****

CARTESIAN COORDINATES (ANGSTROEM)
---------------------------------
  C      3.057086    0.077273   -0.261426
  C      1.949234   -0.150807    0.766217
  H      2.432634   -0.292308    1.741849
  C      1.131078   -1.406875    0.454621
  C      0.219934   -1.204059   -0.750932
  C     -0.782310   -0.064653   -0.535666
  H     -1.310025    0.092745   -1.483270
  C      0.022801    1.219618   -0.271414
  H     -0.666810    2.036573   -0.001050
  C      1.016873    1.060356    0.886589
  O      0.652540    1.566808   -1.492078
  C     -1.844449   -0.338659    0.547968
  C     -2.963104    0.704206    0.496874
  C     -2.472689   -1.724111    0.386877
  H      3.659940    0.939644    0.018596
  H      3.710145   -0.791842   -0.306713
  H      2.644425    0.251900   -1.249794
  H      1.809728   -2.241164    0.262768
  H      0.529250   -1.666645    1.328055
  H      0.824114   -0.946170   -1.620889
  H     -0.302809   -2.131007   -0.983947
  H      1.615460    1.973626    0.966253
  H      0.438969    0.973376    1.808804
  H      1.231096    2.320003   -1.332597
  H     -1.375754   -0.289206    1.535460
  H     -3.441601    0.695352   -0.480094
  H     -2.592009    1.707233    0.687419
  H     -3.717078    0.480836    1.248939
  H     -2.844081   -1.856945   -0.626949
  H     -3.310603   -1.831188    1.072881
  H     -1.762186   -2.515733    0.606016

 Total Charge           Charge          ....    0
 Multiplicity           Mult            ....    1
 Number of Electrons    NEL             ....   88
 Basis Dimension        Dim             ....  194

ORBITAL ENERGIES
----------------

  NO   OCC          E(Eh)            E(eV)
   0   2.0000     -18.740709      -509.9606
   1   2.0000      -9.932249      -270.2702
   2   2.0000      -9.893025      -269.2029
   3   2.0000      -9.889807      -269.1153
   4   2.0000      -9.884907      -268.9820
   5   2.0000      -9.882585      -268.9188
   6   2.0000      -9.875708      -268.7317
   7   2.0000      -9.870457      -268.5888
   8   2.0000      -9.870333      -268.5854
   9   2.0000      -9.870211      -268.5821
  10   2.0000      -9.864495      -268.4265
  11   2.0000      -0.920562       -25.0498
  12   2.0000      -0.755438       -20.5565
  13   2.0000      -0.718189       -19.5429
  14   2.0000      -0.664414       -18.0796
  15   2.0000      -0.656389       -17.8613
  16   2.0000      -0.607657       -16.5352
  17   2.0000      -0.601961       -16.3802
  18   2.0000      -0.543727       -14.7956
  19   2.0000      -0.538347       -14.6492
  20   2.0000      -0.509099       -13.8533
  21   2.0000      -0.463501       -12.6125
  22   2.0000      -0.441316       -12.0088
  23   2.0000      -0.429369       -11.6837
  24   2.0000      -0.417383       -11.3576
  25   2.0000      -0.402802       -10.9608
  26   2.0000      -0.381941       -10.3931
  27   2.0000      -0.377621       -10.2756
  28   2.0000      -0.371887       -10.1196
  29   2.0000      -0.354772        -9.6538
  30   2.0000      -0.342637        -9.3236
  31   2.0000      -0.339092        -9.2272
  32   2.0000      -0.335006        -9.1160
  33   2.0000      -0.326258        -8.8779
  34   2.0000      -0.312611        -8.5066
  35   2.0000      -0.304483        -8.2854
  36   2.0000      -0.297679        -8.1003
  37   2.0000      -0.291097        -7.9212
  38   2.0000      -0.285818        -7.7775
  39   2.0000      -0.276073        -7.5123
  40   2.0000      -0.264495        -7.1973
  41   2.0000      -0.256160        -6.9705
  42   2.0000      -0.243767        -6.6332
  43   2.0000      -0.206614        -5.6222
  44   0.0000       0.017777         0.4837
  45   0.0000       0.041616         1.1324
  46   0.0000       0.053217         1.4481
  47   0.0000       0.058790         1.5998
  48   0.0000       0.073534         2.0010

MULLIKEN ATOMIC CHARGES
-----------------------
   0 C :   -0.278983
   1 C :   -0.130521
   2 H :    0.062505
   3 C :   -0.127614
   4 C :   -0.114512
   5 C :   -0.102920
   6 H :    0.061807
   7 C :    0.056960
   8 H :    0.054794
   9 C :   -0.145681
  10 O :   -0.411697
  11 C :   -0.182355
  12 C :   -0.244317
  13 C :   -0.242588
  14 H :    0.086382
  15 H :    0.092992
  16 H :    0.120295
  17 H :    0.077208
  18 H :    0.077399
  19 H :    0.093049
  20 H :    0.080167
  21 H :    0.066574
  22 H :    0.084235
  23 H :    0.294847
  24 H :    0.076074
  25 H :    0.093431
  26 H :    0.105008
  27 H :    0.095840
  28 H :    0.095606
  29 H :    0.095035
  30 H :    0.110980
Sum of atomic charges:   -0.0000000

LOEWDIN ATOMIC CHARGES
----------------------
   0 C :   -0.343310
   1 C :   -0.147004
   2 H :    0.113334
   3 C :   -0.216244
   4 C :   -0.221289
   5 C :   -0.135936
   6 H :    0.119999
   7 C :   -0.044235
   8 H :    0.094436
   9 C :   -0.229317
  10 O :   -0.319871
  11 C :   -0.151336
  12 C :   -0.328652
  13 C :   -0.327868
  14 H :    0.112563
  15 H :    0.115690
  16 H :    0.119447
  17 H :    0.115182
  18 H :    0.111818
  19 H :    0.123371
  20 H :    0.115255
  21 H :    0.109562
  22 H :    0.120598
  23 H :    0.280946
  24 H :    0.111461
  25 H :    0.117960
  26 H :    0.113546
  27 H :    0.116717
  28 H :    0.118540
  29 H :    0.117128
  30 H :    0.117506

  Mayer bond orders larger than 0.100000
B(  0-C ,  1-C ) :   1.1080 B(  0-C , 14-H ) :   0.9482 B(  0-C , 15-H ) :   0.9458
B(  0-C , 16-H ) :   0.9293 B(  1-C ,  2-H ) :   0.8982 B(  1-C ,  3-C ) :   1.0940
B(  1-C ,  9-C ) :   1.0770 B(  3-C ,  4-C ) :   1.1318 B(  3-C , 17-H ) :   0.9150
B(  3-C , 18-H ) :   0.9056 B(  4-C ,  5-C ) :   1.0869 B(  4-C , 19-H ) :   0.9020
B(  4-C , 20-H ) :   0.9014 B(  5-C ,  6-H ) :   0.8714 B(  5-C ,  7-C ) :   1.0385
B(  5-C , 11-C ) :   1.0259 B(  7-C ,  8-H ) :   0.8982 B(  7-C ,  9-C ) :   1.0762
B(  7-C , 10-O ) :   1.0484 B(  9-C , 21-H ) :   0.9083 B(  9-C , 22-H ) :   0.8954
B( 10-O , 23-H ) :   0.8443 B( 11-C , 12-C ) :   1.1130 B( 11-C , 13-C ) :   1.1241
B( 11-C , 24-H ) :   0.8857 B( 12-C , 25-H ) :   0.9479 B( 12-C , 26-H ) :   0.9405
B( 12-C , 27-H ) :   0.9466 B( 13-C , 28-H ) :   0.9466 B( 13-C , 29-H ) :   0.9472
B( 13-C , 30-H ) :   0.9362

Dispersion correction           -0.033267857
FINAL SINGLE POINT ENERGY      -467.193178873893

DIPOLE MOMENT
-------------

Method             : SCF
Type of density    : Electron Density
Multiplicity       :   1
Irrep              :   0
Energy             :  -467.3051355845209400 Eh
Relativity type    :
Basis              : AO
                                X                 Y                 Z
Electronic contribution:      2.361157243       3.157722874      -2.532620655
Nuclear contribution   :     -2.267426314      -2.876543530       2.972235229
                        -----------------------------------------
Total Dipole Moment    :      0.093730929       0.281179344       0.439614574
                        -----------------------------------------
Magnitude (a.u.)       :      0.530196458
Magnitude (Debye)      :      1.347652297

Rotational constants in cm-1:             0.057975             0.026866             0.022726
Rotational constants in MHz :          1738.038391           805.423332           681.304875

                             ****ORCA TERMINATED NORMALLY****
TOTAL RUN TIME: 0 days 0 hours 0 minutes 11 seconds 905 msec
