                         Program Version 6.0.1  -  RELEASE   -
|  1> ! pbe def2-sv(p) def2/J RI DEFGRID1 loosescf d4 GCP(DFT/SV(P)) printgap
|  2> %output
|  3>     printlevel normal
|  4> end
|  5> * xyz 0 1
|  6> C 3.2371502774 -0.1146921342 1.0141854284
|  7> C 1.9085248319 -0.109907932 0.3324044627
|  8> C 1.3406194452 1.0122515822 -0.1210725341
|  9> C 0.0353170156 1.0628615777 -0.7793527311
| 10> O -0.3736662654 2.0677037515 -1.3239706886
| 11> C -0.7859773087 -0.2141152801 -0.6971238999
| 12> H -1.5236120054 -0.1985023797 -1.5063969583
| 13> C 0.1553832117 -1.4037795645 -0.8934837694
| 14> C 1.2420582063 -1.4419930331 0.1762258903
| 15> C -1.557078787 -0.216364157 0.6429634519
| 16> C -2.5864457554 0.9130911337 0.6498439593
| 17> C -2.2682203862 -1.5470756941 0.8868491694
| 18> H 3.5986679275 0.8956614253 1.1841845299
| 19> H 3.9667348227 -0.6489068666 0.4053148274
| 20> H 3.1671904884 -0.6334107643 1.9697791745
| 21> H 1.8490731863 1.9628657288 -0.0331287469
| 22> H -0.4049367187 -2.339205575 -0.8991087773
| 23> H 0.6306658473 -1.2997335102 -1.8729264698
| 24> H 0.8128396014 -1.7307227013 1.1409255188
| 25> H 1.9905860671 -2.1976896756 -0.0760911278
| 26> H -0.8451790264 -0.0391777808 1.4569294246
| 27> H -2.12228563 1.868131724 0.4202518109
| 28> H -3.0612843714 0.9868613775 1.6259119221
| 29> H -3.357362891 0.7238508244 -0.0942279997
| 30> H -2.899117798 -1.8006244833 0.0375706036
| 31> H -2.9007739507 -1.4673544268 1.7683460773
| 32> H -1.5656242439 -2.3593327526 1.0528206433
| 33> *
| 34>
| 35>                          ****END OF INPUT****

CARTESIAN COORDINATES (ANGSTROEM)
---------------------------------
  C      3.237150   -0.114692    1.014185
  C      1.908525   -0.109908    0.332404
  C      1.340619    1.012252   -0.121073
  C      0.035317    1.062862   -0.779353
  O     -0.373666    2.067704   -1.323971
  C     -0.785977   -0.214115   -0.697124
  H     -1.523612   -0.198502   -1.506397
  C      0.155383   -1.403780   -0.893484
  C      1.242058   -1.441993    0.176226
  C     -1.557079   -0.216364    0.642963
  C     -2.586446    0.913091    0.649844
  C     -2.268220   -1.547076    0.886849
  H      3.598668    0.895661    1.184185
  H      3.966735   -0.648907    0.405315
  H      3.167190   -0.633411    1.969779
  H      1.849073    1.962866   -0.033129
  H     -0.404937   -2.339206   -0.899109
  H      0.630666   -1.299734   -1.872926
  H      0.812840   -1.730723    1.140926
  H      1.990586   -2.197690   -0.076091
  H     -0.845179   -0.039178    1.456929
  H     -2.122286    1.868132    0.420252
  H     -3.061284    0.986861    1.625912
  H     -3.357363    0.723851   -0.094228
  H     -2.899118   -1.800624    0.037571
  H     -2.900774   -1.467354    1.768346
  H     -1.565624   -2.359333    1.052821

 Total Charge           Charge          ....    0
 Multiplicity           Mult            ....    1
 Number of Electrons    NEL             ....   84
 Basis Dimension        Dim             ....  186

ORBITAL ENERGIES
----------------

  NO   OCC          E(Eh)            E(eV)
   0   2.0000     -18.722386      -509.4620
   1   2.0000      -9.959342      -271.0075
   2   2.0000      -9.922166      -269.9959
   3   2.0000      -9.902917      -269.4721
   4   2.0000      -9.902854      -269.4703
   5   2.0000      -9.895023      -269.2573
   6   2.0000      -9.894523      -269.2437
   7   2.0000      -9.893637      -269.2195
   8   2.0000      -9.887538      -269.0536
   9   2.0000      -9.878242      -268.8006
  10   2.0000      -9.867093      -268.4972
  11   2.0000      -0.924235       -25.1497
  12   2.0000      -0.775796       -21.1105
  13   2.0000      -0.732285       -19.9265
  14   2.0000      -0.684278       -18.6201
  15   2.0000      -0.655885       -17.8475
  16   2.0000      -0.622824       -16.9479
  17   2.0000      -0.610360       -16.6087
  18   2.0000      -0.555808       -15.1243
  19   2.0000      -0.514233       -13.9930
  20   2.0000      -0.507471       -13.8090
  21   2.0000      -0.461793       -12.5660
  22   2.0000      -0.434293       -11.8177
  23   2.0000      -0.418815       -11.3965
  24   2.0000      -0.407531       -11.0895
  25   2.0000      -0.398940       -10.8557
  26   2.0000      -0.389874       -10.6090
  27   2.0000      -0.376219       -10.2374
  28   2.0000      -0.361851        -9.8465
  29   2.0000      -0.358737        -9.7617
  30   2.0000      -0.348528        -9.4839
  31   2.0000      -0.345116        -9.3911
  32   2.0000      -0.339193        -9.2299
  33   2.0000      -0.334484        -9.1018
  34   2.0000      -0.325008        -8.8439
  35   2.0000      -0.308157        -8.3854
  36   2.0000      -0.299009        -8.1364
  37   2.0000      -0.291789        -7.9400
  38   2.0000      -0.281317        -7.6550
  39   2.0000      -0.274169        -7.4605
  40   2.0000      -0.232895        -6.3374
  41   2.0000      -0.181986        -4.9521
  42   0.0000      -0.076190        -2.0732
  43   0.0000       0.019508         0.5308
  44   0.0000       0.031883         0.8676
  45   0.0000       0.048511         1.3200
  46   0.0000       0.056614         1.5406

MULLIKEN ATOMIC CHARGES
-----------------------
   0 C :   -0.220751
   1 C :   -0.059782
   2 C :   -0.163869
   3 C :    0.094208
   4 O :   -0.164315
   5 C :   -0.121759
   6 H :    0.061027
   7 C :   -0.116940
   8 C :   -0.114626
   9 C :   -0.202726
  10 C :   -0.236650
  11 C :   -0.227746
  12 H :    0.112053
  13 H :    0.121584
  14 H :    0.116429
  15 H :    0.045192
  16 H :    0.087890
  17 H :    0.096174
  18 H :    0.108620
  19 H :    0.095465
  20 H :    0.078197
  21 H :    0.124173
  22 H :    0.095188
  23 H :    0.093104
  24 H :    0.096313
  25 H :    0.101579
  26 H :    0.101968
Sum of atomic charges:    0.0000000

LOEWDIN ATOMIC CHARGES
----------------------
   0 C :   -0.322033
   1 C :   -0.017570
   2 C :   -0.171522
   3 C :    0.038671
   4 O :   -0.132555
   5 C :   -0.153674
   6 H :    0.125486
   7 C :   -0.210875
   8 C :   -0.216298
   9 C :   -0.145539
  10 C :   -0.330428
  11 C :   -0.329019
  12 H :    0.128993
  13 H :    0.137154
  14 H :    0.134521
  15 H :    0.127904
  16 H :    0.119580
  17 H :    0.124111
  18 H :    0.134875
  19 H :    0.128444
  20 H :    0.115459
  21 H :    0.125432
  22 H :    0.115967
  23 H :    0.118501
  24 H :    0.119670
  25 H :    0.121016
  26 H :    0.113730

  Mayer bond orders larger than 0.100000
B(  0-C ,  1-C ) :   1.1235 B(  0-C , 12-H ) :   0.9427 B(  0-C , 13-H ) :   0.9242
B(  0-C , 14-H ) :   0.9298 B(  1-C ,  2-C ) :   1.7312 B(  1-C ,  8-C ) :   1.0750
B(  2-C ,  3-C ) :   1.0298 B(  2-C , 15-H ) :   0.9348 B(  3-C ,  4-O ) :   2.0991
B(  3-C ,  5-C ) :   0.9748 B(  5-C ,  6-H ) :   0.8581 B(  5-C ,  7-C ) :   1.0584
B(  5-C ,  9-C ) :   1.0307 B(  7-C ,  8-C ) :   1.1249 B(  7-C , 16-H ) :   0.8984
B(  7-C , 17-H ) :   0.9210 B(  8-C , 18-H ) :   0.8654 B(  8-C , 19-H ) :   0.9048
B(  9-C , 10-C ) :   1.1167 B(  9-C , 11-C ) :   1.1225 B(  9-C , 20-H ) :   0.8894
B( 10-C , 21-H ) :   0.9359 B( 10-C , 22-H ) :   0.9465 B( 10-C , 23-H ) :   0.9475
B( 11-C , 24-H ) :   0.9444 B( 11-C , 25-H ) :   0.9474 B( 11-C , 26-H ) :   0.9356

Dispersion correction           -0.028956254
FINAL SINGLE POINT ENERGY      -464.843648935888

DIPOLE MOMENT
-------------

Method             : SCF
Type of density    : Electron Density
Multiplicity       :   1
Irrep              :   0
Energy             :  -464.9286101465847878 Eh
Relativity type    :
Basis              : AO
                                X                 Y                 Z
Electronic contribution:      3.141598351       6.570451837      -5.442960022
Nuclear contribution   :     -2.505209499      -7.734814901       6.153647911
                        -----------------------------------------
Total Dipole Moment    :      0.636388852      -1.164363064       0.710687890
                        -----------------------------------------
Magnitude (a.u.)       :      1.505260573
Magnitude (Debye)      :      3.826068314

Rotational constants in cm-1:             0.051583             0.029484             0.023140
Rotational constants in MHz :          1546.434239           883.917079           693.734265

                             ****ORCA TERMINATED NORMALLY****
TOTAL RUN TIME: 0 days 0 hours 0 minutes 30 seconds 435 msec
