                         Program Version 6.0.1  -  RELEASE   -
|  1> ! pbe def2-sv(p) def2/J RI DEFGRID1 loosescf d4 GCP(DFT/SV(P)) printgap
|  2> %output
|  3>     printlevel normal
|  4> end
|  5> * xyz 0 1
|  6> C -1.9434399437 -1.1672022064 -0.3732835266
|  7> C -1.0515715953 -0.5163433062 0.7280227094
|  8> H -1.5848335068 -0.5770010173 1.683836303
|  9> C -0.7557160103 0.9800855306 0.5102729245
| 10> H -1.6537617014 1.4652926138 0.1140392715
| 11> C 0.4184715208 1.2083430363 -0.4660627891
| 12> H 0.6671536275 2.2811712721 -0.426158287
| 13> C 1.6402148177 0.3835529976 -0.0126844197
| 14> H 2.4226960779 0.4327779622 -0.790019683
| 15> C 1.2278618446 -1.0997242005 0.125139098
| 16> H 2.0344267758 -1.6494476715 0.623723765
| 17> O 0.1321338144 -1.2671376539 0.9773432161
| 18> O 1.0786661676 -1.6746793408 -1.1330166947
| 19> O 2.142664332 0.8132342933 1.2261588335
| 20> O 0.0251156731 0.8480707102 -1.7794142439
| 21> O -0.4781463706 1.615515063 1.7283227877
| 22> O -2.5344757244 -0.2674550826 -1.2710123719
| 23> H -2.7771875011 -1.6806911847 0.109809592
| 24> H -1.3512921285 -1.9255729392 -0.9003559097
| 25> H 0.4655198289 -1.1311014231 -1.652960778
| 26> H 2.4049953683 1.7401408228 1.1673350476
| 27> H 0.6799959289 1.1673679742 -2.4105329922
| 28> H 0.2540037852 1.1403144733 2.1517773022
| 29> H -1.8393714121 0.1823832635 -1.7706313453
| 30> *
| 31>
| 32>                          ****END OF INPUT****

CARTESIAN COORDINATES (ANGSTROEM)
---------------------------------
  C     -1.943440   -1.167202   -0.373284
  C     -1.051572   -0.516343    0.728023
  H     -1.584834   -0.577001    1.683836
  C     -0.755716    0.980086    0.510273
  H     -1.653762    1.465293    0.114039
  C      0.418472    1.208343   -0.466063
  H      0.667154    2.281171   -0.426158
  C      1.640215    0.383553   -0.012684
  H      2.422696    0.432778   -0.790020
  C      1.227862   -1.099724    0.125139
  H      2.034427   -1.649448    0.623724
  O      0.132134   -1.267138    0.977343
  O      1.078666   -1.674679   -1.133017
  O      2.142664    0.813234    1.226159
  O      0.025116    0.848071   -1.779414
  O     -0.478146    1.615515    1.728323
  O     -2.534476   -0.267455   -1.271012
  H     -2.777188   -1.680691    0.109810
  H     -1.351292   -1.925573   -0.900356
  H      0.465520   -1.131101   -1.652961
  H      2.404995    1.740141    1.167335
  H      0.679996    1.167368   -2.410533
  H      0.254004    1.140314    2.151777
  H     -1.839371    0.182383   -1.770631

 Total Charge           Charge          ....    0
 Multiplicity           Mult            ....    1
 Number of Electrons    NEL             ....   96
 Basis Dimension        Dim             ....  192

ORBITAL ENERGIES
----------------

  NO   OCC          E(Eh)            E(eV)
   0   2.0000     -18.812844      -511.9235
   1   2.0000     -18.784422      -511.1501
   2   2.0000     -18.764143      -510.5983
   3   2.0000     -18.756701      -510.3958
   4   2.0000     -18.748201      -510.1645
   5   2.0000     -18.737235      -509.8661
   6   2.0000      -9.988271      -271.7947
   7   2.0000      -9.970102      -271.3003
   8   2.0000      -9.961905      -271.0772
   9   2.0000      -9.948884      -270.7229
  10   2.0000      -9.940657      -270.4990
  11   2.0000      -9.924932      -270.0711
  12   2.0000      -0.992636       -27.0110
  13   2.0000      -0.972241       -26.4560
  14   2.0000      -0.956856       -26.0374
  15   2.0000      -0.931931       -25.3591
  16   2.0000      -0.917041       -24.9540
  17   2.0000      -0.908581       -24.7237
  18   2.0000      -0.712323       -19.3833
  19   2.0000      -0.694815       -18.9069
  20   2.0000      -0.625926       -17.0323
  21   2.0000      -0.593606       -16.1528
  22   2.0000      -0.582056       -15.8385
  23   2.0000      -0.534259       -14.5379
  24   2.0000      -0.523838       -14.2544
  25   2.0000      -0.495810       -13.4917
  26   2.0000      -0.486936       -13.2502
  27   2.0000      -0.465032       -12.6542
  28   2.0000      -0.455800       -12.4030
  29   2.0000      -0.430348       -11.7104
  30   2.0000      -0.424111       -11.5406
  31   2.0000      -0.411381       -11.1943
  32   2.0000      -0.399083       -10.8596
  33   2.0000      -0.376032       -10.2324
  34   2.0000      -0.372546       -10.1375
  35   2.0000      -0.357023        -9.7151
  36   2.0000      -0.340750        -9.2723
  37   2.0000      -0.324738        -8.8366
  38   2.0000      -0.316003        -8.5989
  39   2.0000      -0.306286        -8.3345
  40   2.0000      -0.291787        -7.9399
  41   2.0000      -0.276669        -7.5286
  42   2.0000      -0.263084        -7.1589
  43   2.0000      -0.260846        -7.0980
  44   2.0000      -0.241777        -6.5791
  45   2.0000      -0.224721        -6.1150
  46   2.0000      -0.218287        -5.9399
  47   2.0000      -0.200030        -5.4431
  48   0.0000      -0.017856        -0.4859
  49   0.0000      -0.000431        -0.0117
  50   0.0000       0.048615         1.3229
  51   0.0000       0.052642         1.4325
  52   0.0000       0.066256         1.8029

MULLIKEN ATOMIC CHARGES
-----------------------
   0 C :    0.019542
   1 C :    0.010972
   2 H :    0.083721
   3 C :    0.056594
   4 H :    0.088927
   5 C :   -0.000545
   6 H :    0.075462
   7 C :   -0.017003
   8 H :    0.069494
   9 C :    0.233258
  10 H :    0.080229
  11 O :   -0.303439
  12 O :   -0.404928
  13 O :   -0.401730
  14 O :   -0.424544
  15 O :   -0.429500
  16 O :   -0.434710
  17 H :    0.086548
  18 H :    0.084412
  19 H :    0.297412
  20 H :    0.308170
  21 H :    0.324210
  22 H :    0.299468
  23 H :    0.297981
Sum of atomic charges:   -0.0000000

LOEWDIN ATOMIC CHARGES
----------------------
   0 C :   -0.145124
   1 C :   -0.077608
   2 H :    0.124428
   3 C :   -0.072119
   4 H :    0.123563
   5 C :   -0.082946
   6 H :    0.104804
   7 C :   -0.101700
   8 H :    0.100684
   9 C :    0.002769
  10 H :    0.115915
  11 O :   -0.137160
  12 O :   -0.307776
  13 O :   -0.298090
  14 O :   -0.301540
  15 O :   -0.314182
  16 O :   -0.338799
  17 H :    0.117801
  18 H :    0.098726
  19 H :    0.263627
  20 H :    0.289844
  21 H :    0.300473
  22 H :    0.271255
  23 H :    0.263155

  Mayer bond orders larger than 0.100000
B(  0-C ,  1-C ) :   0.9799 B(  0-C , 16-O ) :   1.1181 B(  0-C , 17-H ) :   0.9215
B(  0-C , 18-H ) :   0.9119 B(  1-C ,  2-H ) :   0.8923 B(  1-C ,  3-C ) :   1.0411
B(  1-C , 11-O ) :   0.9902 B(  3-C ,  4-H ) :   0.8746 B(  3-C ,  5-C ) :   0.9765
B(  3-C , 15-O ) :   1.0522 B(  5-C ,  6-H ) :   0.9041 B(  5-C ,  7-C ) :   0.9700
B(  5-C , 14-O ) :   0.9860 B(  7-C ,  8-H ) :   0.8988 B(  7-C ,  9-C ) :   0.9749
B(  7-C , 13-O ) :   1.0483 B(  9-C , 10-H ) :   0.9047 B(  9-C , 11-O ) :   1.0711
B(  9-C , 12-O ) :   1.1127 B( 12-O , 19-H ) :   0.7961 B( 13-O , 20-H ) :   0.8363
B( 14-O , 19-H ) :   0.1025 B( 14-O , 21-H ) :   0.8292 B( 15-O , 22-H ) :   0.8161
B( 16-O , 23-H ) :   0.8108

Dispersion correction           -0.026610226
FINAL SINGLE POINT ENERGY      -685.691221436245

DIPOLE MOMENT
-------------

Method             : SCF
Type of density    : Electron Density
Multiplicity       :   1
Irrep              :   0
Energy             :  -685.8269073784902048 Eh
Relativity type    :
Basis              : AO
                                X                 Y                 Z
Electronic contribution:      1.474114559      -0.166587418       1.200258777
Nuclear contribution   :     -0.255066010       1.357251446      -1.974014047
                        -----------------------------------------
Total Dipole Moment    :      1.219048548       1.190664029      -0.773755270
                        -----------------------------------------
Magnitude (a.u.)       :      1.871485349
Magnitude (Debye)      :      4.756937717

Rotational constants in cm-1:             0.040960             0.030464             0.026721
Rotational constants in MHz :          1227.957184           913.299192           801.068124

                             ****ORCA TERMINATED NORMALLY****
TOTAL RUN TIME: 0 days 0 hours 0 minutes 9 seconds 488 msec
