                         Program Version 6.0.1  -  RELEASE   -
|  1> ! pbe def2-sv(p) def2/J RI DEFGRID1 loosescf d4 GCP(DFT/SV(P)) printgap
|  2> %output
|  3>     printlevel normal
|  4> end
|  5> * xyz 0 1
|  6> C -2.2385338226 -0.987818798 -0.3859158379
|  7> C -1.179279362 -0.1944554411 0.3889381144
|  8> H -1.6508354119 0.2426716518 1.2770696358
|  9> C -0.584208068 0.9392786631 -0.4479479063
| 10> H -0.4103786942 0.6000959991 -1.4816469675
| 11> C 0.7690049501 1.3268421035 0.1596487672
| 12> H 0.6248003473 1.5356431813 1.2349317491
| 13> C 1.7498815841 0.1553339658 0.0056116502
| 14> H 2.1872755966 0.1832547443 -0.9976193875
| 15> C 0.9998772121 -1.1888616414 0.1448839847
| 16> H 1.6264366917 -1.8827383368 0.7310356268
| 17> O -0.176273249 -1.0800883276 0.9004247148
| 18> O 0.776147303 -1.6809178007 -1.1387202919
| 19> O 2.8269066192 0.2656273108 0.8989689828
| 20> O 1.2268606301 2.4869933169 -0.4921425491
| 21> O -1.4814422416 2.0139381539 -0.4316034258
| 22> O -2.7763021972 -2.0192301561 0.400044058
| 23> H -1.791659658 -1.3955389721 -1.3048269441
| 24> H -3.0568967983 -0.3190253777 -0.6576033571
| 25> H 0.3425077545 -2.5422173781 -1.0852615076
| 26> H 2.4995353573 0.1785766934 1.8029322881
| 27> H 2.1538205999 2.617747097 -0.2614252398
| 28> H -0.9973747112 2.788273041 -0.7485100758
| 29> H -2.0527855788 -2.3892682805 0.9228079885
| 30> *
| 31>
| 32>                          ****END OF INPUT****

CARTESIAN COORDINATES (ANGSTROEM)
---------------------------------
  C     -2.238534   -0.987819   -0.385916
  C     -1.179279   -0.194455    0.388938
  H     -1.650835    0.242672    1.277070
  C     -0.584208    0.939279   -0.447948
  H     -0.410379    0.600096   -1.481647
  C      0.769005    1.326842    0.159649
  H      0.624800    1.535643    1.234932
  C      1.749882    0.155334    0.005612
  H      2.187276    0.183255   -0.997619
  C      0.999877   -1.188862    0.144884
  H      1.626437   -1.882738    0.731036
  O     -0.176273   -1.080088    0.900425
  O      0.776147   -1.680918   -1.138720
  O      2.826907    0.265627    0.898969
  O      1.226861    2.486993   -0.492143
  O     -1.481442    2.013938   -0.431603
  O     -2.776302   -2.019230    0.400044
  H     -1.791660   -1.395539   -1.304827
  H     -3.056897   -0.319025   -0.657603
  H      0.342508   -2.542217   -1.085262
  H      2.499535    0.178577    1.802932
  H      2.153821    2.617747   -0.261425
  H     -0.997375    2.788273   -0.748510
  H     -2.052786   -2.389268    0.922808

 Total Charge           Charge          ....    0
 Multiplicity           Mult            ....    1
 Number of Electrons    NEL             ....   96
 Basis Dimension        Dim             ....  192

ORBITAL ENERGIES
----------------

  NO   OCC          E(Eh)            E(eV)
   0   2.0000     -18.787104      -511.2231
   1   2.0000     -18.776882      -510.9449
   2   2.0000     -18.768404      -510.7142
   3   2.0000     -18.766210      -510.6545
   4   2.0000     -18.750363      -510.2233
   5   2.0000     -18.739152      -509.9182
   6   2.0000      -9.998547      -272.0743
   7   2.0000      -9.951059      -270.7821
   8   2.0000      -9.949825      -270.7485
   9   2.0000      -9.946957      -270.6705
  10   2.0000      -9.945232      -270.6235
  11   2.0000      -9.925786      -270.0944
  12   2.0000      -0.997029       -27.1306
  13   2.0000      -0.956874       -26.0379
  14   2.0000      -0.942600       -25.6494
  15   2.0000      -0.931926       -25.3590
  16   2.0000      -0.922430       -25.1006
  17   2.0000      -0.913386       -24.8545
  18   2.0000      -0.712210       -19.3802
  19   2.0000      -0.698905       -19.0182
  20   2.0000      -0.623839       -16.9755
  21   2.0000      -0.591311       -16.0904
  22   2.0000      -0.573283       -15.5998
  23   2.0000      -0.534142       -14.5347
  24   2.0000      -0.510726       -13.8976
  25   2.0000      -0.502067       -13.6619
  26   2.0000      -0.470746       -12.8096
  27   2.0000      -0.468182       -12.7399
  28   2.0000      -0.446180       -12.1412
  29   2.0000      -0.431603       -11.7445
  30   2.0000      -0.425516       -11.5789
  31   2.0000      -0.398251       -10.8369
  32   2.0000      -0.392859       -10.6902
  33   2.0000      -0.385355       -10.4860
  34   2.0000      -0.367277        -9.9941
  35   2.0000      -0.356451        -9.6995
  36   2.0000      -0.333179        -9.0663
  37   2.0000      -0.326790        -8.8924
  38   2.0000      -0.314746        -8.5647
  39   2.0000      -0.308468        -8.3938
  40   2.0000      -0.285941        -7.7808
  41   2.0000      -0.272602        -7.4179
  42   2.0000      -0.259153        -7.0519
  43   2.0000      -0.254059        -6.9133
  44   2.0000      -0.245315        -6.6754
  45   2.0000      -0.223698        -6.0871
  46   2.0000      -0.217713        -5.9243
  47   2.0000      -0.207818        -5.6550
  48   0.0000       0.008596         0.2339
  49   0.0000       0.016298         0.4435
  50   0.0000       0.026627         0.7246
  51   0.0000       0.053912         1.4670
  52   0.0000       0.056904         1.5484

MULLIKEN ATOMIC CHARGES
-----------------------
   0 C :    0.078714
   1 C :    0.020830
   2 H :    0.080883
   3 C :    0.033796
   4 H :    0.071014
   5 C :    0.049295
   6 H :    0.042331
   7 C :    0.060981
   8 H :    0.087391
   9 C :    0.144128
  10 H :    0.065426
  11 O :   -0.332763
  12 O :   -0.388779
  13 O :   -0.417989
  14 O :   -0.423172
  15 O :   -0.414155
  16 O :   -0.435762
  17 H :    0.058144
  18 H :    0.097183
  19 H :    0.308835
  20 H :    0.301342
  21 H :    0.311332
  22 H :    0.310767
  23 H :    0.290228
Sum of atomic charges:    0.0000000

LOEWDIN ATOMIC CHARGES
----------------------
   0 C :   -0.132843
   1 C :   -0.066083
   2 H :    0.122071
   3 C :   -0.072046
   4 H :    0.108253
   5 C :   -0.078395
   6 H :    0.100048
   7 C :   -0.088509
   8 H :    0.128543
   9 C :   -0.011401
  10 H :    0.097403
  11 O :   -0.152758
  12 O :   -0.302686
  13 O :   -0.310545
  14 O :   -0.322830
  15 O :   -0.315162
  16 O :   -0.340825
  17 H :    0.090877
  18 H :    0.122166
  19 H :    0.287787
  20 H :    0.285010
  21 H :    0.292428
  22 H :    0.288007
  23 H :    0.271489

  Mayer bond orders larger than 0.100000
B(  0-C ,  1-C ) :   1.0936 B(  0-C , 16-O ) :   1.0759 B(  0-C , 17-H ) :   0.8949
B(  0-C , 18-H ) :   0.9125 B(  1-C ,  2-H ) :   0.8738 B(  1-C ,  3-C ) :   0.9775
B(  1-C , 11-O ) :   0.9420 B(  3-C ,  4-H ) :   0.8769 B(  3-C ,  5-C ) :   1.0318
B(  3-C , 15-O ) :   1.0808 B(  5-C ,  6-H ) :   0.8582 B(  5-C ,  7-C ) :   1.0206
B(  5-C , 14-O ) :   1.0761 B(  7-C ,  8-H ) :   0.8634 B(  7-C ,  9-C ) :   0.9890
B(  7-C , 13-O ) :   1.0286 B(  9-C , 10-H ) :   0.8973 B(  9-C , 11-O ) :   1.0732
B(  9-C , 12-O ) :   1.1045 B( 12-O , 19-H ) :   0.8303 B( 13-O , 20-H ) :   0.8485
B( 14-O , 21-H ) :   0.8382 B( 15-O , 22-H ) :   0.8318 B( 16-O , 23-H ) :   0.8395

Dispersion correction           -0.024593896
FINAL SINGLE POINT ENERGY      -685.693723050448

DIPOLE MOMENT
-------------

Method             : SCF
Type of density    : Electron Density
Multiplicity       :   1
Irrep              :   0
Energy             :  -685.8253316042632832 Eh
Relativity type    :
Basis              : AO
                                X                 Y                 Z
Electronic contribution:      1.494785786       0.250359108       0.898867260
Nuclear contribution   :     -0.487194521      -0.359077029      -0.530960471
                        -----------------------------------------
Total Dipole Moment    :      1.007591264      -0.108717921       0.367906789
                        -----------------------------------------
Magnitude (a.u.)       :      1.078153582
Magnitude (Debye)      :      2.740448619

Rotational constants in cm-1:             0.042930             0.026132             0.018867
Rotational constants in MHz :          1286.996219           783.412587           565.623341

                             ****ORCA TERMINATED NORMALLY****
TOTAL RUN TIME: 0 days 0 hours 0 minutes 12 seconds 766 msec
