                         Program Version 6.0.1  -  RELEASE   -
|  1> ! r2scan-3c def2/J RI DEFGRID2 scfconv6 printgap
|  2> %output
|  3>     printlevel normal
|  4> end
|  5> * xyz 0 1
|  6> C -2.11258929 -0.9161132708 -0.3379950553
|  7> C -1.1977538298 -0.3501557088 0.769903361
|  8> H -1.7908522401 -0.404145418 1.6953328661
|  9> C -0.7727100104 1.1178692254 0.5795518644
| 10> H -1.6433539505 1.691147078 0.2251423611
| 11> C 0.3774637231 1.3074337208 -0.4305676739
| 12> H 0.8043260726 2.3010762833 -0.2369709597
| 13> C 1.5107030128 0.3000710065 -0.1238840008
| 14> H 2.1562915299 0.2169823243 -1.0042805485
| 15> C 1.0299766327 -1.125892896 0.2231196686
| 16> H 1.8297902602 -1.5929322917 0.8163449013
| 17> O -0.0886672995 -1.1914023952 1.0628676382
| 18> O 0.8301842463 -1.8624111056 -0.9644579076
| 19> O 2.3070427057 0.7772023912 0.9277900673
| 20> O -0.0393516099 1.3354694001 -1.7564616772
| 21> O -0.2952817525 1.6447371432 1.8028738593
| 22> O -1.5921148506 -0.8904276225 -1.638425981
| 23> H -3.0302442004 -0.3230366714 -0.364402143
| 24> H -2.3698376446 -1.9457637961 -0.0518137662
| 25> H 0.7550586602 -2.7990729587 -0.7446758822
| 26> H 1.7148659033 1.0867891333 1.6297106486
| 27> H -0.6414231875 0.5867163647 -1.9346951506
| 28> H -0.9701784854 1.5525034095 2.4848761759
| 29> H -0.7400095382 -1.375330761 -1.6378295885
| 30> *
| 31>
| 32>                          ****END OF INPUT****

CARTESIAN COORDINATES (ANGSTROEM)
---------------------------------
  C     -2.112589   -0.916113   -0.337995
  C     -1.197754   -0.350156    0.769903
  H     -1.790852   -0.404145    1.695333
  C     -0.772710    1.117869    0.579552
  H     -1.643354    1.691147    0.225142
  C      0.377464    1.307434   -0.430568
  H      0.804326    2.301076   -0.236971
  C      1.510703    0.300071   -0.123884
  H      2.156292    0.216982   -1.004281
  C      1.029977   -1.125893    0.223120
  H      1.829790   -1.592932    0.816345
  O     -0.088667   -1.191402    1.062868
  O      0.830184   -1.862411   -0.964458
  O      2.307043    0.777202    0.927790
  O     -0.039352    1.335469   -1.756462
  O     -0.295282    1.644737    1.802874
  O     -1.592115   -0.890428   -1.638426
  H     -3.030244   -0.323037   -0.364402
  H     -2.369838   -1.945764   -0.051814
  H      0.755059   -2.799073   -0.744676
  H      1.714866    1.086789    1.629711
  H     -0.641423    0.586716   -1.934695
  H     -0.970178    1.552503    2.484876
  H     -0.740010   -1.375331   -1.637830

 Total Charge           Charge          ....    0
 Multiplicity           Mult            ....    1
 Number of Electrons    NEL             ....   96
 Basis Dimension        Dim             ....  318

ORBITAL ENERGIES
----------------

  NO   OCC          E(Eh)            E(eV)
   0   2.0000     -18.992170      -516.8032
   1   2.0000     -18.980150      -516.4761
   2   2.0000     -18.978488      -516.4309
   3   2.0000     -18.964921      -516.0617
   4   2.0000     -18.946081      -515.5491
   5   2.0000     -18.936261      -515.2818
   6   2.0000     -10.144989      -276.0592
   7   2.0000     -10.106948      -275.0240
   8   2.0000     -10.102427      -274.9010
   9   2.0000     -10.096411      -274.7373
  10   2.0000     -10.086912      -274.4788
  11   2.0000     -10.085958      -274.4529
  12   2.0000      -1.063509       -28.9395
  13   2.0000      -1.021012       -27.7831
  14   2.0000      -1.007228       -27.4081
  15   2.0000      -0.996429       -27.1142
  16   2.0000      -0.991415       -26.9778
  17   2.0000      -0.978023       -26.6134
  18   2.0000      -0.758363       -20.6361
  19   2.0000      -0.731943       -19.9172
  20   2.0000      -0.674139       -18.3443
  21   2.0000      -0.626533       -17.0488
  22   2.0000      -0.620342       -16.8804
  23   2.0000      -0.550373       -14.9764
  24   2.0000      -0.528785       -14.3890
  25   2.0000      -0.512572       -13.9478
  26   2.0000      -0.501034       -13.6338
  27   2.0000      -0.497998       -13.5512
  28   2.0000      -0.462433       -12.5834
  29   2.0000      -0.457398       -12.4464
  30   2.0000      -0.449153       -12.2221
  31   2.0000      -0.426035       -11.5930
  32   2.0000      -0.423135       -11.5141
  33   2.0000      -0.403817       -10.9884
  34   2.0000      -0.388804       -10.5799
  35   2.0000      -0.379173       -10.3178
  36   2.0000      -0.364970        -9.9313
  37   2.0000      -0.355920        -9.6851
  38   2.0000      -0.332816        -9.0564
  39   2.0000      -0.323867        -8.8129
  40   2.0000      -0.305807        -8.3214
  41   2.0000      -0.300672        -8.1817
  42   2.0000      -0.286970        -7.8089
  43   2.0000      -0.268551        -7.3076
  44   2.0000      -0.264414        -7.1951
  45   2.0000      -0.251705        -6.8492
  46   2.0000      -0.240289        -6.5386
  47   2.0000      -0.220629        -6.0036
  48   0.0000       0.023284         0.6336
  49   0.0000       0.031743         0.8638
  50   0.0000       0.058958         1.6043
  51   0.0000       0.075001         2.0409
  52   0.0000       0.085469         2.3257

MULLIKEN ATOMIC CHARGES
-----------------------
   0 C :   -0.240863
   1 C :    0.017231
   2 H :    0.141707
   3 C :   -0.107791
   4 H :    0.159748
   5 C :   -0.058139
   6 H :    0.166957
   7 C :   -0.011271
   8 H :    0.163212
   9 C :   -0.084127
  10 H :    0.147860
  11 O :   -0.153243
  12 O :   -0.420290
  13 O :   -0.409743
  14 O :   -0.410363
  15 O :   -0.405705
  16 O :   -0.467408
  17 H :    0.147887
  18 H :    0.149055
  19 H :    0.315920
  20 H :    0.326396
  21 H :    0.362312
  22 H :    0.290694
  23 H :    0.379963
Sum of atomic charges:    0.0000000

LOEWDIN ATOMIC CHARGES
----------------------
   0 C :    0.023681
   1 C :    0.092350
   2 H :    0.197517
   3 C :    0.113268
   4 H :    0.185847
   5 C :    0.121968
   6 H :    0.212151
   7 C :    0.125901
   8 H :    0.207847
   9 C :    0.294821
  10 H :    0.211899
  11 O :   -0.650625
  12 O :   -0.533769
  13 O :   -0.571995
  14 O :   -0.573222
  15 O :   -0.597482
  16 O :   -0.614897
  17 H :    0.185281
  18 H :    0.172952
  19 H :    0.276611
  20 H :    0.282697
  21 H :    0.281829
  22 H :    0.271501
  23 H :    0.283870

  Mayer bond orders larger than 0.100000
B(  0-C ,  1-C ) :   0.9108 B(  0-C , 16-O ) :   0.9929 B(  0-C , 17-H ) :   0.9744
B(  0-C , 18-H ) :   0.9792 B(  1-C ,  2-H ) :   0.9439 B(  1-C ,  3-C ) :   0.8516
B(  1-C , 11-O ) :   0.8988 B(  3-C ,  4-H ) :   0.9640 B(  3-C ,  5-C ) :   0.8447
B(  3-C , 15-O ) :   0.8895 B(  5-C ,  6-H ) :   0.9947 B(  5-C ,  7-C ) :   0.8773
B(  5-C , 14-O ) :   1.0467 B(  7-C ,  8-H ) :   0.9566 B(  7-C ,  9-C ) :   0.9243
B(  7-C , 13-O ) :   0.9708 B(  9-C , 10-H ) :   0.9661 B(  9-C , 11-O ) :   0.9931
B(  9-C , 12-O ) :   0.9066 B( 12-O , 19-H ) :   0.8886 B( 13-O , 20-H ) :   0.8444
B( 14-O , 21-H ) :   0.7840 B( 15-O , 22-H ) :   0.8984 B( 16-O , 23-H ) :   0.7816

Dispersion correction           -0.008849376
FINAL SINGLE POINT ENERGY      -687.074415058396

DIPOLE MOMENT
-------------

Method             : SCF
Type of density    : Electron Density
Multiplicity       :   1
Irrep              :   0
Energy             :  -687.0883551798965527 Eh
Relativity type    :
Basis              : AO
                                X                 Y                 Z
Electronic contribution:      2.631057955      -0.040684611       0.187541994
Nuclear contribution   :     -3.666230421      -0.945691935       0.814148004
                        -----------------------------------------
Total Dipole Moment    :     -1.035172466      -0.986376546       1.001689998
                        -----------------------------------------
Magnitude (a.u.)       :      1.745824612
Magnitude (Debye)      :      4.437533508

Rotational constants in cm-1:             0.039367             0.031249             0.027989
Rotational constants in MHz :          1180.193284           936.820094           839.101106

                             ****ORCA TERMINATED NORMALLY****
TOTAL RUN TIME: 0 days 0 hours 0 minutes 41 seconds 485 msec
