                         Program Version 6.0.1  -  RELEASE   -
|  1> ! pbe def2-sv(p) def2/J RI DEFGRID1 loosescf d4 GCP(DFT/SV(P)) printgap
|  2> %output
|  3>     printlevel normal
|  4> end
|  5> * xyz 0 1
|  6> C -1.8192828063 -0.8640888158 -0.8811252614
|  7> C -1.3406404367 -0.133484973 0.393436242
|  8> H -2.1822032148 -0.0702697088 1.0949510262
|  9> C -0.8653804917 1.3125278656 0.0940949217
| 10> H -1.1881744674 1.613049063 -0.9075384758
| 11> C 0.6700407816 1.3856808399 0.1420295337
| 12> H 0.9922658293 1.5027615007 1.1927971385
| 13> C 1.2852772227 0.0835904929 -0.385300254
| 14> H 0.9375292767 -0.0937258281 -1.4149813877
| 15> C 0.8645736914 -1.0960609446 0.5161244656
| 16> H 1.5864781067 -1.1702625595 1.343805461
| 17> O -0.3793011316 -0.8790458022 1.1254334043
| 18> O 0.9254457649 -2.3059684193 -0.1725195016
| 19> O 2.6848607031 0.2468062337 -0.3848779609
| 20> O 1.0937563781 2.4803804413 -0.6191190624
| 21> O -1.4725881748 2.2314193083 0.9575841863
| 22> O -1.820010743 -2.2634078173 -0.7225918823
| 23> H -1.1564530935 -0.6651495986 -1.7256379695
| 24> H -2.8212377476 -0.4972793022 -1.1364811268
| 25> H 0.0387394728 -2.5091359263 -0.5250674501
| 26> H 3.086883753 -0.6001365181 -0.6093845444
| 27> H 2.0511286395 2.4015102115 -0.7241773619
| 28> H -1.0825582574 2.1503096246 1.8365805282
| 29> H -2.2822231279 -2.4870905339 0.0946061175
| 30> *
| 31>
| 32>                          ****END OF INPUT****

CARTESIAN COORDINATES (ANGSTROEM)
---------------------------------
  C     -1.819283   -0.864089   -0.881125
  C     -1.340640   -0.133485    0.393436
  H     -2.182203   -0.070270    1.094951
  C     -0.865380    1.312528    0.094095
  H     -1.188174    1.613049   -0.907538
  C      0.670041    1.385681    0.142030
  H      0.992266    1.502762    1.192797
  C      1.285277    0.083590   -0.385300
  H      0.937529   -0.093726   -1.414981
  C      0.864574   -1.096061    0.516124
  H      1.586478   -1.170263    1.343805
  O     -0.379301   -0.879046    1.125433
  O      0.925446   -2.305968   -0.172520
  O      2.684861    0.246806   -0.384878
  O      1.093756    2.480380   -0.619119
  O     -1.472588    2.231419    0.957584
  O     -1.820011   -2.263408   -0.722592
  H     -1.156453   -0.665150   -1.725638
  H     -2.821238   -0.497279   -1.136481
  H      0.038739   -2.509136   -0.525067
  H      3.086884   -0.600137   -0.609385
  H      2.051129    2.401510   -0.724177
  H     -1.082558    2.150310    1.836581
  H     -2.282223   -2.487091    0.094606

 Total Charge           Charge          ....    0
 Multiplicity           Mult            ....    1
 Number of Electrons    NEL             ....   96
 Basis Dimension        Dim             ....  192

ORBITAL ENERGIES
----------------

  NO   OCC          E(Eh)            E(eV)
   0   2.0000     -18.785741      -511.1860
   1   2.0000     -18.777344      -510.9575
   2   2.0000     -18.765964      -510.6478
   3   2.0000     -18.751373      -510.2508
   4   2.0000     -18.747014      -510.1322
   5   2.0000     -18.741682      -509.9871
   6   2.0000      -9.983685      -271.6699
   7   2.0000      -9.954271      -270.8695
   8   2.0000      -9.954234      -270.8685
   9   2.0000      -9.949287      -270.7339
  10   2.0000      -9.947449      -270.6839
  11   2.0000      -9.943876      -270.5866
  12   2.0000      -0.987367       -26.8676
  13   2.0000      -0.955753       -26.0074
  14   2.0000      -0.946936       -25.7674
  15   2.0000      -0.937823       -25.5195
  16   2.0000      -0.918269       -24.9874
  17   2.0000      -0.904324       -24.6079
  18   2.0000      -0.712579       -19.3903
  19   2.0000      -0.692851       -18.8534
  20   2.0000      -0.632166       -17.2021
  21   2.0000      -0.593488       -16.1496
  22   2.0000      -0.576367       -15.6838
  23   2.0000      -0.531719       -14.4688
  24   2.0000      -0.505329       -13.7507
  25   2.0000      -0.495598       -13.4859
  26   2.0000      -0.490944       -13.3593
  27   2.0000      -0.450368       -12.2551
  28   2.0000      -0.442055       -12.0289
  29   2.0000      -0.438670       -11.9368
  30   2.0000      -0.427475       -11.6322
  31   2.0000      -0.409605       -11.1459
  32   2.0000      -0.405057       -11.0222
  33   2.0000      -0.390878       -10.6363
  34   2.0000      -0.366907        -9.9840
  35   2.0000      -0.357184        -9.7195
  36   2.0000      -0.322439        -8.7740
  37   2.0000      -0.321948        -8.7607
  38   2.0000      -0.312416        -8.5013
  39   2.0000      -0.303736        -8.2651
  40   2.0000      -0.289896        -7.8885
  41   2.0000      -0.279178        -7.5968
  42   2.0000      -0.262450        -7.1416
  43   2.0000      -0.249465        -6.7883
  44   2.0000      -0.243682        -6.6309
  45   2.0000      -0.225593        -6.1387
  46   2.0000      -0.210426        -5.7260
  47   2.0000      -0.206422        -5.6170
  48   0.0000       0.008725         0.2374
  49   0.0000       0.023885         0.6499
  50   0.0000       0.027435         0.7465
  51   0.0000       0.044592         1.2134
  52   0.0000       0.057106         1.5539

MULLIKEN ATOMIC CHARGES
-----------------------
   0 C :   -0.012136
   1 C :   -0.000014
   2 H :    0.070097
   3 C :    0.081689
   4 H :    0.079420
   5 C :    0.074597
   6 H :    0.043136
   7 C :   -0.019455
   8 H :    0.061868
   9 C :    0.200672
  10 H :    0.063277
  11 O :   -0.302553
  12 O :   -0.425483
  13 O :   -0.424830
  14 O :   -0.407093
  15 O :   -0.410789
  16 O :   -0.425085
  17 H :    0.111845
  18 H :    0.106199
  19 H :    0.300405
  20 H :    0.312951
  21 H :    0.307338
  22 H :    0.299097
  23 H :    0.314848
Sum of atomic charges:   -0.0000000

LOEWDIN ATOMIC CHARGES
----------------------
   0 C :   -0.148378
   1 C :   -0.085561
   2 H :    0.115981
   3 C :   -0.062732
   4 H :    0.123637
   5 C :   -0.067511
   6 H :    0.100575
   7 C :   -0.101016
   8 H :    0.102127
   9 C :   -0.008967
  10 H :    0.105275
  11 O :   -0.143368
  12 O :   -0.335678
  13 O :   -0.320566
  14 O :   -0.314040
  15 O :   -0.306750
  16 O :   -0.311322
  17 H :    0.114125
  18 H :    0.116322
  19 H :    0.270594
  20 H :    0.294164
  21 H :    0.285632
  22 H :    0.283910
  23 H :    0.293547

  Mayer bond orders larger than 0.100000
B(  0-C ,  1-C ) :   1.0062 B(  0-C , 16-O ) :   1.0119 B(  0-C , 17-H ) :   0.9183
B(  0-C , 18-H ) :   0.9118 B(  1-C ,  2-H ) :   0.8860 B(  1-C ,  3-C ) :   0.9579
B(  1-C , 11-O ) :   1.0621 B(  3-C ,  4-H ) :   0.8799 B(  3-C ,  5-C ) :   1.0187
B(  3-C , 15-O ) :   1.0480 B(  5-C ,  6-H ) :   0.8545 B(  5-C ,  7-C ) :   1.0144
B(  5-C , 14-O ) :   1.1041 B(  7-C ,  8-H ) :   0.8776 B(  7-C ,  9-C ) :   0.9581
B(  7-C , 13-O ) :   1.0579 B(  9-C , 10-H ) :   0.8860 B(  9-C , 11-O ) :   1.0453
B(  9-C , 12-O ) :   1.1253 B( 12-O , 19-H ) :   0.7845 B( 13-O , 20-H ) :   0.8392
B( 14-O , 21-H ) :   0.8335 B( 15-O , 22-H ) :   0.8508 B( 16-O , 19-H ) :   0.1331
B( 16-O , 23-H ) :   0.8385

Dispersion correction           -0.025081325
FINAL SINGLE POINT ENERGY      -685.690983755643

DIPOLE MOMENT
-------------

Method             : SCF
Type of density    : Electron Density
Multiplicity       :   1
Irrep              :   0
Energy             :  -685.8236296564513168 Eh
Relativity type    :
Basis              : AO
                                X                 Y                 Z
Electronic contribution:      1.593415593      -0.065198890       1.596259079
Nuclear contribution   :     -1.879648333      -0.406372309      -1.386262649
                        -----------------------------------------
Total Dipole Moment    :     -0.286232740      -0.471571199       0.209996430
                        -----------------------------------------
Magnitude (a.u.)       :      0.590260178
Magnitude (Debye)      :      1.500322140

Rotational constants in cm-1:             0.038393             0.029888             0.019938
Rotational constants in MHz :          1151.003172           896.020330           597.715481

                             ****ORCA TERMINATED NORMALLY****
TOTAL RUN TIME: 0 days 0 hours 0 minutes 10 seconds 542 msec
