                         Program Version 6.0.1  -  RELEASE   -
|  1> ! pbe def2-sv(p) def2/J RI DEFGRID1 loosescf d4 GCP(DFT/SV(P)) printgap
|  2> %output
|  3>     printlevel normal
|  4> end
|  5> * xyz 0 1
|  6> C -1.7715989818 -1.0866821084 -0.6835129904
|  7> C -1.0322271851 -0.5071619072 0.5339744798
|  8> H -1.7181836454 -0.6171097869 1.3863795876
|  9> C -0.7289808948 0.9925165461 0.3638780599
| 10> H -1.5878882402 1.4483608273 -0.1558580256
| 11> C 0.5520031944 1.2408417422 -0.4573973723
| 12> H 0.8312444224 2.2959209345 -0.3180090348
| 13> C 1.7112051931 0.3784749809 0.0786730761
| 14> H 2.5547937491 0.4486524177 -0.6174490599
| 15> C 1.2731193782 -1.100758958 0.1416904043
| 16> H 2.0163049448 -1.6808954111 0.701793754
| 17> O 0.0996567862 -1.2588622738 0.9112577656
| 18> O 1.1841775957 -1.6595730882 -1.1273851259
| 19> O 2.1677083098 0.8483513161 1.3107502165
| 20> O 0.3696999645 0.9476927804 -1.826652736
| 21> O -0.5252977444 1.6240829062 1.6106712165
| 22> O -3.0569799678 -0.4970829126 -0.7090687157
| 23> H -1.8291117572 -2.1732237337 -0.551639795
| 24> H -1.236676896 -0.8729847267 -1.6153227801
| 25> H 0.8858130628 -0.9790626485 -1.7490029141
| 26> H 1.399618447 0.9748496184 1.8884618675
| 27> H -0.273944452 1.5621667754 -2.197503005
| 28> H -1.2865038668 1.4551158891 2.1775752339
| 29> H -3.5907499234 -0.9485943692 -1.3707756079
| 30> *
| 31>
| 32>                          ****END OF INPUT****

CARTESIAN COORDINATES (ANGSTROEM)
---------------------------------
  C     -1.771599   -1.086682   -0.683513
  C     -1.032227   -0.507162    0.533974
  H     -1.718184   -0.617110    1.386380
  C     -0.728981    0.992517    0.363878
  H     -1.587888    1.448361   -0.155858
  C      0.552003    1.240842   -0.457397
  H      0.831244    2.295921   -0.318009
  C      1.711205    0.378475    0.078673
  H      2.554794    0.448652   -0.617449
  C      1.273119   -1.100759    0.141690
  H      2.016305   -1.680895    0.701794
  O      0.099657   -1.258862    0.911258
  O      1.184178   -1.659573   -1.127385
  O      2.167708    0.848351    1.310750
  O      0.369700    0.947693   -1.826653
  O     -0.525298    1.624083    1.610671
  O     -3.056980   -0.497083   -0.709069
  H     -1.829112   -2.173224   -0.551640
  H     -1.236677   -0.872985   -1.615323
  H      0.885813   -0.979063   -1.749003
  H      1.399618    0.974850    1.888462
  H     -0.273944    1.562167   -2.197503
  H     -1.286504    1.455116    2.177575
  H     -3.590750   -0.948594   -1.370776

 Total Charge           Charge          ....    0
 Multiplicity           Mult            ....    1
 Number of Electrons    NEL             ....   96
 Basis Dimension        Dim             ....  192

ORBITAL ENERGIES
----------------

  NO   OCC          E(Eh)            E(eV)
   0   2.0000     -18.786668      -511.2112
   1   2.0000     -18.775861      -510.9172
   2   2.0000     -18.759469      -510.4711
   3   2.0000     -18.759311      -510.4668
   4   2.0000     -18.744734      -510.0701
   5   2.0000     -18.737017      -509.8602
   6   2.0000      -9.970651      -271.3152
   7   2.0000      -9.955605      -270.9058
   8   2.0000      -9.954420      -270.8735
   9   2.0000      -9.948860      -270.7222
  10   2.0000      -9.937643      -270.4170
  11   2.0000      -9.935035      -270.3460
  12   2.0000      -0.977946       -26.6113
  13   2.0000      -0.955724       -26.0066
  14   2.0000      -0.949384       -25.8340
  15   2.0000      -0.933971       -25.4147
  16   2.0000      -0.917507       -24.9666
  17   2.0000      -0.903522       -24.5861
  18   2.0000      -0.709644       -19.3104
  19   2.0000      -0.687977       -18.7208
  20   2.0000      -0.620443       -16.8831
  21   2.0000      -0.595221       -16.1968
  22   2.0000      -0.569533       -15.4978
  23   2.0000      -0.524388       -14.2693
  24   2.0000      -0.507405       -13.8072
  25   2.0000      -0.490657       -13.3515
  26   2.0000      -0.476771       -12.9736
  27   2.0000      -0.468361       -12.7447
  28   2.0000      -0.436860       -11.8876
  29   2.0000      -0.432506       -11.7691
  30   2.0000      -0.417674       -11.3655
  31   2.0000      -0.409217       -11.1354
  32   2.0000      -0.397345       -10.8123
  33   2.0000      -0.381983       -10.3943
  34   2.0000      -0.366687        -9.9781
  35   2.0000      -0.347358        -9.4521
  36   2.0000      -0.336997        -9.1701
  37   2.0000      -0.326437        -8.8828
  38   2.0000      -0.303307        -8.2534
  39   2.0000      -0.293886        -7.9971
  40   2.0000      -0.279096        -7.5946
  41   2.0000      -0.275062        -7.4848
  42   2.0000      -0.260230        -7.0812
  43   2.0000      -0.242940        -6.6107
  44   2.0000      -0.240182        -6.5357
  45   2.0000      -0.224638        -6.1127
  46   2.0000      -0.216258        -5.8847
  47   2.0000      -0.199647        -5.4327
  48   0.0000      -0.001768        -0.0481
  49   0.0000       0.013332         0.3628
  50   0.0000       0.018782         0.5111
  51   0.0000       0.060363         1.6426
  52   0.0000       0.069418         1.8890

MULLIKEN ATOMIC CHARGES
-----------------------
   0 C :    0.007958
   1 C :    0.046625
   2 H :    0.063007
   3 C :    0.036103
   4 H :    0.071634
   5 C :    0.011508
   6 H :    0.088583
   7 C :    0.023800
   8 H :    0.087646
   9 C :    0.199576
  10 H :    0.072623
  11 O :   -0.301392
  12 O :   -0.406713
  13 O :   -0.419319
  14 O :   -0.414917
  15 O :   -0.421607
  16 O :   -0.442144
  17 H :    0.090830
  18 H :    0.059286
  19 H :    0.315771
  20 H :    0.299720
  21 H :    0.315420
  22 H :    0.311096
  23 H :    0.304906
Sum of atomic charges:   -0.0000000

LOEWDIN ATOMIC CHARGES
----------------------
   0 C :   -0.144890
   1 C :   -0.068621
   2 H :    0.113454
   3 C :   -0.080421
   4 H :    0.104254
   5 C :   -0.071657
   6 H :    0.112443
   7 C :   -0.084475
   8 H :    0.121213
   9 C :   -0.007303
  10 H :    0.110676
  11 O :   -0.139288
  12 O :   -0.308734
  13 O :   -0.311323
  14 O :   -0.307919
  15 O :   -0.307701
  16 O :   -0.348755
  17 H :    0.108341
  18 H :    0.092063
  19 H :    0.270870
  20 H :    0.271154
  21 H :    0.295086
  22 H :    0.291771
  23 H :    0.289760

  Mayer bond orders larger than 0.100000
B(  0-C ,  1-C ) :   1.0550 B(  0-C , 16-O ) :   1.0548 B(  0-C , 17-H ) :   0.9087
B(  0-C , 18-H ) :   0.8980 B(  1-C ,  2-H ) :   0.8891 B(  1-C ,  3-C ) :   0.9932
B(  1-C , 11-O ) :   1.0499 B(  3-C ,  4-H ) :   0.8876 B(  3-C ,  5-C ) :   0.9779
B(  3-C , 15-O ) :   1.0086 B(  5-C ,  6-H ) :   0.9030 B(  5-C ,  7-C ) :   0.9916
B(  5-C , 14-O ) :   1.0324 B(  7-C ,  8-H ) :   0.8947 B(  7-C ,  9-C ) :   0.9934
B(  7-C , 13-O ) :   1.0747 B(  9-C , 10-H ) :   0.9068 B(  9-C , 11-O ) :   1.0197
B(  9-C , 12-O ) :   1.1264 B( 12-O , 19-H ) :   0.8035 B( 13-O , 20-H ) :   0.8128
B( 14-O , 21-H ) :   0.8351 B( 15-O , 22-H ) :   0.8407 B( 16-O , 23-H ) :   0.8503

Dispersion correction           -0.026024882
FINAL SINGLE POINT ENERGY      -685.695951100761

DIPOLE MOMENT
-------------

Method             : SCF
Type of density    : Electron Density
Multiplicity       :   1
Irrep              :   0
Energy             :  -685.8291933242351206 Eh
Relativity type    :
Basis              : AO
                                X                 Y                 Z
Electronic contribution:      1.979300847      -0.201854603       1.596136220
Nuclear contribution   :     -3.594608844       0.856801275      -2.269125876
                        -----------------------------------------
Total Dipole Moment    :     -1.615307997       0.654946671      -0.672989656
                        -----------------------------------------
Magnitude (a.u.)       :      1.868445917
Magnitude (Debye)      :      4.749212095

Rotational constants in cm-1:             0.041196             0.028670             0.024753
Rotational constants in MHz :          1235.022651           859.495666           742.085337

                             ****ORCA TERMINATED NORMALLY****
TOTAL RUN TIME: 0 days 0 hours 0 minutes 9 seconds 89 msec
