                         Program Version 6.0.1  -  RELEASE   -
|  1> ! r2scan-3c def2/J RI DEFGRID2 scfconv6 printgap
|  2> %output
|  3>     printlevel normal
|  4> end
|  5> * xyz 0 1
|  6> C -2.3037761154 0.1867522234 0.2833486115
|  7> C -0.9547210024 0.3248465868 -0.4166904278
|  8> C 0.0007344668 -0.7463202383 0.0130424373
|  9> C 1.3070203114 -0.598351065 0.1711247573
| 10> C 2.0635704035 0.6758165395 -0.0536382181
| 11> H -2.7560424932 -0.7767026668 0.0570186471
| 12> H -2.9850099951 0.9706150788 -0.0409807504
| 13> H -2.1799281626 0.2625343087 1.361708095
| 14> H -1.1056741944 0.2523613944 -1.4994967919
| 15> H -0.5337166661 1.3091998351 -0.2073191368
| 16> H -0.4493787642 -1.713860292 0.1935706935
| 17> H 1.8972150281 -1.4460756841 0.4921937127
| 18> H 3.1345456213 0.4924392548 -0.0444525479
| 19> H 1.8363313457 1.3992522317 0.7304243077
| 20> H 1.7971023959 1.1242332245 -1.0091460206
| 21> *
| 22>
| 23>                          ****END OF INPUT****

CARTESIAN COORDINATES (ANGSTROEM)
---------------------------------
  C     -2.303776    0.186752    0.283349
  C     -0.954721    0.324847   -0.416690
  C      0.000734   -0.746320    0.013042
  C      1.307020   -0.598351    0.171125
  C      2.063570    0.675817   -0.053638
  H     -2.756042   -0.776703    0.057019
  H     -2.985010    0.970615   -0.040981
  H     -2.179928    0.262534    1.361708
  H     -1.105674    0.252361   -1.499497
  H     -0.533717    1.309200   -0.207319
  H     -0.449379   -1.713860    0.193571
  H      1.897215   -1.446076    0.492194
  H      3.134546    0.492439   -0.044453
  H      1.836331    1.399252    0.730424
  H      1.797102    1.124233   -1.009146

 Total Charge           Charge          ....    0
 Multiplicity           Mult            ....    1
 Number of Electrons    NEL             ....   40
 Basis Dimension        Dim             ....  145

ORBITAL ENERGIES
----------------

  NO   OCC          E(Eh)            E(eV)
   0   2.0000     -10.028150      -272.8798
   1   2.0000     -10.022124      -272.7159
   2   2.0000     -10.021476      -272.6982
   3   2.0000     -10.018905      -272.6283
   4   2.0000     -10.018146      -272.6076
   5   2.0000      -0.772362       -21.0170
   6   2.0000      -0.717945       -19.5363
   7   2.0000      -0.646372       -17.5887
   8   2.0000      -0.581825       -15.8323
   9   2.0000      -0.494717       -13.4619
  10   2.0000      -0.443812       -12.0767
  11   2.0000      -0.409407       -11.1405
  12   2.0000      -0.397363       -10.8128
  13   2.0000      -0.379720       -10.3327
  14   2.0000      -0.348912        -9.4944
  15   2.0000      -0.338358        -9.2072
  16   2.0000      -0.328097        -8.9280
  17   2.0000      -0.312033        -8.4908
  18   2.0000      -0.290481        -7.9044
  19   2.0000      -0.217041        -5.9060
  20   0.0000      -0.004751        -0.1293
  21   0.0000       0.094061         2.5595
  22   0.0000       0.115972         3.1558
  23   0.0000       0.131338         3.5739
  24   0.0000       0.144893         3.9427

MULLIKEN ATOMIC CHARGES
-----------------------
   0 C :   -0.460634
   1 C :   -0.248878
   2 C :   -0.151127
   3 C :   -0.141919
   4 C :   -0.496080
   5 H :    0.139773
   6 H :    0.144375
   7 H :    0.149324
   8 H :    0.153528
   9 H :    0.143817
  10 H :    0.147665
  11 H :    0.152336
  12 H :    0.145127
  13 H :    0.163343
  14 H :    0.159350
Sum of atomic charges:    0.0000000

LOEWDIN ATOMIC CHARGES
----------------------
   0 C :   -0.418656
   1 C :   -0.306420
   2 C :   -0.210680
   3 C :   -0.216109
   4 C :   -0.422166
   5 H :    0.150022
   6 H :    0.149673
   7 H :    0.152747
   8 H :    0.162511
   9 H :    0.158407
  10 H :    0.162938
  11 H :    0.160065
  12 H :    0.155479
  13 H :    0.162328
  14 H :    0.159861

  Mayer bond orders larger than 0.100000
B(  0-C ,  1-C ) :   0.8919 B(  0-C ,  5-H ) :   0.9751 B(  0-C ,  6-H ) :   0.9743
B(  0-C ,  7-H ) :   0.9821 B(  1-C ,  2-C ) :   0.9243 B(  1-C ,  8-H ) :   0.9666
B(  1-C ,  9-H ) :   0.9828 B(  2-C ,  3-C ) :   1.9482 B(  2-C , 10-H ) :   0.9422
B(  3-C ,  4-C ) :   0.8928 B(  3-C , 11-H ) :   0.9491 B(  4-C , 12-H ) :   0.9739
B(  4-C , 13-H ) :   0.9723 B(  4-C , 14-H ) :   0.9831

Dispersion correction           -0.003245164
FINAL SINGLE POINT ENERGY      -196.458971060916

DIPOLE MOMENT
-------------

Method             : SCF
Type of density    : Electron Density
Multiplicity       :   1
Irrep              :   0
Energy             :  -196.4618523762230495 Eh
Relativity type    :
Basis              : AO
                                X                 Y                 Z
Electronic contribution:      1.245689503      -1.617502863      -0.075833769
Nuclear contribution   :     -1.261412636       1.758114426       0.031447421
                        -----------------------------------------
Total Dipole Moment    :     -0.015723133       0.140611563      -0.044386348
                        -----------------------------------------
Magnitude (a.u.)       :      0.148286805
Magnitude (Debye)      :      0.376915105

Rotational constants in cm-1:             0.426013             0.085011             0.076365
Rotational constants in MHz :         12771.562263          2548.573470          2289.362414

                             ****ORCA TERMINATED NORMALLY****
TOTAL RUN TIME: 0 days 0 hours 0 minutes 9 seconds 337 msec
