                         Program Version 6.0.1  -  RELEASE   -
|  1> ! r2scan-3c def2/J RI DEFGRID2 scfconv6 printgap
|  2> %output
|  3>     printlevel normal
|  4> end
|  5> * xyz 0 1
|  6> C 3.7410749958 -0.2700897273 -0.0977225517
|  7> C 2.2900332438 -0.1545696205 0.3596426682
|  8> H 2.2766096963 0.110744472 1.4226390636
|  9> C 1.5403505639 -1.4694991322 0.1738659286
| 10> C 0.0899143522 -1.3415561689 0.6285895099
| 11> C -0.6789918605 -0.2509139533 -0.1296383493
| 12> H -0.7018023199 -0.5178038072 -1.1942889066
| 13> C 0.0930441263 1.0783712989 0.0208101835
| 14> H 0.0621325901 1.3853826371 1.0724402344
| 15> C 1.5532324804 0.9262030236 -0.4227104178
| 16> O -0.4883618976 2.1591216917 -0.6784706167
| 17> C -2.1373257303 -0.1325969959 0.3740745874
| 18> C -3.0071843156 0.6793737651 -0.5876964229
| 19> C -2.8031775772 -1.4958166066 0.5803764264
| 20> H 4.2596045974 -1.0392886825 0.4701405639
| 21> H 3.7881835962 -0.5331773949 -1.1525803794
| 22> H 4.2635128984 0.6731652881 0.0441458458
| 23> H 1.5692473252 -1.7540287216 -0.8810564461
| 24> H 2.0287207942 -2.262326316 0.7447341794
| 25> H -0.3981187072 -2.3038455468 0.4788148465
| 26> H 0.0667880329 -1.111047611 1.6964575151
| 27> H 1.5727089074 0.6748395071 -1.4883639093
| 28> H 2.0493843357 1.8915714246 -0.2995781598
| 29> H -0.4428830704 1.962689744 -1.6216633723
| 30> H -2.1160971651 0.3865066397 1.3387722229
| 31> H -4.0288543335 0.7235541663 -0.2161912673
| 32> H -3.0238450228 0.2110512999 -1.5706287793
| 33> H -2.6382756229 1.6947027018 -0.6844574125
| 34> H -2.3648418997 -2.0416966525 1.4107051724
| 35> H -2.7259449435 -2.1007028815 -0.3209907633
| 36> H -3.8590004746 -1.3531776117 0.8006853721
| 37> *
| 38>
| 39>                          ****END OF INPUT****

CARTESIAN COORDINATES (ANGSTROEM)
---------------------------------
  C      3.741075   -0.270090   -0.097723
  C      2.290033   -0.154570    0.359643
  H      2.276610    0.110744    1.422639
  C      1.540351   -1.469499    0.173866
  C      0.089914   -1.341556    0.628590
  C     -0.678992   -0.250914   -0.129638
  H     -0.701802   -0.517804   -1.194289
  C      0.093044    1.078371    0.020810
  H      0.062133    1.385383    1.072440
  C      1.553232    0.926203   -0.422710
  O     -0.488362    2.159122   -0.678471
  C     -2.137326   -0.132597    0.374075
  C     -3.007184    0.679374   -0.587696
  C     -2.803178   -1.495817    0.580376
  H      4.259605   -1.039289    0.470141
  H      3.788184   -0.533177   -1.152580
  H      4.263513    0.673165    0.044146
  H      1.569247   -1.754029   -0.881056
  H      2.028721   -2.262326    0.744734
  H     -0.398119   -2.303846    0.478815
  H      0.066788   -1.111048    1.696458
  H      1.572709    0.674840   -1.488364
  H      2.049384    1.891571   -0.299578
  H     -0.442883    1.962690   -1.621663
  H     -2.116097    0.386507    1.338772
  H     -4.028854    0.723554   -0.216191
  H     -3.023845    0.211051   -1.570629
  H     -2.638276    1.694703   -0.684457
  H     -2.364842   -2.041697    1.410705
  H     -2.725945   -2.100703   -0.320991
  H     -3.859000   -1.353178    0.800685

 Total Charge           Charge          ....    0
 Multiplicity           Mult            ....    1
 Number of Electrons    NEL             ....   88
 Basis Dimension        Dim             ....  314

ORBITAL ENERGIES
----------------

  NO   OCC          E(Eh)            E(eV)
   0   2.0000     -18.943861      -515.4887
   1   2.0000     -10.076639      -274.1993
   2   2.0000     -10.033123      -273.0152
   3   2.0000     -10.031009      -272.9576
   4   2.0000     -10.029787      -272.9244
   5   2.0000     -10.024333      -272.7760
   6   2.0000     -10.023302      -272.7479
   7   2.0000     -10.022163      -272.7169
   8   2.0000     -10.016878      -272.5731
   9   2.0000     -10.011662      -272.4312
  10   2.0000     -10.001608      -272.1576
  11   2.0000      -0.986689       -26.8492
  12   2.0000      -0.806370       -21.9424
  13   2.0000      -0.767088       -20.8735
  14   2.0000      -0.712860       -19.3979
  15   2.0000      -0.697784       -18.9877
  16   2.0000      -0.644122       -17.5274
  17   2.0000      -0.640736       -17.4353
  18   2.0000      -0.580465       -15.7953
  19   2.0000      -0.567089       -15.4313
  20   2.0000      -0.532663       -14.4945
  21   2.0000      -0.524161       -14.2632
  22   2.0000      -0.467035       -12.7087
  23   2.0000      -0.440115       -11.9761
  24   2.0000      -0.418832       -11.3970
  25   2.0000      -0.418290       -11.3823
  26   2.0000      -0.407214       -11.0809
  27   2.0000      -0.398077       -10.8322
  28   2.0000      -0.380333       -10.3494
  29   2.0000      -0.376299       -10.2396
  30   2.0000      -0.363515        -9.8918
  31   2.0000      -0.357192        -9.7197
  32   2.0000      -0.345626        -9.4050
  33   2.0000      -0.339268        -9.2319
  34   2.0000      -0.325304        -8.8520
  35   2.0000      -0.314406        -8.5554
  36   2.0000      -0.310855        -8.4588
  37   2.0000      -0.305115        -8.3026
  38   2.0000      -0.296459        -8.0671
  39   2.0000      -0.294369        -8.0102
  40   2.0000      -0.286239        -7.7890
  41   2.0000      -0.273949        -7.4545
  42   2.0000      -0.262776        -7.1505
  43   2.0000      -0.220229        -5.9927
  44   0.0000       0.061439         1.6718
  45   0.0000       0.081324         2.2129
  46   0.0000       0.088871         2.4183
  47   0.0000       0.093265         2.5379
  48   0.0000       0.112385         3.0581

MULLIKEN ATOMIC CHARGES
-----------------------
   0 C :   -0.499041
   1 C :   -0.050220
   2 H :    0.163450
   3 C :   -0.344530
   4 C :   -0.343095
   5 C :   -0.071958
   6 H :    0.184298
   7 C :   -0.198664
   8 H :    0.167956
   9 C :   -0.317712
  10 O :   -0.391571
  11 C :    0.034152
  12 C :   -0.587828
  13 C :   -0.516793
  14 H :    0.147769
  15 H :    0.148622
  16 H :    0.148729
  17 H :    0.154361
  18 H :    0.147812
  19 H :    0.157728
  20 H :    0.160190
  21 H :    0.143946
  22 H :    0.162045
  23 H :    0.293187
  24 H :    0.158883
  25 H :    0.139923
  26 H :    0.147434
  27 H :    0.198059
  28 H :    0.156288
  29 H :    0.160410
  30 H :    0.146167
Sum of atomic charges:    0.0000000

LOEWDIN ATOMIC CHARGES
----------------------
   0 C :   -0.412259
   1 C :   -0.233898
   2 H :    0.159234
   3 C :   -0.293763
   4 C :   -0.287063
   5 C :   -0.197003
   6 H :    0.165393
   7 C :    0.063967
   8 H :    0.186013
   9 C :   -0.267121
  10 O :   -0.614196
  11 C :   -0.227693
  12 C :   -0.417515
  13 C :   -0.419368
  14 H :    0.153390
  15 H :    0.153683
  16 H :    0.153976
  17 H :    0.158311
  18 H :    0.158347
  19 H :    0.163214
  20 H :    0.161616
  21 H :    0.159631
  22 H :    0.168686
  23 H :    0.265803
  24 H :    0.161289
  25 H :    0.148846
  26 H :    0.150344
  27 H :    0.177597
  28 H :    0.152250
  29 H :    0.154477
  30 H :    0.153812

  Mayer bond orders larger than 0.100000
B(  0-C ,  1-C ) :   0.8899 B(  0-C , 14-H ) :   0.9760 B(  0-C , 15-H ) :   0.9959
B(  0-C , 16-H ) :   0.9769 B(  1-C ,  2-H ) :   0.9642 B(  1-C ,  3-C ) :   0.9063
B(  1-C ,  9-C ) :   0.8931 B(  3-C ,  4-C ) :   0.8884 B(  3-C , 17-H ) :   1.0164
B(  3-C , 18-H ) :   0.9466 B(  4-C ,  5-C ) :   0.8747 B(  4-C , 19-H ) :   0.9371
B(  4-C , 20-H ) :   0.9974 B(  5-C ,  6-H ) :   0.9842 B(  5-C ,  7-C ) :   0.9159
B(  5-C , 11-C ) :   0.8377 B(  7-C ,  8-H ) :   0.9822 B(  7-C ,  9-C ) :   0.9127
B(  7-C , 10-O ) :   0.9843 B(  9-C , 21-H ) :   1.0079 B(  9-C , 22-H ) :   0.9484
B( 10-O , 23-H ) :   0.8905 B( 11-C , 12-C ) :   0.8726 B( 11-C , 13-C ) :   0.8404
B( 11-C , 24-H ) :   0.9795 B( 12-C , 25-H ) :   0.9755 B( 12-C , 26-H ) :   0.9970
B( 12-C , 27-H ) :   0.9663 B( 13-C , 28-H ) :   0.9732 B( 13-C , 29-H ) :   0.9925
B( 13-C , 30-H ) :   0.9740

Dispersion correction           -0.010758886
FINAL SINGLE POINT ENERGY      -468.205127005365

DIPOLE MOMENT
-------------

Method             : SCF
Type of density    : Electron Density
Multiplicity       :   1
Irrep              :   0
Energy             :  -468.2097925186778866 Eh
Relativity type    :
Basis              : AO
                                X                 Y                 Z
Electronic contribution:      0.656017304       4.470449615      -0.190542060
Nuclear contribution   :     -0.347584640      -4.942944447       0.036593472
                        -----------------------------------------
Total Dipole Moment    :      0.308432665      -0.472494832      -0.153948588
                        -----------------------------------------
Magnitude (a.u.)       :      0.584877972
Magnitude (Debye)      :      1.486641660

Rotational constants in cm-1:             0.062142             0.023456             0.017999
Rotational constants in MHz :          1862.959733           703.205815           539.603833

                             ****ORCA TERMINATED NORMALLY****
TOTAL RUN TIME: 0 days 0 hours 0 minutes 39 seconds 364 msec
