                         Program Version 6.0.1  -  RELEASE   -
|  1> ! r2scan-3c def2/J RI DEFGRID2 scfconv6 printgap
|  2> %output
|  3>     printlevel normal
|  4> end
|  5> * xyz 0 1
|  6> C 1.315624563 -1.0485077991 -0.8696583976
|  7> C 0.6626293289 -0.3781402453 0.3398529913
|  8> C 1.4885154026 0.825641587 0.7992059914
|  9> C -0.7258632249 0.1120511323 -0.0539885331
| 10> O -0.900740322 0.8693623787 -0.9736607771
| 11> C -1.8531457422 -0.4158011668 0.7954894375
| 12> H 2.3330991385 -1.3498834201 -0.6319654923
| 13> H 0.752787707 -1.9300707712 -1.1700178789
| 14> H 1.3397576325 -0.353393749 -1.7053231071
| 15> H 0.5820946784 -1.0979571881 1.1595742355
| 16> H 1.5314434354 1.5662732921 0.0043766808
| 17> H 2.5012506041 0.5159023579 1.046531512
| 18> H 1.0418426816 1.2868075585 1.6778709257
| 19> H -2.8041702559 -0.0085492484 0.4631523049
| 20> H -1.6816356031 -0.1457199972 1.8355358316
| 21> H -1.8774349806 -1.501809684 0.729383399
| 22> *
| 23>
| 24>                          ****END OF INPUT****

CARTESIAN COORDINATES (ANGSTROEM)
---------------------------------
  C      1.315625   -1.048508   -0.869658
  C      0.662629   -0.378140    0.339853
  C      1.488515    0.825642    0.799206
  C     -0.725863    0.112051   -0.053989
  O     -0.900740    0.869362   -0.973661
  C     -1.853146   -0.415801    0.795489
  H      2.333099   -1.349883   -0.631965
  H      0.752788   -1.930071   -1.170018
  H      1.339758   -0.353394   -1.705323
  H      0.582095   -1.097957    1.159574
  H      1.531443    1.566273    0.004377
  H      2.501251    0.515902    1.046532
  H      1.041843    1.286808    1.677871
  H     -2.804170   -0.008549    0.463152
  H     -1.681636   -0.145720    1.835536
  H     -1.877435   -1.501810    0.729383

 Total Charge           Charge          ....    0
 Multiplicity           Mult            ....    1
 Number of Electrons    NEL             ....   48
 Basis Dimension        Dim             ....  169

ORBITAL ENERGIES
----------------

  NO   OCC          E(Eh)            E(eV)
   0   2.0000     -18.938292      -515.3371
   1   2.0000     -10.116326      -275.2792
   2   2.0000     -10.045342      -273.3476
   3   2.0000     -10.034639      -273.0564
   4   2.0000     -10.026773      -272.8424
   5   2.0000     -10.024729      -272.7868
   6   2.0000      -1.010148       -27.4875
   7   2.0000      -0.776091       -21.1185
   8   2.0000      -0.711705       -19.3665
   9   2.0000      -0.658821       -17.9274
  10   2.0000      -0.587364       -15.9830
  11   2.0000      -0.488282       -13.2868
  12   2.0000      -0.451215       -12.2782
  13   2.0000      -0.425432       -11.5766
  14   2.0000      -0.424812       -11.5597
  15   2.0000      -0.390808       -10.6344
  16   2.0000      -0.380265       -10.3475
  17   2.0000      -0.376264       -10.2387
  18   2.0000      -0.361938        -9.8488
  19   2.0000      -0.331716        -9.0265
  20   2.0000      -0.329152        -8.9567
  21   2.0000      -0.310005        -8.4357
  22   2.0000      -0.309112        -8.4114
  23   2.0000      -0.212977        -5.7954
  24   0.0000      -0.043932        -1.1955
  25   0.0000       0.068007         1.8506
  26   0.0000       0.116543         3.1713
  27   0.0000       0.121368         3.3026
  28   0.0000       0.124412         3.3854

MULLIKEN ATOMIC CHARGES
-----------------------
   0 C :   -0.493563
   1 C :   -0.043030
   2 C :   -0.491307
   3 C :    0.287496
   4 O :   -0.351002
   5 C :   -0.492258
   6 H :    0.147773
   7 H :    0.144878
   8 H :    0.175915
   9 H :    0.149320
  10 H :    0.175308
  11 H :    0.149516
  12 H :    0.144147
  13 H :    0.175016
  14 H :    0.159680
  15 H :    0.162111
Sum of atomic charges:    0.0000000

LOEWDIN ATOMIC CHARGES
----------------------
   0 C :   -0.391128
   1 C :   -0.230354
   2 C :   -0.389839
   3 C :    0.221590
   4 O :   -0.457594
   5 C :   -0.385783
   6 H :    0.154042
   7 H :    0.155711
   8 H :    0.168807
   9 H :    0.159312
  10 H :    0.167559
  11 H :    0.154692
  12 H :    0.155361
  13 H :    0.171511
  14 H :    0.172867
  15 H :    0.173245

  Mayer bond orders larger than 0.100000
B(  0-C ,  1-C ) :   0.9096 B(  0-C ,  6-H ) :   0.9750 B(  0-C ,  7-H ) :   0.9707
B(  0-C ,  8-H ) :   0.9763 B(  1-C ,  2-C ) :   0.9075 B(  1-C ,  3-C ) :   0.8560
B(  1-C ,  9-H ) :   0.9445 B(  2-C , 10-H ) :   0.9778 B(  2-C , 11-H ) :   0.9739
B(  2-C , 12-H ) :   0.9692 B(  3-C ,  4-O ) :   1.9653 B(  3-C ,  5-C ) :   0.9146
B(  5-C , 13-H ) :   0.9892 B(  5-C , 14-H ) :   0.9416 B(  5-C , 15-H ) :   0.9446

Dispersion correction           -0.003900595
FINAL SINGLE POINT ENERGY      -271.704785309743

DIPOLE MOMENT
-------------

Method             : SCF
Type of density    : Electron Density
Multiplicity       :   1
Irrep              :   0
Energy             :  -271.7083494729357653 Eh
Relativity type    :
Basis              : AO
                                X                 Y                 Z
Electronic contribution:     -3.261582450       2.144115751      -2.359573230
Nuclear contribution   :      3.475709770      -2.818864368       3.183875056
                        -----------------------------------------
Total Dipole Moment    :      0.214127320      -0.674748618       0.824301826
                        -----------------------------------------
Magnitude (a.u.)       :      1.086558653
Magnitude (Debye)      :      2.761812612

Rotational constants in cm-1:             0.159991             0.086346             0.083118
Rotational constants in MHz :          4796.417322          2588.585299          2491.813373

                             ****ORCA TERMINATED NORMALLY****
TOTAL RUN TIME: 0 days 0 hours 0 minutes 13 seconds 433 msec
