                         Program Version 6.0.1  -  RELEASE   -
|  1> ! r2scan-3c def2/J RI DEFGRID2 scfconv6 printgap
|  2> %output
|  3>     printlevel normal
|  4> end
|  5> * xyz 0 1
|  6> C 3.7196422108 -0.3295202084 -0.1504958252
|  7> C 2.2778959382 -0.2040112833 0.333905168
|  8> H 2.2860641551 -0.0261563366 1.4151916863
|  9> C 1.4893971487 -1.4834057615 0.058999504
| 10> C 0.0449799201 -1.3505877612 0.5349174295
| 11> C -0.6595998065 -0.190240478 -0.1716180877
| 12> H -0.5888484668 -0.3772293335 -1.2508357759
| 13> C 0.12311672 1.104402027 0.12092936
| 14> H 0.1002814903 1.300797677 1.1989463033
| 15> C 1.5763515158 0.971035191 -0.3433531865
| 16> O -0.4871250692 2.2397029775 -0.4555225356
| 17> C -2.1593973112 -0.0009336984 0.1832587753
| 18> C -3.0067100518 0.0061411129 -1.0903442125
| 19> C -2.7308482458 -1.0315491047 1.1553259666
| 20> H 3.7466832922 -0.5086773634 -1.2235177075
| 21> H 4.2745122519 0.5821102446 0.0589312292
| 22> H 4.2187710896 -1.1578538807 0.3471958325
| 23> H 1.5045360903 -1.6923651311 -1.0137262543
| 24> H 1.9643763019 -2.3252585132 0.5675128711
| 25> H -0.4829123531 -2.2832216852 0.3345162453
| 26> H 0.0432402161 -1.182934475 1.61310881
| 27> H 1.5898462123 0.8246107577 -1.4282679614
| 28> H 2.1026979871 1.9030534389 -0.1262624489
| 29> H -0.4788640379 2.1309122521 -1.4134011313
| 30> H -2.2594736269 0.9840128943 0.6515908268
| 31> H -4.0529488256 0.1805274228 -0.8487024499
| 32> H -2.930453788 -0.9505580957 -1.6047601096
| 33> H -2.6829623454 0.7934684893 -1.7672639836
| 34> H -2.1799311869 -1.0473648496 2.0911421599
| 35> H -2.7194189512 -2.0296044101 0.7238915034
| 36> H -3.7644034984 -0.7758431404 1.3798812897
| 37> *
| 38>
| 39>                          ****END OF INPUT****

CARTESIAN COORDINATES (ANGSTROEM)
---------------------------------
  C      3.719642   -0.329520   -0.150496
  C      2.277896   -0.204011    0.333905
  H      2.286064   -0.026156    1.415192
  C      1.489397   -1.483406    0.059000
  C      0.044980   -1.350588    0.534917
  C     -0.659600   -0.190240   -0.171618
  H     -0.588848   -0.377229   -1.250836
  C      0.123117    1.104402    0.120929
  H      0.100281    1.300798    1.198946
  C      1.576352    0.971035   -0.343353
  O     -0.487125    2.239703   -0.455523
  C     -2.159397   -0.000934    0.183259
  C     -3.006710    0.006141   -1.090344
  C     -2.730848   -1.031549    1.155326
  H      3.746683   -0.508677   -1.223518
  H      4.274512    0.582110    0.058931
  H      4.218771   -1.157854    0.347196
  H      1.504536   -1.692365   -1.013726
  H      1.964376   -2.325259    0.567513
  H     -0.482912   -2.283222    0.334516
  H      0.043240   -1.182934    1.613109
  H      1.589846    0.824611   -1.428268
  H      2.102698    1.903053   -0.126262
  H     -0.478864    2.130912   -1.413401
  H     -2.259474    0.984013    0.651591
  H     -4.052949    0.180527   -0.848702
  H     -2.930454   -0.950558   -1.604760
  H     -2.682962    0.793468   -1.767264
  H     -2.179931   -1.047365    2.091142
  H     -2.719419   -2.029604    0.723892
  H     -3.764403   -0.775843    1.379881

 Total Charge           Charge          ....    0
 Multiplicity           Mult            ....    1
 Number of Electrons    NEL             ....   88
 Basis Dimension        Dim             ....  314

ORBITAL ENERGIES
----------------

  NO   OCC          E(Eh)            E(eV)
   0   2.0000     -18.944276      -515.4999
   1   2.0000     -10.074869      -274.1511
   2   2.0000     -10.033993      -273.0388
   3   2.0000     -10.028180      -272.8807
   4   2.0000     -10.026972      -272.8478
   5   2.0000     -10.024471      -272.7797
   6   2.0000     -10.023672      -272.7580
   7   2.0000     -10.022149      -272.7165
   8   2.0000     -10.016933      -272.5746
   9   2.0000     -10.012286      -272.4482
  10   2.0000     -10.011280      -272.4208
  11   2.0000      -0.985863       -26.8267
  12   2.0000      -0.806334       -21.9415
  13   2.0000      -0.766355       -20.8536
  14   2.0000      -0.713888       -19.4259
  15   2.0000      -0.698021       -18.9941
  16   2.0000      -0.646746       -17.5989
  17   2.0000      -0.641821       -17.4648
  18   2.0000      -0.581927       -15.8351
  19   2.0000      -0.569062       -15.4850
  20   2.0000      -0.531437       -14.4611
  21   2.0000      -0.520722       -14.1696
  22   2.0000      -0.464452       -12.6384
  23   2.0000      -0.438291       -11.9265
  24   2.0000      -0.422646       -11.5008
  25   2.0000      -0.418895       -11.3987
  26   2.0000      -0.412960       -11.2372
  27   2.0000      -0.387717       -10.5503
  28   2.0000      -0.382117       -10.3979
  29   2.0000      -0.380028       -10.3411
  30   2.0000      -0.369332       -10.0500
  31   2.0000      -0.355511        -9.6740
  32   2.0000      -0.347126        -9.4458
  33   2.0000      -0.338580        -9.2132
  34   2.0000      -0.334164        -9.0931
  35   2.0000      -0.316845        -8.6218
  36   2.0000      -0.311220        -8.4687
  37   2.0000      -0.300838        -8.1862
  38   2.0000      -0.294836        -8.0229
  39   2.0000      -0.293421        -7.9844
  40   2.0000      -0.281740        -7.6665
  41   2.0000      -0.274479        -7.4690
  42   2.0000      -0.260513        -7.0889
  43   2.0000      -0.225230        -6.1288
  44   0.0000       0.058400         1.5891
  45   0.0000       0.081197         2.2095
  46   0.0000       0.085038         2.3140
  47   0.0000       0.094402         2.5688
  48   0.0000       0.112094         3.0502

MULLIKEN ATOMIC CHARGES
-----------------------
   0 C :   -0.498851
   1 C :   -0.032418
   2 H :    0.161314
   3 C :   -0.348877
   4 C :   -0.393021
   5 C :   -0.033425
   6 H :    0.177243
   7 C :   -0.169532
   8 H :    0.164806
   9 C :   -0.340519
  10 O :   -0.395757
  11 C :    0.018517
  12 C :   -0.543756
  13 C :   -0.501111
  14 H :    0.149280
  15 H :    0.148576
  16 H :    0.147765
  17 H :    0.155635
  18 H :    0.147726
  19 H :    0.148500
  20 H :    0.168478
  21 H :    0.150421
  22 H :    0.159179
  23 H :    0.289240
  24 H :    0.176846
  25 H :    0.145613
  26 H :    0.153801
  27 H :    0.142841
  28 H :    0.141398
  29 H :    0.159453
  30 H :    0.150636
Sum of atomic charges:    0.0000000

LOEWDIN ATOMIC CHARGES
----------------------
   0 C :   -0.412344
   1 C :   -0.232368
   2 H :    0.159203
   3 C :   -0.293267
   4 C :   -0.285653
   5 C :   -0.195107
   6 H :    0.166626
   7 C :    0.061130
   8 H :    0.185752
   9 C :   -0.269788
  10 O :   -0.605560
  11 C :   -0.229663
  12 C :   -0.413586
  13 C :   -0.414287
  14 H :    0.153660
  15 H :    0.154001
  16 H :    0.153341
  17 H :    0.158482
  18 H :    0.158290
  19 H :    0.160749
  20 H :    0.160471
  21 H :    0.159707
  22 H :    0.167567
  23 H :    0.265252
  24 H :    0.175307
  25 H :    0.152253
  26 H :    0.150756
  27 H :    0.150671
  28 H :    0.152738
  29 H :    0.151791
  30 H :    0.153876

  Mayer bond orders larger than 0.100000
B(  0-C ,  1-C ) :   0.8861 B(  0-C , 14-H ) :   0.9963 B(  0-C , 15-H ) :   0.9766
B(  0-C , 16-H ) :   0.9763 B(  1-C ,  2-H ) :   0.9524 B(  1-C ,  3-C ) :   0.9108
B(  1-C ,  9-C ) :   0.8913 B(  3-C ,  4-C ) :   0.8910 B(  3-C , 17-H ) :   1.0199
B(  3-C , 18-H ) :   0.9447 B(  4-C ,  5-C ) :   0.8689 B(  4-C , 19-H ) :   0.9312
B(  4-C , 20-H ) :   1.0121 B(  5-C ,  6-H ) :   0.9950 B(  5-C ,  7-C ) :   0.9109
B(  5-C , 11-C ) :   0.8106 B(  7-C ,  8-H ) :   0.9753 B(  7-C ,  9-C ) :   0.9278
B(  7-C , 10-O ) :   0.9486 B(  9-C , 21-H ) :   1.0184 B(  9-C , 22-H ) :   0.9435
B( 10-O , 23-H ) :   0.8935 B( 11-C , 12-C ) :   0.8734 B( 11-C , 13-C ) :   0.8733
B( 11-C , 24-H ) :   0.9696 B( 12-C , 25-H ) :   0.9779 B( 12-C , 26-H ) :   0.9899
B( 12-C , 27-H ) :   0.9786 B( 13-C , 28-H ) :   0.9681 B( 13-C , 29-H ) :   1.0013
B( 13-C , 30-H ) :   0.9719

Dispersion correction           -0.010756147
FINAL SINGLE POINT ENERGY      -468.203929556906

DIPOLE MOMENT
-------------

Method             : SCF
Type of density    : Electron Density
Multiplicity       :   1
Irrep              :   0
Energy             :  -468.2083674269948688 Eh
Relativity type    :
Basis              : AO
                                X                 Y                 Z
Electronic contribution:      0.558001167       4.810506393       0.070507007
Nuclear contribution   :     -0.297315584      -5.274503261      -0.283356887
                        -----------------------------------------
Total Dipole Moment    :      0.260685584      -0.463996869      -0.212849880
                        -----------------------------------------
Magnitude (a.u.)       :      0.573197295
Magnitude (Debye)      :      1.456951739

Rotational constants in cm-1:             0.061234             0.022939             0.018622
Rotational constants in MHz :          1835.746580           687.700114           558.270049

                             ****ORCA TERMINATED NORMALLY****
TOTAL RUN TIME: 0 days 0 hours 0 minutes 39 seconds 358 msec
