                         Program Version 6.0.1  -  RELEASE   -
|  1> ! pbe def2-sv(p) def2/J RI DEFGRID1 loosescf d4 GCP(DFT/SV(P)) printgap
|  2> %output
|  3>     printlevel normal
|  4> end
|  5> * xyz 0 1
|  6> C -2.5076389486 -0.695597906 -0.0255232732
|  7> C -1.1393318159 -0.4604939181 0.6300944919
|  8> H -1.1710542919 -0.7895338721 1.6806979632
|  9> C -0.7201110223 1.0380825802 0.6284849703
| 10> H -1.5981152989 1.6482796645 0.3828581028
| 11> C 0.3654914549 1.2788265006 -0.4265059325
| 12> H 0.7286421409 2.3118270628 -0.3272565843
| 13> C 1.5728297067 0.356967023 -0.1322410791
| 14> H 2.1706374197 0.2912464352 -1.0525335954
| 15> C 1.106520526 -1.0698906994 0.264302141
| 16> H 1.2210582604 -1.1898086997 1.3562295544
| 17> O -0.2340348728 -1.2749584003 -0.100481526
| 18> O 1.8767477291 -2.059869776 -0.3191633304
| 19> O 2.3199990298 0.9459849611 0.9116644274
| 20> O -0.0908684794 1.1022886301 -1.7377412103
| 21> O -0.2991339725 1.4455474715 1.9035390455
| 22> O -2.444399654 -0.478367916 -1.4150736195
| 23> H -3.2405526869 0.0059264417 0.3748659785
| 24> H -2.8366264609 -1.7189745926 0.1863178356
| 25> H 1.6247903521 -2.1317687093 -1.2482044514
| 26> H 3.1311422148 0.4417858382 1.0411648858
| 27> H -0.9640168349 0.6704474456 -1.7266539062
| 28> H 0.6651746979 1.3650752924 1.9556068091
| 29> H -1.8849178555 -1.172228217 -1.787707616
| 30> *
| 31>
| 32>                          ****END OF INPUT****

CARTESIAN COORDINATES (ANGSTROEM)
---------------------------------
  C     -2.507639   -0.695598   -0.025523
  C     -1.139332   -0.460494    0.630094
  H     -1.171054   -0.789534    1.680698
  C     -0.720111    1.038083    0.628485
  H     -1.598115    1.648280    0.382858
  C      0.365491    1.278827   -0.426506
  H      0.728642    2.311827   -0.327257
  C      1.572830    0.356967   -0.132241
  H      2.170637    0.291246   -1.052534
  C      1.106521   -1.069891    0.264302
  H      1.221058   -1.189809    1.356230
  O     -0.234035   -1.274958   -0.100482
  O      1.876748   -2.059870   -0.319163
  O      2.319999    0.945985    0.911664
  O     -0.090868    1.102289   -1.737741
  O     -0.299134    1.445547    1.903539
  O     -2.444400   -0.478368   -1.415074
  H     -3.240553    0.005926    0.374866
  H     -2.836626   -1.718975    0.186318
  H      1.624790   -2.131769   -1.248204
  H      3.131142    0.441786    1.041165
  H     -0.964017    0.670447   -1.726654
  H      0.665175    1.365075    1.955607
  H     -1.884918   -1.172228   -1.787708

 Total Charge           Charge          ....    0
 Multiplicity           Mult            ....    1
 Number of Electrons    NEL             ....   96
 Basis Dimension        Dim             ....  192

ORBITAL ENERGIES
----------------

  NO   OCC          E(Eh)            E(eV)
   0   2.0000     -18.783792      -511.1330
   1   2.0000     -18.781788      -511.0784
   2   2.0000     -18.778761      -510.9961
   3   2.0000     -18.768145      -510.7072
   4   2.0000     -18.741392      -509.9792
   5   2.0000     -18.739277      -509.9216
   6   2.0000      -9.995039      -271.9788
   7   2.0000      -9.950284      -270.7610
   8   2.0000      -9.949914      -270.7509
   9   2.0000      -9.945277      -270.6247
  10   2.0000      -9.943588      -270.5788
  11   2.0000      -9.941587      -270.5243
  12   2.0000      -0.997779       -27.1509
  13   2.0000      -0.958602       -26.0849
  14   2.0000      -0.952948       -25.9310
  15   2.0000      -0.932112       -25.3641
  16   2.0000      -0.919075       -25.0093
  17   2.0000      -0.914771       -24.8922
  18   2.0000      -0.703945       -19.1553
  19   2.0000      -0.691203       -18.8086
  20   2.0000      -0.623687       -16.9714
  21   2.0000      -0.602085       -16.3836
  22   2.0000      -0.574275       -15.6268
  23   2.0000      -0.533377       -14.5139
  24   2.0000      -0.506040       -13.7700
  25   2.0000      -0.497926       -13.5493
  26   2.0000      -0.490883       -13.3576
  27   2.0000      -0.474429       -12.9099
  28   2.0000      -0.460097       -12.5199
  29   2.0000      -0.429618       -11.6905
  30   2.0000      -0.418161       -11.3788
  31   2.0000      -0.399873       -10.8811
  32   2.0000      -0.393680       -10.7126
  33   2.0000      -0.388531       -10.5725
  34   2.0000      -0.360636        -9.8134
  35   2.0000      -0.358792        -9.7632
  36   2.0000      -0.334910        -9.1134
  37   2.0000      -0.328026        -8.9261
  38   2.0000      -0.316837        -8.6216
  39   2.0000      -0.308647        -8.3987
  40   2.0000      -0.305529        -8.3139
  41   2.0000      -0.268657        -7.3105
  42   2.0000      -0.259607        -7.0643
  43   2.0000      -0.254782        -6.9330
  44   2.0000      -0.245409        -6.6779
  45   2.0000      -0.237658        -6.4670
  46   2.0000      -0.210141        -5.7182
  47   2.0000      -0.202301        -5.5049
  48   0.0000       0.007993         0.2175
  49   0.0000       0.017717         0.4821
  50   0.0000       0.037069         1.0087
  51   0.0000       0.048639         1.3235
  52   0.0000       0.053243         1.4488

MULLIKEN ATOMIC CHARGES
-----------------------
   0 C :    0.053125
   1 C :    0.018773
   2 H :    0.073163
   3 C :   -0.018989
   4 H :    0.084146
   5 C :    0.060168
   6 H :    0.082621
   7 C :    0.018213
   8 H :    0.064787
   9 C :    0.198805
  10 H :    0.048860
  11 O :   -0.319008
  12 O :   -0.386091
  13 O :   -0.420787
  14 O :   -0.429062
  15 O :   -0.422595
  16 O :   -0.428996
  17 H :    0.108555
  18 H :    0.095633
  19 H :    0.301282
  20 H :    0.315181
  21 H :    0.283999
  22 H :    0.304810
  23 H :    0.313405
Sum of atomic charges:   -0.0000000

LOEWDIN ATOMIC CHARGES
----------------------
   0 C :   -0.123328
   1 C :   -0.080903
   2 H :    0.113842
   3 C :   -0.076959
   4 H :    0.115515
   5 C :   -0.069171
   6 H :    0.114044
   7 C :   -0.096871
   8 H :    0.110292
   9 C :   -0.004862
  10 H :    0.094241
  11 O :   -0.162439
  12 O :   -0.296195
  13 O :   -0.310262
  14 O :   -0.330117
  15 O :   -0.321860
  16 O :   -0.311675
  17 H :    0.123595
  18 H :    0.109650
  19 H :    0.286697
  20 H :    0.295650
  21 H :    0.260962
  22 H :    0.273139
  23 H :    0.287016

  Mayer bond orders larger than 0.100000
B(  0-C ,  1-C ) :   1.0305 B(  0-C , 16-O ) :   1.0317 B(  0-C , 17-H ) :   0.9240
B(  0-C , 18-H ) :   0.9224 B(  1-C ,  2-H ) :   0.8784 B(  1-C ,  3-C ) :   0.9293
B(  1-C , 11-O ) :   0.9882 B(  3-C ,  4-H ) :   0.9000 B(  3-C ,  5-C ) :   1.0419
B(  3-C , 15-O ) :   1.0828 B(  5-C ,  6-H ) :   0.8950 B(  5-C ,  7-C ) :   0.9508
B(  5-C , 14-O ) :   1.1047 B(  7-C ,  8-H ) :   0.8865 B(  7-C ,  9-C ) :   0.9699
B(  7-C , 13-O ) :   1.0169 B(  9-C , 10-H ) :   0.8769 B(  9-C , 11-O ) :   1.0404
B(  9-C , 12-O ) :   1.1256 B( 12-O , 19-H ) :   0.8450 B( 13-O , 20-H ) :   0.8409
B( 13-O , 22-H ) :   0.1021 B( 14-O , 21-H ) :   0.7831 B( 15-O , 22-H ) :   0.8096
B( 16-O , 21-H ) :   0.1607 B( 16-O , 23-H ) :   0.8242

Dispersion correction           -0.025536820
FINAL SINGLE POINT ENERGY      -685.694279616648

DIPOLE MOMENT
-------------

Method             : SCF
Type of density    : Electron Density
Multiplicity       :   1
Irrep              :   0
Energy             :  -685.8290409937629875 Eh
Relativity type    :
Basis              : AO
                                X                 Y                 Z
Electronic contribution:      2.280846654      -0.627648980      -0.830813335
Nuclear contribution   :     -2.003951437      -0.255903827       0.772514856
                        -----------------------------------------
Total Dipole Moment    :      0.276895217      -0.883552807      -0.058298479
                        -----------------------------------------
Magnitude (a.u.)       :      0.927758178
Magnitude (Debye)      :      2.358173881

Rotational constants in cm-1:             0.040988             0.028254             0.023762
Rotational constants in MHz :          1228.800195           847.022499           712.371294

                             ****ORCA TERMINATED NORMALLY****
TOTAL RUN TIME: 0 days 0 hours 0 minutes 14 seconds 496 msec
