                         Program Version 6.0.1  -  RELEASE   -
|  1> ! r2scan-3c def2/J RI DEFGRID2 scfconv6 printgap
|  2> %output
|  3>     printlevel normal
|  4> end
|  5> * xyz 0 1
|  6> C 0.5305522993 -0.8907819452 -1.257511342
|  7> C 0.4027378073 -0.0205304972 1.78286e-05
|  8> C 1.5011229174 1.0470779058 0.0010571429
|  9> C 0.5292848433 -0.8920086052 1.2567969936
| 10> O -0.8080516153 0.737240892 -0.0002807033
| 11> C -2.022108986 0.0323236597 -8.39529e-05
| 12> H 1.5373676306 -1.2939846077 -1.3214496558
| 13> H -0.168595019 -1.7235999307 -1.2352734986
| 14> H 0.3357809664 -0.2912666237 -2.143812933
| 15> H 1.3994240042 1.6744574475 0.8820082461
| 16> H 1.3999538601 1.6755802957 -0.8791524169
| 17> H 2.4841591111 0.585416205 0.001053155
| 18> H 0.3326624494 -0.2935774406 2.1434347971
| 19> H -0.1691700962 -1.7253674931 1.2325580801
| 20> H 1.5363280676 -1.2944558698 1.321926176
| 21> H -2.1403206692 -0.5927801588 -0.8916355909
| 22> H -2.8003916728 0.7945101934 -0.001108598
| 23> H -2.1409708717 -0.5910457476 0.8926110838
| 24> *
| 25>
| 26>                          ****END OF INPUT****

CARTESIAN COORDINATES (ANGSTROEM)
---------------------------------
  C      0.530552   -0.890782   -1.257511
  C      0.402738   -0.020530    0.000018
  C      1.501123    1.047078    0.001057
  C      0.529285   -0.892009    1.256797
  O     -0.808052    0.737241   -0.000281
  C     -2.022109    0.032324   -0.000084
  H      1.537368   -1.293985   -1.321450
  H     -0.168595   -1.723600   -1.235273
  H      0.335781   -0.291267   -2.143813
  H      1.399424    1.674457    0.882008
  H      1.399954    1.675580   -0.879152
  H      2.484159    0.585416    0.001053
  H      0.332662   -0.293577    2.143435
  H     -0.169170   -1.725367    1.232558
  H      1.536328   -1.294456    1.321926
  H     -2.140321   -0.592780   -0.891636
  H     -2.800392    0.794510   -0.001109
  H     -2.140971   -0.591046    0.892611

 Total Charge           Charge          ....    0
 Multiplicity           Mult            ....    1
 Number of Electrons    NEL             ....   50
 Basis Dimension        Dim             ....  179

ORBITAL ENERGIES
----------------

  NO   OCC          E(Eh)            E(eV)
   0   2.0000     -18.943010      -515.4655
   1   2.0000     -10.087994      -274.5083
   2   2.0000     -10.064546      -273.8702
   3   2.0000     -10.016441      -272.5612
   4   2.0000     -10.016427      -272.5608
   5   2.0000     -10.011994      -272.4402
   6   2.0000      -0.990772       -26.9603
   7   2.0000      -0.763164       -20.7668
   8   2.0000      -0.662763       -18.0347
   9   2.0000      -0.656682       -17.8692
  10   2.0000      -0.636061       -17.3081
  11   2.0000      -0.515698       -14.0329
  12   2.0000      -0.451843       -12.2953
  13   2.0000      -0.429978       -11.7003
  14   2.0000      -0.425547       -11.5797
  15   2.0000      -0.397322       -10.8117
  16   2.0000      -0.382916       -10.4197
  17   2.0000      -0.368035       -10.0147
  18   2.0000      -0.351629        -9.5683
  19   2.0000      -0.343197        -9.3389
  20   2.0000      -0.333416        -9.0727
  21   2.0000      -0.310152        -8.4397
  22   2.0000      -0.308756        -8.4017
  23   2.0000      -0.265160        -7.2154
  24   2.0000      -0.216344        -5.8870
  25   0.0000       0.073099         1.9891
  26   0.0000       0.092616         2.5202
  27   0.0000       0.120440         3.2773
  28   0.0000       0.130419         3.5489
  29   0.0000       0.136766         3.7216

MULLIKEN ATOMIC CHARGES
-----------------------
   0 C :   -0.487826
   1 C :    0.147836
   2 C :   -0.459332
   3 C :   -0.488057
   4 O :   -0.212718
   5 C :   -0.304582
   6 H :    0.151097
   7 H :    0.148757
   8 H :    0.165913
   9 H :    0.155962
  10 H :    0.155993
  11 H :    0.142744
  12 H :    0.165961
  13 H :    0.148828
  14 H :    0.151106
  15 H :    0.135686
  16 H :    0.146886
  17 H :    0.135746
Sum of atomic charges:   -0.0000000

LOEWDIN ATOMIC CHARGES
----------------------
   0 C :   -0.389966
   1 C :    0.058891
   2 C :   -0.367683
   3 C :   -0.389977
   4 O :   -0.781857
   5 C :   -0.066788
   6 H :    0.161753
   7 H :    0.156530
   8 H :    0.165569
   9 H :    0.165214
  10 H :    0.165225
  11 H :    0.155808
  12 H :    0.165577
  13 H :    0.156553
  14 H :    0.161765
  15 H :    0.153720
  16 H :    0.175937
  17 H :    0.153730

  Mayer bond orders larger than 0.100000
B(  0-C ,  1-C ) :   0.9235 B(  0-C ,  6-H ) :   0.9686 B(  0-C ,  7-H ) :   0.9656
B(  0-C ,  8-H ) :   0.9731 B(  1-C ,  2-C ) :   0.9528 B(  1-C ,  3-C ) :   0.9232
B(  1-C ,  4-O ) :   0.8385 B(  2-C ,  9-H ) :   0.9738 B(  2-C , 10-H ) :   0.9738
B(  2-C , 11-H ) :   0.9750 B(  3-C , 12-H ) :   0.9731 B(  3-C , 13-H ) :   0.9656
B(  3-C , 14-H ) :   0.9685 B(  4-O ,  5-C ) :   0.9105 B(  5-C , 15-H ) :   0.9637
B(  5-C , 16-H ) :   0.9716 B(  5-C , 17-H ) :   0.9638

Dispersion correction           -0.004530562
FINAL SINGLE POINT ENERGY      -272.890083766272

DIPOLE MOMENT
-------------

Method             : SCF
Type of density    : Electron Density
Multiplicity       :   1
Irrep              :   0
Energy             :  -272.8969255400078850 Eh
Relativity type    :
Basis              : AO
                                X                 Y                 Z
Electronic contribution:     -1.451002317       2.413618985      -0.000870434
Nuclear contribution   :      1.494912613      -2.874957030       0.001083020
                        -----------------------------------------
Total Dipole Moment    :      0.043910296      -0.461338044       0.000212586
                        -----------------------------------------
Magnitude (a.u.)       :      0.463423079
Magnitude (Debye)      :      1.177927856

Rotational constants in cm-1:             0.146784             0.091289             0.090860
Rotational constants in MHz :          4400.486713          2736.767895          2723.928433

                             ****ORCA TERMINATED NORMALLY****
TOTAL RUN TIME: 0 days 0 hours 0 minutes 22 seconds 696 msec
