                         Program Version 6.0.1  -  RELEASE   -
|  1> ! r2scan-3c def2/J RI DEFGRID2 scfconv6 printgap
|  2> %output
|  3>     printlevel normal
|  4> end
|  5> * xyz 0 1
|  6> C 3.2371502774 -0.1146921342 1.0141854284
|  7> C 1.9085248319 -0.109907932 0.3324044627
|  8> C 1.3406194452 1.0122515822 -0.1210725341
|  9> C 0.0353170156 1.0628615777 -0.7793527311
| 10> O -0.3736662654 2.0677037515 -1.3239706886
| 11> C -0.7859773087 -0.2141152801 -0.6971238999
| 12> H -1.5236120054 -0.1985023797 -1.5063969583
| 13> C 0.1553832117 -1.4037795645 -0.8934837694
| 14> C 1.2420582063 -1.4419930331 0.1762258903
| 15> C -1.557078787 -0.216364157 0.6429634519
| 16> C -2.5864457554 0.9130911337 0.6498439593
| 17> C -2.2682203862 -1.5470756941 0.8868491694
| 18> H 3.5986679275 0.8956614253 1.1841845299
| 19> H 3.9667348227 -0.6489068666 0.4053148274
| 20> H 3.1671904884 -0.6334107643 1.9697791745
| 21> H 1.8490731863 1.9628657288 -0.0331287469
| 22> H -0.4049367187 -2.339205575 -0.8991087773
| 23> H 0.6306658473 -1.2997335102 -1.8729264698
| 24> H 0.8128396014 -1.7307227013 1.1409255188
| 25> H 1.9905860671 -2.1976896756 -0.0760911278
| 26> H -0.8451790264 -0.0391777808 1.4569294246
| 27> H -2.12228563 1.868131724 0.4202518109
| 28> H -3.0612843714 0.9868613775 1.6259119221
| 29> H -3.357362891 0.7238508244 -0.0942279997
| 30> H -2.899117798 -1.8006244833 0.0375706036
| 31> H -2.9007739507 -1.4673544268 1.7683460773
| 32> H -1.5656242439 -2.3593327526 1.0528206433
| 33> *
| 34>
| 35>                          ****END OF INPUT****

CARTESIAN COORDINATES (ANGSTROEM)
---------------------------------
  C      3.237150   -0.114692    1.014185
  C      1.908525   -0.109908    0.332404
  C      1.340619    1.012252   -0.121073
  C      0.035317    1.062862   -0.779353
  O     -0.373666    2.067704   -1.323971
  C     -0.785977   -0.214115   -0.697124
  H     -1.523612   -0.198502   -1.506397
  C      0.155383   -1.403780   -0.893484
  C      1.242058   -1.441993    0.176226
  C     -1.557079   -0.216364    0.642963
  C     -2.586446    0.913091    0.649844
  C     -2.268220   -1.547076    0.886849
  H      3.598668    0.895661    1.184185
  H      3.966735   -0.648907    0.405315
  H      3.167190   -0.633411    1.969779
  H      1.849073    1.962866   -0.033129
  H     -0.404937   -2.339206   -0.899109
  H      0.630666   -1.299734   -1.872926
  H      0.812840   -1.730723    1.140926
  H      1.990586   -2.197690   -0.076091
  H     -0.845179   -0.039178    1.456929
  H     -2.122286    1.868132    0.420252
  H     -3.061284    0.986861    1.625912
  H     -3.357363    0.723851   -0.094228
  H     -2.899118   -1.800624    0.037571
  H     -2.900774   -1.467354    1.768346
  H     -1.565624   -2.359333    1.052821

 Total Charge           Charge          ....    0
 Multiplicity           Mult            ....    1
 Number of Electrons    NEL             ....   84
 Basis Dimension        Dim             ....  294

ORBITAL ENERGIES
----------------

  NO   OCC          E(Eh)            E(eV)
   0   2.0000     -18.923830      -514.9436
   1   2.0000     -10.103289      -274.9245
   2   2.0000     -10.067748      -273.9574
   3   2.0000     -10.048224      -273.4261
   4   2.0000     -10.042286      -273.2645
   5   2.0000     -10.041798      -273.2512
   6   2.0000     -10.038905      -273.1725
   7   2.0000     -10.036049      -273.0948
   8   2.0000     -10.029683      -272.9216
   9   2.0000     -10.021888      -272.7094
  10   2.0000     -10.010352      -272.3955
  11   2.0000      -0.993449       -27.0331
  12   2.0000      -0.825989       -22.4763
  13   2.0000      -0.780074       -21.2269
  14   2.0000      -0.729535       -19.8517
  15   2.0000      -0.700022       -19.0486
  16   2.0000      -0.664684       -18.0870
  17   2.0000      -0.650646       -17.7050
  18   2.0000      -0.590979       -16.0813
  19   2.0000      -0.548426       -14.9234
  20   2.0000      -0.537067       -14.6143
  21   2.0000      -0.484154       -13.1745
  22   2.0000      -0.453903       -12.3513
  23   2.0000      -0.437570       -11.9069
  24   2.0000      -0.427077       -11.6214
  25   2.0000      -0.415894       -11.3171
  26   2.0000      -0.409128       -11.1330
  27   2.0000      -0.398104       -10.8330
  28   2.0000      -0.378218       -10.2918
  29   2.0000      -0.374507       -10.1908
  30   2.0000      -0.367385        -9.9971
  31   2.0000      -0.360299        -9.8042
  32   2.0000      -0.353793        -9.6272
  33   2.0000      -0.349311        -9.5052
  34   2.0000      -0.339155        -9.2289
  35   2.0000      -0.321502        -8.7485
  36   2.0000      -0.310986        -8.4623
  37   2.0000      -0.305052        -8.3009
  38   2.0000      -0.292288        -7.9536
  39   2.0000      -0.284825        -7.7505
  40   2.0000      -0.242505        -6.5989
  41   2.0000      -0.200420        -5.4537
  42   0.0000      -0.074449        -2.0259
  43   0.0000       0.033850         0.9211
  44   0.0000       0.063517         1.7284
  45   0.0000       0.095294         2.5931
  46   0.0000       0.097644         2.6570

MULLIKEN ATOMIC CHARGES
-----------------------
   0 C :   -0.518889
   1 C :    0.199269
   2 C :   -0.292680
   3 C :    0.193605
   4 O :   -0.341910
   5 C :   -0.090289
   6 H :    0.195825
   7 C :   -0.392612
   8 C :   -0.304386
   9 C :   -0.091851
  10 C :   -0.506121
  11 C :   -0.497209
  12 H :    0.160058
  13 H :    0.167925
  14 H :    0.156601
  15 H :    0.167979
  16 H :    0.174553
  17 H :    0.171733
  18 H :    0.182480
  19 H :    0.163365
  20 H :    0.170497
  21 H :    0.173597
  22 H :    0.146227
  23 H :    0.150495
  24 H :    0.166213
  25 H :    0.150280
  26 H :    0.145245
Sum of atomic charges:   -0.0000000

LOEWDIN ATOMIC CHARGES
----------------------
   0 C :   -0.386449
   1 C :   -0.067708
   2 C :   -0.168864
   3 C :    0.221631
   4 O :   -0.467372
   5 C :   -0.192493
   6 H :    0.183733
   7 C :   -0.273581
   8 C :   -0.278752
   9 C :   -0.219431
  10 C :   -0.403529
  11 C :   -0.411335
  12 H :    0.163112
  13 H :    0.168620
  14 H :    0.167055
  15 H :    0.182138
  16 H :    0.162479
  17 H :    0.168040
  18 H :    0.175116
  19 H :    0.168460
  20 H :    0.163657
  21 H :    0.172698
  22 H :    0.150962
  23 H :    0.157103
  24 H :    0.157651
  25 H :    0.157152
  26 H :    0.149903

  Mayer bond orders larger than 0.100000
B(  0-C ,  1-C ) :   0.8415 B(  0-C , 12-H ) :   0.9928 B(  0-C , 13-H ) :   0.9674
B(  0-C , 14-H ) :   0.9622 B(  1-C ,  2-C ) :   1.6830 B(  1-C ,  8-C ) :   0.8702
B(  2-C ,  3-C ) :   1.0756 B(  2-C , 15-H ) :   0.9377 B(  3-C ,  4-O ) :   1.9602
B(  3-C ,  5-C ) :   0.8965 B(  5-C ,  6-H ) :   0.9893 B(  5-C ,  7-C ) :   0.8186
B(  5-C ,  9-C ) :   0.8795 B(  7-C ,  8-C ) :   0.8923 B(  7-C , 16-H ) :   0.9861
B(  7-C , 17-H ) :   1.0036 B(  8-C , 18-H ) :   0.9643 B(  8-C , 19-H ) :   0.9635
B(  9-C , 10-C ) :   0.9250 B(  9-C , 11-C ) :   0.8605 B(  9-C , 20-H ) :   0.9508
B( 10-C , 21-H ) :   0.9577 B( 10-C , 22-H ) :   0.9778 B( 10-C , 23-H ) :   0.9847
B( 11-C , 24-H ) :   0.9939 B( 11-C , 25-H ) :   0.9717 B( 11-C , 26-H ) :   0.9702

Dispersion correction           -0.009830526
FINAL SINGLE POINT ENERGY      -465.794007430842

DIPOLE MOMENT
-------------

Method             : SCF
Type of density    : Electron Density
Multiplicity       :   1
Irrep              :   0
Energy             :  -465.7956574601334978 Eh
Relativity type    :
Basis              : AO
                                X                 Y                 Z
Electronic contribution:      3.182173068       6.424570268      -5.372173819
Nuclear contribution   :     -2.505209499      -7.734814901       6.153647911
                        -----------------------------------------
Total Dipole Moment    :      0.676963569      -1.310244633       0.781474092
                        -----------------------------------------
Magnitude (a.u.)       :      1.669048360
Magnitude (Debye)      :      4.242383785

Rotational constants in cm-1:             0.051583             0.029484             0.023140
Rotational constants in MHz :          1546.434239           883.917079           693.734265

                             ****ORCA TERMINATED NORMALLY****
TOTAL RUN TIME: 0 days 0 hours 1 minutes 8 seconds 497 msec
