                         Program Version 6.0.1  -  RELEASE   -
|  1> ! pbe def2-sv(p) def2/J RI DEFGRID1 loosescf d4 GCP(DFT/SV(P)) printgap
|  2> %output
|  3>     printlevel normal
|  4> end
|  5> * xyz 0 1
|  6> C -2.369929236 -1.1858711891 -0.3564758272
|  7> C -1.0659939684 -0.6394147 0.2327478526
|  8> H -1.141582472 -0.6385678714 1.3331922395
|  9> C -0.785213596 0.7989305427 -0.2315089061
| 10> H -0.8270520814 0.8295158557 -1.3339036212
| 11> C 0.6219918955 1.2384355601 0.2070040906
| 12> H 0.6256484901 1.3022755977 1.3117246525
| 13> C 1.6646857772 0.2017508191 -0.2300119034
| 14> H 1.6920195504 0.1589339499 -1.3248312747
| 15> C 1.2323596474 -1.1815110461 0.317659417
| 16> H 1.199737522 -1.1499488195 1.4205174471
| 17> O -0.0483086745 -1.514535116 -0.1910105451
| 18> O 2.1089287764 -2.1881579906 -0.0046141677
| 19> O 2.9658799671 0.5228031892 0.1614528591
| 20> O 0.9405561192 2.4868350999 -0.3422719676
| 21> O -1.6900958143 1.7245567346 0.3176823613
| 22> O -3.4531084552 -0.4064630491 0.1072496138
| 23> H -2.4699428356 -2.2318805893 -0.0458017127
| 24> H -2.3025328249 -1.1516107474 -1.45155381
| 25> H 2.2021693365 -2.2325844988 -0.9644249722
| 26> H 2.9757583392 0.7509165785 1.098114257
| 27> H 0.1809036433 3.0643106084 -0.1932532676
| 28> H -2.5702348394 1.3210057079 0.308865525
| 29> H -4.275894436 -0.7958970963 -0.2063601279
| 30> *
| 31>
| 32>                          ****END OF INPUT****

CARTESIAN COORDINATES (ANGSTROEM)
---------------------------------
  C     -2.369929   -1.185871   -0.356476
  C     -1.065994   -0.639415    0.232748
  H     -1.141582   -0.638568    1.333192
  C     -0.785214    0.798931   -0.231509
  H     -0.827052    0.829516   -1.333904
  C      0.621992    1.238436    0.207004
  H      0.625648    1.302276    1.311725
  C      1.664686    0.201751   -0.230012
  H      1.692020    0.158934   -1.324831
  C      1.232360   -1.181511    0.317659
  H      1.199738   -1.149949    1.420517
  O     -0.048309   -1.514535   -0.191011
  O      2.108929   -2.188158   -0.004614
  O      2.965880    0.522803    0.161453
  O      0.940556    2.486835   -0.342272
  O     -1.690096    1.724557    0.317682
  O     -3.453108   -0.406463    0.107250
  H     -2.469943   -2.231881   -0.045802
  H     -2.302533   -1.151611   -1.451554
  H      2.202169   -2.232584   -0.964425
  H      2.975758    0.750917    1.098114
  H      0.180904    3.064311   -0.193253
  H     -2.570235    1.321006    0.308866
  H     -4.275894   -0.795897   -0.206360

 Total Charge           Charge          ....    0
 Multiplicity           Mult            ....    1
 Number of Electrons    NEL             ....   96
 Basis Dimension        Dim             ....  192

ORBITAL ENERGIES
----------------

  NO   OCC          E(Eh)            E(eV)
   0   2.0000     -18.786332      -511.2021
   1   2.0000     -18.774237      -510.8730
   2   2.0000     -18.757632      -510.4211
   3   2.0000     -18.747388      -510.1424
   4   2.0000     -18.745455      -510.0898
   5   2.0000     -18.741990      -509.9955
   6   2.0000      -9.985048      -271.7070
   7   2.0000      -9.952083      -270.8099
   8   2.0000      -9.951599      -270.7968
   9   2.0000      -9.940749      -270.5015
  10   2.0000      -9.939455      -270.4663
  11   2.0000      -9.937770      -270.4205
  12   2.0000      -0.984685       -26.7946
  13   2.0000      -0.959165       -26.1002
  14   2.0000      -0.939439       -25.5634
  15   2.0000      -0.930007       -25.3068
  16   2.0000      -0.916812       -24.9477
  17   2.0000      -0.909670       -24.7534
  18   2.0000      -0.704299       -19.1650
  19   2.0000      -0.694402       -18.8956
  20   2.0000      -0.621569       -16.9137
  21   2.0000      -0.583093       -15.8668
  22   2.0000      -0.559381       -15.2215
  23   2.0000      -0.541446       -14.7335
  24   2.0000      -0.513121       -13.9627
  25   2.0000      -0.491918       -13.3858
  26   2.0000      -0.487374       -13.2621
  27   2.0000      -0.456876       -12.4322
  28   2.0000      -0.440831       -11.9956
  29   2.0000      -0.432528       -11.7697
  30   2.0000      -0.424767       -11.5585
  31   2.0000      -0.404364       -11.0033
  32   2.0000      -0.396870       -10.7994
  33   2.0000      -0.385905       -10.5010
  34   2.0000      -0.353602        -9.6220
  35   2.0000      -0.346752        -9.4356
  36   2.0000      -0.333010        -9.0617
  37   2.0000      -0.323065        -8.7911
  38   2.0000      -0.310594        -8.4517
  39   2.0000      -0.298221        -8.1150
  40   2.0000      -0.289030        -7.8649
  41   2.0000      -0.264854        -7.2070
  42   2.0000      -0.249881        -6.7996
  43   2.0000      -0.247329        -6.7302
  44   2.0000      -0.239479        -6.5165
  45   2.0000      -0.225906        -6.1472
  46   2.0000      -0.215084        -5.8527
  47   2.0000      -0.197908        -5.3853
  48   0.0000      -0.001212        -0.0330
  49   0.0000       0.026714         0.7269
  50   0.0000       0.034654         0.9430
  51   0.0000       0.042619         1.1597
  52   0.0000       0.061397         1.6707

MULLIKEN ATOMIC CHARGES
-----------------------
   0 C :    0.072091
   1 C :   -0.013406
   2 H :    0.063521
   3 C :    0.026993
   4 H :    0.049764
   5 C :    0.069950
   6 H :    0.034052
   7 C :    0.057173
   8 H :    0.053515
   9 C :    0.181397
  10 H :    0.036823
  11 O :   -0.302930
  12 O :   -0.356815
  13 O :   -0.393817
  14 O :   -0.402364
  15 O :   -0.435294
  16 O :   -0.446408
  17 H :    0.095189
  18 H :    0.077496
  19 H :    0.302502
  20 H :    0.297471
  21 H :    0.307377
  22 H :    0.307324
  23 H :    0.318396
Sum of atomic charges:   -0.0000000

LOEWDIN ATOMIC CHARGES
----------------------
   0 C :   -0.121217
   1 C :   -0.070347
   2 H :    0.105775
   3 C :   -0.079653
   4 H :    0.101473
   5 C :   -0.077036
   6 H :    0.093868
   7 C :   -0.091403
   8 H :    0.115540
   9 C :   -0.006357
  10 H :    0.091924
  11 O :   -0.153623
  12 O :   -0.275651
  13 O :   -0.298969
  14 O :   -0.315295
  15 O :   -0.334107
  16 O :   -0.333500
  17 H :    0.108919
  18 H :    0.102914
  19 H :    0.289442
  20 H :    0.286078
  21 H :    0.287262
  22 H :    0.276036
  23 H :    0.297928

  Mayer bond orders larger than 0.100000
B(  0-C ,  1-C ) :   1.0595 B(  0-C , 16-O ) :   1.0440 B(  0-C , 17-H ) :   0.9184
B(  0-C , 18-H ) :   0.9077 B(  1-C ,  2-H ) :   0.8733 B(  1-C ,  3-C ) :   1.0098
B(  1-C , 11-O ) :   1.0072 B(  3-C ,  4-H ) :   0.8667 B(  3-C ,  5-C ) :   1.0154
B(  3-C , 15-O ) :   1.0760 B(  5-C ,  6-H ) :   0.8661 B(  5-C ,  7-C ) :   1.0023
B(  5-C , 14-O ) :   1.1138 B(  7-C ,  8-H ) :   0.8568 B(  7-C ,  9-C ) :   0.9590
B(  7-C , 13-O ) :   1.0715 B(  9-C , 10-H ) :   0.8752 B(  9-C , 11-O ) :   0.9767
B(  9-C , 12-O ) :   1.1794 B( 12-O , 19-H ) :   0.8451 B( 13-O , 20-H ) :   0.8505
B( 14-O , 21-H ) :   0.8374 B( 15-O , 22-H ) :   0.8044 B( 16-O , 22-H ) :   0.1055
B( 16-O , 23-H ) :   0.8416

Dispersion correction           -0.023833699
FINAL SINGLE POINT ENERGY      -685.697365802316

DIPOLE MOMENT
-------------

Method             : SCF
Type of density    : Electron Density
Multiplicity       :   1
Irrep              :   0
Energy             :  -685.8283354986285758 Eh
Relativity type    :
Basis              : AO
                                X                 Y                 Z
Electronic contribution:      2.794607936       0.209997942      -0.063456224
Nuclear contribution   :     -4.407516925      -0.716444341      -0.044046146
                        -----------------------------------------
Total Dipole Moment    :     -1.612908990      -0.506446399      -0.107502370
                        -----------------------------------------
Magnitude (a.u.)       :      1.693965798
Magnitude (Debye)      :      4.305718877

Rotational constants in cm-1:             0.043971             0.024508             0.016456
Rotational constants in MHz :          1318.203426           734.744146           493.334268

                             ****ORCA TERMINATED NORMALLY****
TOTAL RUN TIME: 0 days 0 hours 0 minutes 7 seconds 954 msec
