                         Program Version 6.0.1  -  RELEASE   -
|  1> ! r2scan-3c def2/J RI DEFGRID2 scfconv6 printgap
|  2> %output
|  3>     printlevel normal
|  4> end
|  5> * xyz 0 1
|  6> C -2.81150641 1.0420546193 5.70409e-05
|  7> O -2.2170529348 -0.2331016246 -3.92579e-05
|  8> C -0.8590391022 -0.3165060608 -2.69975e-05
|  9> C -0.3283034926 -1.6089379463 -6.108e-06
| 10> C 1.0368734217 -1.7933023957 2.07393e-05
| 11> C 1.8981630398 -0.70776444 2.60776e-05
| 12> C 1.3731069948 0.5757553552 -3.8092e-06
| 13> C -0.0040752979 0.7755802436 -3.23622e-05
| 14> O 2.1660355013 1.6834307055 -4.8773e-06
| 15> H -2.5380300633 1.6127482082 -0.8931675064
| 16> H -2.5378591818 1.6126905559 0.8932649737
| 17> H -3.8861844848 0.8663644883 0.0001535031
| 18> H -1.0086280362 -2.4446912898 -1.0661e-05
| 19> H 1.4421067076 -2.7939072165 3.53283e-05
| 20> H 2.9693989089 -0.8559910494 5.08383e-05
| 21> H -0.361320847 1.7918108668 -6.00964e-05
| 22> H 3.0931145493 1.4168656279 2.21278e-05
| 23> *
| 24>
| 25>                          ****END OF INPUT****

CARTESIAN COORDINATES (ANGSTROEM)
---------------------------------
  C     -2.811506    1.042055    0.000057
  O     -2.217053   -0.233102   -0.000039
  C     -0.859039   -0.316506   -0.000027
  C     -0.328303   -1.608938   -0.000006
  C      1.036873   -1.793302    0.000021
  C      1.898163   -0.707764    0.000026
  C      1.373107    0.575755   -0.000004
  C     -0.004075    0.775580   -0.000032
  O      2.166036    1.683431   -0.000005
  H     -2.538030    1.612748   -0.893168
  H     -2.537859    1.612691    0.893265
  H     -3.886184    0.866364    0.000154
  H     -1.008628   -2.444691   -0.000011
  H      1.442107   -2.793907    0.000035
  H      2.969399   -0.855991    0.000051
  H     -0.361321    1.791811   -0.000060
  H      3.093115    1.416866    0.000022

 Total Charge           Charge          ....    0
 Multiplicity           Mult            ....    1
 Number of Electrons    NEL             ....   66
 Basis Dimension        Dim             ....  221

ORBITAL ENERGIES
----------------

  NO   OCC          E(Eh)            E(eV)
   0   2.0000     -18.986026      -516.6360
   1   2.0000     -18.985394      -516.6188
   2   2.0000     -10.097801      -274.7751
   3   2.0000     -10.095724      -274.7186
   4   2.0000     -10.085690      -274.4456
   5   2.0000     -10.036534      -273.1080
   6   2.0000     -10.027987      -272.8754
   7   2.0000     -10.026775      -272.8424
   8   2.0000     -10.021489      -272.6986
   9   2.0000      -1.036272       -28.1984
  10   2.0000      -1.030121       -28.0310
  11   2.0000      -0.819215       -22.2920
  12   2.0000      -0.724284       -19.7088
  13   2.0000      -0.716432       -19.4951
  14   2.0000      -0.663357       -18.0508
  15   2.0000      -0.589536       -16.0421
  16   2.0000      -0.574099       -15.6220
  17   2.0000      -0.522676       -14.2227
  18   2.0000      -0.469237       -12.7686
  19   2.0000      -0.457855       -12.4589
  20   2.0000      -0.454003       -12.3541
  21   2.0000      -0.438325       -11.9274
  22   2.0000      -0.413749       -11.2587
  23   2.0000      -0.387854       -10.5540
  24   2.0000      -0.381888       -10.3917
  25   2.0000      -0.360353        -9.8057
  26   2.0000      -0.345642        -9.4054
  27   2.0000      -0.332313        -9.0427
  28   2.0000      -0.317383        -8.6364
  29   2.0000      -0.303080        -8.2472
  30   2.0000      -0.281121        -7.6497
  31   2.0000      -0.218815        -5.9543
  32   2.0000      -0.194915        -5.3039
  33   0.0000      -0.022775        -0.6197
  34   0.0000      -0.009985        -0.2717
  35   0.0000       0.057502         1.5647
  36   0.0000       0.070618         1.9216
  37   0.0000       0.088671         2.4129

MULLIKEN ATOMIC CHARGES
-----------------------
   0 C :   -0.336010
   1 O :   -0.182375
   2 C :    0.389720
   3 C :   -0.340810
   4 C :   -0.101674
   5 C :   -0.366283
   6 C :    0.419733
   7 C :   -0.439579
   8 O :   -0.414833
   9 H :    0.153235
  10 H :    0.153235
  11 H :    0.153999
  12 H :    0.157392
  13 H :    0.148485
  14 H :    0.136540
  15 H :    0.159009
  16 H :    0.310217
Sum of atomic charges:    0.0000000

LOEWDIN ATOMIC CHARGES
----------------------
   0 C :   -0.055894
   1 O :   -0.678224
   2 C :    0.198438
   3 C :   -0.159565
   4 C :   -0.143311
   5 C :   -0.200821
   6 C :    0.191295
   7 C :   -0.152648
   8 O :   -0.496179
   9 H :    0.165254
  10 H :    0.165257
  11 H :    0.179749
  12 H :    0.179951
  13 H :    0.169220
  14 H :    0.167527
  15 H :    0.188011
  16 H :    0.281942

  Mayer bond orders larger than 0.100000
B(  0-C ,  1-O ) :   0.8639 B(  0-C ,  9-H ) :   0.9632 B(  0-C , 10-H ) :   0.9632
B(  0-C , 11-H ) :   0.9680 B(  1-O ,  2-C ) :   1.0335 B(  2-C ,  3-C ) :   1.3884
B(  2-C ,  7-C ) :   1.3434 B(  3-C ,  4-C ) :   1.4195 B(  3-C , 12-H ) :   0.9448
B(  4-C ,  5-C ) :   1.3920 B(  4-C , 13-H ) :   0.9437 B(  5-C ,  6-C ) :   1.3571
B(  5-C , 14-H ) :   0.9358 B(  6-C ,  7-C ) :   1.4763 B(  6-C ,  8-O ) :   0.8852
B(  7-C ,  8-O ) :   0.1346 B(  7-C , 15-H ) :   0.9019 B(  8-O , 16-H ) :   0.8842

Dispersion correction           -0.005312771
FINAL SINGLE POINT ENERGY      -421.903166284453

DIPOLE MOMENT
-------------

Method             : SCF
Type of density    : Electron Density
Multiplicity       :   1
Irrep              :   0
Energy             :  -421.9059995021722784 Eh
Relativity type    :
Basis              : AO
                                X                 Y                 Z
Electronic contribution:      2.878328188      -0.940827081      -0.000211960
Nuclear contribution   :     -2.653340885       1.152814980       0.000270015
                        -----------------------------------------
Total Dipole Moment    :      0.224987304       0.211987899       0.000058055
                        -----------------------------------------
Magnitude (a.u.)       :      0.309124829
Magnitude (Debye)      :      0.785732871

Rotational constants in cm-1:             0.096386             0.043309             0.030054
Rotational constants in MHz :          2889.581997          1298.374940           900.982799

                             ****ORCA TERMINATED NORMALLY****
TOTAL RUN TIME: 0 days 0 hours 0 minutes 23 seconds 450 msec
