                         Program Version 6.0.1  -  RELEASE   -
|  1> ! r2scan-3c def2/J RI DEFGRID2 scfconv6 printgap
|  2> %output
|  3>     printlevel normal
|  4> end
|  5> * xyz 0 1
|  6> C -2.1944439346 -0.9006998344 -0.1740986554
|  7> C -1.1341988133 -0.3354648034 0.7988622379
|  8> H -1.6181197923 -0.3350717559 1.7873592568
|  9> C -0.7319315878 1.122208169 0.4859506476
| 10> H -1.5881994728 1.6259871855 0.0098470586
| 11> C 0.4765208184 1.2425578614 -0.4700143195
| 12> H 0.813724011 2.2874694826 -0.4193458986
| 13> C 1.6110549394 0.3296593057 0.0119294311
| 14> H 2.4105844997 0.3125216462 -0.7388745308
| 15> C 1.0699331944 -1.1178017873 0.1348337543
| 16> H 1.8353151325 -1.7347695412 0.6269291394
| 17> O -0.0338183728 -1.2134690325 0.987310118
| 18> O 0.8486383492 -1.6370545045 -1.1500475318
| 19> O 2.1925491041 0.7797934406 1.1979603617
| 20> O 0.0862588142 0.9615300948 -1.796361911
| 21> O -0.3639472341 1.8066442357 1.6662463328
| 22> O -1.7811491276 -1.024289756 -1.5071769287
| 23> H -3.0905245463 -0.2682353823 -0.1028130656
| 24> H -2.4520762134 -1.910989399 0.1537866799
| 25> H -0.1136003946 -1.7508537133 -1.2930471654
| 26> H 1.4857764944 1.0394412678 1.8076559084
| 27> H 0.5953768388 0.1947792531 -2.1060067601
| 28> H -1.1082417698 1.8297200481 2.2777692845
| 29> H -1.4652991279 -0.158854868 -1.8300954494
| 30> *
| 31>
| 32>                          ****END OF INPUT****

CARTESIAN COORDINATES (ANGSTROEM)
---------------------------------
  C     -2.194444   -0.900700   -0.174099
  C     -1.134199   -0.335465    0.798862
  H     -1.618120   -0.335072    1.787359
  C     -0.731932    1.122208    0.485951
  H     -1.588199    1.625987    0.009847
  C      0.476521    1.242558   -0.470014
  H      0.813724    2.287469   -0.419346
  C      1.611055    0.329659    0.011929
  H      2.410584    0.312522   -0.738875
  C      1.069933   -1.117802    0.134834
  H      1.835315   -1.734770    0.626929
  O     -0.033818   -1.213469    0.987310
  O      0.848638   -1.637055   -1.150048
  O      2.192549    0.779793    1.197960
  O      0.086259    0.961530   -1.796362
  O     -0.363947    1.806644    1.666246
  O     -1.781149   -1.024290   -1.507177
  H     -3.090525   -0.268235   -0.102813
  H     -2.452076   -1.910989    0.153787
  H     -0.113600   -1.750854   -1.293047
  H      1.485776    1.039441    1.807656
  H      0.595377    0.194779   -2.106007
  H     -1.108242    1.829720    2.277769
  H     -1.465299   -0.158855   -1.830095

 Total Charge           Charge          ....    0
 Multiplicity           Mult            ....    1
 Number of Electrons    NEL             ....   96
 Basis Dimension        Dim             ....  318

ORBITAL ENERGIES
----------------

  NO   OCC          E(Eh)            E(eV)
   0   2.0000     -18.988543      -516.7045
   1   2.0000     -18.978404      -516.4286
   2   2.0000     -18.976852      -516.3864
   3   2.0000     -18.971848      -516.2502
   4   2.0000     -18.951973      -515.7094
   5   2.0000     -18.949799      -515.6502
   6   2.0000     -10.133267      -275.7402
   7   2.0000     -10.114246      -275.2226
   8   2.0000     -10.110353      -275.1167
   9   2.0000     -10.104240      -274.9503
  10   2.0000     -10.098763      -274.8013
  11   2.0000     -10.091247      -274.5968
  12   2.0000      -1.055364       -28.7179
  13   2.0000      -1.027628       -27.9632
  14   2.0000      -1.017587       -27.6900
  15   2.0000      -1.008665       -27.4472
  16   2.0000      -0.991581       -26.9823
  17   2.0000      -0.974530       -26.5183
  18   2.0000      -0.764980       -20.8162
  19   2.0000      -0.738613       -20.0987
  20   2.0000      -0.677199       -18.4275
  21   2.0000      -0.628292       -17.0967
  22   2.0000      -0.624552       -16.9949
  23   2.0000      -0.556297       -15.1376
  24   2.0000      -0.534662       -14.5489
  25   2.0000      -0.523719       -14.2511
  26   2.0000      -0.502549       -13.6751
  27   2.0000      -0.480540       -13.0762
  28   2.0000      -0.470475       -12.8023
  29   2.0000      -0.458186       -12.4679
  30   2.0000      -0.447270       -12.1708
  31   2.0000      -0.442635       -12.0447
  32   2.0000      -0.422767       -11.5041
  33   2.0000      -0.409216       -11.1353
  34   2.0000      -0.388451       -10.5703
  35   2.0000      -0.376618       -10.2483
  36   2.0000      -0.373251       -10.1567
  37   2.0000      -0.358771        -9.7626
  38   2.0000      -0.352399        -9.5893
  39   2.0000      -0.323532        -8.8038
  40   2.0000      -0.320258        -8.7147
  41   2.0000      -0.298940        -8.1346
  42   2.0000      -0.290903        -7.9159
  43   2.0000      -0.274285        -7.4637
  44   2.0000      -0.268487        -7.3059
  45   2.0000      -0.259190        -7.0529
  46   2.0000      -0.241897        -6.5823
  47   2.0000      -0.218084        -5.9344
  48   0.0000       0.015700         0.4272
  49   0.0000       0.034685         0.9438
  50   0.0000       0.069488         1.8909
  51   0.0000       0.072549         1.9742
  52   0.0000       0.084112         2.2888

MULLIKEN ATOMIC CHARGES
-----------------------
   0 C :   -0.213613
   1 C :    0.041361
   2 H :    0.149658
   3 C :   -0.139969
   4 H :    0.162393
   5 C :    0.069596
   6 H :    0.170119
   7 C :   -0.199398
   8 H :    0.175468
   9 C :   -0.003307
  10 H :    0.147383
  11 O :   -0.184915
  12 O :   -0.456944
  13 O :   -0.392486
  14 O :   -0.454113
  15 O :   -0.413476
  16 O :   -0.471815
  17 H :    0.134816
  18 H :    0.159422
  19 H :    0.395928
  20 H :    0.337209
  21 H :    0.343355
  22 H :    0.296624
  23 H :    0.346704
Sum of atomic charges:   -0.0000000

LOEWDIN ATOMIC CHARGES
----------------------
   0 C :    0.023595
   1 C :    0.095862
   2 H :    0.200693
   3 C :    0.112265
   4 H :    0.184413
   5 C :    0.127222
   6 H :    0.199076
   7 C :    0.113600
   8 H :    0.199979
   9 C :    0.292503
  10 H :    0.209576
  11 O :   -0.643133
  12 O :   -0.543904
  13 O :   -0.549137
  14 O :   -0.590518
  15 O :   -0.597646
  16 O :   -0.612961
  17 H :    0.168180
  18 H :    0.189519
  19 H :    0.290665
  20 H :    0.284338
  21 H :    0.288000
  22 H :    0.273565
  23 H :    0.284250

  Mayer bond orders larger than 0.100000
B(  0-C ,  1-C ) :   0.8983 B(  0-C , 16-O ) :   0.9865 B(  0-C , 17-H ) :   0.9765
B(  0-C , 18-H ) :   0.9726 B(  1-C ,  2-H ) :   0.9533 B(  1-C ,  3-C ) :   0.8175
B(  1-C , 11-O ) :   0.8800 B(  3-C ,  4-H ) :   0.9791 B(  3-C ,  5-C ) :   0.8609
B(  3-C , 15-O ) :   0.9042 B(  5-C ,  6-H ) :   0.9689 B(  5-C ,  7-C ) :   0.8851
B(  5-C , 14-O ) :   0.9492 B(  7-C ,  8-H ) :   0.9961 B(  7-C ,  9-C ) :   0.8963
B(  7-C , 13-O ) :   1.0099 B(  9-C , 10-H ) :   0.9589 B(  9-C , 11-O ) :   1.0119
B(  9-C , 12-O ) :   0.9536 B( 12-O , 19-H ) :   0.7818 B( 13-O , 20-H ) :   0.8346
B( 14-O , 21-H ) :   0.8299 B( 15-O , 22-H ) :   0.8969 B( 16-O , 23-H ) :   0.8170

Dispersion correction           -0.008938103
FINAL SINGLE POINT ENERGY      -687.072561849461

DIPOLE MOMENT
-------------

Method             : SCF
Type of density    : Electron Density
Multiplicity       :   1
Irrep              :   0
Energy             :  -687.0869484634813489 Eh
Relativity type    :
Basis              : AO
                                X                 Y                 Z
Electronic contribution:      2.703733683      -0.500689295       0.372216517
Nuclear contribution   :     -4.015655405       1.056363660       0.153538365
                        -----------------------------------------
Total Dipole Moment    :     -1.311921722       0.555674364       0.525754882
                        -----------------------------------------
Magnitude (a.u.)       :      1.518660857
Magnitude (Debye)      :      3.860129129

Rotational constants in cm-1:             0.041434             0.031599             0.027427
Rotational constants in MHz :          1242.166070           947.303735           822.250887

                             ****ORCA TERMINATED NORMALLY****
TOTAL RUN TIME: 0 days 0 hours 0 minutes 40 seconds 76 msec
