                         Program Version 6.0.1  -  RELEASE   -
|  1> ! r2scan-3c def2/J RI DEFGRID2 scfconv6 printgap
|  2> %output
|  3>     printlevel normal
|  4> end
|  5> * xyz 0 1
|  6> C -4.7672155017 -0.8511301758 0.1335494817
|  7> N -3.3995214859 -0.9084088246 -0.3146571513
|  8> C -2.4652110031 -0.0224048465 0.0929574978
|  9> O -2.6605296049 0.903887459 0.8344788174
| 10> O -1.2681804173 -0.364498255 -0.4597540592
| 11> C -0.1503744044 0.4358772131 -0.2711611675
| 12> C -0.2044334809 1.8040453395 -0.2973798728
| 13> C 0.9715554655 2.5535261912 -0.1466445034
| 14> C 2.1788399399 1.9365834591 0.0141930744
| 15> C 2.2669294816 0.5288676844 0.0348135156
| 16> C 1.0853678798 -0.2440387344 -0.1068427531
| 17> C 1.1766955279 -1.6503239137 -0.0781665765
| 18> C 2.3860340243 -2.2670255349 0.0823957725
| 19> C 3.5567826236 -1.5063636329 0.2188576428
| 20> C 3.4976607609 -0.1411455234 0.196055362
| 21> H -4.8578616982 0.0112961752 0.7915585083
| 22> H -5.0341561132 -1.7551256238 0.6846271404
| 23> H -5.4459900497 -0.7333602036 -0.7132740455
| 24> H -3.1142500518 -1.6519331879 -0.9309492511
| 25> H -1.148772091 2.308699599 -0.4205527529
| 26> H 0.9050449133 3.6309602995 -0.1639760721
| 27> H 3.0837828475 2.5154944603 0.1281004698
| 28> H 0.271526888 -2.2287476704 -0.1844509463
| 29> H 2.4479690341 -3.3452087442 0.1056643685
| 30> H 4.5045367791 -2.0095549212 0.343525275
| 31> H 4.3963509295 0.4496167367 0.3019918563
| 32> *
| 33>
| 34>                          ****END OF INPUT****

CARTESIAN COORDINATES (ANGSTROEM)
---------------------------------
  C     -4.767216   -0.851130    0.133549
  N     -3.399521   -0.908409   -0.314657
  C     -2.465211   -0.022405    0.092957
  O     -2.660530    0.903887    0.834479
  O     -1.268180   -0.364498   -0.459754
  C     -0.150374    0.435877   -0.271161
  C     -0.204433    1.804045   -0.297380
  C      0.971555    2.553526   -0.146645
  C      2.178840    1.936583    0.014193
  C      2.266929    0.528868    0.034814
  C      1.085368   -0.244039   -0.106843
  C      1.176696   -1.650324   -0.078167
  C      2.386034   -2.267026    0.082396
  C      3.556783   -1.506364    0.218858
  C      3.497661   -0.141146    0.196055
  H     -4.857862    0.011296    0.791559
  H     -5.034156   -1.755126    0.684627
  H     -5.445990   -0.733360   -0.713274
  H     -3.114250   -1.651933   -0.930949
  H     -1.148772    2.308700   -0.420553
  H      0.905045    3.630960   -0.163976
  H      3.083783    2.515494    0.128100
  H      0.271527   -2.228748   -0.184451
  H      2.447969   -3.345209    0.105664
  H      4.504537   -2.009555    0.343525
  H      4.396351    0.449617    0.301992

 Total Charge           Charge          ....    0
 Multiplicity           Mult            ....    1
 Number of Electrons    NEL             ....  106
 Basis Dimension        Dim             ....  355

ORBITAL ENERGIES
----------------

  NO   OCC          E(Eh)            E(eV)
   0   2.0000     -19.009284      -517.2689
   1   2.0000     -18.923886      -514.9451
   2   2.0000     -14.196229      -386.2990
   3   2.0000     -10.179555      -276.9998
   4   2.0000     -10.102352      -274.8990
   5   2.0000     -10.071081      -274.0480
   6   2.0000     -10.049061      -273.4489
   7   2.0000     -10.047792      -273.4143
   8   2.0000     -10.037875      -273.1445
   9   2.0000     -10.037604      -273.1371
  10   2.0000     -10.037537      -273.1353
  11   2.0000     -10.037036      -273.1216
  12   2.0000     -10.036688      -273.1122
  13   2.0000     -10.034349      -273.0485
  14   2.0000     -10.033704      -273.0310
  15   2.0000      -1.085609       -29.5409
  16   2.0000      -0.994077       -27.0502
  17   2.0000      -0.906032       -24.6544
  18   2.0000      -0.847590       -23.0641
  19   2.0000      -0.795064       -21.6348
  20   2.0000      -0.750079       -20.4107
  21   2.0000      -0.716408       -19.4944
  22   2.0000      -0.705854       -19.2073
  23   2.0000      -0.677570       -18.4376
  24   2.0000      -0.613880       -16.7045
  25   2.0000      -0.592402       -16.1201
  26   2.0000      -0.586607       -15.9624
  27   2.0000      -0.557618       -15.1735
  28   2.0000      -0.528000       -14.3676
  29   2.0000      -0.492685       -13.4066
  30   2.0000      -0.474420       -12.9096
  31   2.0000      -0.460598       -12.5335
  32   2.0000      -0.457398       -12.4464
  33   2.0000      -0.446908       -12.1610
  34   2.0000      -0.421974       -11.4825
  35   2.0000      -0.418330       -11.3833
  36   2.0000      -0.404245       -11.0001
  37   2.0000      -0.399125       -10.8607
  38   2.0000      -0.393377       -10.7043
  39   2.0000      -0.379331       -10.3221
  40   2.0000      -0.373094       -10.1524
  41   2.0000      -0.369044       -10.0422
  42   2.0000      -0.361679        -9.8418
  43   2.0000      -0.343999        -9.3607
  44   2.0000      -0.323048        -8.7906
  45   2.0000      -0.311476        -8.4757
  46   2.0000      -0.306076        -8.3287
  47   2.0000      -0.295641        -8.0448
  48   2.0000      -0.257855        -7.0166
  49   2.0000      -0.252227        -6.8634
  50   2.0000      -0.238566        -6.4917
  51   2.0000      -0.232746        -6.3333
  52   2.0000      -0.197791        -5.3822
  53   0.0000      -0.066744        -1.8162
  54   0.0000      -0.037060        -1.0084
  55   0.0000      -0.002775        -0.0755
  56   0.0000       0.026388         0.7181
  57   0.0000       0.054161         1.4738

MULLIKEN ATOMIC CHARGES
-----------------------
   0 C :   -0.393573
   1 N :   -0.156995
   2 C :    0.342670
   3 O :   -0.473163
   4 O :   -0.159302
   5 C :    0.303997
   6 C :   -0.229508
   7 C :   -0.158971
   8 C :   -0.271546
   9 C :    0.184011
  10 C :    0.017417
  11 C :   -0.279711
  12 C :   -0.145707
  13 C :   -0.144224
  14 C :   -0.223916
  15 H :    0.195919
  16 H :    0.144411
  17 H :    0.144583
  18 H :    0.247368
  19 H :    0.171821
  20 H :    0.146359
  21 H :    0.144133
  22 H :    0.159874
  23 H :    0.144763
  24 H :    0.145365
  25 H :    0.143926
Sum of atomic charges:   -0.0000000

LOEWDIN ATOMIC CHARGES
----------------------
   0 C :   -0.109217
   1 N :   -0.607965
   2 C :    0.458546
   3 O :   -0.405483
   4 O :   -0.511403
   5 C :    0.225943
   6 C :   -0.116379
   7 C :   -0.152736
   8 C :   -0.153511
   9 C :   -0.053998
  10 C :   -0.018974
  11 C :   -0.129914
  12 C :   -0.163535
  13 C :   -0.163370
  14 C :   -0.142260
  15 H :    0.206446
  16 H :    0.169034
  17 H :    0.169256
  18 H :    0.276762
  19 H :    0.193546
  20 H :    0.170154
  21 H :    0.170695
  22 H :    0.181550
  23 H :    0.167725
  24 H :    0.167801
  25 H :    0.171286

  Mayer bond orders larger than 0.100000
B(  0-C ,  1-N ) :   0.9013 B(  0-C , 15-H ) :   0.9593 B(  0-C , 16-H ) :   0.9601
B(  0-C , 17-H ) :   0.9618 B(  1-N ,  2-C ) :   1.2529 B(  1-N , 18-H ) :   0.9103
B(  2-C ,  3-O ) :   1.8573 B(  2-C ,  4-O ) :   1.0482 B(  4-O ,  5-C ) :   0.9010
B(  5-C ,  6-C ) :   1.5097 B(  5-C , 10-C ) :   1.2757 B(  6-C ,  7-C ) :   1.2374
B(  6-C , 19-H ) :   0.9263 B(  7-C ,  8-C ) :   1.4962 B(  7-C , 20-H ) :   0.9596
B(  8-C ,  9-C ) :   1.1633 B(  8-C , 21-H ) :   0.9457 B(  9-C , 10-C ) :   1.4245
B(  9-C , 14-C ) :   1.1825 B( 10-C , 11-C ) :   1.2642 B( 11-C , 12-C ) :   1.4819
B( 11-C , 22-H ) :   0.9557 B( 12-C , 13-C ) :   1.2706 B( 12-C , 23-H ) :   0.9511
B( 13-C , 14-C ) :   1.5142 B( 13-C , 24-H ) :   0.9484 B( 14-C , 25-H ) :   0.9519

Dispersion correction           -0.010532895
FINAL SINGLE POINT ENERGY      -668.978556099246

DIPOLE MOMENT
-------------

Method             : SCF
Type of density    : Electron Density
Multiplicity       :   1
Irrep              :   0
Energy             :  -668.9830588092104335 Eh
Relativity type    :
Basis              : AO
                                X                 Y                 Z
Electronic contribution:      3.469207495       1.828412520      -0.491033589
Nuclear contribution   :     -3.821860775      -2.631256451      -0.050343961
                        -----------------------------------------
Total Dipole Moment    :     -0.352653280      -0.802843932      -0.541377550
                        -----------------------------------------
Magnitude (a.u.)       :      1.030539842
Magnitude (Debye)      :      2.619424109

Rotational constants in cm-1:             0.042044             0.012531             0.009912
Rotational constants in MHz :          1260.438263           375.674452           297.155775

                             ****ORCA TERMINATED NORMALLY****
TOTAL RUN TIME: 0 days 0 hours 0 minutes 48 seconds 262 msec
