                         Program Version 6.0.1  -  RELEASE   -
|  1> ! r2scan-3c def2/J RI DEFGRID2 scfconv6 printgap
|  2> %output
|  3>     printlevel normal
|  4> end
|  5> * xyz 0 1
|  6> C -2.5676124196 -0.7218527863 -0.2884405917
|  7> C -1.1941946337 -0.2872160525 0.2418636054
|  8> H -1.2242388306 -0.2389497098 1.3424286371
|  9> C -0.742431977 1.0774124793 -0.3036814289
| 10> H -0.7523169787 1.043367179 -1.405007424
| 11> C 0.6918166675 1.345869835 0.1682352572
| 12> H 0.6766023468 1.4504222134 1.2653706643
| 13> C 1.6154627299 0.1812209116 -0.2059268886
| 14> H 1.6663419627 0.1213124347 -1.3079669577
| 15> C 1.0263667918 -1.1381625275 0.3282343447
| 16> H 1.0213050625 -1.1133304722 1.4284011053
| 17> O -0.2912005895 -1.29334038 -0.1701962241
| 18> O 1.7483193845 -2.248250133 -0.0280901607
| 19> O 2.8914487098 0.3610835227 0.3359943587
| 20> O 1.2187550333 2.5119667666 -0.4162158582
| 21> O -1.5242364318 2.1511133537 0.1655906927
| 22> O -2.9419498004 -1.9627577987 0.2318054557
| 23> H -2.521961262 -0.7567600317 -1.387694361
| 24> H -3.3410391987 -0.0143072016 0.0204689377
| 25> H 1.8313446356 -2.2822751826 -0.9895412992
| 26> H 3.1632429388 1.2657668155 0.1328998564
| 27> H 0.5770258107 3.2184932675 -0.2749061889
| 28> H -2.436133278 2.0388221694 -0.1213239194
| 29> H -2.1898186072 -2.5593555271 0.1212626592
| 30> *
| 31>
| 32>                          ****END OF INPUT****

CARTESIAN COORDINATES (ANGSTROEM)
---------------------------------
  C     -2.567612   -0.721853   -0.288441
  C     -1.194195   -0.287216    0.241864
  H     -1.224239   -0.238950    1.342429
  C     -0.742432    1.077412   -0.303681
  H     -0.752317    1.043367   -1.405007
  C      0.691817    1.345870    0.168235
  H      0.676602    1.450422    1.265371
  C      1.615463    0.181221   -0.205927
  H      1.666342    0.121312   -1.307967
  C      1.026367   -1.138163    0.328234
  H      1.021305   -1.113330    1.428401
  O     -0.291201   -1.293340   -0.170196
  O      1.748319   -2.248250   -0.028090
  O      2.891449    0.361084    0.335994
  O      1.218755    2.511967   -0.416216
  O     -1.524236    2.151113    0.165591
  O     -2.941950   -1.962758    0.231805
  H     -2.521961   -0.756760   -1.387694
  H     -3.341039   -0.014307    0.020469
  H      1.831345   -2.282275   -0.989541
  H      3.163243    1.265767    0.132900
  H      0.577026    3.218493   -0.274906
  H     -2.436133    2.038822   -0.121324
  H     -2.189819   -2.559356    0.121263

 Total Charge           Charge          ....    0
 Multiplicity           Mult            ....    1
 Number of Electrons    NEL             ....   96
 Basis Dimension        Dim             ....  318

ORBITAL ENERGIES
----------------

  NO   OCC          E(Eh)            E(eV)
   0   2.0000     -18.981915      -516.5242
   1   2.0000     -18.980229      -516.4783
   2   2.0000     -18.971136      -516.2308
   3   2.0000     -18.969208      -516.1784
   4   2.0000     -18.959405      -515.9116
   5   2.0000     -18.956060      -515.8206
   6   2.0000     -10.145661      -276.0775
   7   2.0000     -10.104096      -274.9464
   8   2.0000     -10.102018      -274.8899
   9   2.0000     -10.099749      -274.8281
  10   2.0000     -10.097143      -274.7572
  11   2.0000     -10.094032      -274.6726
  12   2.0000      -1.059927       -28.8421
  13   2.0000      -1.028695       -27.9922
  14   2.0000      -1.013478       -27.5781
  15   2.0000      -1.003825       -27.3155
  16   2.0000      -0.993241       -27.0275
  17   2.0000      -0.986417       -26.8418
  18   2.0000      -0.761892       -20.7321
  19   2.0000      -0.743181       -20.2230
  20   2.0000      -0.668301       -18.1854
  21   2.0000      -0.625556       -17.0222
  22   2.0000      -0.602278       -16.3888
  23   2.0000      -0.575434       -15.6583
  24   2.0000      -0.533401       -14.5146
  25   2.0000      -0.527799       -14.3621
  26   2.0000      -0.501678       -13.6514
  27   2.0000      -0.484393       -13.1810
  28   2.0000      -0.474751       -12.9186
  29   2.0000      -0.462043       -12.5728
  30   2.0000      -0.442064       -12.0292
  31   2.0000      -0.439989       -11.9727
  32   2.0000      -0.424813       -11.5598
  33   2.0000      -0.406680       -11.0663
  34   2.0000      -0.391574       -10.6553
  35   2.0000      -0.371828       -10.1179
  36   2.0000      -0.365686        -9.9508
  37   2.0000      -0.346708        -9.4344
  38   2.0000      -0.342779        -9.3275
  39   2.0000      -0.329612        -8.9692
  40   2.0000      -0.316816        -8.6210
  41   2.0000      -0.302065        -8.2196
  42   2.0000      -0.281885        -7.6705
  43   2.0000      -0.271359        -7.3840
  44   2.0000      -0.261031        -7.1030
  45   2.0000      -0.249904        -6.8002
  46   2.0000      -0.247194        -6.7265
  47   2.0000      -0.238995        -6.5034
  48   0.0000       0.016279         0.4430
  49   0.0000       0.046512         1.2657
  50   0.0000       0.059726         1.6252
  51   0.0000       0.066546         1.8108
  52   0.0000       0.083299         2.2667

MULLIKEN ATOMIC CHARGES
-----------------------
   0 C :   -0.259021
   1 C :   -0.027649
   2 H :    0.186872
   3 C :   -0.005876
   4 H :    0.169442
   5 C :   -0.035093
   6 H :    0.172542
   7 C :    0.078374
   8 H :    0.159088
   9 C :   -0.169270
  10 H :    0.158333
  11 O :   -0.202999
  12 O :   -0.348073
  13 O :   -0.416735
  14 O :   -0.445691
  15 O :   -0.439762
  16 O :   -0.408024
  17 H :    0.143179
  18 H :    0.128033
  19 H :    0.311751
  20 H :    0.317456
  21 H :    0.314743
  22 H :    0.298571
  23 H :    0.319810
Sum of atomic charges:   -0.0000000

LOEWDIN ATOMIC CHARGES
----------------------
   0 C :    0.034834
   1 C :    0.104924
   2 H :    0.187928
   3 C :    0.104002
   4 H :    0.182718
   5 C :    0.109832
   6 H :    0.187447
   7 C :    0.117785
   8 H :    0.180831
   9 C :    0.301282
  10 H :    0.200591
  11 O :   -0.696847
  12 O :   -0.458801
  13 O :   -0.551973
  14 O :   -0.574583
  15 O :   -0.586456
  16 O :   -0.581211
  17 H :    0.167432
  18 H :    0.176859
  19 H :    0.277283
  20 H :    0.283278
  21 H :    0.282123
  22 H :    0.272216
  23 H :    0.278506

  Mayer bond orders larger than 0.100000
B(  0-C ,  1-C ) :   0.8979 B(  0-C , 16-O ) :   1.0086 B(  0-C , 17-H ) :   0.9933
B(  0-C , 18-H ) :   0.9708 B(  1-C ,  2-H ) :   0.9576 B(  1-C ,  3-C ) :   0.7782
B(  1-C , 11-O ) :   0.7747 B(  3-C ,  4-H ) :   0.9741 B(  3-C ,  5-C ) :   0.8517
B(  3-C , 15-O ) :   0.8708 B(  5-C ,  6-H ) :   0.9929 B(  5-C ,  7-C ) :   0.8864
B(  5-C , 14-O ) :   0.9151 B(  7-C ,  8-H ) :   0.9429 B(  7-C ,  9-C ) :   0.8685
B(  7-C , 13-O ) :   0.8820 B(  9-C , 10-H ) :   0.9998 B(  9-C , 11-O ) :   0.9228
B(  9-C , 12-O ) :   1.1489 B( 12-O , 19-H ) :   0.8767 B( 13-O , 20-H ) :   0.8750
B( 14-O , 21-H ) :   0.8765 B( 15-O , 22-H ) :   0.8944 B( 16-O , 23-H ) :   0.8644

Dispersion correction           -0.008008019
FINAL SINGLE POINT ENERGY      -687.076209095288

DIPOLE MOMENT
-------------

Method             : SCF
Type of density    : Electron Density
Multiplicity       :   1
Irrep              :   0
Energy             :  -687.0877668524304909 Eh
Relativity type    :
Basis              : AO
                                X                 Y                 Z
Electronic contribution:      2.787375349      -1.179746087       0.423570845
Nuclear contribution   :     -3.295095065       2.031723195      -1.101159299
                        -----------------------------------------
Total Dipole Moment    :     -0.507719716       0.851977108      -0.677588454
                        -----------------------------------------
Magnitude (a.u.)       :      1.201153785
Magnitude (Debye)      :      3.053090288

Rotational constants in cm-1:             0.038854             0.026514             0.016464
Rotational constants in MHz :          1164.808521           794.877018           493.572489

                             ****ORCA TERMINATED NORMALLY****
TOTAL RUN TIME: 0 days 0 hours 0 minutes 37 seconds 793 msec
