                         Program Version 6.0.1  -  RELEASE   -
|  1> ! pbe def2-sv(p) def2/J RI DEFGRID1 loosescf d4 GCP(DFT/SV(P)) printgap
|  2> %output
|  3>     printlevel normal
|  4> end
|  5> * xyz 0 1
|  6> C -2.5641508292 -0.6670946715 -0.3215434015
|  7> C -1.188616314 -0.2863522592 0.2328519563
|  8> H -1.243202754 -0.2342425345 1.3304619701
|  9> C -0.7174597815 1.0723246496 -0.3000357533
| 10> H -0.7120507626 1.0449886946 -1.4025437324
| 11> C 0.7170364039 1.3419802615 0.1741646211
| 12> H 0.7219583448 1.4344354575 1.2729094407
| 13> C 1.6158735457 0.1677842486 -0.2150354477
| 14> H 1.6598173632 0.098047236 -1.3158934669
| 15> C 1.0103719656 -1.1385009644 0.3354211934
| 16> H 1.0206800002 -1.0980560884 1.4384610715
| 17> O -0.2908534631 -1.317686211 -0.15101612
| 18> O 1.7788861136 -2.2341021673 -0.028894643
| 19> O 2.9016262229 0.3853084523 0.3104006952
| 20> O 1.1471438138 2.5473112112 -0.4090571588
| 21> O -1.5932319057 2.0631331437 0.158865553
| 22> O -3.0421804049 -1.8536573392 0.2450085752
| 23> H -2.4868378087 -0.7575849865 -1.4143100603
| 24> H -3.275743732 0.1204903021 -0.0721458394
| 25> H 1.5140209046 -2.5012688756 -0.9181395144
| 26> H 3.3600848042 -0.4646013046 0.3374728675
| 27> H 2.0940289971 2.6263764164 -0.2417022187
| 28> H -1.1793341719 2.9156999338 -0.0298468344
| 29> H -2.3524455748 -2.5217641415 0.1484469537
| 30> *
| 31>
| 32>                          ****END OF INPUT****

CARTESIAN COORDINATES (ANGSTROEM)
---------------------------------
  C     -2.564151   -0.667095   -0.321543
  C     -1.188616   -0.286352    0.232852
  H     -1.243203   -0.234243    1.330462
  C     -0.717460    1.072325   -0.300036
  H     -0.712051    1.044989   -1.402544
  C      0.717036    1.341980    0.174165
  H      0.721958    1.434435    1.272909
  C      1.615874    0.167784   -0.215035
  H      1.659817    0.098047   -1.315893
  C      1.010372   -1.138501    0.335421
  H      1.020680   -1.098056    1.438461
  O     -0.290853   -1.317686   -0.151016
  O      1.778886   -2.234102   -0.028895
  O      2.901626    0.385308    0.310401
  O      1.147144    2.547311   -0.409057
  O     -1.593232    2.063133    0.158866
  O     -3.042180   -1.853657    0.245009
  H     -2.486838   -0.757585   -1.414310
  H     -3.275744    0.120490   -0.072146
  H      1.514021   -2.501269   -0.918140
  H      3.360085   -0.464601    0.337473
  H      2.094029    2.626376   -0.241702
  H     -1.179334    2.915700   -0.029847
  H     -2.352446   -2.521764    0.148447

 Total Charge           Charge          ....    0
 Multiplicity           Mult            ....    1
 Number of Electrons    NEL             ....   96
 Basis Dimension        Dim             ....  192

ORBITAL ENERGIES
----------------

  NO   OCC          E(Eh)            E(eV)
   0   2.0000     -18.790898      -511.3263
   1   2.0000     -18.779323      -511.0114
   2   2.0000     -18.765552      -510.6366
   3   2.0000     -18.761539      -510.5274
   4   2.0000     -18.755885      -510.3736
   5   2.0000     -18.742840      -510.0186
   6   2.0000     -10.000063      -272.1155
   7   2.0000      -9.950100      -270.7560
   8   2.0000      -9.947777      -270.6928
   9   2.0000      -9.947631      -270.6888
  10   2.0000      -9.947588      -270.6876
  11   2.0000      -9.929969      -270.2082
  12   2.0000      -1.002851       -27.2890
  13   2.0000      -0.954551       -25.9747
  14   2.0000      -0.946805       -25.7639
  15   2.0000      -0.932432       -25.3728
  16   2.0000      -0.923983       -25.1429
  17   2.0000      -0.918086       -24.9824
  18   2.0000      -0.712358       -19.3842
  19   2.0000      -0.698187       -18.9986
  20   2.0000      -0.619335       -16.8530
  21   2.0000      -0.592454       -16.1215
  22   2.0000      -0.564832       -15.3699
  23   2.0000      -0.546427       -14.8690
  24   2.0000      -0.514548       -14.0016
  25   2.0000      -0.500431       -13.6174
  26   2.0000      -0.473567       -12.8864
  27   2.0000      -0.459557       -12.5052
  28   2.0000      -0.453203       -12.3323
  29   2.0000      -0.446527       -12.1506
  30   2.0000      -0.423362       -11.5203
  31   2.0000      -0.403492       -10.9796
  32   2.0000      -0.400516       -10.8986
  33   2.0000      -0.374205       -10.1826
  34   2.0000      -0.365326        -9.9410
  35   2.0000      -0.352315        -9.5870
  36   2.0000      -0.337565        -9.1856
  37   2.0000      -0.333927        -9.0866
  38   2.0000      -0.317246        -8.6327
  39   2.0000      -0.305593        -8.3156
  40   2.0000      -0.299268        -8.1435
  41   2.0000      -0.271179        -7.3791
  42   2.0000      -0.265063        -7.2127
  43   2.0000      -0.253022        -6.8851
  44   2.0000      -0.234960        -6.3936
  45   2.0000      -0.223811        -6.0902
  46   2.0000      -0.219570        -5.9748
  47   2.0000      -0.214173        -5.8280
  48   0.0000       0.012343         0.3359
  49   0.0000       0.020748         0.5646
  50   0.0000       0.035604         0.9688
  51   0.0000       0.047817         1.3012
  52   0.0000       0.060807         1.6546

MULLIKEN ATOMIC CHARGES
-----------------------
   0 C :    0.104711
   1 C :   -0.024634
   2 H :    0.066183
   3 C :    0.067030
   4 H :    0.053076
   5 C :    0.064596
   6 H :    0.056069
   7 C :    0.034979
   8 H :    0.042640
   9 C :    0.169680
  10 H :    0.060239
  11 O :   -0.321305
  12 O :   -0.387397
  13 O :   -0.422299
  14 O :   -0.423438
  15 O :   -0.414129
  16 O :   -0.429670
  17 H :    0.062539
  18 H :    0.103435
  19 H :    0.305692
  20 H :    0.307333
  21 H :    0.315496
  22 H :    0.312963
  23 H :    0.296213
Sum of atomic charges:   -0.0000000

LOEWDIN ATOMIC CHARGES
----------------------
   0 C :   -0.123438
   1 C :   -0.067157
   2 H :    0.111570
   3 C :   -0.066255
   4 H :    0.103154
   5 C :   -0.079273
   6 H :    0.105413
   7 C :   -0.100868
   8 H :    0.099643
   9 C :   -0.004432
  10 H :    0.099864
  11 O :   -0.152543
  12 O :   -0.296207
  13 O :   -0.325547
  14 O :   -0.324365
  15 O :   -0.313641
  16 O :   -0.332140
  17 H :    0.098295
  18 H :    0.126272
  19 H :    0.290626
  20 H :    0.287246
  21 H :    0.293360
  22 H :    0.291339
  23 H :    0.279081

  Mayer bond orders larger than 0.100000
B(  0-C ,  1-C ) :   1.0655 B(  0-C , 16-O ) :   1.0827 B(  0-C , 17-H ) :   0.9019
B(  0-C , 18-H ) :   0.9126 B(  1-C ,  2-H ) :   0.8677 B(  1-C ,  3-C ) :   1.0112
B(  1-C , 11-O ) :   0.9586 B(  3-C ,  4-H ) :   0.8656 B(  3-C ,  5-C ) :   1.0230
B(  3-C , 15-O ) :   1.0753 B(  5-C ,  6-H ) :   0.8736 B(  5-C ,  7-C ) :   1.0079
B(  5-C , 14-O ) :   1.0797 B(  7-C ,  8-H ) :   0.8575 B(  7-C ,  9-C ) :   0.9903
B(  7-C , 13-O ) :   1.0748 B(  9-C , 10-H ) :   0.8787 B(  9-C , 11-O ) :   1.0227
B(  9-C , 12-O ) :   1.1076 B( 12-O , 19-H ) :   0.8424 B( 13-O , 20-H ) :   0.8303
B( 14-O , 21-H ) :   0.8369 B( 15-O , 22-H ) :   0.8352 B( 16-O , 23-H ) :   0.8457

Dispersion correction           -0.023690652
FINAL SINGLE POINT ENERGY      -685.703875655805

DIPOLE MOMENT
-------------

Method             : SCF
Type of density    : Electron Density
Multiplicity       :   1
Irrep              :   0
Energy             :  -685.8351617980711126 Eh
Relativity type    :
Basis              : AO
                                X                 Y                 Z
Electronic contribution:      1.871989788      -0.730928601       0.307056037
Nuclear contribution   :     -0.811320776       0.615487177      -0.811377048
                        -----------------------------------------
Total Dipole Moment    :      1.060669012      -0.115441424      -0.504321011
                        -----------------------------------------
Magnitude (a.u.)       :      1.180120823
Magnitude (Debye)      :      2.999628748

Rotational constants in cm-1:             0.039254             0.026266             0.016435
Rotational constants in MHz :          1176.793713           787.435382           492.709433

                             ****ORCA TERMINATED NORMALLY****
TOTAL RUN TIME: 0 days 0 hours 0 minutes 7 seconds 562 msec
