                         Program Version 6.0.1  -  RELEASE   -
|  1> ! pbe def2-sv(p) def2/J RI DEFGRID1 loosescf d4 GCP(DFT/SV(P)) printgap
|  2> %output
|  3>     printlevel normal
|  4> end
|  5> * xyz 0 1
|  6> C -2.8478781719 -0.7880863211 0.2850978423
|  7> C -1.7196647024 -0.2167338944 -0.582639032
|  8> H -2.1726762394 0.1528899358 -1.5094224044
|  9> C -0.6592557295 -1.2653787811 -0.9266585162
| 10> C 0.2050589325 -1.6331603509 0.2720292972
| 11> C 0.9247320445 -0.3982468107 0.8330641482
| 12> H 1.4422779296 -0.6974054751 1.753155796
| 13> C -0.1092712532 0.6694220045 1.2100884415
| 14> C -1.1249388677 0.9788299214 0.1373394631
| 15> O -1.5027055551 2.1041847931 -0.0844390953
| 16> C 1.9795944664 0.0952127469 -0.1312623999
| 17> C 1.7769247405 1.0551556597 -1.0186642219
| 18> C 3.3029070174 -0.6026290077 -0.0137858771
| 19> H -3.5823493019 -0.0146427036 0.4982827518
| 20> H -3.3441456597 -1.5994847559 -0.243063883
| 21> H -2.4694916752 -1.1713686835 1.2289686554
| 22> H -1.1540273921 -2.1589207794 -1.3143302329
| 23> H -0.0154812242 -0.8708777712 -1.7157859466
| 24> H -0.4102512306 -2.0765363977 1.0570116561
| 25> H 0.9389579437 -2.3825893267 -0.0303300441
| 26> H -0.6794785086 0.3105822986 2.0724551731
| 27> H 0.3858432105 1.5974946723 1.5022864509
| 28> H 2.5560303581 1.3644961689 -1.6955088384
| 29> H 0.8441559372 1.5820893032 -1.1086712491
| 30> H 3.9806018828 -0.2889659157 -0.8028850527
| 31> H 3.7617858919 -0.3732018416 0.9481683635
| 32> H 3.1773762105 -1.6830680189 -0.0698833151
| 33> *
| 34>
| 35>                          ****END OF INPUT****

CARTESIAN COORDINATES (ANGSTROEM)
---------------------------------
  C     -2.847878   -0.788086    0.285098
  C     -1.719665   -0.216734   -0.582639
  H     -2.172676    0.152890   -1.509422
  C     -0.659256   -1.265379   -0.926659
  C      0.205059   -1.633160    0.272029
  C      0.924732   -0.398247    0.833064
  H      1.442278   -0.697405    1.753156
  C     -0.109271    0.669422    1.210088
  C     -1.124939    0.978830    0.137339
  O     -1.502706    2.104185   -0.084439
  C      1.979594    0.095213   -0.131262
  C      1.776925    1.055156   -1.018664
  C      3.302907   -0.602629   -0.013786
  H     -3.582349   -0.014643    0.498283
  H     -3.344146   -1.599485   -0.243064
  H     -2.469492   -1.171369    1.228969
  H     -1.154027   -2.158921   -1.314330
  H     -0.015481   -0.870878   -1.715786
  H     -0.410251   -2.076536    1.057012
  H      0.938958   -2.382589   -0.030330
  H     -0.679479    0.310582    2.072455
  H      0.385843    1.597495    1.502286
  H      2.556030    1.364496   -1.695509
  H      0.844156    1.582089   -1.108671
  H      3.980602   -0.288966   -0.802885
  H      3.761786   -0.373202    0.948168
  H      3.177376   -1.683068   -0.069883

 Total Charge           Charge          ....    0
 Multiplicity           Mult            ....    1
 Number of Electrons    NEL             ....   84
 Basis Dimension        Dim             ....  186

ORBITAL ENERGIES
----------------

  NO   OCC          E(Eh)            E(eV)
   0   2.0000     -18.731226      -509.7026
   1   2.0000      -9.968030      -271.2439
   2   2.0000      -9.909979      -269.6642
   3   2.0000      -9.903849      -269.4974
   4   2.0000      -9.899439      -269.3774
   5   2.0000      -9.896808      -269.3058
   6   2.0000      -9.892128      -269.1785
   7   2.0000      -9.890751      -269.1410
   8   2.0000      -9.887999      -269.0661
   9   2.0000      -9.884665      -268.9754
  10   2.0000      -9.871823      -268.6260
  11   2.0000      -0.934362       -25.4253
  12   2.0000      -0.773983       -21.0611
  13   2.0000      -0.727199       -19.7881
  14   2.0000      -0.682975       -18.5847
  15   2.0000      -0.663395       -18.0519
  16   2.0000      -0.618626       -16.8337
  17   2.0000      -0.605938       -16.4884
  18   2.0000      -0.558148       -15.1880
  19   2.0000      -0.534246       -14.5376
  20   2.0000      -0.481256       -13.0956
  21   2.0000      -0.451963       -12.2985
  22   2.0000      -0.437667       -11.9095
  23   2.0000      -0.421578       -11.4717
  24   2.0000      -0.414685       -11.2842
  25   2.0000      -0.399657       -10.8752
  26   2.0000      -0.392968       -10.6932
  27   2.0000      -0.373293       -10.1578
  28   2.0000      -0.370875       -10.0920
  29   2.0000      -0.366110        -9.9624
  30   2.0000      -0.353942        -9.6313
  31   2.0000      -0.352029        -9.5792
  32   2.0000      -0.346030        -9.4160
  33   2.0000      -0.326372        -8.8810
  34   2.0000      -0.323749        -8.8096
  35   2.0000      -0.311173        -8.4674
  36   2.0000      -0.299643        -8.1537
  37   2.0000      -0.289811        -7.8862
  38   2.0000      -0.280737        -7.6392
  39   2.0000      -0.273708        -7.4480
  40   2.0000      -0.222615        -6.0576
  41   2.0000      -0.186593        -5.0775
  42   0.0000      -0.048707        -1.3254
  43   0.0000      -0.016581        -0.4512
  44   0.0000       0.021439         0.5834
  45   0.0000       0.048256         1.3131
  46   0.0000       0.056353         1.5334

MULLIKEN ATOMIC CHARGES
-----------------------
   0 C :   -0.270764
   1 C :   -0.121325
   2 H :    0.071340
   3 C :   -0.117644
   4 C :   -0.136027
   5 C :   -0.124545
   6 H :    0.062838
   7 C :   -0.068522
   8 C :   -0.025315
   9 O :   -0.155949
  10 C :   -0.070839
  11 C :   -0.246226
  12 C :   -0.215931
  13 H :    0.118444
  14 H :    0.110212
  15 H :    0.106587
  16 H :    0.081834
  17 H :    0.101015
  18 H :    0.089120
  19 H :    0.088405
  20 H :    0.106122
  21 H :    0.093300
  22 H :    0.082715
  23 H :    0.120453
  24 H :    0.100887
  25 H :    0.112146
  26 H :    0.107668
Sum of atomic charges:   -0.0000000

LOEWDIN ATOMIC CHARGES
----------------------
   0 C :   -0.321561
   1 C :   -0.168835
   2 H :    0.128152
   3 C :   -0.218604
   4 C :   -0.210707
   5 C :   -0.128443
   6 H :    0.121563
   7 C :   -0.233221
   8 C :    0.046109
   9 O :   -0.125515
  10 C :   -0.051929
  11 C :   -0.266849
  12 C :   -0.322500
  13 H :    0.127748
  14 H :    0.124356
  15 H :    0.115513
  16 H :    0.118495
  17 H :    0.124669
  18 H :    0.116565
  19 H :    0.120257
  20 H :    0.143033
  21 H :    0.133549
  22 H :    0.120423
  23 H :    0.126675
  24 H :    0.124986
  25 H :    0.130766
  26 H :    0.125305

  Mayer bond orders larger than 0.100000
B(  0-C ,  1-C ) :   1.0880 B(  0-C , 13-H ) :   0.9447 B(  0-C , 14-H ) :   0.9445
B(  0-C , 15-H ) :   0.9429 B(  1-C ,  2-H ) :   0.8697 B(  1-C ,  3-C ) :   1.0638
B(  1-C ,  8-C ) :   0.9615 B(  3-C ,  4-C ) :   1.1197 B(  3-C , 16-H ) :   0.9096
B(  3-C , 17-H ) :   0.9026 B(  4-C ,  5-C ) :   1.0582 B(  4-C , 18-H ) :   0.9125
B(  4-C , 19-H ) :   0.9055 B(  5-C ,  6-H ) :   0.8752 B(  5-C ,  7-C ) :   1.0622
B(  5-C , 10-C ) :   0.9999 B(  7-C ,  8-C ) :   1.0260 B(  7-C , 20-H ) :   0.8800
B(  7-C , 21-H ) :   0.8876 B(  8-C ,  9-O ) :   2.1687 B( 10-C , 11-C ) :   2.0361
B( 10-C , 12-C ) :   1.1226 B( 11-C , 22-H ) :   0.9011 B( 11-C , 23-H ) :   0.8863
B( 12-C , 24-H ) :   0.9407 B( 12-C , 25-H ) :   0.9269 B( 12-C , 26-H ) :   0.9284

Dispersion correction           -0.030158237
FINAL SINGLE POINT ENERGY      -464.827971654720

DIPOLE MOMENT
-------------

Method             : SCF
Type of density    : Electron Density
Multiplicity       :   1
Irrep              :   0
Energy             :  -464.9130362753232930 Eh
Relativity type    :
Basis              : AO
                                X                 Y                 Z
Electronic contribution:     -2.663601384       6.629566051      -0.250868865
Nuclear contribution   :      3.035321699      -7.764501146       0.533922989
                        -----------------------------------------
Total Dipole Moment    :      0.371720314      -1.134935095       0.283054125
                        -----------------------------------------
Magnitude (a.u.)       :      1.227344002
Magnitude (Debye)      :      3.119660529

Rotational constants in cm-1:             0.061265             0.028722             0.024027
Rotational constants in MHz :          1836.663940           861.066673           720.308279

                             ****ORCA TERMINATED NORMALLY****
TOTAL RUN TIME: 0 days 0 hours 0 minutes 26 seconds 136 msec
