                         Program Version 6.0.0  -   RELEASE  -
|  1> ! r2SCAN-3c DEF2-TZVP FREQ
|  2> * xyzfile 0 1 censo.xyz
|  3>
|  4>                          ****END OF INPUT****

CARTESIAN COORDINATES (ANGSTROEM)
---------------------------------
  C     -3.610985   -1.489952    0.042748
  C     -4.733992   -0.612499    0.541346
  C     -4.638101    0.706859    0.747354
  C     -3.417491    1.540024    0.439046
  C     -2.492391    0.707975   -0.426081
  H     -2.935778    0.605019   -1.430672
  C     -2.322681   -0.700246    0.147270
  H     -2.047553   -0.592691    1.209984
  C     -1.070699   -1.198391   -0.508781
  O     -0.708679   -2.326511   -0.742368
  N     -0.307934   -0.023118   -0.804986
  C     -1.087701    1.167567   -0.689391
  O     -0.659969    2.286618   -0.846724
  S      1.300319   -0.054406   -1.370776
  C      2.239194   -0.014919    0.208670
  Cl     3.943289   -0.082879   -0.353282
  Cl     1.961229    1.482143    1.155411
  Cl     1.879717   -1.418448    1.267287
  H     -3.793473   -1.799280   -0.995449
  H     -3.561280   -2.405842    0.640721
  H     -5.673590   -1.113160    0.763176
  H     -5.497355    1.241471    1.145659
  H     -3.715139    2.459683   -0.075239
  H     -2.912030    1.843672    1.365907

 Total Charge           Charge          ....    0
 Multiplicity           Mult            ....    1
 Number of Electrons    NEL             ....  152
 Basis Dimension        Dim             ....  568

ORBITAL ENERGIES
----------------

  NO   OCC          E(Eh)            E(eV)
   0   2.0000    -101.222533     -2754.4052
   1   2.0000    -101.215051     -2754.2016
   2   2.0000    -101.213647     -2754.1634
   3   2.0000     -88.603126     -2411.0136
   4   2.0000     -18.963680      -516.0280
   5   2.0000     -18.962089      -515.9847
   6   2.0000     -14.251868      -387.8130
   7   2.0000     -10.252989      -278.9980
   8   2.0000     -10.169663      -276.7306
   9   2.0000     -10.169047      -276.7138
  10   2.0000     -10.081051      -274.3193
  11   2.0000     -10.080363      -274.3006
  12   2.0000     -10.064034      -273.8563
  13   2.0000     -10.063615      -273.8449
  14   2.0000     -10.055264      -273.6176
  15   2.0000     -10.054574      -273.5989
  16   2.0000      -9.398429      -255.7443
  17   2.0000      -9.391123      -255.5455
  18   2.0000      -9.389709      -255.5070
  19   2.0000      -7.912898      -215.3209
  20   2.0000      -7.144020      -194.3987
  21   2.0000      -7.136627      -194.1975
  22   2.0000      -7.135252      -194.1601
  23   2.0000      -7.132940      -194.0972
  24   2.0000      -7.132751      -194.0920
  25   2.0000      -7.125762      -193.9018
  26   2.0000      -7.125355      -193.8908
  27   2.0000      -7.124303      -193.8621
  28   2.0000      -7.123941      -193.8523
  29   2.0000      -5.860842      -159.4816
  30   2.0000      -5.855400      -159.3335
  31   2.0000      -5.847130      -159.1085
  32   2.0000      -1.049932       -28.5701
  33   2.0000      -1.031916       -28.0799
  34   2.0000      -0.944924       -25.7127
  35   2.0000      -0.912719       -24.8363
  36   2.0000      -0.848846       -23.0983
  37   2.0000      -0.811526       -22.0827
  38   2.0000      -0.803981       -21.8774
  39   2.0000      -0.775944       -21.1145
  40   2.0000      -0.751476       -20.4487
  41   2.0000      -0.718004       -19.5379
  42   2.0000      -0.660404       -17.9705
  43   2.0000      -0.636012       -17.3068
  44   2.0000      -0.593796       -16.1580
  45   2.0000      -0.589121       -16.0308
  46   2.0000      -0.534301       -14.5391
  47   2.0000      -0.529972       -14.4213
  48   2.0000      -0.489939       -13.3319
  49   2.0000      -0.484830       -13.1929
  50   2.0000      -0.467145       -12.7117
  51   2.0000      -0.459894       -12.5143
  52   2.0000      -0.454508       -12.3678
  53   2.0000      -0.447095       -12.1661
  54   2.0000      -0.436131       -11.8677
  55   2.0000      -0.421740       -11.4761
  56   2.0000      -0.413935       -11.2637
  57   2.0000      -0.408349       -11.1117
  58   2.0000      -0.398497       -10.8436
  59   2.0000      -0.392108       -10.6698
  60   2.0000      -0.381692       -10.3864
  61   2.0000      -0.370564       -10.0836
  62   2.0000      -0.339085        -9.2270
  63   2.0000      -0.338122        -9.2008
  64   2.0000      -0.333818        -9.0837
  65   2.0000      -0.330447        -8.9919
  66   2.0000      -0.328345        -8.9347
  67   2.0000      -0.320195        -8.7129
  68   2.0000      -0.306638        -8.3440
  69   2.0000      -0.305106        -8.3024
  70   2.0000      -0.287303        -7.8179
  71   2.0000      -0.280672        -7.6375
  72   2.0000      -0.267105        -7.2683
  73   2.0000      -0.256261        -6.9732
  74   2.0000      -0.249036        -6.7766
  75   2.0000      -0.242390        -6.5958
  76   0.0000      -0.091380        -2.4866
  77   0.0000      -0.072490        -1.9726
  78   0.0000      -0.058200        -1.5837
  79   0.0000      -0.047201        -1.2844
  80   0.0000      -0.032758        -0.8914

MULLIKEN ATOMIC CHARGES
-----------------------
   0 C :   -0.097953
   1 C :   -0.194173
   2 C :   -0.195852
   3 C :   -0.101659
   4 C :    0.029291
   5 H :    0.096799
   6 C :    0.033343
   7 H :    0.097816
   8 C :    0.109289
   9 O :   -0.278335
  10 N :   -0.086244
  11 C :    0.135165
  12 O :   -0.286508
  13 S :    0.085385
  14 C :    0.165069
  15 Cl:   -0.057886
  16 Cl:   -0.056742
  17 Cl:   -0.060374
  18 H :    0.101879
  19 H :    0.114047
  20 H :    0.114945
  21 H :    0.115165
  22 H :    0.114952
  23 H :    0.102580
Sum of atomic charges:    0.0000000

LOEWDIN ATOMIC CHARGES
----------------------
   0 C :   -0.206280
   1 C :   -0.161948
   2 C :   -0.162118
   3 C :   -0.205942
   4 C :   -0.176178
   5 H :    0.187412
   6 C :   -0.178077
   7 H :    0.187743
   8 C :   -0.391311
   9 O :    0.139507
  10 N :    0.017436
  11 C :   -0.390651
  12 O :    0.136121
  13 S :    0.563417
  14 C :   -1.277489
  15 Cl:    0.344745
  16 Cl:    0.339256
  17 Cl:    0.339199
  18 H :    0.152219
  19 H :    0.151829
  20 H :    0.143348
  21 H :    0.143427
  22 H :    0.151981
  23 H :    0.152354

  Mayer bond orders larger than 0.100000
B(  0-C ,  1-C ) :   0.9857 B(  0-C ,  6-C ) :   1.0080 B(  0-C , 18-H ) :   0.9311
B(  0-C , 19-H ) :   0.9485 B(  1-C ,  2-C ) :   1.8951 B(  1-C , 20-H ) :   0.9680
B(  2-C ,  3-C ) :   0.9862 B(  2-C , 21-H ) :   0.9678 B(  3-C ,  4-C ) :   1.0063
B(  3-C , 22-H ) :   0.9484 B(  3-C , 23-H ) :   0.9313 B(  4-C ,  5-H ) :   0.9174
B(  4-C ,  6-C ) :   0.9623 B(  4-C , 11-C ) :   0.8962 B(  6-C ,  7-H ) :   0.9105
B(  6-C ,  8-C ) :   0.9025 B(  8-C ,  9-O ) :   2.1467 B(  8-C , 10-N ) :   1.0203
B( 10-N , 11-C ) :   1.0403 B( 10-N , 13-S ) :   1.0103 B( 11-C , 12-O ) :   2.1373
B( 13-S , 14-C ) :   1.0288 B( 14-C , 15-Cl) :   1.0567 B( 14-C , 16-Cl) :   1.0957
B( 14-C , 17-Cl) :   1.0837

Dispersion correction           -0.012764511
FINAL SINGLE POINT ENERGY     -2331.611884148946

DIPOLE MOMENT
-------------

Method             : SCF
Type of density    : Electron Density
Multiplicity       :   1
Irrep              :   0
Energy             : -2331.6178321092202168 Eh
Relativity type    :
Basis              : AO
                                X                 Y                 Z
Electronic contribution:     37.430100416      -0.260375099       0.682594196
Nuclear contribution   :    -38.864467587       0.272363028      -0.320178782
                        -----------------------------------------
Total Dipole Moment    :     -1.434367172       0.011987929       0.362415414
                        -----------------------------------------
Magnitude (a.u.)       :      1.479492422
Magnitude (Debye)      :      3.760570878

VIBRATIONAL FREQUENCIES
-----------------------

Scaling factor for frequencies =  1.000000000  (already applied!)

     0:       0.00 cm**-1
     1:       0.00 cm**-1
     2:       0.00 cm**-1
     3:       0.00 cm**-1
     4:       0.00 cm**-1
     5:       0.00 cm**-1
     6:      37.75 cm**-1
     7:      40.25 cm**-1
     8:      71.43 cm**-1
     9:     108.97 cm**-1
    10:     120.66 cm**-1
    11:     149.16 cm**-1
    12:     150.75 cm**-1
    13:     167.41 cm**-1
    14:     219.08 cm**-1
    15:     234.47 cm**-1
    16:     255.85 cm**-1
    17:     277.64 cm**-1
    18:     300.99 cm**-1
    19:     307.57 cm**-1
    20:     321.98 cm**-1
    21:     335.71 cm**-1
    22:     404.61 cm**-1
    23:     417.34 cm**-1
    24:     443.96 cm**-1
    25:     475.58 cm**-1
    26:     498.29 cm**-1
    27:     536.07 cm**-1
    28:     641.12 cm**-1
    29:     660.33 cm**-1
    30:     667.25 cm**-1
    31:     676.82 cm**-1
    32:     704.44 cm**-1
    33:     731.27 cm**-1
    34:     741.89 cm**-1
    35:     757.03 cm**-1
    36:     838.76 cm**-1
    37:     842.49 cm**-1
    38:     906.66 cm**-1
    39:     945.37 cm**-1
    40:     973.12 cm**-1
    41:     987.02 cm**-1
    42:     997.78 cm**-1
    43:    1039.49 cm**-1
    44:    1056.80 cm**-1
    45:    1064.20 cm**-1
    46:    1142.88 cm**-1
    47:    1147.45 cm**-1
    48:    1165.46 cm**-1
    49:    1198.73 cm**-1
    50:    1226.40 cm**-1
    51:    1234.45 cm**-1
    52:    1265.81 cm**-1
    53:    1296.01 cm**-1
    54:    1307.94 cm**-1
    55:    1333.77 cm**-1
    56:    1360.32 cm**-1
    57:    1385.33 cm**-1
    58:    1404.53 cm**-1
    59:    1469.85 cm**-1
    60:    1470.45 cm**-1
    61:    1675.98 cm**-1
    62:    1758.54 cm**-1
    63:    1805.94 cm**-1
    64:    2964.72 cm**-1
    65:    2980.18 cm**-1
    66:    3005.36 cm**-1
    67:    3006.96 cm**-1
    68:    3062.49 cm**-1
    69:    3063.49 cm**-1
    70:    3134.62 cm**-1
    71:    3154.90 cm**-1

IR SPECTRUM
-----------

 Mode   freq       eps      Int      T**2         TX        TY        TZ
       cm**-1   L/(mol*cm) km/mol    a.u.
----------------------------------------------------------------------------
  6:     37.75   0.000112    0.57  0.000928  ( 0.019059  0.002154  0.023675)
  7:     40.25   0.000015    0.08  0.000119  ( 0.002635 -0.009129  0.005367)
  8:     71.43   0.000071    0.36  0.000308  (-0.007401  0.015917 -0.000256)
  9:    108.97   0.000115    0.58  0.000329  (-0.002451 -0.001336  0.017922)
 10:    120.66   0.000073    0.37  0.000188  ( 0.010589  0.008052 -0.003316)
 11:    149.16   0.000002    0.01  0.000004  (-0.001354 -0.000345 -0.001372)
 12:    150.75   0.001162    5.87  0.002405  ( 0.018403 -0.011226  0.044047)
 13:    167.41   0.000027    0.14  0.000051  ( 0.002055  0.000578 -0.006789)
 14:    219.08   0.000218    1.10  0.000310  (-0.007096 -0.012774 -0.009830)
 15:    234.47   0.000143    0.72  0.000191  (-0.005807  0.009659 -0.007995)
 16:    255.85   0.000060    0.30  0.000073  (-0.000154  0.008491  0.000730)
 17:    277.64   0.000024    0.12  0.000027  (-0.002751 -0.000751  0.004312)
 18:    300.99   0.000029    0.15  0.000030  ( 0.004507  0.003126 -0.000479)
 19:    307.57   0.000333    1.68  0.000338  (-0.000177 -0.018380  0.000182)
 20:    321.98   0.001697    8.58  0.001645  ( 0.040371 -0.000123 -0.003836)
 21:    335.71   0.000831    4.20  0.000773  (-0.023609 -0.003621 -0.014214)
 22:    404.61   0.003669   18.54  0.002830  ( 0.052363 -0.005144 -0.007845)
 23:    417.34   0.000991    5.01  0.000741  (-0.026782  0.001763 -0.004559)
 24:    443.96   0.002592   13.10  0.001822  ( 0.015495 -0.009546 -0.038607)
 25:    475.58   0.000117    0.59  0.000077  ( 0.005601 -0.002355  0.006318)
 26:    498.29   0.002689   13.59  0.001684  (-0.008889 -0.030566  0.025893)
 27:    536.07   0.000663    3.35  0.000386  ( 0.019235  0.003132  0.002502)
 28:    641.12   0.002867   14.49  0.001395  (-0.031811  0.015553 -0.011899)
 29:    660.33   0.001332    6.73  0.000629  (-0.008547 -0.008100  0.022150)
 30:    667.25   0.008746   44.20  0.004090  (-0.015458 -0.005730 -0.061795)
 31:    676.82   0.024398  123.30  0.011249  ( 0.006407  0.105848 -0.002096)
 32:    704.44   0.019962  100.88  0.008843  (-0.091761  0.005934  0.019689)
 33:    731.27   0.009803   49.54  0.004184  ( 0.001269  0.009648  0.063944)
 34:    741.89   0.006056   30.61  0.002548  ( 0.001955 -0.009233  0.049583)
 35:    757.03   0.001563    7.90  0.000644  (-0.020360 -0.008352 -0.012648)
 36:    838.76   0.001186    5.99  0.000441  ( 0.008087  0.018532 -0.005679)
 37:    842.49   0.007064   35.70  0.002616  ( 0.000626  0.050788  0.006047)
 38:    906.66   0.000254    1.28  0.000087  ( 0.009338  0.000268  0.000366)
 39:    945.37   0.001032    5.22  0.000341  ( 0.005296 -0.003321  0.017368)
 40:    973.12   0.006170   31.18  0.001979  (-0.001956  0.043395 -0.009582)
 41:    987.02   0.000464    2.34  0.000147  (-0.011977  0.000577 -0.001686)
 42:    997.78   0.000888    4.49  0.000278  ( 0.016572 -0.000910  0.001540)
 43:   1039.49   0.018709   94.55  0.005616  ( 0.003082  0.074837 -0.002540)
 44:   1056.80   0.000382    1.93  0.000113  (-0.010362 -0.001705  0.001633)
 45:   1064.20   0.003345   16.90  0.000981  ( 0.004557 -0.025436  0.017694)
 46:   1142.88   0.003191   16.12  0.000871  ( 0.029312  0.003466 -0.000151)
 47:   1147.45   0.000809    4.09  0.000220  ( 0.001228 -0.009424 -0.011392)
 48:   1165.46   0.007785   39.34  0.002085  (-0.001972 -0.044166  0.011402)
 49:   1198.73   0.016103   81.38  0.004192  ( 0.064434 -0.004672 -0.004294)
 50:   1226.40   0.028902  146.06  0.007354  (-0.085358  0.004653  0.006839)
 51:   1234.45   0.025061  126.65  0.006335  (-0.079128  0.002660  0.008187)
 52:   1265.81   0.001857    9.38  0.000458  (-0.003722 -0.020966 -0.002093)
 53:   1296.01   0.005114   25.84  0.001231  ( 0.034146 -0.001490 -0.007950)
 54:   1307.94   0.000296    1.50  0.000071  ( 0.003283  0.007492 -0.001939)
 55:   1333.77   0.000928    4.69  0.000217  (-0.014688 -0.000606  0.000982)
 56:   1360.32   0.001092    5.52  0.000250  (-0.015795 -0.000602  0.000748)
 57:   1385.33   0.000298    1.50  0.000067  (-0.001901 -0.005676  0.005588)
 58:   1404.53   0.000002    0.01  0.000000  (-0.000526 -0.000079 -0.000343)
 59:   1469.85   0.000552    2.79  0.000117  (-0.010689 -0.001020  0.001391)
 60:   1470.45   0.002785   14.08  0.000591  ( 0.003315  0.021053  0.011702)
 61:   1675.98   0.001856    9.38  0.000345  ( 0.017841  0.000013 -0.005214)
 62:   1758.54   0.090053  455.09  0.015981  ( 0.002649  0.126382  0.001004)
 63:   1805.94   0.003424   17.30  0.000592  ( 0.005508 -0.005029 -0.023151)
 64:   2964.72   0.000955    4.83  0.000101  (-0.009456 -0.000274  0.003320)
 65:   2980.18   0.000647    3.27  0.000068  (-0.003073  0.003936 -0.006545)
 66:   3005.36   0.000141    0.71  0.000015  ( 0.003761  0.000673  0.000300)
 67:   3006.96   0.006470   32.70  0.000671  ( 0.006306  0.019493  0.015867)
 68:   3062.49   0.001146    5.79  0.000117  ( 0.002684  0.007159 -0.007639)
 69:   3063.49   0.002600   13.14  0.000265  (-0.006616  0.011479 -0.009449)
 70:   3134.62   0.000844    4.27  0.000084  (-0.000886 -0.008936 -0.001846)
 71:   3154.90   0.006632   33.52  0.000656  ( 0.024613 -0.000288 -0.007081)

--------------------------
THERMOCHEMISTRY AT 298.15K
--------------------------

Temperature         ...   298.15 K
Pressure            ...     1.00 atm
Total Mass          ...   300.59 AMU
Quasi RRHO          ...     True
Cut-Off Frequency   ...     1.00 cm^-1

Throughout the following assumptions are being made:
  (1) The electronic state is orbitally nondegenerate
  (2) There are no thermally accessible electronically excited states
  (3) Hindered rotations indicated by low frequency modes are not
      treated as such but are treated as vibrations and this may
      cause some error
  (4) All equations used are the standard statistical mechanics
      equations for an ideal gas
  (5) All vibrations are strictly harmonic

freq.      37.75  E(vib)   ...       0.54
freq.      40.25  E(vib)   ...       0.54
freq.      71.43  E(vib)   ...       0.50
freq.     108.97  E(vib)   ...       0.45
freq.     120.66  E(vib)   ...       0.44
freq.     149.16  E(vib)   ...       0.40
freq.     150.75  E(vib)   ...       0.40
freq.     167.41  E(vib)   ...       0.39
freq.     219.08  E(vib)   ...       0.33
freq.     234.47  E(vib)   ...       0.32
freq.     255.85  E(vib)   ...       0.30
freq.     277.64  E(vib)   ...       0.28
freq.     300.99  E(vib)   ...       0.26
freq.     307.57  E(vib)   ...       0.26
freq.     321.98  E(vib)   ...       0.25
freq.     335.71  E(vib)   ...       0.24
freq.     404.61  E(vib)   ...       0.19
freq.     417.34  E(vib)   ...       0.18
freq.     443.96  E(vib)   ...       0.17
freq.     475.58  E(vib)   ...       0.15
freq.     498.29  E(vib)   ...       0.14
freq.     536.07  E(vib)   ...       0.12
freq.     641.12  E(vib)   ...       0.09
freq.     660.33  E(vib)   ...       0.08
freq.     667.25  E(vib)   ...       0.08
freq.     676.82  E(vib)   ...       0.08
freq.     704.44  E(vib)   ...       0.07
freq.     731.27  E(vib)   ...       0.06
freq.     741.89  E(vib)   ...       0.06
freq.     757.03  E(vib)   ...       0.06
freq.     838.76  E(vib)   ...       0.04
freq.     842.49  E(vib)   ...       0.04
freq.     906.66  E(vib)   ...       0.03
freq.     945.37  E(vib)   ...       0.03
freq.     973.12  E(vib)   ...       0.03
freq.     987.02  E(vib)   ...       0.02
freq.     997.78  E(vib)   ...       0.02
freq.    1039.49  E(vib)   ...       0.02
freq.    1056.80  E(vib)   ...       0.02
freq.    1064.20  E(vib)   ...       0.02
freq.    1142.88  E(vib)   ...       0.01
freq.    1147.45  E(vib)   ...       0.01
freq.    1165.46  E(vib)   ...       0.01
freq.    1198.73  E(vib)   ...       0.01
freq.    1226.40  E(vib)   ...       0.01
freq.    1234.45  E(vib)   ...       0.01
freq.    1265.81  E(vib)   ...       0.01
freq.    1296.01  E(vib)   ...       0.01
freq.    1307.94  E(vib)   ...       0.01
freq.    1333.77  E(vib)   ...       0.01
freq.    1360.32  E(vib)   ...       0.01
freq.    1385.33  E(vib)   ...       0.00
freq.    1404.53  E(vib)   ...       0.00
freq.    1469.85  E(vib)   ...       0.00
freq.    1470.45  E(vib)   ...       0.00
freq.    1675.98  E(vib)   ...       0.00
freq.    1758.54  E(vib)   ...       0.00
freq.    1805.94  E(vib)   ...       0.00
freq.    2964.72  E(vib)   ...       0.00
freq.    2980.18  E(vib)   ...       0.00
freq.    3005.36  E(vib)   ...       0.00
freq.    3006.96  E(vib)   ...       0.00
freq.    3062.49  E(vib)   ...       0.00
freq.    3063.49  E(vib)   ...       0.00
freq.    3134.62  E(vib)   ...       0.00
freq.    3154.90  E(vib)   ...       0.00

------------
INNER ENERGY
------------

The inner energy is: U= E(el) + E(ZPE) + E(vib) + E(rot) + E(trans)
    E(el)   - is the total energy from the electronic structure calculation
              = E(kin-el) + E(nuc-el) + E(el-el) + E(nuc-nuc)
    E(ZPE)  - the the zero temperature vibrational energy from the frequency calculation
    E(vib)  - the the finite temperature correction to E(ZPE) due to population
              of excited vibrational states
    E(rot)  - is the rotational thermal energy
    E(trans)- is the translational thermal energy

Summary of contributions to the inner energy U:
Electronic energy                ...  -2331.61188415 Eh
Zero point energy                ...      0.15976764 Eh     100.26 kcal/mol
Thermal vibrational correction   ...      0.01247276 Eh       7.83 kcal/mol
Thermal rotational correction    ...      0.00141627 Eh       0.89 kcal/mol
Thermal translational correction ...      0.00141627 Eh       0.89 kcal/mol
-----------------------------------------------------------------------
Total thermal energy                  -2331.43681120 Eh

Summary of corrections to the electronic energy:
(perhaps to be used in another calculation)
Total thermal correction                  0.01530531 Eh       9.60 kcal/mol
Non-thermal (ZPE) correction              0.15976764 Eh     100.26 kcal/mol
-----------------------------------------------------------------------
Total correction                          0.17507295 Eh     109.86 kcal/mol

--------
ENTHALPY
--------

The enthalpy is H = U + kB*T
                kB is Boltzmann's constant
Total thermal energy              ...  -2331.43681120 Eh
Thermal Enthalpy correction       ...      0.00094421 Eh       0.59 kcal/mol
-----------------------------------------------------------------------
Total Enthalpy                    ...  -2331.43586699 Eh

Note: Only C1 symmetry has been detected, increase convergence thresholds
      if your molecule has a higher symmetry. Symmetry factor of 1.0 is
      used for the rotational entropy correction.

Note: Rotational entropy computed according to Herzberg
Infrared and Raman Spectra, Chapter V,1, Van Nostrand Reinhold, 1945
Point Group:  C1, Symmetry Number:   1
Rotational constants in cm-1:     0.024629     0.007354     0.006705

Vibrational entropy computed according to the QRRHO of S. Grimme
Chem.Eur.J. 2012 18 9955 using a reference frequency of 100.0 cm-1

-------
ENTROPY
-------

The entropy contributions are T*S = T*(S(el)+S(vib)+S(rot)+S(trans))
     S(el)   - electronic entropy
     S(vib)  - vibrational entropy
     S(rot)  - rotational entropy
     S(trans)- translational entropy
The entropies will be listed as multiplied by the temperature to get
units of energy

Electronic entropy                ...      0.00000000 Eh      0.00 kcal/mol
Vibrational entropy               ...      0.02181764 Eh     13.69 kcal/mol
Rotational entropy                ...      0.01594125 Eh     10.00 kcal/mol
Translational entropy             ...      0.02042994 Eh     12.82 kcal/mol
-----------------------------------------------------------------------
Final entropy term                ...      0.05818884 Eh     36.51 kcal/mol

                             ****ORCA TERMINATED NORMALLY****
TOTAL RUN TIME: 0 days 0 hours 48 minutes 19 seconds 419 msec
