                         Program Version 6.0.0  -   RELEASE  -
|  1> ! r2SCAN-3c DEF2-TZVP FREQ
|  2> * xyzfile 0 1 vacuum_censo.xyz
|  3>
|  4>                          ****END OF INPUT****

CARTESIAN COORDINATES (ANGSTROEM)
---------------------------------
  C      3.588787   -1.492257   -0.076093
  C      4.712154   -0.613554   -0.574027
  C      4.619556    0.707821   -0.760793
  C      3.404067    1.540294   -0.428308
  C      2.480151    0.701473    0.432490
  H      2.938257    0.587551    1.429224
  C      2.301144   -0.697697   -0.154656
  H      2.022128   -0.577736   -1.214838
  C      1.050389   -1.208064    0.519317
  O      0.710845   -2.333292    0.758209
  N      0.289318   -0.025403    0.816872
  C      1.068206    1.172199    0.702830
  O      0.657611    2.289482    0.856283
  S     -1.320021   -0.054791    1.382172
  C     -2.247025   -0.012180   -0.202660
  Cl    -3.954779   -0.064880    0.346912
  Cl    -1.945034    1.478149   -1.149578
  Cl    -1.888556   -1.425386   -1.250350
  H      3.779235   -1.822536    0.954854
  H      3.524679   -2.404073   -0.679428
  H      5.648372   -1.111952   -0.813224
  H      5.477861    1.241627   -1.161389
  H      3.701855    2.455845    0.093742
  H      2.891318    1.863975   -1.344966

 Total Charge           Charge          ....    0
 Multiplicity           Mult            ....    1
 Number of Electrons    NEL             ....  152
 Basis Dimension        Dim             ....  568

ORBITAL ENERGIES
----------------

  NO   OCC          E(Eh)            E(eV)
   0   2.0000    -101.222733     -2754.4106
   1   2.0000    -101.215166     -2754.2047
   2   2.0000    -101.214260     -2754.1800
   3   2.0000     -88.602855     -2411.0063
   4   2.0000     -18.965553      -516.0789
   5   2.0000     -18.963819      -516.0318
   6   2.0000     -14.251522      -387.8036
   7   2.0000     -10.252893      -278.9954
   8   2.0000     -10.170214      -276.7456
   9   2.0000     -10.169524      -276.7268
  10   2.0000     -10.080043      -274.2919
  11   2.0000     -10.079284      -274.2713
  12   2.0000     -10.063065      -273.8299
  13   2.0000     -10.062638      -273.8183
  14   2.0000     -10.054538      -273.5979
  15   2.0000     -10.053842      -273.5789
  16   2.0000      -9.398639      -255.7500
  17   2.0000      -9.391240      -255.5486
  18   2.0000      -9.390336      -255.5240
  19   2.0000      -7.912662      -215.3145
  20   2.0000      -7.144227      -194.4043
  21   2.0000      -7.136737      -194.2005
  22   2.0000      -7.135875      -194.1770
  23   2.0000      -7.133145      -194.1027
  24   2.0000      -7.132965      -194.0978
  25   2.0000      -7.125878      -193.9050
  26   2.0000      -7.125478      -193.8941
  27   2.0000      -7.124932      -193.8793
  28   2.0000      -7.124566      -193.8693
  29   2.0000      -5.860570      -159.4742
  30   2.0000      -5.855163      -159.3271
  31   2.0000      -5.846927      -159.1030
  32   2.0000      -1.053004       -28.6537
  33   2.0000      -1.037352       -28.2278
  34   2.0000      -0.945128       -25.7182
  35   2.0000      -0.912723       -24.8364
  36   2.0000      -0.847045       -23.0493
  37   2.0000      -0.811883       -22.0924
  38   2.0000      -0.804524       -21.8922
  39   2.0000      -0.774306       -21.0699
  40   2.0000      -0.749632       -20.3985
  41   2.0000      -0.717395       -19.5213
  42   2.0000      -0.657612       -17.8945
  43   2.0000      -0.635026       -17.2799
  44   2.0000      -0.593307       -16.1447
  45   2.0000      -0.588020       -16.0008
  46   2.0000      -0.533613       -14.5203
  47   2.0000      -0.528366       -14.3776
  48   2.0000      -0.488960       -13.3053
  49   2.0000      -0.484193       -13.1755
  50   2.0000      -0.467406       -12.7188
  51   2.0000      -0.460324       -12.5261
  52   2.0000      -0.455166       -12.3857
  53   2.0000      -0.446635       -12.1535
  54   2.0000      -0.435593       -11.8531
  55   2.0000      -0.423443       -11.5225
  56   2.0000      -0.414552       -11.2805
  57   2.0000      -0.408002       -11.1023
  58   2.0000      -0.398197       -10.8355
  59   2.0000      -0.392042       -10.6680
  60   2.0000      -0.381866       -10.3911
  61   2.0000      -0.370908       -10.0929
  62   2.0000      -0.339313        -9.2332
  63   2.0000      -0.338218        -9.2034
  64   2.0000      -0.334046        -9.0899
  65   2.0000      -0.330439        -8.9917
  66   2.0000      -0.328232        -8.9316
  67   2.0000      -0.320723        -8.7273
  68   2.0000      -0.306961        -8.3528
  69   2.0000      -0.305770        -8.3204
  70   2.0000      -0.287758        -7.8303
  71   2.0000      -0.281393        -7.6571
  72   2.0000      -0.267890        -7.2897
  73   2.0000      -0.257995        -7.0204
  74   2.0000      -0.248427        -6.7601
  75   2.0000      -0.242099        -6.5878
  76   0.0000      -0.091241        -2.4828
  77   0.0000      -0.071271        -1.9394
  78   0.0000      -0.057929        -1.5763
  79   0.0000      -0.046596        -1.2679
  80   0.0000      -0.032209        -0.8764

MULLIKEN ATOMIC CHARGES
-----------------------
   0 C :   -0.102999
   1 C :   -0.191952
   2 C :   -0.193937
   3 C :   -0.106737
   4 C :    0.024884
   5 H :    0.095915
   6 C :    0.026881
   7 H :    0.097089
   8 C :    0.109929
   9 O :   -0.266128
  10 N :   -0.088287
  11 C :    0.135017
  12 O :   -0.274520
  13 S :    0.082253
  14 C :    0.166057
  15 Cl:   -0.057750
  16 Cl:   -0.056284
  17 Cl:   -0.061606
  18 H :    0.101707
  19 H :    0.113757
  20 H :    0.114780
  21 H :    0.114974
  22 H :    0.114893
  23 H :    0.102063
Sum of atomic charges:   -0.0000000

LOEWDIN ATOMIC CHARGES
----------------------
   0 C :   -0.207982
   1 C :   -0.161990
   2 C :   -0.162232
   3 C :   -0.207685
   4 C :   -0.176725
   5 H :    0.185421
   6 C :   -0.178965
   7 H :    0.185891
   8 C :   -0.393397
   9 O :    0.151303
  10 N :    0.012875
  11 C :   -0.393153
  12 O :    0.147496
  13 S :    0.559839
  14 C :   -1.279355
  15 Cl:    0.345460
  16 Cl:    0.341838
  17 Cl:    0.338170
  18 H :    0.151852
  19 H :    0.151312
  20 H :    0.143251
  21 H :    0.143335
  22 H :    0.151460
  23 H :    0.151978

  Mayer bond orders larger than 0.100000
B(  0-C ,  1-C ) :   0.9858 B(  0-C ,  6-C ) :   1.0095 B(  0-C , 18-H ) :   0.9314
B(  0-C , 19-H ) :   0.9490 B(  1-C ,  2-C ) :   1.8962 B(  1-C , 20-H ) :   0.9677
B(  2-C ,  3-C ) :   0.9859 B(  2-C , 21-H ) :   0.9675 B(  3-C ,  4-C ) :   1.0072
B(  3-C , 22-H ) :   0.9490 B(  3-C , 23-H ) :   0.9312 B(  4-C ,  5-H ) :   0.9205
B(  4-C ,  6-C ) :   0.9604 B(  4-C , 11-C ) :   0.8928 B(  6-C ,  7-H ) :   0.9133
B(  6-C ,  8-C ) :   0.8995 B(  8-C ,  9-O ) :   2.1543 B(  8-C , 10-N ) :   1.0142
B( 10-N , 11-C ) :   1.0359 B( 10-N , 13-S ) :   1.0106 B( 11-C , 12-O ) :   2.1442
B( 13-S , 14-C ) :   1.0292 B( 14-C , 15-Cl) :   1.0576 B( 14-C , 16-Cl) :   1.0959
B( 14-C , 17-Cl) :   1.0818

Dispersion correction           -0.012768543
FINAL SINGLE POINT ENERGY     -2331.612420562588

DIPOLE MOMENT
-------------

Method             : SCF
Type of density    : Electron Density
Multiplicity       :   1
Irrep              :   0
Energy             : -2331.6183026088228871 Eh
Relativity type    :
Basis              : AO
                                X                 Y                 Z
Electronic contribution:    -37.377034162      -0.240862026      -0.542698900
Nuclear contribution   :     38.763199940       0.256603835       0.182483142
                        -----------------------------------------
Total Dipole Moment    :      1.386165778       0.015741809      -0.360215758
                        -----------------------------------------
Magnitude (a.u.)       :      1.432291437
Magnitude (Debye)      :      3.640595510

VIBRATIONAL FREQUENCIES
-----------------------

Scaling factor for frequencies =  1.000000000  (already applied!)

     0:       0.00 cm**-1
     1:       0.00 cm**-1
     2:       0.00 cm**-1
     3:       0.00 cm**-1
     4:       0.00 cm**-1
     5:       0.00 cm**-1
     6:      38.63 cm**-1
     7:      40.04 cm**-1
     8:      71.53 cm**-1
     9:     109.73 cm**-1
    10:     114.78 cm**-1
    11:     145.13 cm**-1
    12:     149.34 cm**-1
    13:     167.26 cm**-1
    14:     215.74 cm**-1
    15:     232.76 cm**-1
    16:     252.75 cm**-1
    17:     277.25 cm**-1
    18:     300.99 cm**-1
    19:     307.62 cm**-1
    20:     315.03 cm**-1
    21:     335.46 cm**-1
    22:     403.52 cm**-1
    23:     416.68 cm**-1
    24:     443.79 cm**-1
    25:     470.68 cm**-1
    26:     494.95 cm**-1
    27:     532.96 cm**-1
    28:     635.90 cm**-1
    29:     656.41 cm**-1
    30:     664.90 cm**-1
    31:     677.52 cm**-1
    32:     706.22 cm**-1
    33:     729.78 cm**-1
    34:     739.51 cm**-1
    35:     753.04 cm**-1
    36:     833.92 cm**-1
    37:     837.74 cm**-1
    38:     905.44 cm**-1
    39:     943.11 cm**-1
    40:     968.93 cm**-1
    41:     979.77 cm**-1
    42:     993.16 cm**-1
    43:    1021.45 cm**-1
    44:    1055.44 cm**-1
    45:    1057.03 cm**-1
    46:    1143.06 cm**-1
    47:    1145.86 cm**-1
    48:    1161.80 cm**-1
    49:    1193.22 cm**-1
    50:    1215.86 cm**-1
    51:    1234.03 cm**-1
    52:    1262.07 cm**-1
    53:    1293.95 cm**-1
    54:    1308.73 cm**-1
    55:    1335.76 cm**-1
    56:    1359.57 cm**-1
    57:    1380.28 cm**-1
    58:    1403.47 cm**-1
    59:    1471.69 cm**-1
    60:    1472.26 cm**-1
    61:    1679.71 cm**-1
    62:    1798.80 cm**-1
    63:    1844.65 cm**-1
    64:    2965.15 cm**-1
    65:    2980.59 cm**-1
    66:    3001.43 cm**-1
    67:    3003.50 cm**-1
    68:    3057.68 cm**-1
    69:    3058.89 cm**-1
    70:    3137.14 cm**-1
    71:    3157.62 cm**-1

IR SPECTRUM
-----------

 Mode   freq       eps      Int      T**2         TX        TY        TZ
       cm**-1   L/(mol*cm) km/mol    a.u.
----------------------------------------------------------------------------
  6:     38.63   0.000120    0.60  0.000967  (-0.019599  0.002787 -0.023974)
  7:     40.04   0.000026    0.13  0.000202  ( 0.005769  0.009264  0.009101)
  8:     71.53   0.000072    0.36  0.000314  (-0.008144 -0.015749 -0.000060)
  9:    109.73   0.000177    0.90  0.000504  (-0.001447  0.003036  0.022190)
 10:    114.78   0.000071    0.36  0.000194  ( 0.011161 -0.008016 -0.002257)
 11:    145.13   0.001131    5.71  0.002431  (-0.019482 -0.010671 -0.044020)
 12:    149.34   0.000032    0.16  0.000066  ( 0.002965  0.002257  0.007245)
 13:    167.26   0.000011    0.06  0.000021  ( 0.003285  0.000305 -0.003187)
 14:    215.74   0.000213    1.08  0.000309  (-0.006314  0.014700 -0.007267)
 15:    232.76   0.000135    0.68  0.000182  (-0.004793 -0.010991 -0.006154)
 16:    252.75   0.000052    0.26  0.000065  ( 0.000026 -0.008042  0.000191)
 17:    277.25   0.000017    0.09  0.000019  (-0.001910  0.001068  0.003767)
 18:    300.99   0.000042    0.21  0.000043  ( 0.006048 -0.001993 -0.001638)
 19:    307.62   0.000310    1.57  0.000315  (-0.000777  0.017713  0.000576)
 20:    315.03   0.001696    8.57  0.001681  ( 0.040745  0.000826 -0.004437)
 21:    335.46   0.000867    4.38  0.000807  (-0.024805  0.003313 -0.013426)
 22:    403.52   0.003545   17.92  0.002742  ( 0.051361  0.005693 -0.008451)
 23:    416.68   0.000946    4.78  0.000709  (-0.026261 -0.002072 -0.003858)
 24:    443.79   0.002422   12.24  0.001703  ( 0.013573  0.009458 -0.037811)
 25:    470.68   0.000147    0.74  0.000097  ( 0.005904  0.002344  0.007554)
 26:    494.95   0.002852   14.41  0.001798  (-0.009670  0.031129  0.027126)
 27:    532.96   0.000712    3.60  0.000417  ( 0.019993 -0.002677  0.003125)
 28:    635.90   0.002971   15.01  0.001458  (-0.033419 -0.014101 -0.011932)
 29:    656.41   0.001530    7.73  0.000727  (-0.007566  0.007220  0.024861)
 30:    664.90   0.008458   42.74  0.003970  (-0.016648  0.006101 -0.060460)
 31:    677.52   0.024285  122.72  0.011185  ( 0.007237 -0.105402 -0.004840)
 32:    706.22   0.019999  101.07  0.008837  (-0.091504 -0.007837  0.020066)
 33:    729.78   0.005542   28.01  0.002370  (-0.000707 -0.014336  0.046517)
 34:    739.51   0.009742   49.23  0.004111  ( 0.001141  0.005504  0.063870)
 35:    753.04   0.002084   10.53  0.000864  (-0.021198  0.009586 -0.017955)
 36:    833.92   0.007893   39.89  0.002954  ( 0.005585 -0.054057 -0.000462)
 37:    837.74   0.001223    6.18  0.000456  ( 0.006771  0.018514 -0.008180)
 38:    905.44   0.000227    1.15  0.000078  ( 0.008821 -0.000350  0.000656)
 39:    943.11   0.001150    5.81  0.000380  ( 0.005502  0.004850  0.018072)
 40:    968.93   0.007907   39.96  0.002547  (-0.001978 -0.049412 -0.010067)
 41:    979.77   0.000741    3.74  0.000236  ( 0.015129  0.000797  0.002522)
 42:    993.16   0.000280    1.41  0.000088  ( 0.009270  0.000980  0.001011)
 43:   1021.45   0.018776   94.89  0.005736  ( 0.002861 -0.075607 -0.003399)
 44:   1055.44   0.000680    3.44  0.000201  (-0.006059  0.009432  0.008689)
 45:   1057.03   0.001748    8.83  0.000516  ( 0.007826  0.015561  0.014585)
 46:   1143.06   0.003563   18.01  0.000973  (-0.028967  0.010823 -0.004077)
 47:   1145.86   0.002064   10.43  0.000562  ( 0.019717  0.009130 -0.009486)
 48:   1161.80   0.006065   30.65  0.001629  (-0.001821  0.038362  0.012411)
 49:   1193.22   0.034158  172.62  0.008933  (-0.094054 -0.005768  0.007355)
 50:   1215.86   0.032079  162.12  0.008233  (-0.090200 -0.004290  0.008889)
 51:   1234.03   0.005764   29.13  0.001458  (-0.037848 -0.000497  0.004986)
 52:   1262.07   0.001287    6.50  0.000318  (-0.005003  0.016987 -0.002157)
 53:   1293.95   0.003481   17.59  0.000840  ( 0.027896  0.001126 -0.007752)
 54:   1308.73   0.000216    1.09  0.000052  ( 0.002760 -0.006296 -0.002066)
 55:   1335.76   0.000641    3.24  0.000150  (-0.012201  0.000700  0.000662)
 56:   1359.57   0.000561    2.83  0.000129  (-0.011278  0.001223  0.000162)
 57:   1380.28   0.000144    0.73  0.000033  (-0.001804  0.000720  0.005370)
 58:   1403.47   0.000002    0.01  0.000000  (-0.000484  0.000096 -0.000419)
 59:   1471.69   0.000655    3.31  0.000139  (-0.010900  0.004464 -0.000355)
 60:   1472.26   0.002778   14.04  0.000589  ( 0.001654 -0.021413  0.011297)
 61:   1679.71   0.001861    9.41  0.000346  ( 0.017865  0.000063 -0.005162)
 62:   1798.80   0.093278  471.39  0.016182  ( 0.002739 -0.127177  0.000982)
 63:   1844.65   0.003439   17.38  0.000582  ( 0.002390  0.005067 -0.023461)
 64:   2965.15   0.000890    4.50  0.000094  (-0.008942  0.000373  0.003680)
 65:   2980.59   0.000648    3.27  0.000068  (-0.003186 -0.004962 -0.005749)
 66:   3001.43   0.000318    1.61  0.000033  ( 0.004568 -0.002733  0.002183)
 67:   3003.50   0.006692   33.82  0.000695  ( 0.006565 -0.019245  0.016789)
 68:   3057.68   0.001373    6.94  0.000140  ( 0.002499 -0.008279 -0.008082)
 69:   3058.89   0.002753   13.91  0.000281  (-0.006936 -0.012119 -0.009269)
 70:   3137.14   0.000842    4.25  0.000084  (-0.001006  0.008937 -0.001687)
 71:   3157.62   0.006645   33.58  0.000657  ( 0.024562  0.000358 -0.007297)

--------------------------
THERMOCHEMISTRY AT 298.15K
--------------------------

Temperature         ...   298.15 K
Pressure            ...     1.00 atm
Total Mass          ...   300.59 AMU
Quasi RRHO          ...     True
Cut-Off Frequency   ...     1.00 cm^-1

Throughout the following assumptions are being made:
  (1) The electronic state is orbitally nondegenerate
  (2) There are no thermally accessible electronically excited states
  (3) Hindered rotations indicated by low frequency modes are not
      treated as such but are treated as vibrations and this may
      cause some error
  (4) All equations used are the standard statistical mechanics
      equations for an ideal gas
  (5) All vibrations are strictly harmonic

freq.      38.63  E(vib)   ...       0.54
freq.      40.04  E(vib)   ...       0.54
freq.      71.53  E(vib)   ...       0.50
freq.     109.73  E(vib)   ...       0.45
freq.     114.78  E(vib)   ...       0.44
freq.     145.13  E(vib)   ...       0.41
freq.     149.34  E(vib)   ...       0.40
freq.     167.26  E(vib)   ...       0.39
freq.     215.74  E(vib)   ...       0.34
freq.     232.76  E(vib)   ...       0.32
freq.     252.75  E(vib)   ...       0.30
freq.     277.25  E(vib)   ...       0.28
freq.     300.99  E(vib)   ...       0.26
freq.     307.62  E(vib)   ...       0.26
freq.     315.03  E(vib)   ...       0.25
freq.     335.46  E(vib)   ...       0.24
freq.     403.52  E(vib)   ...       0.19
freq.     416.68  E(vib)   ...       0.18
freq.     443.79  E(vib)   ...       0.17
freq.     470.68  E(vib)   ...       0.15
freq.     494.95  E(vib)   ...       0.14
freq.     532.96  E(vib)   ...       0.13
freq.     635.90  E(vib)   ...       0.09
freq.     656.41  E(vib)   ...       0.08
freq.     664.90  E(vib)   ...       0.08
freq.     677.52  E(vib)   ...       0.08
freq.     706.22  E(vib)   ...       0.07
freq.     729.78  E(vib)   ...       0.06
freq.     739.51  E(vib)   ...       0.06
freq.     753.04  E(vib)   ...       0.06
freq.     833.92  E(vib)   ...       0.04
freq.     837.74  E(vib)   ...       0.04
freq.     905.44  E(vib)   ...       0.03
freq.     943.11  E(vib)   ...       0.03
freq.     968.93  E(vib)   ...       0.03
freq.     979.77  E(vib)   ...       0.02
freq.     993.16  E(vib)   ...       0.02
freq.    1021.45  E(vib)   ...       0.02
freq.    1055.44  E(vib)   ...       0.02
freq.    1057.03  E(vib)   ...       0.02
freq.    1143.06  E(vib)   ...       0.01
freq.    1145.86  E(vib)   ...       0.01
freq.    1161.80  E(vib)   ...       0.01
freq.    1193.22  E(vib)   ...       0.01
freq.    1215.86  E(vib)   ...       0.01
freq.    1234.03  E(vib)   ...       0.01
freq.    1262.07  E(vib)   ...       0.01
freq.    1293.95  E(vib)   ...       0.01
freq.    1308.73  E(vib)   ...       0.01
freq.    1335.76  E(vib)   ...       0.01
freq.    1359.57  E(vib)   ...       0.01
freq.    1380.28  E(vib)   ...       0.01
freq.    1403.47  E(vib)   ...       0.00
freq.    1471.69  E(vib)   ...       0.00
freq.    1472.26  E(vib)   ...       0.00
freq.    1679.71  E(vib)   ...       0.00
freq.    1798.80  E(vib)   ...       0.00
freq.    1844.65  E(vib)   ...       0.00
freq.    2965.15  E(vib)   ...       0.00
freq.    2980.59  E(vib)   ...       0.00
freq.    3001.43  E(vib)   ...       0.00
freq.    3003.50  E(vib)   ...       0.00
freq.    3057.68  E(vib)   ...       0.00
freq.    3058.89  E(vib)   ...       0.00
freq.    3137.14  E(vib)   ...       0.00
freq.    3157.62  E(vib)   ...       0.00

------------
INNER ENERGY
------------

The inner energy is: U= E(el) + E(ZPE) + E(vib) + E(rot) + E(trans)
    E(el)   - is the total energy from the electronic structure calculation
              = E(kin-el) + E(nuc-el) + E(el-el) + E(nuc-nuc)
    E(ZPE)  - the the zero temperature vibrational energy from the frequency calculation
    E(vib)  - the the finite temperature correction to E(ZPE) due to population
              of excited vibrational states
    E(rot)  - is the rotational thermal energy
    E(trans)- is the translational thermal energy

Summary of contributions to the inner energy U:
Electronic energy                ...  -2331.61242056 Eh
Zero point energy                ...      0.15961449 Eh     100.16 kcal/mol
Thermal vibrational correction   ...      0.01253869 Eh       7.87 kcal/mol
Thermal rotational correction    ...      0.00141627 Eh       0.89 kcal/mol
Thermal translational correction ...      0.00141627 Eh       0.89 kcal/mol
-----------------------------------------------------------------------
Total thermal energy                  -2331.43743484 Eh

Summary of corrections to the electronic energy:
(perhaps to be used in another calculation)
Total thermal correction                  0.01537123 Eh       9.65 kcal/mol
Non-thermal (ZPE) correction              0.15961449 Eh     100.16 kcal/mol
-----------------------------------------------------------------------
Total correction                          0.17498572 Eh     109.80 kcal/mol

--------
ENTHALPY
--------

The enthalpy is H = U + kB*T
                kB is Boltzmann's constant
Total thermal energy              ...  -2331.43743484 Eh
Thermal Enthalpy correction       ...      0.00094421 Eh       0.59 kcal/mol
-----------------------------------------------------------------------
Total Enthalpy                    ...  -2331.43649063 Eh

Note: Only C1 symmetry has been detected, increase convergence thresholds
      if your molecule has a higher symmetry. Symmetry factor of 1.0 is
      used for the rotational entropy correction.

Note: Rotational entropy computed according to Herzberg
Infrared and Raman Spectra, Chapter V,1, Van Nostrand Reinhold, 1945
Point Group:  C1, Symmetry Number:   1
Rotational constants in cm-1:     0.024548     0.007376     0.006723

Vibrational entropy computed according to the QRRHO of S. Grimme
Chem.Eur.J. 2012 18 9955 using a reference frequency of 100.0 cm-1

-------
ENTROPY
-------

The entropy contributions are T*S = T*(S(el)+S(vib)+S(rot)+S(trans))
     S(el)   - electronic entropy
     S(vib)  - vibrational entropy
     S(rot)  - rotational entropy
     S(trans)- translational entropy
The entropies will be listed as multiplied by the temperature to get
units of energy

Electronic entropy                ...      0.00000000 Eh      0.00 kcal/mol
Vibrational entropy               ...      0.02195195 Eh     13.78 kcal/mol
Rotational entropy                ...      0.01594016 Eh     10.00 kcal/mol
Translational entropy             ...      0.02042994 Eh     12.82 kcal/mol
-----------------------------------------------------------------------
Final entropy term                ...      0.05832206 Eh     36.60 kcal/mol

                             ****ORCA TERMINATED NORMALLY****
TOTAL RUN TIME: 0 days 0 hours 48 minutes 2 seconds 780 msec
