                         Program Version 6.0.1  -  RELEASE   -
|  1> ! r2scan-3c def2/J RI DEFGRID2 scfconv6 printgap
|  2> %output
|  3>     printlevel normal
|  4> end
|  5> * xyz 0 1
|  6> C 8.35858e-05 0.9857531139 -3.026e-06
|  7> Br -1.6105840008 -0.0942076328 -4.444e-07
|  8> Br 1.6105708829 -0.0942166383 -8.387e-07
|  9> H 4.98792e-05 1.5952750379 0.9008994997
| 10> H -6.0094e-06 1.5954902177 -0.9007617243
| 11> *
| 12>
| 13>                          ****END OF INPUT****

CARTESIAN COORDINATES (ANGSTROEM)
---------------------------------
  C      0.000084    0.985753   -0.000003
  Br    -1.610584   -0.094208   -0.000000
  Br     1.610571   -0.094217   -0.000001
  H      0.000050    1.595275    0.900899
  H     -0.000006    1.595490   -0.900762

 Total Charge           Charge          ....    0
 Multiplicity           Mult            ....    1
 Number of Electrons    NEL             ....   78
 Basis Dimension        Dim             ....  101

ORBITAL ENERGIES
----------------

  NO   OCC          E(Eh)            E(eV)
   0   2.0000    -482.239601    -13122.4067
   1   2.0000    -482.239586    -13122.4063
   2   2.0000     -62.311394     -1695.5792
   3   2.0000     -62.311379     -1695.5788
   4   2.0000     -56.091990     -1526.3406
   5   2.0000     -56.091974     -1526.3402
   6   2.0000     -56.089088     -1526.2617
   7   2.0000     -56.089073     -1526.2613
   8   2.0000     -56.089003     -1526.2594
   9   2.0000     -56.088988     -1526.2590
  10   2.0000     -10.155845      -276.3546
  11   2.0000      -8.643326      -235.1969
  12   2.0000      -8.643309      -235.1964
  13   2.0000      -6.451678      -175.5591
  14   2.0000      -6.451662      -175.5587
  15   2.0000      -6.436925      -175.1576
  16   2.0000      -6.436909      -175.1572
  17   2.0000      -6.436373      -175.1426
  18   2.0000      -6.436357      -175.1422
  19   2.0000      -2.549045       -69.3630
  20   2.0000      -2.549017       -69.3623
  21   2.0000      -2.545450       -69.2652
  22   2.0000      -2.545419       -69.2644
  23   2.0000      -2.545020       -69.2535
  24   2.0000      -2.545002       -69.2530
  25   2.0000      -2.534089       -68.9561
  26   2.0000      -2.534078       -68.9558
  27   2.0000      -2.534073       -68.9556
  28   2.0000      -2.534062       -68.9553
  29   2.0000      -0.820332       -22.3224
  30   2.0000      -0.743112       -20.2211
  31   2.0000      -0.630850       -17.1663
  32   2.0000      -0.458512       -12.4768
  33   2.0000      -0.416404       -11.3309
  34   2.0000      -0.398469       -10.8429
  35   2.0000      -0.286447        -7.7946
  36   2.0000      -0.278927        -7.5900
  37   2.0000      -0.267259        -7.2725
  38   2.0000      -0.264358        -7.1935
  39   0.0000      -0.070187        -1.9099
  40   0.0000      -0.025677        -0.6987
  41   0.0000       0.089541         2.4365
  42   0.0000       0.133647         3.6367
  43   0.0000       0.176276         4.7967

MULLIKEN ATOMIC CHARGES
-----------------------
   0 C :   -0.182845
   1 Br:   -0.096554
   2 Br:   -0.096460
   3 H :    0.187925
   4 H :    0.187934
Sum of atomic charges:   -0.0000000

LOEWDIN ATOMIC CHARGES
----------------------
   0 C :   -0.530946
   1 Br:    0.105883
   2 Br:    0.105995
   3 H :    0.159533
   4 H :    0.159535

  Mayer bond orders larger than 0.100000
B(  0-C ,  1-Br) :   1.0115 B(  0-C ,  2-Br) :   1.0116 B(  0-C ,  3-H ) :   0.9402
B(  0-C ,  4-H ) :   0.9402

Dispersion correction           -0.001079071
FINAL SINGLE POINT ENERGY     -5187.563822111511

DIPOLE MOMENT
-------------

Method             : SCF
Type of density    : Electron Density
Multiplicity       :   1
Irrep              :   0
Energy             : -5187.5659523881304267 Eh
Relativity type    :
Basis              : AO
                                X                 Y                 Z
Electronic contribution:      0.000060426      -4.094655757      -0.000105798
Nuclear contribution   :      0.000162962       4.743123923       0.000141172
                        -----------------------------------------
Total Dipole Moment    :      0.000223388       0.648468165       0.000035375
                        -----------------------------------------
Magnitude (a.u.)       :      0.648468205
Magnitude (Debye)      :      1.648275186

Rotational constants in cm-1:             0.848962             0.040509             0.038956
Rotational constants in MHz :         25451.251768          1214.414483          1167.871424

                             ****ORCA TERMINATED NORMALLY****
TOTAL RUN TIME: 0 days 0 hours 0 minutes 10 seconds 41 msec
