                         Program Version 6.0.0  -   RELEASE  -
|  1> ! r2SCAN-3c DEF2-TZVP FREQ
|  2> * xyzfile 0 1 censo.xyz
|  3>
|  4>                          ****END OF INPUT****

CARTESIAN COORDINATES (ANGSTROEM)
---------------------------------
  C     -0.663044    1.024969    0.000032
  C      0.663039    1.024970   -0.000038
  Cl     1.645281   -0.407952   -0.000135
  Cl    -1.645285   -0.407953    0.000138
  H     -1.219024    1.956442    0.000098
  H      1.219018    1.956443   -0.000099

 Total Charge           Charge          ....    0
 Multiplicity           Mult            ....    1
 Number of Electrons    NEL             ....   48
 Basis Dimension        Dim             ....  148

ORBITAL ENERGIES
----------------

  NO   OCC          E(Eh)            E(eV)
   0   2.0000    -101.205497     -2753.9416
   1   2.0000    -101.205489     -2753.9414
   2   2.0000     -10.111609      -275.1509
   3   2.0000     -10.110845      -275.1301
   4   2.0000      -9.381031      -255.2708
   5   2.0000      -9.381022      -255.2706
   6   2.0000      -7.126037      -193.9093
   7   2.0000      -7.126035      -193.9093
   8   2.0000      -7.116177      -193.6410
   9   2.0000      -7.116176      -193.6410
  10   2.0000      -7.115315      -193.6176
  11   2.0000      -7.115315      -193.6176
  12   2.0000      -0.865918       -23.5628
  13   2.0000      -0.820455       -22.3257
  14   2.0000      -0.712175       -19.3793
  15   2.0000      -0.552925       -15.0459
  16   2.0000      -0.485176       -13.2023
  17   2.0000      -0.441994       -12.0273
  18   2.0000      -0.385889       -10.5006
  19   2.0000      -0.371261       -10.1025
  20   2.0000      -0.321490        -8.7482
  21   2.0000      -0.301516        -8.2047
  22   2.0000      -0.290314        -7.8999
  23   2.0000      -0.239927        -6.5287
  24   0.0000      -0.049248        -1.3401
  25   0.0000      -0.022712        -0.6180
  26   0.0000       0.026029         0.7083
  27   0.0000       0.057468         1.5638
  28   0.0000       0.131952         3.5906

MULLIKEN ATOMIC CHARGES
-----------------------
   0 C :   -0.087014
   1 C :   -0.087011
   2 Cl:   -0.071886
   3 Cl:   -0.071886
   4 H :    0.158899
   5 H :    0.158899
Sum of atomic charges:    0.0000000

LOEWDIN ATOMIC CHARGES
----------------------
   0 C :   -0.506960
   1 C :   -0.506960
   2 Cl:    0.370784
   3 Cl:    0.370784
   4 H :    0.136176
   5 H :    0.136176

  Mayer bond orders larger than 0.100000
B(  0-C ,  1-C ) :   1.8479 B(  0-C ,  3-Cl) :   1.1258 B(  0-C ,  4-H ) :   0.9332
B(  1-C ,  2-Cl) :   1.1258 B(  1-C ,  5-H ) :   0.9332

Dispersion correction           -0.001492794
FINAL SINGLE POINT ENERGY      -997.734027597733

DIPOLE MOMENT
-------------

Method             : SCF
Type of density    : Electron Density
Multiplicity       :   1
Irrep              :   0
Energy             :  -997.7372549696991655 Eh
Relativity type    :
Basis              : AO
                                X                 Y                 Z
Electronic contribution:      0.000001039      -4.009231971       0.000005811
Nuclear contribution   :     -0.000001540       4.763087436      -0.000004426
                        -----------------------------------------
Total Dipole Moment    :     -0.000000501       0.753855465       0.000001385
                        -----------------------------------------
Magnitude (a.u.)       :      0.753855465
Magnitude (Debye)      :      1.916148313

VIBRATIONAL FREQUENCIES
-----------------------

Scaling factor for frequencies =  1.000000000  (already applied!)

     0:       0.00 cm**-1
     1:       0.00 cm**-1
     2:       0.00 cm**-1
     3:       0.00 cm**-1
     4:       0.00 cm**-1
     5:       0.00 cm**-1
     6:     175.83 cm**-1
     7:     422.72 cm**-1
     8:     564.08 cm**-1
     9:     682.73 cm**-1
    10:     706.76 cm**-1
    11:     820.44 cm**-1
    12:     882.60 cm**-1
    13:    1203.97 cm**-1
    14:    1303.03 cm**-1
    15:    1631.07 cm**-1
    16:    3178.86 cm**-1
    17:    3199.99 cm**-1

IR SPECTRUM
-----------

 Mode   freq       eps      Int      T**2         TX        TY        TZ
       cm**-1   L/(mol*cm) km/mol    a.u.
----------------------------------------------------------------------------
  6:    175.83   0.000044    0.22  0.000078  (-0.000000 -0.008835 -0.000000)
  7:    422.72   0.000000    0.00  0.000000  (-0.000000  0.000001  0.000000)
  8:    564.08   0.002249   11.37  0.001244  (-0.035276 -0.000000  0.000002)
  9:    682.73   0.004621   23.35  0.002112  ( 0.000000 -0.045956 -0.000000)
 10:    706.76   0.011868   59.98  0.005240  (-0.000005  0.000000 -0.072390)
 11:    820.44   0.016455   83.16  0.006259  (-0.079112 -0.000000  0.000012)
 12:    882.60   0.000000    0.00  0.000000  ( 0.000000 -0.000000  0.000000)
 13:   1203.97   0.000000    0.00  0.000000  ( 0.000000 -0.000044  0.000000)
 14:   1303.03   0.004577   23.13  0.001096  (-0.033109 -0.000000  0.000003)
 15:   1631.07   0.007850   39.67  0.001502  ( 0.000000 -0.038755  0.000000)
 16:   3178.86   0.002778   14.04  0.000273  (-0.016515  0.000000  0.000002)
 17:   3199.99   0.000124    0.62  0.000012  (-0.000001 -0.003472  0.000000)

--------------------------
THERMOCHEMISTRY AT 298.15K
--------------------------

Temperature         ...   298.15 K
Pressure            ...     1.00 atm
Total Mass          ...    96.94 AMU
Quasi RRHO          ...     True
Cut-Off Frequency   ...     1.00 cm^-1

Throughout the following assumptions are being made:
  (1) The electronic state is orbitally nondegenerate
  (2) There are no thermally accessible electronically excited states
  (3) Hindered rotations indicated by low frequency modes are not
      treated as such but are treated as vibrations and this may
      cause some error
  (4) All equations used are the standard statistical mechanics
      equations for an ideal gas
  (5) All vibrations are strictly harmonic

freq.     175.83  E(vib)   ...       0.38
freq.     422.72  E(vib)   ...       0.18
freq.     564.08  E(vib)   ...       0.11
freq.     682.73  E(vib)   ...       0.08
freq.     706.76  E(vib)   ...       0.07
freq.     820.44  E(vib)   ...       0.05
freq.     882.60  E(vib)   ...       0.04
freq.    1203.97  E(vib)   ...       0.01
freq.    1303.03  E(vib)   ...       0.01
freq.    1631.07  E(vib)   ...       0.00
freq.    3178.86  E(vib)   ...       0.00
freq.    3199.99  E(vib)   ...       0.00

------------
INNER ENERGY
------------

The inner energy is: U= E(el) + E(ZPE) + E(vib) + E(rot) + E(trans)
    E(el)   - is the total energy from the electronic structure calculation
              = E(kin-el) + E(nuc-el) + E(el-el) + E(nuc-nuc)
    E(ZPE)  - the the zero temperature vibrational energy from the frequency calculation
    E(vib)  - the the finite temperature correction to E(ZPE) due to population
              of excited vibrational states
    E(rot)  - is the rotational thermal energy
    E(trans)- is the translational thermal energy

Summary of contributions to the inner energy U:
Electronic energy                ...   -997.73402760 Eh
Zero point energy                ...      0.03365326 Eh      21.12 kcal/mol
Thermal vibrational correction   ...      0.00145896 Eh       0.92 kcal/mol
Thermal rotational correction    ...      0.00141627 Eh       0.89 kcal/mol
Thermal translational correction ...      0.00141627 Eh       0.89 kcal/mol
-----------------------------------------------------------------------
Total thermal energy                   -997.69608283 Eh

Summary of corrections to the electronic energy:
(perhaps to be used in another calculation)
Total thermal correction                  0.00429150 Eh       2.69 kcal/mol
Non-thermal (ZPE) correction              0.03365326 Eh      21.12 kcal/mol
-----------------------------------------------------------------------
Total correction                          0.03794476 Eh      23.81 kcal/mol

--------
ENTHALPY
--------

The enthalpy is H = U + kB*T
                kB is Boltzmann's constant
Total thermal energy              ...   -997.69608283 Eh
Thermal Enthalpy correction       ...      0.00094421 Eh       0.59 kcal/mol
-----------------------------------------------------------------------
Total Enthalpy                    ...   -997.69513863 Eh

Note: Rotational entropy computed according to Herzberg
Infrared and Raman Spectra, Chapter V,1, Van Nostrand Reinhold, 1945
Point Group:  C2v, Symmetry Number:   2
Rotational constants in cm-1:     0.376687     0.082034     0.067364

Vibrational entropy computed according to the QRRHO of S. Grimme
Chem.Eur.J. 2012 18 9955 using a reference frequency of 100.0 cm-1

-------
ENTROPY
-------

The entropy contributions are T*S = T*(S(el)+S(vib)+S(rot)+S(trans))
     S(el)   - electronic entropy
     S(vib)  - vibrational entropy
     S(rot)  - rotational entropy
     S(trans)- translational entropy
The entropies will be listed as multiplied by the temperature to get
units of energy

Electronic entropy                ...      0.00000000 Eh      0.00 kcal/mol
Vibrational entropy               ...      0.00228412 Eh      1.43 kcal/mol
Rotational entropy                ...      0.01177133 Eh      7.39 kcal/mol
Translational entropy             ...      0.01882729 Eh     11.81 kcal/mol
-----------------------------------------------------------------------
Final entropy term                ...      0.03288274 Eh     20.63 kcal/mol

In case the symmetry of your molecule has not been determined correctly
or in case you have a reason to use a different symmetry number we print
out the resulting rotational entropy values for sn=1,12:

 non-linear molecules -----------------------------------
|  sn= 1 | S(rot)=       0.01242579 Eh      7.80 kcal/mol|
|  sn= 2 | S(rot)=       0.01177133 Eh      7.39 kcal/mol|
|  sn= 3 | S(rot)=       0.01138850 Eh      7.15 kcal/mol|
|  sn= 4 | S(rot)=       0.01111687 Eh      6.98 kcal/mol|
|  sn= 5 | S(rot)=       0.01090619 Eh      6.84 kcal/mol|
|  sn= 6 | S(rot)=       0.01073404 Eh      6.74 kcal/mol|
|  sn= 7 | S(rot)=       0.01058849 Eh      6.64 kcal/mol|
|  sn= 8 | S(rot)=       0.01046242 Eh      6.57 kcal/mol|
|  sn= 9 | S(rot)=       0.01035121 Eh      6.50 kcal/mol|
|  sn=10 | S(rot)=       0.01025173 Eh      6.43 kcal/mol|
|  sn=11 | S(rot)=       0.01016174 Eh      6.38 kcal/mol|
|  sn=12 | S(rot)=       0.01007958 Eh      6.33 kcal/mol|
 linear molecules ---------------------------------------
|  Dinfh | S(rot)=       0.00787288 Eh      4.94 kcal/mol|
|  Cinfv | S(rot)=       0.00852733 Eh      5.35 kcal/mol|
 --------------------------------------------------------

-------------------
GIBBS FREE ENERGY
-------------------

The Gibbs free energy is G = H - T*S

Total enthalpy                    ...   -997.69513863 Eh
Total entropy correction          ...     -0.03288274 Eh    -20.63 kcal/mol
-----------------------------------------------------------------------
Final Gibbs free energy         ...   -997.72802136 Eh

For completeness - the Gibbs free energy minus the electronic energy
G-E(el)                           ...      0.00600624 Eh      3.77 kcal/mol

                             ****ORCA TERMINATED NORMALLY****
TOTAL RUN TIME: 0 days 0 hours 1 minutes 16 seconds 198 msec
