                         Program Version 6.0.0  -   RELEASE  -
|  1> ! r2SCAN-3c DEF2-TZVP FREQ
|  2> * xyzfile 0 1 vacuum_censo.xyz
|  3>
|  4>                          ****END OF INPUT****

CARTESIAN COORDINATES (ANGSTROEM)
---------------------------------
  C     -0.664245    1.016621   -0.000022
  C      0.664241    1.016624    0.000017
  Cl     1.647907   -0.404355    0.000036
  Cl    -1.647907   -0.404359   -0.000032
  H     -1.215723    1.950197   -0.000043
  H      1.215717    1.950200    0.000012

 Total Charge           Charge          ....    0
 Multiplicity           Mult            ....    1
 Number of Electrons    NEL             ....   48
 Basis Dimension        Dim             ....  148

ORBITAL ENERGIES
----------------

  NO   OCC          E(Eh)            E(eV)
   0   2.0000    -101.205662     -2753.9461
   1   2.0000    -101.205654     -2753.9459
   2   2.0000     -10.110578      -275.1228
   3   2.0000     -10.109831      -275.1025
   4   2.0000      -9.381325      -255.2788
   5   2.0000      -9.381316      -255.2786
   6   2.0000      -7.126272      -193.9157
   7   2.0000      -7.126270      -193.9157
   8   2.0000      -7.116490      -193.6495
   9   2.0000      -7.116490      -193.6495
  10   2.0000      -7.115614      -193.6257
  11   2.0000      -7.115614      -193.6257
  12   2.0000      -0.867625       -23.6093
  13   2.0000      -0.822661       -22.3858
  14   2.0000      -0.710974       -19.3466
  15   2.0000      -0.552744       -15.0409
  16   2.0000      -0.485070       -13.1994
  17   2.0000      -0.442809       -12.0495
  18   2.0000      -0.386725       -10.5233
  19   2.0000      -0.372154       -10.1268
  20   2.0000      -0.322622        -8.7790
  21   2.0000      -0.300972        -8.1899
  22   2.0000      -0.290904        -7.9159
  23   2.0000      -0.238648        -6.4939
  24   0.0000      -0.049052        -1.3348
  25   0.0000      -0.018645        -0.5074
  26   0.0000       0.028403         0.7729
  27   0.0000       0.057473         1.5639
  28   0.0000       0.131183         3.5697

MULLIKEN ATOMIC CHARGES
-----------------------
   0 C :   -0.088462
   1 C :   -0.088461
   2 Cl:   -0.069345
   3 Cl:   -0.069345
   4 H :    0.157806
   5 H :    0.157807
Sum of atomic charges:   -0.0000000

LOEWDIN ATOMIC CHARGES
----------------------
   0 C :   -0.515167
   1 C :   -0.515166
   2 Cl:    0.379474
   3 Cl:    0.379475
   4 H :    0.135692
   5 H :    0.135692

  Mayer bond orders larger than 0.100000
B(  0-C ,  1-C ) :   1.8411 B(  0-C ,  3-Cl) :   1.1310 B(  0-C ,  4-H ) :   0.9340
B(  1-C ,  2-Cl) :   1.1310 B(  1-C ,  5-H ) :   0.9340

Dispersion correction           -0.001493214
FINAL SINGLE POINT ENERGY      -997.734288607831

DIPOLE MOMENT
-------------

Method             : SCF
Type of density    : Electron Density
Multiplicity       :   1
Irrep              :   0
Energy             :  -997.7375703720184674 Eh
Relativity type    :
Basis              : AO
                                X                 Y                 Z
Electronic contribution:      0.000004360      -4.004191855       0.000023800
Nuclear contribution   :     -0.000006569       4.742067684      -0.000032700
                        -----------------------------------------
Total Dipole Moment    :     -0.000002208       0.737875828      -0.000008900
                        -----------------------------------------
Magnitude (a.u.)       :      0.737875828
Magnitude (Debye)      :      1.875531305

VIBRATIONAL FREQUENCIES
-----------------------

Scaling factor for frequencies =  1.000000000  (already applied!)

     0:       0.00 cm**-1
     1:       0.00 cm**-1
     2:       0.00 cm**-1
     3:       0.00 cm**-1
     4:       0.00 cm**-1
     5:       0.00 cm**-1
     6:     172.43 cm**-1
     7:     424.63 cm**-1
     8:     570.72 cm**-1
     9:     696.05 cm**-1
    10:     703.93 cm**-1
    11:     835.96 cm**-1
    12:     881.61 cm**-1
    13:    1208.68 cm**-1
    14:    1308.23 cm**-1
    15:    1625.02 cm**-1
    16:    3182.41 cm**-1
    17:    3203.15 cm**-1

IR SPECTRUM
-----------

 Mode   freq       eps      Int      T**2         TX        TY        TZ
       cm**-1   L/(mol*cm) km/mol    a.u.
----------------------------------------------------------------------------
  6:    172.43   0.000046    0.23  0.000083  (-0.000000 -0.009087  0.000000)
  7:    424.63   0.000000    0.00  0.000000  (-0.000001  0.000002 -0.000000)
  8:    570.72   0.001959    9.90  0.001071  ( 0.032726 -0.000000  0.000000)
  9:    696.05   0.004445   22.46  0.001993  ( 0.000000 -0.044642  0.000001)
 10:    703.93   0.011824   59.76  0.005242  ( 0.000004  0.000001  0.072401)
 11:    835.96   0.016858   85.19  0.006293  (-0.079329 -0.000000 -0.000001)
 12:    881.61   0.000000    0.00  0.000000  ( 0.000003 -0.000000  0.000000)
 13:   1208.68   0.000001    0.00  0.000000  (-0.000000 -0.000465 -0.000000)
 14:   1308.23   0.004630   23.40  0.001104  (-0.033232  0.000000 -0.000001)
 15:   1625.02   0.007996   40.41  0.001536  ( 0.000000 -0.039187  0.000000)
 16:   3182.41   0.002740   13.85  0.000269  (-0.016391 -0.000000 -0.000000)
 17:   3203.15   0.000174    0.88  0.000017  (-0.000000  0.004116  0.000000)

--------------------------
THERMOCHEMISTRY AT 298.15K
--------------------------

Temperature         ...   298.15 K
Pressure            ...     1.00 atm
Total Mass          ...    96.94 AMU
Quasi RRHO          ...     True
Cut-Off Frequency   ...     1.00 cm^-1

Throughout the following assumptions are being made:
  (1) The electronic state is orbitally nondegenerate
  (2) There are no thermally accessible electronically excited states
  (3) Hindered rotations indicated by low frequency modes are not
      treated as such but are treated as vibrations and this may
      cause some error
  (4) All equations used are the standard statistical mechanics
      equations for an ideal gas
  (5) All vibrations are strictly harmonic

freq.     172.43  E(vib)   ...       0.38
freq.     424.63  E(vib)   ...       0.18
freq.     570.72  E(vib)   ...       0.11
freq.     696.05  E(vib)   ...       0.07
freq.     703.93  E(vib)   ...       0.07
freq.     835.96  E(vib)   ...       0.04
freq.     881.61  E(vib)   ...       0.04
freq.    1208.68  E(vib)   ...       0.01
freq.    1308.23  E(vib)   ...       0.01
freq.    1625.02  E(vib)   ...       0.00
freq.    3182.41  E(vib)   ...       0.00
freq.    3203.15  E(vib)   ...       0.00

------------
INNER ENERGY
------------

The inner energy is: U= E(el) + E(ZPE) + E(vib) + E(rot) + E(trans)
    E(el)   - is the total energy from the electronic structure calculation
              = E(kin-el) + E(nuc-el) + E(el-el) + E(nuc-nuc)
    E(ZPE)  - the the zero temperature vibrational energy from the frequency calculation
    E(vib)  - the the finite temperature correction to E(ZPE) due to population
              of excited vibrational states
    E(rot)  - is the rotational thermal energy
    E(trans)- is the translational thermal energy

Summary of contributions to the inner energy U:
Electronic energy                ...   -997.73428861 Eh
Zero point energy                ...      0.03374611 Eh      21.18 kcal/mol
Thermal vibrational correction   ...      0.00145005 Eh       0.91 kcal/mol
Thermal rotational correction    ...      0.00141627 Eh       0.89 kcal/mol
Thermal translational correction ...      0.00141627 Eh       0.89 kcal/mol
-----------------------------------------------------------------------
Total thermal energy                   -997.69625991 Eh

Summary of corrections to the electronic energy:
(perhaps to be used in another calculation)
Total thermal correction                  0.00428259 Eh       2.69 kcal/mol
Non-thermal (ZPE) correction              0.03374611 Eh      21.18 kcal/mol
-----------------------------------------------------------------------
Total correction                          0.03802870 Eh      23.86 kcal/mol

--------
ENTHALPY
--------

The enthalpy is H = U + kB*T
                kB is Boltzmann's constant
Total thermal energy              ...   -997.69625991 Eh
Thermal Enthalpy correction       ...      0.00094421 Eh       0.59 kcal/mol
-----------------------------------------------------------------------
Total Enthalpy                    ...   -997.69531570 Eh

Note: Rotational entropy computed according to Herzberg
Infrared and Raman Spectra, Chapter V,1, Van Nostrand Reinhold, 1945
Point Group:  C2v, Symmetry Number:   2
Rotational constants in cm-1:     0.382372     0.081781     0.067372

Vibrational entropy computed according to the QRRHO of S. Grimme
Chem.Eur.J. 2012 18 9955 using a reference frequency of 100.0 cm-1

-------
ENTROPY
-------

The entropy contributions are T*S = T*(S(el)+S(vib)+S(rot)+S(trans))
     S(el)   - electronic entropy
     S(vib)  - vibrational entropy
     S(rot)  - rotational entropy
     S(trans)- translational entropy
The entropies will be listed as multiplied by the temperature to get
units of energy

Electronic entropy                ...      0.00000000 Eh      0.00 kcal/mol
Vibrational entropy               ...      0.00227927 Eh      1.43 kcal/mol
Rotational entropy                ...      0.01176566 Eh      7.38 kcal/mol
Translational entropy             ...      0.01882729 Eh     11.81 kcal/mol
-----------------------------------------------------------------------
Final entropy term                ...      0.03287221 Eh     20.63 kcal/mol

In case the symmetry of your molecule has not been determined correctly
or in case you have a reason to use a different symmetry number we print
out the resulting rotational entropy values for sn=1,12:

 non-linear molecules -----------------------------------
|  sn= 1 | S(rot)=       0.01242011 Eh      7.79 kcal/mol|
|  sn= 2 | S(rot)=       0.01176566 Eh      7.38 kcal/mol|
|  sn= 3 | S(rot)=       0.01138282 Eh      7.14 kcal/mol|
|  sn= 4 | S(rot)=       0.01111120 Eh      6.97 kcal/mol|
|  sn= 5 | S(rot)=       0.01090051 Eh      6.84 kcal/mol|
|  sn= 6 | S(rot)=       0.01072837 Eh      6.73 kcal/mol|
|  sn= 7 | S(rot)=       0.01058282 Eh      6.64 kcal/mol|
|  sn= 8 | S(rot)=       0.01045674 Eh      6.56 kcal/mol|
|  sn= 9 | S(rot)=       0.01034553 Eh      6.49 kcal/mol|
|  sn=10 | S(rot)=       0.01024606 Eh      6.43 kcal/mol|
|  sn=11 | S(rot)=       0.01015607 Eh      6.37 kcal/mol|
|  sn=12 | S(rot)=       0.01007391 Eh      6.32 kcal/mol|
 linear molecules ---------------------------------------
|  Dinfh | S(rot)=       0.00787276 Eh      4.94 kcal/mol|
|  Cinfv | S(rot)=       0.00852722 Eh      5.35 kcal/mol|
 --------------------------------------------------------

-------------------
GIBBS FREE ENERGY
-------------------

The Gibbs free energy is G = H - T*S

Total enthalpy                    ...   -997.69531570 Eh
Total entropy correction          ...     -0.03287221 Eh    -20.63 kcal/mol
-----------------------------------------------------------------------
Final Gibbs free energy         ...   -997.72818791 Eh

For completeness - the Gibbs free energy minus the electronic energy
G-E(el)                           ...      0.00610070 Eh      3.83 kcal/mol

                             ****ORCA TERMINATED NORMALLY****
TOTAL RUN TIME: 0 days 0 hours 1 minutes 18 seconds 213 msec
