                         Program Version 6.0.1  -  RELEASE   -
|  1> ! pbe def2-sv(p) def2/J RI DEFGRID1 loosescf d4 GCP(DFT/SV(P)) printgap
|  2> %output
|  3>     printlevel normal
|  4> end
|  5> * xyz 0 1
|  6> C 3.6875936976 -0.3703917462 -0.0490174341
|  7> C 2.2139121894 -0.3051431111 0.342257667
|  8> H 2.1386377039 -0.3636879522 1.434627662
|  9> C 1.429801734 -1.4700585682 -0.2596745808
| 10> C -0.0412146371 -1.3893183442 0.1356680401
| 11> C -0.6677801649 -0.0806343976 -0.3456749896
| 12> H -0.5396654486 -0.0103152339 -1.43160905
| 13> C 0.1059330245 1.1003603118 0.2574937083
| 14> H 0.0141563935 1.0743973907 1.35656058
| 15> C 1.5891525996 1.0112860537 -0.1154970907
| 16> O -0.4626097678 2.3006376607 -0.2330799829
| 17> C -2.1805313648 0.0305879286 -0.0677994262
| 18> C -2.9808512602 -0.8426018726 -1.0329804
| 19> C -2.5664556194 -0.3054721763 1.3713368127
| 20> H 4.131205059 -1.3034981663 0.2908056844
| 21> H 3.7959988764 -0.3132692333 -1.1300692506
| 22> H 4.2407927856 0.4542772492 0.3951352869
| 23> H 1.5197628788 -1.4405321337 -1.3480140814
| 24> H 1.8532227994 -2.4160937301 0.0852060888
| 25> H -0.5807111741 -2.2339830826 -0.2943299371
| 26> H -0.1176331424 -1.4547490137 1.222335267
| 27> H 1.6776312245 1.1009295843 -1.2010971777
| 28> H 2.1263656618 1.852364124 0.334741893
| 29> H 0.0828661473 3.0388587148 0.0579990611
| 30> H -2.4459541771 1.0750063763 -0.2580705467
| 31> H -4.0467700241 -0.69139303 -0.877702944
| 32> H -2.764108714 -1.8971331108 -0.8769906044
| 33> H -2.7478169839 -0.5909268298 -2.0649546492
| 34> H -1.9798668007 0.2714098846 2.0813760191
| 35> H -2.4242712364 -1.3638582988 1.5769415845
| 36> H -3.6160809664 -0.0694345061 1.5333031444
| 37> *
| 38>
| 39>                          ****END OF INPUT****

CARTESIAN COORDINATES (ANGSTROEM)
---------------------------------
  C      3.687594   -0.370392   -0.049017
  C      2.213912   -0.305143    0.342258
  H      2.138638   -0.363688    1.434628
  C      1.429802   -1.470059   -0.259675
  C     -0.041215   -1.389318    0.135668
  C     -0.667780   -0.080634   -0.345675
  H     -0.539665   -0.010315   -1.431609
  C      0.105933    1.100360    0.257494
  H      0.014156    1.074397    1.356561
  C      1.589153    1.011286   -0.115497
  O     -0.462610    2.300638   -0.233080
  C     -2.180531    0.030588   -0.067799
  C     -2.980851   -0.842602   -1.032980
  C     -2.566456   -0.305472    1.371337
  H      4.131205   -1.303498    0.290806
  H      3.795999   -0.313269   -1.130069
  H      4.240793    0.454277    0.395135
  H      1.519763   -1.440532   -1.348014
  H      1.853223   -2.416094    0.085206
  H     -0.580711   -2.233983   -0.294330
  H     -0.117633   -1.454749    1.222335
  H      1.677631    1.100930   -1.201097
  H      2.126366    1.852364    0.334742
  H      0.082866    3.038859    0.057999
  H     -2.445954    1.075006   -0.258071
  H     -4.046770   -0.691393   -0.877703
  H     -2.764109   -1.897133   -0.876991
  H     -2.747817   -0.590927   -2.064955
  H     -1.979867    0.271410    2.081376
  H     -2.424271   -1.363858    1.576942
  H     -3.616081   -0.069435    1.533303

 Total Charge           Charge          ....    0
 Multiplicity           Mult            ....    1
 Number of Electrons    NEL             ....   88
 Basis Dimension        Dim             ....  194

ORBITAL ENERGIES
----------------

  NO   OCC          E(Eh)            E(eV)
   0   2.0000     -18.738030      -509.8877
   1   2.0000      -9.931043      -270.2374
   2   2.0000      -9.894305      -269.2377
   3   2.0000      -9.883853      -268.9533
   4   2.0000      -9.881255      -268.8826
   5   2.0000      -9.880122      -268.8518
   6   2.0000      -9.880019      -268.8490
   7   2.0000      -9.879449      -268.8335
   8   2.0000      -9.873054      -268.6595
   9   2.0000      -9.864843      -268.4360
  10   2.0000      -9.863734      -268.4059
  11   2.0000      -0.917934       -24.9783
  12   2.0000      -0.758865       -20.6498
  13   2.0000      -0.718650       -19.5555
  14   2.0000      -0.667085       -18.1523
  15   2.0000      -0.655049       -17.8248
  16   2.0000      -0.602825       -16.4037
  17   2.0000      -0.602285       -16.3890
  18   2.0000      -0.550611       -14.9829
  19   2.0000      -0.528843       -14.3906
  20   2.0000      -0.502280       -13.6677
  21   2.0000      -0.479370       -13.0443
  22   2.0000      -0.452783       -12.3208
  23   2.0000      -0.421399       -11.4669
  24   2.0000      -0.413791       -11.2598
  25   2.0000      -0.401359       -10.9215
  26   2.0000      -0.394102       -10.7241
  27   2.0000      -0.372985       -10.1494
  28   2.0000      -0.362563        -9.8658
  29   2.0000      -0.352566        -9.5938
  30   2.0000      -0.345955        -9.4139
  31   2.0000      -0.336894        -9.1674
  32   2.0000      -0.331519        -9.0211
  33   2.0000      -0.327570        -8.9136
  34   2.0000      -0.315687        -8.5903
  35   2.0000      -0.299617        -8.1530
  36   2.0000      -0.297720        -8.1014
  37   2.0000      -0.290656        -7.9092
  38   2.0000      -0.283983        -7.7276
  39   2.0000      -0.278487        -7.5780
  40   2.0000      -0.269669        -7.3381
  41   2.0000      -0.256637        -6.9834
  42   2.0000      -0.244119        -6.6428
  43   2.0000      -0.208591        -5.6760
  44   0.0000       0.028469         0.7747
  45   0.0000       0.039528         1.0756
  46   0.0000       0.045572         1.2401
  47   0.0000       0.045917         1.2495
  48   0.0000       0.076192         2.0733

MULLIKEN ATOMIC CHARGES
-----------------------
   0 C :   -0.195908
   1 C :   -0.216538
   2 H :    0.063044
   3 C :   -0.096154
   4 C :   -0.116773
   5 C :   -0.155613
   6 H :    0.051617
   7 C :    0.069274
   8 H :    0.046125
   9 C :   -0.098652
  10 O :   -0.411619
  11 C :   -0.105336
  12 C :   -0.239673
  13 C :   -0.266455
  14 H :    0.096057
  15 H :    0.090670
  16 H :    0.094140
  17 H :    0.066136
  18 H :    0.077198
  19 H :    0.085300
  20 H :    0.075113
  21 H :    0.068606
  22 H :    0.063060
  23 H :    0.294380
  24 H :    0.082647
  25 H :    0.094552
  26 H :    0.092659
  27 H :    0.095058
  28 H :    0.102415
  29 H :    0.098374
  30 H :    0.096295
Sum of atomic charges:    0.0000000

LOEWDIN ATOMIC CHARGES
----------------------
   0 C :   -0.326404
   1 C :   -0.152932
   2 H :    0.113396
   3 C :   -0.213683
   4 C :   -0.216148
   5 C :   -0.138563
   6 H :    0.116690
   7 C :   -0.047325
   8 H :    0.092793
   9 C :   -0.228050
  10 O :   -0.323062
  11 C :   -0.152507
  12 C :   -0.328480
  13 C :   -0.330969
  14 H :    0.117331
  15 H :    0.117057
  16 H :    0.116244
  17 H :    0.114140
  18 H :    0.115050
  19 H :    0.117838
  20 H :    0.116293
  21 H :    0.117403
  22 H :    0.107533
  23 H :    0.281637
  24 H :    0.122311
  25 H :    0.116830
  26 H :    0.111781
  27 H :    0.116028
  28 H :    0.114576
  29 H :    0.114423
  30 H :    0.118773

  Mayer bond orders larger than 0.100000
B(  0-C ,  1-C ) :   1.1112 B(  0-C , 14-H ) :   0.9481 B(  0-C , 15-H ) :   0.9460
B(  0-C , 16-H ) :   0.9488 B(  1-C ,  2-H ) :   0.8900 B(  1-C ,  3-C ) :   1.0986
B(  1-C ,  9-C ) :   1.0800 B(  3-C ,  4-C ) :   1.1415 B(  3-C , 17-H ) :   0.9037
B(  3-C , 18-H ) :   0.9132 B(  4-C ,  5-C ) :   1.0813 B(  4-C , 19-H ) :   0.9093
B(  4-C , 20-H ) :   0.8910 B(  5-C ,  6-H ) :   0.8724 B(  5-C ,  7-C ) :   1.0490
B(  5-C , 11-C ) :   1.0423 B(  7-C ,  8-H ) :   0.8800 B(  7-C ,  9-C ) :   1.0957
B(  7-C , 10-O ) :   1.0613 B(  9-C , 21-H ) :   0.8883 B(  9-C , 22-H ) :   0.9055
B( 10-O , 23-H ) :   0.8501 B( 11-C , 12-C ) :   1.1162 B( 11-C , 13-C ) :   1.1044
B( 11-C , 24-H ) :   0.8860 B( 12-C , 25-H ) :   0.9504 B( 12-C , 26-H ) :   0.9426
B( 12-C , 27-H ) :   0.9482 B( 13-C , 28-H ) :   0.9473 B( 13-C , 29-H ) :   0.9402
B( 13-C , 30-H ) :   0.9475

Dispersion correction           -0.031421382
FINAL SINGLE POINT ENERGY      -467.200211712701

DIPOLE MOMENT
-------------

Method             : SCF
Type of density    : Electron Density
Multiplicity       :   1
Irrep              :   0
Energy             :  -467.3124271066410529 Eh
Relativity type    :
Basis              : AO
                                X                 Y                 Z
Electronic contribution:      0.204326956       5.005608823      -0.540404138
Nuclear contribution   :      0.291248019      -4.920902774       0.827937398
                        -----------------------------------------
Total Dipole Moment    :      0.495574975       0.084706049       0.287533259
                        -----------------------------------------
Magnitude (a.u.)       :      0.579176179
Magnitude (Debye)      :      1.472148853

Rotational constants in cm-1:             0.059768             0.023188             0.019345
Rotational constants in MHz :          1791.788733           695.170654           579.943522

                             ****ORCA TERMINATED NORMALLY****
TOTAL RUN TIME: 0 days 0 hours 0 minutes 11 seconds 906 msec
