                         Program Version 6.0.1  -  RELEASE   -
|  1> ! r2scan-3c def2/J RI DEFGRID2 scfconv6 printgap
|  2> %output
|  3>     printlevel normal
|  4> end
|  5> * xyz 0 1
|  6> C -3.5595329656 -1.7770291689 -0.7164249467
|  7> N -3.5949000591 -0.5588635492 0.0552027994
|  8> C -2.5388649974 0.2322955104 0.3525793969
|  9> O -2.6170430807 1.1933637301 1.074884635
| 10> O -1.4128658209 -0.2036848168 -0.2647226499
| 11> C -0.239715454 0.5322457826 -0.1883666499
| 12> C -0.2119355291 1.8981779801 -0.2800458896
| 13> C 1.0156441753 2.5758251932 -0.2441149815
| 14> C 2.1907221903 1.8898125186 -0.1308711117
| 15> C 2.1934497041 0.4817801665 -0.0450376624
| 16> C 0.9596489394 -0.2185181406 -0.0709585092
| 17> C 0.9650203284 -1.6250788632 0.0220302794
| 18> C 2.1421028478 -2.3109260594 0.1347149114
| 19> C 3.3642075555 -1.6224664645 0.1571575019
| 20> C 3.3884424769 -0.2587532726 0.069909728
| 21> H -4.4840626024 -1.8702404722 -1.2852929373
| 22> H -3.4485109944 -2.6553053737 -0.0732226029
| 23> H -2.7193987441 -1.7367157224 -1.4056100106
| 24> H -4.4373098745 -0.3494832752 0.5678726984
| 25> H -1.1301628953 2.4560166909 -0.3660608838
| 26> H 1.014823133 3.6533415954 -0.3111387953
| 27> H 3.1351786033 2.413609857 -0.104941651
| 28> H 0.0207404682 -2.1479185729 0.0041979493
| 29> H 2.1387988745 -3.388655715 0.2078560411
| 30> H 4.285236572 -2.1800051357 0.2455964508
| 31> H 4.3270970633 0.2764465717 0.0881156943
| 32> *
| 33>
| 34>                          ****END OF INPUT****

CARTESIAN COORDINATES (ANGSTROEM)
---------------------------------
  C     -3.559533   -1.777029   -0.716425
  N     -3.594900   -0.558864    0.055203
  C     -2.538865    0.232296    0.352579
  O     -2.617043    1.193364    1.074885
  O     -1.412866   -0.203685   -0.264723
  C     -0.239715    0.532246   -0.188367
  C     -0.211936    1.898178   -0.280046
  C      1.015644    2.575825   -0.244115
  C      2.190722    1.889813   -0.130871
  C      2.193450    0.481780   -0.045038
  C      0.959649   -0.218518   -0.070959
  C      0.965020   -1.625079    0.022030
  C      2.142103   -2.310926    0.134715
  C      3.364208   -1.622466    0.157158
  C      3.388442   -0.258753    0.069910
  H     -4.484063   -1.870240   -1.285293
  H     -3.448511   -2.655305   -0.073223
  H     -2.719399   -1.736716   -1.405610
  H     -4.437310   -0.349483    0.567873
  H     -1.130163    2.456017   -0.366061
  H      1.014823    3.653342   -0.311139
  H      3.135179    2.413610   -0.104942
  H      0.020740   -2.147919    0.004198
  H      2.138799   -3.388656    0.207856
  H      4.285237   -2.180005    0.245596
  H      4.327097    0.276447    0.088116

 Total Charge           Charge          ....    0
 Multiplicity           Mult            ....    1
 Number of Electrons    NEL             ....  106
 Basis Dimension        Dim             ....  355

ORBITAL ENERGIES
----------------

  NO   OCC          E(Eh)            E(eV)
   0   2.0000     -19.011808      -517.3376
   1   2.0000     -18.919347      -514.8216
   2   2.0000     -14.195447      -386.2777
   3   2.0000     -10.179140      -276.9885
   4   2.0000     -10.103603      -274.9330
   5   2.0000     -10.075039      -274.1558
   6   2.0000     -10.050150      -273.4785
   7   2.0000     -10.048744      -273.4402
   8   2.0000     -10.038802      -273.1697
   9   2.0000     -10.038642      -273.1653
  10   2.0000     -10.038389      -273.1585
  11   2.0000     -10.038002      -273.1479
  12   2.0000     -10.037607      -273.1372
  13   2.0000     -10.035433      -273.0780
  14   2.0000     -10.034734      -273.0590
  15   2.0000      -1.087711       -29.5981
  16   2.0000      -0.991560       -26.9817
  17   2.0000      -0.905033       -24.6272
  18   2.0000      -0.848539       -23.0899
  19   2.0000      -0.795903       -21.6576
  20   2.0000      -0.749503       -20.3950
  21   2.0000      -0.717343       -19.5199
  22   2.0000      -0.700749       -19.0683
  23   2.0000      -0.682824       -18.5806
  24   2.0000      -0.633369       -17.2348
  25   2.0000      -0.594353       -16.1732
  26   2.0000      -0.590061       -16.0564
  27   2.0000      -0.546481       -14.8705
  28   2.0000      -0.512428       -13.9439
  29   2.0000      -0.491903       -13.3854
  30   2.0000      -0.476083       -12.9549
  31   2.0000      -0.469263       -12.7693
  32   2.0000      -0.461678       -12.5629
  33   2.0000      -0.448285       -12.1985
  34   2.0000      -0.428216       -11.6524
  35   2.0000      -0.418385       -11.3848
  36   2.0000      -0.402349       -10.9485
  37   2.0000      -0.400050       -10.8859
  38   2.0000      -0.391403       -10.6506
  39   2.0000      -0.379981       -10.3398
  40   2.0000      -0.377473       -10.2716
  41   2.0000      -0.373555       -10.1649
  42   2.0000      -0.360804        -9.8180
  43   2.0000      -0.344845        -9.3837
  44   2.0000      -0.323943        -8.8149
  45   2.0000      -0.312362        -8.4998
  46   2.0000      -0.306958        -8.3528
  47   2.0000      -0.296421        -8.0660
  48   2.0000      -0.258473        -7.0334
  49   2.0000      -0.248093        -6.7509
  50   2.0000      -0.235912        -6.4195
  51   2.0000      -0.232782        -6.3343
  52   2.0000      -0.199182        -5.4200
  53   0.0000      -0.067882        -1.8472
  54   0.0000      -0.037936        -1.0323
  55   0.0000      -0.004081        -0.1110
  56   0.0000       0.025089         0.6827
  57   0.0000       0.050031         1.3614

MULLIKEN ATOMIC CHARGES
-----------------------
   0 C :   -0.388036
   1 N :   -0.130432
   2 C :    0.286987
   3 O :   -0.447316
   4 O :   -0.173757
   5 C :    0.318780
   6 C :   -0.230276
   7 C :   -0.158864
   8 C :   -0.271296
   9 C :    0.179967
  10 C :    0.017670
  11 C :   -0.271469
  12 C :   -0.146275
  13 C :   -0.145125
  14 C :   -0.221813
  15 H :    0.147558
  16 H :    0.149098
  17 H :    0.177695
  18 H :    0.251954
  19 H :    0.172340
  20 H :    0.146663
  21 H :    0.144246
  22 H :    0.157201
  23 H :    0.144892
  24 H :    0.145458
  25 H :    0.144149
Sum of atomic charges:    0.0000000

LOEWDIN ATOMIC CHARGES
----------------------
   0 C :   -0.113040
   1 N :   -0.600749
   2 C :    0.457006
   3 O :   -0.399175
   4 O :   -0.519722
   5 C :    0.226673
   6 C :   -0.114202
   7 C :   -0.152283
   8 C :   -0.152527
   9 C :   -0.054041
  10 C :   -0.018387
  11 C :   -0.130203
  12 C :   -0.163007
  13 C :   -0.163190
  14 C :   -0.141766
  15 H :    0.173782
  16 H :    0.165404
  17 H :    0.196985
  18 H :    0.278448
  19 H :    0.193894
  20 H :    0.170399
  21 H :    0.170851
  22 H :    0.181685
  23 H :    0.167831
  24 H :    0.167919
  25 H :    0.171414

  Mayer bond orders larger than 0.100000
B(  0-C ,  1-N ) :   0.8715 B(  0-C , 15-H ) :   0.9690 B(  0-C , 16-H ) :   0.9570
B(  0-C , 17-H ) :   0.9623 B(  1-N ,  2-C ) :   1.2476 B(  1-N , 18-H ) :   0.9166
B(  2-C ,  3-O ) :   1.9126 B(  2-C ,  4-O ) :   1.0225 B(  4-O ,  5-C ) :   0.8776
B(  5-C ,  6-C ) :   1.5119 B(  5-C , 10-C ) :   1.2739 B(  6-C ,  7-C ) :   1.2333
B(  6-C , 19-H ) :   0.9247 B(  7-C ,  8-C ) :   1.4955 B(  7-C , 20-H ) :   0.9590
B(  8-C ,  9-C ) :   1.1653 B(  8-C , 21-H ) :   0.9461 B(  9-C , 10-C ) :   1.4144
B(  9-C , 14-C ) :   1.1788 B( 10-C , 11-C ) :   1.2677 B( 11-C , 12-C ) :   1.4836
B( 11-C , 22-H ) :   0.9595 B( 12-C , 13-C ) :   1.2663 B( 12-C , 23-H ) :   0.9510
B( 13-C , 14-C ) :   1.5121 B( 13-C , 24-H ) :   0.9487 B( 14-C , 25-H ) :   0.9509

Dispersion correction           -0.010730573
FINAL SINGLE POINT ENERGY      -668.975990620004

DIPOLE MOMENT
-------------

Method             : SCF
Type of density    : Electron Density
Multiplicity       :   1
Irrep              :   0
Energy             :  -668.9802186658135952 Eh
Relativity type    :
Basis              : AO
                                X                 Y                 Z
Electronic contribution:      0.970560753       4.269642686       1.722483873
Nuclear contribution   :     -1.296766113      -5.175475910      -2.269920211
                        -----------------------------------------
Total Dipole Moment    :     -0.326205360      -0.905833224      -0.547436339
                        -----------------------------------------
Magnitude (a.u.)       :      1.107533436
Magnitude (Debye)      :      2.815126272

Rotational constants in cm-1:             0.036475             0.014282             0.010708
Rotational constants in MHz :          1093.505705           428.159356           321.028289

                             ****ORCA TERMINATED NORMALLY****
TOTAL RUN TIME: 0 days 0 hours 0 minutes 42 seconds 525 msec
