                         Program Version 6.0.1  -  RELEASE   -
|  1> ! pbe def2-sv(p) def2/J RI DEFGRID1 loosescf d4 GCP(DFT/SV(P)) printgap
|  2> %output
|  3>     printlevel normal
|  4> end
|  5> * xyz 0 1
|  6> C -2.3971663695 -0.8177650715 0.4224530793
|  7> C -0.9405550612 -0.3825352119 0.6305183134
|  8> H -0.6679487102 -0.508559286 1.6884026775
|  9> C -0.7293570493 1.100699828 0.2331723549
| 10> H -1.518371623 1.4054647072 -0.4647156998
| 11> C 0.6318206104 1.2323693144 -0.4770482041
| 12> H 0.955763644 2.2776876449 -0.4428309062
| 13> C 1.6603244124 0.3490786199 0.2596177964
| 14> H 2.6469029771 0.477068957 -0.2076888426
| 15> C 1.2422193181 -1.1314971731 0.0628455118
| 16> H 1.5051224796 -1.7153976581 0.9616152632
| 17> O -0.1463413828 -1.2412941376 -0.1780055382
| 18> O 1.9125483999 -1.7136497822 -0.992106623
| 19> O 1.6946297197 0.7318331503 1.6163109632
| 20> O 0.5660344751 0.8587671196 -1.831424986
| 21> O -0.8370327044 1.9508825901 1.3365190826
| 22> O -2.7354432682 -0.825130099 -0.9381302778
| 23> H -3.0579280223 -0.1004307884 0.9115091078
| 24> H -2.5443526674 -1.8110988375 0.8658972668
| 25> H 1.7220926655 -1.2052062551 -1.7946470235
| 26> H 2.4235032101 0.2802176697 2.0556193407
| 27> H -0.1079116931 0.1701533658 -1.917900575
| 28> H -0.0630534237 1.8068854079 1.8992621929
| 29> H -2.1586086614 -1.4644643971 -1.3740955772
| 30> *
| 31>
| 32>                          ****END OF INPUT****

CARTESIAN COORDINATES (ANGSTROEM)
---------------------------------
  C     -2.397166   -0.817765    0.422453
  C     -0.940555   -0.382535    0.630518
  H     -0.667949   -0.508559    1.688403
  C     -0.729357    1.100700    0.233172
  H     -1.518372    1.405465   -0.464716
  C      0.631821    1.232369   -0.477048
  H      0.955764    2.277688   -0.442831
  C      1.660324    0.349079    0.259618
  H      2.646903    0.477069   -0.207689
  C      1.242219   -1.131497    0.062846
  H      1.505122   -1.715398    0.961615
  O     -0.146341   -1.241294   -0.178006
  O      1.912548   -1.713650   -0.992107
  O      1.694630    0.731833    1.616311
  O      0.566034    0.858767   -1.831425
  O     -0.837033    1.950883    1.336519
  O     -2.735443   -0.825130   -0.938130
  H     -3.057928   -0.100431    0.911509
  H     -2.544353   -1.811099    0.865897
  H      1.722093   -1.205206   -1.794647
  H      2.423503    0.280218    2.055619
  H     -0.107912    0.170153   -1.917901
  H     -0.063053    1.806885    1.899262
  H     -2.158609   -1.464464   -1.374096

 Total Charge           Charge          ....    0
 Multiplicity           Mult            ....    1
 Number of Electrons    NEL             ....   96
 Basis Dimension        Dim             ....  192

ORBITAL ENERGIES
----------------

  NO   OCC          E(Eh)            E(eV)
   0   2.0000     -18.787429      -511.2319
   1   2.0000     -18.785402      -511.1768
   2   2.0000     -18.766838      -510.6716
   3   2.0000     -18.765195      -510.6269
   4   2.0000     -18.756368      -510.3867
   5   2.0000     -18.744857      -510.0735
   6   2.0000      -9.998120      -272.0627
   7   2.0000      -9.954189      -270.8672
   8   2.0000      -9.949141      -270.7299
   9   2.0000      -9.946810      -270.6665
  10   2.0000      -9.941159      -270.5127
  11   2.0000      -9.937295      -270.4075
  12   2.0000      -0.998043       -27.1581
  13   2.0000      -0.959957       -26.1218
  14   2.0000      -0.943933       -25.6857
  15   2.0000      -0.939626       -25.5685
  16   2.0000      -0.925459       -25.1830
  17   2.0000      -0.919410       -25.0184
  18   2.0000      -0.701446       -19.0873
  19   2.0000      -0.695738       -18.9320
  20   2.0000      -0.623728       -16.9725
  21   2.0000      -0.597560       -16.2604
  22   2.0000      -0.573856       -15.6154
  23   2.0000      -0.539139       -14.6707
  24   2.0000      -0.511899       -13.9295
  25   2.0000      -0.503325       -13.6962
  26   2.0000      -0.485961       -13.2237
  27   2.0000      -0.466960       -12.7066
  28   2.0000      -0.459791       -12.5116
  29   2.0000      -0.436757       -11.8848
  30   2.0000      -0.422798       -11.5049
  31   2.0000      -0.396378       -10.7860
  32   2.0000      -0.385114       -10.4795
  33   2.0000      -0.380893       -10.3646
  34   2.0000      -0.369582       -10.0568
  35   2.0000      -0.361181        -9.8282
  36   2.0000      -0.346700        -9.4342
  37   2.0000      -0.321035        -8.7358
  38   2.0000      -0.316233        -8.6051
  39   2.0000      -0.312969        -8.5163
  40   2.0000      -0.286053        -7.7839
  41   2.0000      -0.273907        -7.4534
  42   2.0000      -0.267083        -7.2677
  43   2.0000      -0.265258        -7.2180
  44   2.0000      -0.246997        -6.7211
  45   2.0000      -0.233901        -6.3648
  46   2.0000      -0.216552        -5.8927
  47   2.0000      -0.204699        -5.5701
  48   0.0000      -0.003859        -0.1050
  49   0.0000       0.015416         0.4195
  50   0.0000       0.044495         1.2108
  51   0.0000       0.046871         1.2754
  52   0.0000       0.061702         1.6790

MULLIKEN ATOMIC CHARGES
-----------------------
   0 C :    0.066218
   1 C :   -0.004715
   2 H :    0.054733
   3 C :    0.049699
   4 H :    0.086264
   5 C :    0.039933
   6 H :    0.085537
   7 C :   -0.011541
   8 H :    0.086650
   9 C :    0.189864
  10 H :    0.054690
  11 O :   -0.321245
  12 O :   -0.379421
  13 O :   -0.422313
  14 O :   -0.418344
  15 O :   -0.422428
  16 O :   -0.435364
  17 H :    0.104816
  18 H :    0.081664
  19 H :    0.292721
  20 H :    0.315758
  21 H :    0.300358
  22 H :    0.304990
  23 H :    0.301476
Sum of atomic charges:   -0.0000000

LOEWDIN ATOMIC CHARGES
----------------------
   0 C :   -0.122695
   1 C :   -0.084058
   2 H :    0.106165
   3 C :   -0.079022
   4 H :    0.120893
   5 C :   -0.069997
   6 H :    0.119866
   7 C :   -0.100065
   8 H :    0.112687
   9 C :   -0.003392
  10 H :    0.095370
  11 O :   -0.164949
  12 O :   -0.289254
  13 O :   -0.313334
  14 O :   -0.308565
  15 O :   -0.311249
  16 O :   -0.329104
  17 H :    0.124282
  18 H :    0.102144
  19 H :    0.275414
  20 H :    0.295065
  21 H :    0.269643
  22 H :    0.274461
  23 H :    0.279692

  Mayer bond orders larger than 0.100000
B(  0-C ,  1-C ) :   1.0377 B(  0-C , 16-O ) :   1.0637 B(  0-C , 17-H ) :   0.9226
B(  0-C , 18-H ) :   0.9141 B(  1-C ,  2-H ) :   0.8674 B(  1-C ,  3-C ) :   0.9600
B(  1-C , 11-O ) :   0.9977 B(  3-C ,  4-H ) :   0.8865 B(  3-C ,  5-C ) :   1.0102
B(  3-C , 15-O ) :   1.0537 B(  5-C ,  6-H ) :   0.8929 B(  5-C ,  7-C ) :   0.9833
B(  5-C , 14-O ) :   1.0437 B(  7-C ,  8-H ) :   0.9015 B(  7-C ,  9-C ) :   0.9330
B(  7-C , 13-O ) :   1.0242 B(  9-C , 10-H ) :   0.9034 B(  9-C , 11-O ) :   1.0032
B(  9-C , 12-O ) :   1.1567 B( 12-O , 19-H ) :   0.8243 B( 13-O , 20-H ) :   0.8397
B( 14-O , 21-H ) :   0.8164 B( 15-O , 22-H ) :   0.8243 B( 16-O , 23-H ) :   0.8378

Dispersion correction           -0.025583893
FINAL SINGLE POINT ENERGY      -685.695532066381

DIPOLE MOMENT
-------------

Method             : SCF
Type of density    : Electron Density
Multiplicity       :   1
Irrep              :   0
Energy             :  -685.8297856251169833 Eh
Relativity type    :
Basis              : AO
                                X                 Y                 Z
Electronic contribution:      1.662163862      -0.162920587      -1.412482160
Nuclear contribution   :     -0.804588338      -0.367243900       2.030992173
                        -----------------------------------------
Total Dipole Moment    :      0.857575524      -0.530164488       0.618510013
                        -----------------------------------------
Magnitude (a.u.)       :      1.182820697
Magnitude (Debye)      :      3.006491281

Rotational constants in cm-1:             0.039068             0.029692             0.023498
Rotational constants in MHz :          1171.227310           890.146115           704.459806

                             ****ORCA TERMINATED NORMALLY****
TOTAL RUN TIME: 0 days 0 hours 0 minutes 11 seconds 8 msec
