                         Program Version 6.0.1  -  RELEASE   -
|  1> ! pbe def2-sv(p) def2/J RI DEFGRID1 loosescf d4 GCP(DFT/SV(P)) printgap
|  2> %output
|  3>     printlevel normal
|  4> end
|  5> * xyz 0 1
|  6> C -2.3272102823 0.8769848088 0.2792193501
|  7> C -1.9165718982 -0.5141847701 -0.220657855
|  8> C -0.6295014705 -1.0109053024 0.4116172471
|  9> Br 0.8944540139 0.1107514168 -0.0897314935
| 10> H -3.2913574498 0.8457323748 0.7795515646
| 11> H -1.5981953643 1.2677018413 0.9854523693
| 12> H -2.3969489589 1.5835230088 -0.5431369265
| 13> H -1.7982999537 -0.5061398767 -1.305963443
| 14> H -2.6933196015 -1.2459407222 0.0161065966
| 15> H -0.3801816307 -2.0180459378 0.079000449
| 16> H -0.6777359303 -0.9835713192 1.4996436076
| 17> *
| 18>
| 19>                          ****END OF INPUT****

CARTESIAN COORDINATES (ANGSTROEM)
---------------------------------
  C     -2.327210    0.876985    0.279219
  C     -1.916572   -0.514185   -0.220658
  C     -0.629501   -1.010905    0.411617
  Br     0.894454    0.110751   -0.089731
  H     -3.291357    0.845732    0.779552
  H     -1.598195    1.267702    0.985452
  H     -2.396949    1.583523   -0.543137
  H     -1.798300   -0.506140   -1.305963
  H     -2.693320   -1.245941    0.016107
  H     -0.380182   -2.018046    0.079000
  H     -0.677736   -0.983571    1.499644

 Total Charge           Charge          ....    0
 Multiplicity           Mult            ....    1
 Number of Electrons    NEL             ....   60
 Basis Dimension        Dim             ....   88

ORBITAL ENERGIES
----------------

  NO   OCC          E(Eh)            E(eV)
   0   2.0000    -480.919403    -13086.4823
   1   2.0000     -61.761700     -1680.6213
   2   2.0000     -55.692299     -1515.4645
   3   2.0000     -55.689261     -1515.3818
   4   2.0000     -55.689112     -1515.3778
   5   2.0000      -9.939131      -270.4575
   6   2.0000      -9.900702      -269.4118
   7   2.0000      -9.878585      -268.8100
   8   2.0000      -8.386825      -228.2171
   9   2.0000      -6.268667      -170.5791
  10   2.0000      -6.254479      -170.1930
  11   2.0000      -6.254364      -170.1899
  12   2.0000      -2.469801       -67.2067
  13   2.0000      -2.466370       -67.1134
  14   2.0000      -2.466243       -67.1099
  15   2.0000      -2.455591       -66.8200
  16   2.0000      -2.455577       -66.8196
  17   2.0000      -0.748302       -20.3623
  18   2.0000      -0.680716       -18.5232
  19   2.0000      -0.604512       -16.4496
  20   2.0000      -0.526808       -14.3352
  21   2.0000      -0.424190       -11.5428
  22   2.0000      -0.417441       -11.3592
  23   2.0000      -0.375900       -10.2288
  24   2.0000      -0.348286        -9.4773
  25   2.0000      -0.318217        -8.6591
  26   2.0000      -0.314700        -8.5634
  27   2.0000      -0.297183        -8.0868
  28   2.0000      -0.233807        -6.3622
  29   2.0000      -0.232093        -6.3156
  30   0.0000      -0.021595        -0.5876
  31   0.0000       0.037178         1.0117
  32   0.0000       0.071989         1.9589
  33   0.0000       0.077442         2.1073
  34   0.0000       0.082026         2.2320

MULLIKEN ATOMIC CHARGES
-----------------------
   0 C :   -0.289259
   1 C :   -0.164033
   2 C :   -0.252193
   3 Br:   -0.126104
   4 H :    0.104432
   5 H :    0.116727
   6 H :    0.111617
   7 H :    0.109383
   8 H :    0.103456
   9 H :    0.141302
  10 H :    0.144672
Sum of atomic charges:   -0.0000000

LOEWDIN ATOMIC CHARGES
----------------------
   0 C :   -0.351115
   1 C :   -0.253224
   2 C :   -0.278153
   3 Br:    0.007104
   4 H :    0.121966
   5 H :    0.121089
   6 H :    0.126497
   7 H :    0.123846
   8 H :    0.126844
   9 H :    0.127886
  10 H :    0.127260

  Mayer bond orders larger than 0.100000
B(  0-C ,  1-C ) :   1.1148 B(  0-C ,  4-H ) :   0.9574 B(  0-C ,  5-H ) :   0.9603
B(  0-C ,  6-H ) :   0.9593 B(  1-C ,  2-C ) :   1.1144 B(  1-C ,  7-H ) :   0.9336
B(  1-C ,  8-H ) :   0.9174 B(  2-C ,  3-Br) :   1.0348 B(  2-C ,  9-H ) :   0.9270
B(  2-C , 10-H ) :   0.9257

Dispersion correction           -0.007557406
FINAL SINGLE POINT ENERGY     -2691.669699428707

DIPOLE MOMENT
-------------

Method             : SCF
Type of density    : Electron Density
Multiplicity       :   1
Irrep              :   0
Energy             : -2691.7125534694887392 Eh
Relativity type    :
Basis              : AO
                                X                 Y                 Z
Electronic contribution:     19.709309394       1.666395509      -2.108626159
Nuclear contribution   :    -20.347585842      -2.019748654       2.250428741
                        -----------------------------------------
Total Dipole Moment    :     -0.638276448      -0.353353145       0.141802583
                        -----------------------------------------
Magnitude (a.u.)       :      0.743211438
Magnitude (Debye)      :      1.889093347

Rotational constants in cm-1:             0.362075             0.077212             0.068307
Rotational constants in MHz :         10854.727435          2314.769216          2047.785749

                             ****ORCA TERMINATED NORMALLY****
TOTAL RUN TIME: 0 days 0 hours 0 minutes 12 seconds 42 msec
