                         Program Version 6.0.1  -  RELEASE   -
|  1> ! pbe def2-sv(p) def2/J RI DEFGRID1 loosescf d4 GCP(DFT/SV(P)) printgap
|  2> %output
|  3>     printlevel normal
|  4> end
|  5> * xyz 0 1
|  6> C -1.8976450891 -1.1089981237 -0.4698027814
|  7> C -1.0593181066 -0.5132514506 0.7021738066
|  8> H -1.6260752519 -0.5948349609 1.6354364905
|  9> C -0.7510243617 0.9782516648 0.5127171572
| 10> H -1.6587922069 1.4608395005 0.1252760653
| 11> C 0.4073838052 1.1882976216 -0.4896493897
| 12> H 0.6659258093 2.2566842345 -0.5125347557
| 13> C 1.6310597001 0.3922338454 -0.0069166656
| 14> H 2.4190021347 0.4352426225 -0.7675171414
| 15> C 1.2379510269 -1.0895200625 0.1731893371
| 16> H 2.0425519323 -1.5916556628 0.7318149683
| 17> O 0.1049845692 -1.2914154152 0.9646326092
| 18> O 1.1138508732 -1.6520258674 -1.1149213039
| 19> O 2.1776745968 0.9123747877 1.1670332612
| 20> O 0.0236710725 0.8285259545 -1.7954331431
| 21> O -0.4284858073 1.5098433148 1.7844782483
| 22> O -2.5705532704 -0.1635066835 -1.2513050329
| 23> H -2.6696037737 -1.7592896869 -0.0526105047
| 24> H -1.2394047623 -1.7251949638 -1.0935957013
| 25> H 0.9820087284 -2.6040833615 -1.0324586412
| 26> H 1.4751771463 0.9269932909 1.8394655262
| 27> H 0.3366362233 -0.0748583374 -1.9618533697
| 28> H -0.3585349201 2.4690378488 1.7168992265
| 29> H -1.910865495 0.3416192629 -1.7564875825
| 30> *
| 31>
| 32>                          ****END OF INPUT****

CARTESIAN COORDINATES (ANGSTROEM)
---------------------------------
  C     -1.897645   -1.108998   -0.469803
  C     -1.059318   -0.513251    0.702174
  H     -1.626075   -0.594835    1.635436
  C     -0.751024    0.978252    0.512717
  H     -1.658792    1.460840    0.125276
  C      0.407384    1.188298   -0.489649
  H      0.665926    2.256684   -0.512535
  C      1.631060    0.392234   -0.006917
  H      2.419002    0.435243   -0.767517
  C      1.237951   -1.089520    0.173189
  H      2.042552   -1.591656    0.731815
  O      0.104985   -1.291415    0.964633
  O      1.113851   -1.652026   -1.114921
  O      2.177675    0.912375    1.167033
  O      0.023671    0.828526   -1.795433
  O     -0.428486    1.509843    1.784478
  O     -2.570553   -0.163507   -1.251305
  H     -2.669604   -1.759290   -0.052611
  H     -1.239405   -1.725195   -1.093596
  H      0.982009   -2.604083   -1.032459
  H      1.475177    0.926993    1.839466
  H      0.336636   -0.074858   -1.961853
  H     -0.358535    2.469038    1.716899
  H     -1.910865    0.341619   -1.756488

 Total Charge           Charge          ....    0
 Multiplicity           Mult            ....    1
 Number of Electrons    NEL             ....   96
 Basis Dimension        Dim             ....  192

ORBITAL ENERGIES
----------------

  NO   OCC          E(Eh)            E(eV)
   0   2.0000     -18.789567      -511.2901
   1   2.0000     -18.778153      -510.9795
   2   2.0000     -18.776532      -510.9354
   3   2.0000     -18.771329      -510.7938
   4   2.0000     -18.748085      -510.1613
   5   2.0000     -18.737648      -509.8773
   6   2.0000      -9.996010      -272.0053
   7   2.0000      -9.953254      -270.8418
   8   2.0000      -9.951776      -270.8016
   9   2.0000      -9.949848      -270.7491
  10   2.0000      -9.948290      -270.7067
  11   2.0000      -9.930792      -270.2306
  12   2.0000      -0.996394       -27.1133
  13   2.0000      -0.958295       -26.0765
  14   2.0000      -0.946236       -25.7484
  15   2.0000      -0.929671       -25.2976
  16   2.0000      -0.927332       -25.2340
  17   2.0000      -0.914763       -24.8920
  18   2.0000      -0.707974       -19.2649
  19   2.0000      -0.694341       -18.8940
  20   2.0000      -0.626684       -17.0529
  21   2.0000      -0.597370       -16.2553
  22   2.0000      -0.581766       -15.8307
  23   2.0000      -0.531170       -14.4539
  24   2.0000      -0.516481       -14.0542
  25   2.0000      -0.495134       -13.4733
  26   2.0000      -0.481651       -13.1064
  27   2.0000      -0.454705       -12.3731
  28   2.0000      -0.450272       -12.2525
  29   2.0000      -0.448121       -12.1940
  30   2.0000      -0.423072       -11.5124
  31   2.0000      -0.403439       -10.9781
  32   2.0000      -0.388036       -10.5590
  33   2.0000      -0.376655       -10.2493
  34   2.0000      -0.367482        -9.9997
  35   2.0000      -0.361465        -9.8360
  36   2.0000      -0.346129        -9.4187
  37   2.0000      -0.338229        -9.2037
  38   2.0000      -0.323173        -8.7940
  39   2.0000      -0.300879        -8.1873
  40   2.0000      -0.283836        -7.7236
  41   2.0000      -0.275475        -7.4961
  42   2.0000      -0.264120        -7.1871
  43   2.0000      -0.262078        -7.1315
  44   2.0000      -0.248497        -6.7620
  45   2.0000      -0.227019        -6.1775
  46   2.0000      -0.214524        -5.8375
  47   2.0000      -0.205427        -5.5900
  48   0.0000       0.002947         0.0802
  49   0.0000       0.010298         0.2802
  50   0.0000       0.040147         1.0925
  51   0.0000       0.058925         1.6034
  52   0.0000       0.060016         1.6331

MULLIKEN ATOMIC CHARGES
-----------------------
   0 C :    0.023000
   1 C :    0.054936
   2 H :    0.085214
   3 C :   -0.016624
   4 H :    0.090259
   5 C :    0.047809
   6 H :    0.070988
   7 C :    0.030276
   8 H :    0.091676
   9 C :    0.174078
  10 H :    0.080611
  11 O :   -0.309514
  12 O :   -0.411704
  13 O :   -0.425245
  14 O :   -0.431019
  15 O :   -0.416803
  16 O :   -0.432386
  17 H :    0.087749
  18 H :    0.056732
  19 H :    0.316888
  20 H :    0.298827
  21 H :    0.324555
  22 H :    0.310530
  23 H :    0.299167
Sum of atomic charges:    0.0000000

LOEWDIN ATOMIC CHARGES
----------------------
   0 C :   -0.144843
   1 C :   -0.062966
   2 H :    0.125895
   3 C :   -0.088483
   4 H :    0.114993
   5 C :   -0.075796
   6 H :    0.108826
   7 C :   -0.084512
   8 H :    0.123201
   9 C :   -0.010198
  10 H :    0.106641
  11 O :   -0.138009
  12 O :   -0.315858
  13 O :   -0.313629
  14 O :   -0.309094
  15 O :   -0.304602
  16 O :   -0.337949
  17 H :    0.115926
  18 H :    0.090138
  19 H :    0.292295
  20 H :    0.270442
  21 H :    0.279881
  22 H :    0.292351
  23 H :    0.265349

  Mayer bond orders larger than 0.100000
B(  0-C ,  1-C ) :   0.9881 B(  0-C , 16-O ) :   1.1262 B(  0-C , 17-H ) :   0.9234
B(  0-C , 18-H ) :   0.9122 B(  1-C ,  2-H ) :   0.8893 B(  1-C ,  3-C ) :   1.0433
B(  1-C , 11-O ) :   0.9710 B(  3-C ,  4-H ) :   0.8762 B(  3-C ,  5-C ) :   0.9603
B(  3-C , 15-O ) :   1.0172 B(  5-C ,  6-H ) :   0.9049 B(  5-C ,  7-C ) :   0.9939
B(  5-C , 14-O ) :   1.0436 B(  7-C ,  8-H ) :   0.8952 B(  7-C ,  9-C ) :   0.9814
B(  7-C , 13-O ) :   1.0725 B(  9-C , 10-H ) :   0.9051 B(  9-C , 11-O ) :   1.0893
B(  9-C , 12-O ) :   1.0441 B( 12-O , 19-H ) :   0.8259 B( 13-O , 20-H ) :   0.8037
B( 14-O , 21-H ) :   0.7872 B( 14-O , 23-H ) :   0.1114 B( 15-O , 20-H ) :   0.1120
B( 15-O , 22-H ) :   0.8396 B( 16-O , 23-H ) :   0.7947

Dispersion correction           -0.026696852
FINAL SINGLE POINT ENERGY      -685.699327172724

DIPOLE MOMENT
-------------

Method             : SCF
Type of density    : Electron Density
Multiplicity       :   1
Irrep              :   0
Energy             :  -685.8361177781547440 Eh
Relativity type    :
Basis              : AO
                                X                 Y                 Z
Electronic contribution:      1.683286132       0.197859786       1.104853661
Nuclear contribution   :     -1.440395333      -0.428959103      -1.062048270
                        -----------------------------------------
Total Dipole Moment    :      0.242890799      -0.231099317       0.042805391
                        -----------------------------------------
Magnitude (a.u.)       :      0.337986888
Magnitude (Debye)      :      0.859094395

Rotational constants in cm-1:             0.041003             0.030877             0.026583
Rotational constants in MHz :          1229.247313           925.677924           796.927868

                             ****ORCA TERMINATED NORMALLY****
TOTAL RUN TIME: 0 days 0 hours 0 minutes 8 seconds 383 msec
