                         Program Version 6.0.0  -   RELEASE  -
|  1> ! r2SCAN-3c DEF2-TZVP FREQ
|  2> * xyzfile 0 1 censo.xyz
|  3>
|  4>                          ****END OF INPUT****

CARTESIAN COORDINATES (ANGSTROEM)
---------------------------------
  C     -2.530169    0.077925   -0.000070
  C     -1.121239   -0.517025   -0.000004
  C     -0.098152    0.596259    0.000015
  Cl     1.620205   -0.075873    0.000083
  H     -2.696384    0.698849   -0.886363
  H     -3.280312   -0.717935   -0.000082
  H     -2.696450    0.698889    0.886184
  H     -0.979253   -1.147452    0.884045
  H     -0.979185   -1.147482   -0.884020
  H     -0.169782    1.220629    0.892797
  H     -0.169721    1.220605   -0.892789

 Total Charge           Charge          ....    0
 Multiplicity           Mult            ....    1
 Number of Electrons    NEL             ....   42
 Basis Dimension        Dim             ....  172

ORBITAL ENERGIES
----------------

  NO   OCC          E(Eh)            E(eV)
   0   2.0000    -101.167419     -2752.9054
   1   2.0000     -10.095266      -274.7062
   2   2.0000     -10.045602      -273.3547
   3   2.0000     -10.035698      -273.0852
   4   2.0000      -9.343497      -254.2495
   5   2.0000      -7.088223      -192.8803
   6   2.0000      -7.078373      -192.6123
   7   2.0000      -7.078292      -192.6101
   8   2.0000      -0.811108       -22.0714
   9   2.0000      -0.743497       -20.2316
  10   2.0000      -0.641387       -17.4530
  11   2.0000      -0.569608       -15.4998
  12   2.0000      -0.458253       -12.4697
  13   2.0000      -0.417629       -11.3643
  14   2.0000      -0.397353       -10.8125
  15   2.0000      -0.385023       -10.4770
  16   2.0000      -0.338943        -9.2231
  17   2.0000      -0.333835        -9.0841
  18   2.0000      -0.321250        -8.7417
  19   2.0000      -0.263999        -7.1838
  20   2.0000      -0.263761        -7.1773
  21   0.0000      -0.008737        -0.2377
  22   0.0000       0.046351         1.2613
  23   0.0000       0.079172         2.1544
  24   0.0000       0.083861         2.2820
  25   0.0000       0.091477         2.4892

MULLIKEN ATOMIC CHARGES
-----------------------
   0 C :   -0.335252
   1 C :   -0.134019
   2 C :   -0.083405
   3 Cl:   -0.202170
   4 H :    0.105003
   5 H :    0.116693
   6 H :    0.105002
   7 H :    0.096362
   8 H :    0.096362
   9 H :    0.117711
  10 H :    0.117711
Sum of atomic charges:    0.0000000

LOEWDIN ATOMIC CHARGES
----------------------
   0 C :   -0.305051
   1 C :   -0.325212
   2 C :   -0.448143
   3 Cl:    0.199444
   4 H :    0.119193
   5 H :    0.122770
   6 H :    0.119193
   7 H :    0.136076
   8 H :    0.136076
   9 H :    0.122827
  10 H :    0.122827

  Mayer bond orders larger than 0.100000
B(  0-C ,  1-C ) :   0.9618 B(  0-C ,  4-H ) :   0.9740 B(  0-C ,  5-H ) :   0.9713
B(  0-C ,  6-H ) :   0.9740 B(  1-C ,  2-C ) :   0.9943 B(  1-C ,  7-H ) :   0.9625
B(  1-C ,  8-H ) :   0.9625 B(  2-C ,  3-Cl) :   1.0212 B(  2-C ,  9-H ) :   0.9631
B(  2-C , 10-H ) :   0.9631

Dispersion correction           -0.002208008
FINAL SINGLE POINT ENERGY      -578.683454893020

DIPOLE MOMENT
-------------

Method             : SCF
Type of density    : Electron Density
Multiplicity       :   1
Irrep              :   0
Energy             :  -578.6884465982136589 Eh
Relativity type    :
Basis              : AO
                                X                 Y                 Z
Electronic contribution:     11.635623329      -0.665324676       0.000420997
Nuclear contribution   :    -12.557030238       0.874846733      -0.000456178
                        -----------------------------------------
Total Dipole Moment    :     -0.921406909       0.209522057      -0.000035181
                        -----------------------------------------
Magnitude (a.u.)       :      0.944928667
Magnitude (Debye)      :      2.401817795

VIBRATIONAL FREQUENCIES
-----------------------

Scaling factor for frequencies =  1.000000000  (already applied!)

     0:       0.00 cm**-1
     1:       0.00 cm**-1
     2:       0.00 cm**-1
     3:       0.00 cm**-1
     4:       0.00 cm**-1
     5:       0.00 cm**-1
     6:     130.64 cm**-1
     7:     242.44 cm**-1
     8:     251.71 cm**-1
     9:     354.98 cm**-1
    10:     678.61 cm**-1
    11:     764.94 cm**-1
    12:     874.26 cm**-1
    13:     910.46 cm**-1
    14:    1028.77 cm**-1
    15:    1085.33 cm**-1
    16:    1121.08 cm**-1
    17:    1245.15 cm**-1
    18:    1271.27 cm**-1
    19:    1317.84 cm**-1
    20:    1354.16 cm**-1
    21:    1401.90 cm**-1
    22:    1477.09 cm**-1
    23:    1486.10 cm**-1
    24:    1494.40 cm**-1
    25:    1502.07 cm**-1
    26:    3008.57 cm**-1
    27:    3026.40 cm**-1
    28:    3060.26 cm**-1
    29:    3066.29 cm**-1
    30:    3090.84 cm**-1
    31:    3094.40 cm**-1
    32:    3131.12 cm**-1

IR SPECTRUM
-----------

 Mode   freq       eps      Int      T**2         TX        TY        TZ
       cm**-1   L/(mol*cm) km/mol    a.u.
----------------------------------------------------------------------------
  6:    130.64   0.000292    1.48  0.000698  (-0.000001  0.000000  0.026415)
  7:    242.44   0.000475    2.40  0.000611  ( 0.018281  0.016652  0.000001)
  8:    251.71   0.000002    0.01  0.000002  ( 0.000001  0.000000 -0.001416)
  9:    354.98   0.001063    5.37  0.000934  (-0.030340  0.003684 -0.000001)
 10:    678.61   0.009625   48.64  0.004426  ( 0.064997 -0.014202  0.000003)
 11:    764.94   0.000607    3.07  0.000248  (-0.000001  0.000000  0.015739)
 12:    874.26   0.000020    0.10  0.000007  (-0.000001 -0.000000  0.002660)
 13:    910.46   0.002653   13.41  0.000909  ( 0.027931  0.011372  0.000001)
 14:   1028.77   0.000376    1.90  0.000114  ( 0.010549  0.001665  0.000000)
 15:   1085.33   0.000205    1.03  0.000059  ( 0.000000 -0.000000 -0.007672)
 16:   1121.08   0.000111    0.56  0.000031  ( 0.002852  0.004780  0.000000)
 17:   1245.15   0.000053    0.27  0.000013  (-0.000000  0.000000  0.003651)
 18:   1271.27   0.004886   24.69  0.001199  ( 0.032745 -0.011275  0.000001)
 19:   1317.84   0.000002    0.01  0.000000  (-0.000000  0.000000 -0.000618)
 20:   1354.16   0.001120    5.66  0.000258  ( 0.015236 -0.005086  0.000001)
 21:   1401.90   0.000694    3.51  0.000154  (-0.010229  0.007057 -0.000001)
 22:   1477.09   0.000287    1.45  0.000061  (-0.003128 -0.007135 -0.000000)
 23:   1486.10   0.000246    1.24  0.000052  (-0.006843  0.002193 -0.000000)
 24:   1494.40   0.001867    9.44  0.000390  (-0.000001  0.000000  0.019746)
 25:   1502.07   0.001592    8.04  0.000331  ( 0.004698  0.017568 -0.000000)
 26:   3008.57   0.004880   24.66  0.000506  (-0.020684  0.008850  0.000001)
 27:   3026.40   0.002316   11.70  0.000239  ( 0.004813 -0.014685  0.000001)
 28:   3060.26   0.004438   22.43  0.000453  ( 0.009148 -0.019207  0.000001)
 29:   3066.29   0.000021    0.10  0.000002  (-0.000002 -0.000001 -0.001450)
 30:   3090.84   0.006648   33.60  0.000671  ( 0.000007  0.000017  0.025907)
 31:   3094.40   0.005438   27.48  0.000548  (-0.009096 -0.021579  0.000020)
 32:   3131.12   0.003537   17.87  0.000353  ( 0.000001 -0.000000 -0.018775)

--------------------------
THERMOCHEMISTRY AT 298.15K
--------------------------

Temperature         ...   298.15 K
Pressure            ...     1.00 atm
Total Mass          ...    78.54 AMU
Quasi RRHO          ...     True
Cut-Off Frequency   ...     1.00 cm^-1

Throughout the following assumptions are being made:
  (1) The electronic state is orbitally nondegenerate
  (2) There are no thermally accessible electronically excited states
  (3) Hindered rotations indicated by low frequency modes are not
      treated as such but are treated as vibrations and this may
      cause some error
  (4) All equations used are the standard statistical mechanics
      equations for an ideal gas
  (5) All vibrations are strictly harmonic

freq.     130.64  E(vib)   ...       0.43
freq.     242.44  E(vib)   ...       0.31
freq.     251.71  E(vib)   ...       0.30
freq.     354.98  E(vib)   ...       0.22
freq.     678.61  E(vib)   ...       0.08
freq.     764.94  E(vib)   ...       0.06
freq.     874.26  E(vib)   ...       0.04
freq.     910.46  E(vib)   ...       0.03
freq.    1028.77  E(vib)   ...       0.02
freq.    1085.33  E(vib)   ...       0.02
freq.    1121.08  E(vib)   ...       0.01
freq.    1245.15  E(vib)   ...       0.01
freq.    1271.27  E(vib)   ...       0.01
freq.    1317.84  E(vib)   ...       0.01
freq.    1354.16  E(vib)   ...       0.01
freq.    1401.90  E(vib)   ...       0.00
freq.    1477.09  E(vib)   ...       0.00
freq.    1486.10  E(vib)   ...       0.00
freq.    1494.40  E(vib)   ...       0.00
freq.    1502.07  E(vib)   ...       0.00
freq.    3008.57  E(vib)   ...       0.00
freq.    3026.40  E(vib)   ...       0.00
freq.    3060.26  E(vib)   ...       0.00
freq.    3066.29  E(vib)   ...       0.00
freq.    3090.84  E(vib)   ...       0.00
freq.    3094.40  E(vib)   ...       0.00
freq.    3131.12  E(vib)   ...       0.00

------------
INNER ENERGY
------------

The inner energy is: U= E(el) + E(ZPE) + E(vib) + E(rot) + E(trans)
    E(el)   - is the total energy from the electronic structure calculation
              = E(kin-el) + E(nuc-el) + E(el-el) + E(nuc-nuc)
    E(ZPE)  - the the zero temperature vibrational energy from the frequency calculation
    E(vib)  - the the finite temperature correction to E(ZPE) due to population
              of excited vibrational states
    E(rot)  - is the rotational thermal energy
    E(trans)- is the translational thermal energy

Summary of contributions to the inner energy U:
Electronic energy                ...   -578.68345489 Eh
Zero point energy                ...      0.09447803 Eh      59.29 kcal/mol
Thermal vibrational correction   ...      0.00249311 Eh       1.56 kcal/mol
Thermal rotational correction    ...      0.00141627 Eh       0.89 kcal/mol
Thermal translational correction ...      0.00141627 Eh       0.89 kcal/mol
-----------------------------------------------------------------------
Total thermal energy                   -578.58365121 Eh

Summary of corrections to the electronic energy:
(perhaps to be used in another calculation)
Total thermal correction                  0.00532565 Eh       3.34 kcal/mol
Non-thermal (ZPE) correction              0.09447803 Eh      59.29 kcal/mol
-----------------------------------------------------------------------
Total correction                          0.09980369 Eh      62.63 kcal/mol

--------
ENTHALPY
--------

The enthalpy is H = U + kB*T
                kB is Boltzmann's constant
Total thermal energy              ...   -578.58365121 Eh
Thermal Enthalpy correction       ...      0.00094421 Eh       0.59 kcal/mol
-----------------------------------------------------------------------
Total Enthalpy                    ...   -578.58270700 Eh

Note: Rotational entropy computed according to Herzberg
Infrared and Raman Spectra, Chapter V,1, Van Nostrand Reinhold, 1945
Point Group:  Cs, Symmetry Number:   1
Rotational constants in cm-1:     0.856319     0.077538     0.074078

Vibrational entropy computed according to the QRRHO of S. Grimme
Chem.Eur.J. 2012 18 9955 using a reference frequency of 100.0 cm-1

-------
ENTROPY
-------

The entropy contributions are T*S = T*(S(el)+S(vib)+S(rot)+S(trans))
     S(el)   - electronic entropy
     S(vib)  - vibrational entropy
     S(rot)  - rotational entropy
     S(trans)- translational entropy
The entropies will be listed as multiplied by the temperature to get
units of energy

Electronic entropy                ...      0.00000000 Eh      0.00 kcal/mol
Vibrational entropy               ...      0.00415958 Eh      2.61 kcal/mol
Rotational entropy                ...      0.01201985 Eh      7.54 kcal/mol
Translational entropy             ...      0.01852916 Eh     11.63 kcal/mol
-----------------------------------------------------------------------
Final entropy term                ...      0.03470859 Eh     21.78 kcal/mol

In case the symmetry of your molecule has not been determined correctly
or in case you have a reason to use a different symmetry number we print
out the resulting rotational entropy values for sn=1,12:

 non-linear molecules -----------------------------------
|  sn= 1 | S(rot)=       0.01201985 Eh      7.54 kcal/mol|
|  sn= 2 | S(rot)=       0.01136539 Eh      7.13 kcal/mol|
|  sn= 3 | S(rot)=       0.01098256 Eh      6.89 kcal/mol|
|  sn= 4 | S(rot)=       0.01071093 Eh      6.72 kcal/mol|
|  sn= 5 | S(rot)=       0.01050025 Eh      6.59 kcal/mol|
|  sn= 6 | S(rot)=       0.01032810 Eh      6.48 kcal/mol|
|  sn= 7 | S(rot)=       0.01018256 Eh      6.39 kcal/mol|
|  sn= 8 | S(rot)=       0.01005648 Eh      6.31 kcal/mol|
|  sn= 9 | S(rot)=       0.00994527 Eh      6.24 kcal/mol|
|  sn=10 | S(rot)=       0.00984579 Eh      6.18 kcal/mol|
|  sn=11 | S(rot)=       0.00975580 Eh      6.12 kcal/mol|
|  sn=12 | S(rot)=       0.00967365 Eh      6.07 kcal/mol|
 linear molecules ---------------------------------------
|  Dinfh | S(rot)=       0.00778317 Eh      4.88 kcal/mol|
|  Cinfv | S(rot)=       0.00843762 Eh      5.29 kcal/mol|
 --------------------------------------------------------

-------------------
GIBBS FREE ENERGY
-------------------

The Gibbs free energy is G = H - T*S

Total enthalpy                    ...   -578.58270700 Eh
Total entropy correction          ...     -0.03470859 Eh    -21.78 kcal/mol
-----------------------------------------------------------------------
Final Gibbs free energy         ...   -578.61741559 Eh

For completeness - the Gibbs free energy minus the electronic energy
G-E(el)                           ...      0.06603930 Eh     41.44 kcal/mol

                             ****ORCA TERMINATED NORMALLY****
TOTAL RUN TIME: 0 days 0 hours 3 minutes 2 seconds 479 msec
