                         Program Version 6.0.0  -   RELEASE  -
|  1> ! r2SCAN-3c DEF2-TZVP FREQ
|  2> * xyzfile 0 1 vacuum_censo.xyz
|  3>
|  4>                          ****END OF INPUT****

CARTESIAN COORDINATES (ANGSTROEM)
---------------------------------
  C     -1.962252   -0.179743    0.509439
  C     -1.172626   -0.162443   -0.795228
  C      0.110250    0.641982   -0.727685
  Cl     1.320467   -0.104110    0.426529
  H     -2.229548    0.836197    0.818860
  H     -2.887019   -0.751551    0.394988
  H     -1.378363   -0.635182    1.313352
  H     -0.941519   -1.183473   -1.118067
  H     -1.780204    0.290077   -1.591796
  H     -0.066577    1.656713   -0.361695
  H      0.613162    0.687056   -1.695631

 Total Charge           Charge          ....    0
 Multiplicity           Mult            ....    1
 Number of Electrons    NEL             ....   42
 Basis Dimension        Dim             ....  172

ORBITAL ENERGIES
----------------

  NO   OCC          E(Eh)            E(eV)
   0   2.0000    -101.169124     -2752.9518
   1   2.0000     -10.094582      -274.6875
   2   2.0000     -10.046336      -273.3747
   3   2.0000     -10.025966      -272.8204
   4   2.0000      -9.345300      -254.2985
   5   2.0000      -7.089962      -192.9277
   6   2.0000      -7.080175      -192.6614
   7   2.0000      -7.080119      -192.6598
   8   2.0000      -0.814048       -22.1514
   9   2.0000      -0.737466       -20.0675
  10   2.0000      -0.647105       -17.6086
  11   2.0000      -0.560490       -15.2517
  12   2.0000      -0.444562       -12.0972
  13   2.0000      -0.436612       -11.8808
  14   2.0000      -0.397569       -10.8184
  15   2.0000      -0.371446       -10.1076
  16   2.0000      -0.339048        -9.2260
  17   2.0000      -0.331029        -9.0077
  18   2.0000      -0.316771        -8.6198
  19   2.0000      -0.266001        -7.2382
  20   2.0000      -0.263631        -7.1738
  21   0.0000      -0.002597        -0.0707
  22   0.0000       0.045914         1.2494
  23   0.0000       0.083535         2.2731
  24   0.0000       0.086348         2.3496
  25   0.0000       0.101353         2.7580

MULLIKEN ATOMIC CHARGES
-----------------------
   0 C :   -0.336282
   1 C :   -0.132618
   2 C :   -0.079829
   3 Cl:   -0.201990
   4 H :    0.097316
   5 H :    0.110340
   6 H :    0.122280
   7 H :    0.096894
   8 H :    0.086746
   9 H :    0.112019
  10 H :    0.125123
Sum of atomic charges:    0.0000000

LOEWDIN ATOMIC CHARGES
----------------------
   0 C :   -0.313487
   1 C :   -0.325332
   2 C :   -0.458111
   3 Cl:    0.214472
   4 H :    0.118338
   5 H :    0.119831
   6 H :    0.120310
   7 H :    0.137018
   8 H :    0.141183
   9 H :    0.123123
  10 H :    0.122654

  Mayer bond orders larger than 0.100000
B(  0-C ,  1-C ) :   0.9847 B(  0-C ,  4-H ) :   0.9725 B(  0-C ,  5-H ) :   0.9737
B(  0-C ,  6-H ) :   0.9689 B(  1-C ,  2-C ) :   0.9907 B(  1-C ,  7-H ) :   0.9628
B(  1-C ,  8-H ) :   0.9471 B(  2-C ,  3-Cl) :   1.0079 B(  2-C ,  9-H ) :   0.9643
B(  2-C , 10-H ) :   0.9645

Dispersion correction           -0.002286364
FINAL SINGLE POINT ENERGY      -578.684050930783

DIPOLE MOMENT
-------------

Method             : SCF
Type of density    : Electron Density
Multiplicity       :   1
Irrep              :   0
Energy             :  -578.6891038040777175 Eh
Relativity type    :
Basis              : AO
                                X                 Y                 Z
Electronic contribution:      9.369564826      -0.667285601       2.205900551
Nuclear contribution   :    -10.022564540       0.929598624      -2.719964246
                        -----------------------------------------
Total Dipole Moment    :     -0.652999714       0.262313023      -0.514063695
                        -----------------------------------------
Magnitude (a.u.)       :      0.871480482
Magnitude (Debye)      :      2.215127346

VIBRATIONAL FREQUENCIES
-----------------------

Scaling factor for frequencies =  1.000000000  (already applied!)

     0:       0.00 cm**-1
     1:       0.00 cm**-1
     2:       0.00 cm**-1
     3:       0.00 cm**-1
     4:       0.00 cm**-1
     5:       0.00 cm**-1
     6:     144.57 cm**-1
     7:     225.67 cm**-1
     8:     301.77 cm**-1
     9:     425.84 cm**-1
    10:     623.13 cm**-1
    11:     792.10 cm**-1
    12:     863.16 cm**-1
    13:     903.40 cm**-1
    14:    1044.30 cm**-1
    15:    1080.19 cm**-1
    16:    1105.04 cm**-1
    17:    1235.06 cm**-1
    18:    1277.49 cm**-1
    19:    1326.03 cm**-1
    20:    1371.57 cm**-1
    21:    1405.98 cm**-1
    22:    1466.28 cm**-1
    23:    1473.00 cm**-1
    24:    1494.53 cm**-1
    25:    1500.82 cm**-1
    26:    2997.09 cm**-1
    27:    3015.54 cm**-1
    28:    3046.83 cm**-1
    29:    3059.40 cm**-1
    30:    3092.07 cm**-1
    31:    3105.51 cm**-1
    32:    3119.83 cm**-1

IR SPECTRUM
-----------

 Mode   freq       eps      Int      T**2         TX        TY        TZ
       cm**-1   L/(mol*cm) km/mol    a.u.
----------------------------------------------------------------------------
  6:    144.57   0.000167    0.84  0.000360  ( 0.014153 -0.004221 -0.011905)
  7:    225.67   0.000231    1.17  0.000319  ( 0.016709  0.006228  0.001190)
  8:    301.77   0.000177    0.90  0.000183  ( 0.008543  0.002745  0.010142)
  9:    425.84   0.000461    2.33  0.000338  (-0.017676  0.003729 -0.003357)
 10:    623.13   0.005393   27.25  0.002701  ( 0.039214 -0.012676  0.031660)
 11:    792.10   0.003356   16.96  0.001322  (-0.030406  0.015636 -0.012374)
 12:    863.16   0.001102    5.57  0.000398  (-0.013997 -0.000583 -0.014216)
 13:    903.40   0.001266    6.40  0.000437  ( 0.019593  0.005987  0.004175)
 14:   1044.30   0.000650    3.29  0.000194  (-0.009512  0.002664 -0.009835)
 15:   1080.19   0.000181    0.91  0.000052  (-0.002400 -0.005472 -0.004058)
 16:   1105.04   0.000097    0.49  0.000027  (-0.004877  0.001496 -0.001136)
 17:   1235.06   0.000078    0.39  0.000020  (-0.004016  0.000780 -0.001729)
 18:   1277.49   0.001156    5.84  0.000282  (-0.012430  0.007639 -0.008334)
 19:   1326.03   0.005241   26.49  0.001233  (-0.027309  0.010870 -0.019223)
 20:   1371.57   0.000121    0.61  0.000027  (-0.004610 -0.000325  0.002474)
 21:   1405.98   0.001332    6.73  0.000296  ( 0.013084  0.000302 -0.011149)
 22:   1466.28   0.000880    4.45  0.000187  ( 0.003551  0.009190  0.009497)
 23:   1473.00   0.000723    3.66  0.000153  (-0.010231 -0.006032 -0.003495)
 24:   1494.53   0.001610    8.14  0.000336  (-0.007221  0.013877 -0.009566)
 25:   1500.82   0.001508    7.62  0.000314  (-0.009056 -0.014881 -0.003173)
 26:   2997.09   0.004842   24.47  0.000504  (-0.007642 -0.000735 -0.021101)
 27:   3015.54   0.004662   23.56  0.000482  ( 0.015458 -0.003990 -0.015085)
 28:   3046.83   0.001536    7.76  0.000157  (-0.004366 -0.004266  0.010956)
 29:   3059.40   0.004113   20.79  0.000420  ( 0.004769 -0.018605  0.007120)
 30:   3092.07   0.007116   35.96  0.000718  ( 0.005733  0.026177  0.000351)
 31:   3105.51   0.004033   20.38  0.000405  ( 0.016923 -0.003990  0.010146)
 32:   3119.83   0.002601   13.15  0.000260  ( 0.006119 -0.009138 -0.011800)

--------------------------
THERMOCHEMISTRY AT 298.15K
--------------------------

Temperature         ...   298.15 K
Pressure            ...     1.00 atm
Total Mass          ...    78.54 AMU
Quasi RRHO          ...     True
Cut-Off Frequency   ...     1.00 cm^-1

Throughout the following assumptions are being made:
  (1) The electronic state is orbitally nondegenerate
  (2) There are no thermally accessible electronically excited states
  (3) Hindered rotations indicated by low frequency modes are not
      treated as such but are treated as vibrations and this may
      cause some error
  (4) All equations used are the standard statistical mechanics
      equations for an ideal gas
  (5) All vibrations are strictly harmonic

freq.     144.57  E(vib)   ...       0.41
freq.     225.67  E(vib)   ...       0.33
freq.     301.77  E(vib)   ...       0.26
freq.     425.84  E(vib)   ...       0.18
freq.     623.13  E(vib)   ...       0.09
freq.     792.10  E(vib)   ...       0.05
freq.     863.16  E(vib)   ...       0.04
freq.     903.40  E(vib)   ...       0.03
freq.    1044.30  E(vib)   ...       0.02
freq.    1080.19  E(vib)   ...       0.02
freq.    1105.04  E(vib)   ...       0.02
freq.    1235.06  E(vib)   ...       0.01
freq.    1277.49  E(vib)   ...       0.01
freq.    1326.03  E(vib)   ...       0.01
freq.    1371.57  E(vib)   ...       0.01
freq.    1405.98  E(vib)   ...       0.00
freq.    1466.28  E(vib)   ...       0.00
freq.    1473.00  E(vib)   ...       0.00
freq.    1494.53  E(vib)   ...       0.00
freq.    1500.82  E(vib)   ...       0.00
freq.    2997.09  E(vib)   ...       0.00
freq.    3015.54  E(vib)   ...       0.00
freq.    3046.83  E(vib)   ...       0.00
freq.    3059.40  E(vib)   ...       0.00
freq.    3092.07  E(vib)   ...       0.00
freq.    3105.51  E(vib)   ...       0.00
freq.    3119.83  E(vib)   ...       0.00

------------
INNER ENERGY
------------

The inner energy is: U= E(el) + E(ZPE) + E(vib) + E(rot) + E(trans)
    E(el)   - is the total energy from the electronic structure calculation
              = E(kin-el) + E(nuc-el) + E(el-el) + E(nuc-nuc)
    E(ZPE)  - the the zero temperature vibrational energy from the frequency calculation
    E(vib)  - the the finite temperature correction to E(ZPE) due to population
              of excited vibrational states
    E(rot)  - is the rotational thermal energy
    E(trans)- is the translational thermal energy

Summary of contributions to the inner energy U:
Electronic energy                ...   -578.68405093 Eh
Zero point energy                ...      0.09453529 Eh      59.32 kcal/mol
Thermal vibrational correction   ...      0.00237727 Eh       1.49 kcal/mol
Thermal rotational correction    ...      0.00141627 Eh       0.89 kcal/mol
Thermal translational correction ...      0.00141627 Eh       0.89 kcal/mol
-----------------------------------------------------------------------
Total thermal energy                   -578.58430583 Eh

Summary of corrections to the electronic energy:
(perhaps to be used in another calculation)
Total thermal correction                  0.00520981 Eh       3.27 kcal/mol
Non-thermal (ZPE) correction              0.09453529 Eh      59.32 kcal/mol
-----------------------------------------------------------------------
Total correction                          0.09974510 Eh      62.59 kcal/mol

--------
ENTHALPY
--------

The enthalpy is H = U + kB*T
                kB is Boltzmann's constant
Total thermal energy              ...   -578.58430583 Eh
Thermal Enthalpy correction       ...      0.00094421 Eh       0.59 kcal/mol
-----------------------------------------------------------------------
Total Enthalpy                    ...   -578.58336162 Eh

Note: Only C1 symmetry has been detected, increase convergence thresholds
      if your molecule has a higher symmetry. Symmetry factor of 1.0 is
      used for the rotational entropy correction.

Note: Rotational entropy computed according to Herzberg
Infrared and Raman Spectra, Chapter V,1, Van Nostrand Reinhold, 1945
Point Group:  C1, Symmetry Number:   1
Rotational constants in cm-1:     0.392264     0.108200     0.093155

Vibrational entropy computed according to the QRRHO of S. Grimme
Chem.Eur.J. 2012 18 9955 using a reference frequency of 100.0 cm-1

-------
ENTROPY
-------

The entropy contributions are T*S = T*(S(el)+S(vib)+S(rot)+S(trans))
     S(el)   - electronic entropy
     S(vib)  - vibrational entropy
     S(rot)  - rotational entropy
     S(trans)- translational entropy
The entropies will be listed as multiplied by the temperature to get
units of energy

Electronic entropy                ...      0.00000000 Eh      0.00 kcal/mol
Vibrational entropy               ...      0.00390072 Eh      2.45 kcal/mol
Rotational entropy                ...      0.01212293 Eh      7.61 kcal/mol
Translational entropy             ...      0.01852916 Eh     11.63 kcal/mol
-----------------------------------------------------------------------
Final entropy term                ...      0.03455281 Eh     21.68 kcal/mol

In case the symmetry of your molecule has not been determined correctly
or in case you have a reason to use a different symmetry number we print
out the resulting rotational entropy values for sn=1,12:

 non-linear molecules -----------------------------------
|  sn= 1 | S(rot)=       0.01212293 Eh      7.61 kcal/mol|
|  sn= 2 | S(rot)=       0.01146847 Eh      7.20 kcal/mol|
|  sn= 3 | S(rot)=       0.01108564 Eh      6.96 kcal/mol|
|  sn= 4 | S(rot)=       0.01081402 Eh      6.79 kcal/mol|
|  sn= 5 | S(rot)=       0.01060333 Eh      6.65 kcal/mol|
|  sn= 6 | S(rot)=       0.01043118 Eh      6.55 kcal/mol|
|  sn= 7 | S(rot)=       0.01028564 Eh      6.45 kcal/mol|
|  sn= 8 | S(rot)=       0.01015956 Eh      6.38 kcal/mol|
|  sn= 9 | S(rot)=       0.01004835 Eh      6.31 kcal/mol|
|  sn=10 | S(rot)=       0.00994887 Eh      6.24 kcal/mol|
|  sn=11 | S(rot)=       0.00985888 Eh      6.19 kcal/mol|
|  sn=12 | S(rot)=       0.00977673 Eh      6.13 kcal/mol|
 linear molecules ---------------------------------------
|  Dinfh | S(rot)=       0.00756682 Eh      4.75 kcal/mol|
|  Cinfv | S(rot)=       0.00822127 Eh      5.16 kcal/mol|
 --------------------------------------------------------

-------------------
GIBBS FREE ENERGY
-------------------

The Gibbs free energy is G = H - T*S

Total enthalpy                    ...   -578.58336162 Eh
Total entropy correction          ...     -0.03455281 Eh    -21.68 kcal/mol
-----------------------------------------------------------------------
Final Gibbs free energy         ...   -578.61791443 Eh

For completeness - the Gibbs free energy minus the electronic energy
G-E(el)                           ...      0.06613650 Eh     41.50 kcal/mol

                             ****ORCA TERMINATED NORMALLY****
TOTAL RUN TIME: 0 days 0 hours 3 minutes 12 seconds 463 msec
