                         Program Version 6.0.1  -  RELEASE   -
|  1> ! r2scan-3c def2/J RI DEFGRID2 scfconv6 printgap
|  2> %output
|  3>     printlevel normal
|  4> end
|  5> * xyz 0 1
|  6> C -2.6689073601 -1.435366472 -0.0755458654
|  7> C -1.9577848263 -0.0908326832 0.0125009018
|  8> C -0.4516615069 -0.141634304 -0.0054586979
|  9> C 0.2486197306 -1.3363282114 -0.096207549
| 10> C 1.6327848723 -1.3586014636 -0.1112099269
| 11> C 2.3417263751 -0.1752500513 -0.0347823379
| 12> C 1.6552285925 1.0222927458 0.0560068117
| 13> C 0.2684627079 1.0575309687 0.0718346998
| 14> C -0.4385834949 2.3758036678 0.171091946
| 15> H -2.4036735647 -2.0729347969 0.7647803193
| 16> H -2.4198108178 -1.9487308003 -1.0014991041
| 17> H -3.7458061508 -1.2794929504 -0.0547504212
| 18> H -2.2739621159 0.4128958225 0.9317563803
| 19> H -2.2908394315 0.5366340694 -0.8206215334
| 20> H -0.2840205086 -2.2719926799 -0.1571179253
| 21> H 2.153625721 -2.3024224884 -0.1826246055
| 22> H 3.4217807181 -0.1817841428 -0.0453685443
| 23> H 2.2072102063 1.9500735436 0.1162671327
| 24> H -1.0818661293 2.5359388166 -0.6939843659
| 25> H -1.0669594906 2.4119649336 1.0608192356
| 26> H 0.2780711222 3.1916304954 0.2226050494
| 27> *
| 28>
| 29>                          ****END OF INPUT****

CARTESIAN COORDINATES (ANGSTROEM)
---------------------------------
  C     -2.668907   -1.435366   -0.075546
  C     -1.957785   -0.090833    0.012501
  C     -0.451662   -0.141634   -0.005459
  C      0.248620   -1.336328   -0.096208
  C      1.632785   -1.358601   -0.111210
  C      2.341726   -0.175250   -0.034782
  C      1.655229    1.022293    0.056007
  C      0.268463    1.057531    0.071835
  C     -0.438583    2.375804    0.171092
  H     -2.403674   -2.072935    0.764780
  H     -2.419811   -1.948731   -1.001499
  H     -3.745806   -1.279493   -0.054750
  H     -2.273962    0.412896    0.931756
  H     -2.290839    0.536634   -0.820622
  H     -0.284021   -2.271993   -0.157118
  H      2.153626   -2.302422   -0.182625
  H      3.421781   -0.181784   -0.045369
  H      2.207210    1.950074    0.116267
  H     -1.081866    2.535939   -0.693984
  H     -1.066959    2.411965    1.060819
  H      0.278071    3.191630    0.222605

 Total Charge           Charge          ....    0
 Multiplicity           Mult            ....    1
 Number of Electrons    NEL             ....   66
 Basis Dimension        Dim             ....  231

ORBITAL ENERGIES
----------------

  NO   OCC          E(Eh)            E(eV)
   0   2.0000     -10.037174      -273.1254
   1   2.0000     -10.036424      -273.1050
   2   2.0000     -10.034984      -273.0658
   3   2.0000     -10.026084      -272.8236
   4   2.0000     -10.025076      -272.7962
   5   2.0000     -10.024898      -272.7913
   6   2.0000     -10.024568      -272.7824
   7   2.0000     -10.024294      -272.7749
   8   2.0000     -10.021842      -272.7082
   9   2.0000      -0.827815       -22.5260
  10   2.0000      -0.755413       -20.5558
  11   2.0000      -0.736173       -20.0323
  12   2.0000      -0.690763       -18.7966
  13   2.0000      -0.650107       -17.6903
  14   2.0000      -0.606666       -16.5082
  15   2.0000      -0.551935       -15.0189
  16   2.0000      -0.535739       -14.5782
  17   2.0000      -0.469585       -12.7781
  18   2.0000      -0.436190       -11.8693
  19   2.0000      -0.427646       -11.6368
  20   2.0000      -0.408985       -11.1290
  21   2.0000      -0.397763       -10.8237
  22   2.0000      -0.387835       -10.5535
  23   2.0000      -0.371485       -10.1086
  24   2.0000      -0.353708        -9.6249
  25   2.0000      -0.343897        -9.3579
  26   2.0000      -0.334164        -9.0931
  27   2.0000      -0.332299        -9.0423
  28   2.0000      -0.317226        -8.6322
  29   2.0000      -0.297117        -8.0850
  30   2.0000      -0.293248        -7.9797
  31   2.0000      -0.226451        -6.1620
  32   2.0000      -0.216282        -5.8853
  33   0.0000      -0.022160        -0.6030
  34   0.0000      -0.021258        -0.5784
  35   0.0000       0.087950         2.3932
  36   0.0000       0.091986         2.5031
  37   0.0000       0.097337         2.6487

MULLIKEN ATOMIC CHARGES
-----------------------
   0 C :   -0.517632
   1 C :   -0.337056
   2 C :    0.164794
   3 C :   -0.188259
   4 C :   -0.176039
   5 C :   -0.160804
   6 C :   -0.205066
   7 C :    0.141547
   8 C :   -0.549534
   9 H :    0.158416
  10 H :    0.158351
  11 H :    0.149503
  12 H :    0.158845
  13 H :    0.158666
  14 H :    0.142726
  15 H :    0.142975
  16 H :    0.143254
  17 H :    0.144407
  18 H :    0.160484
  19 H :    0.160294
  20 H :    0.150127
Sum of atomic charges:    0.0000000

LOEWDIN ATOMIC CHARGES
----------------------
   0 C :   -0.420089
   1 C :   -0.284443
   2 C :   -0.086031
   3 C :   -0.163464
   4 C :   -0.170397
   5 C :   -0.170266
   6 C :   -0.165160
   7 C :   -0.093344
   8 C :   -0.389430
   9 H :    0.153910
  10 H :    0.153898
  11 H :    0.153008
  12 H :    0.164952
  13 H :    0.164941
  14 H :    0.170000
  15 H :    0.165329
  16 H :    0.165720
  17 H :    0.166188
  18 H :    0.162772
  19 H :    0.162748
  20 H :    0.159157

  Mayer bond orders larger than 0.100000
B(  0-C ,  1-C ) :   0.8592 B(  0-C ,  9-H ) :   0.9847 B(  0-C , 10-H ) :   0.9847
B(  0-C , 11-H ) :   0.9694 B(  1-C ,  2-C ) :   0.8280 B(  1-C , 12-H ) :   0.9817
B(  1-C , 13-H ) :   0.9814 B(  2-C ,  3-C ) :   1.4525 B(  2-C ,  7-C ) :   1.4483
B(  3-C ,  4-C ) :   1.4083 B(  3-C , 14-H ) :   0.9440 B(  4-C ,  5-C ) :   1.4282
B(  4-C , 15-H ) :   0.9488 B(  5-C ,  6-C ) :   1.4359 B(  5-C , 16-H ) :   0.9486
B(  6-C ,  7-C ) :   1.4114 B(  6-C , 17-H ) :   0.9234 B(  7-C ,  8-C ) :   0.8145
B(  8-C , 18-H ) :   0.9795 B(  8-C , 19-H ) :   0.9794 B(  8-C , 20-H ) :   0.9872

Dispersion correction           -0.006996825
FINAL SINGLE POINT ENERGY      -350.081548071375

DIPOLE MOMENT
-------------

Method             : SCF
Type of density    : Electron Density
Multiplicity       :   1
Irrep              :   0
Energy             :  -350.0820056484591873 Eh
Relativity type    :
Basis              : AO
                                X                 Y                 Z
Electronic contribution:      6.746355499      -0.780574437      -0.118866645
Nuclear contribution   :     -7.042116832       0.921073479       0.131588828
                        -----------------------------------------
Total Dipole Moment    :     -0.295761333       0.140499042       0.012722183
                        -----------------------------------------
Magnitude (a.u.)       :      0.327683690
Magnitude (Debye)      :      0.832905748

Rotational constants in cm-1:             0.081119             0.049330             0.031209
Rotational constants in MHz :          2431.886666          1478.866483           935.616286

                             ****ORCA TERMINATED NORMALLY****
TOTAL RUN TIME: 0 days 0 hours 0 minutes 30 seconds 115 msec
