                         Program Version 6.0.1  -  RELEASE   -
|  1> ! pbe def2-sv(p) def2/J RI DEFGRID1 loosescf d4 GCP(DFT/SV(P)) printgap
|  2> %output
|  3>     printlevel normal
|  4> end
|  5> * xyz 0 1
|  6> C 1.9581436408 2.8963791971 0.9013593776
|  7> C 2.1079367781 1.7345145364 -0.0768695843
|  8> C 2.8502116369 0.5268071199 0.5508972089
|  9> C 1.8733022755 -0.5947375116 0.3670647399
| 10> C 1.9629032613 -1.9350437449 0.6685489435
| 11> C 0.876336751 -2.7542667707 0.3884619573
| 12> C -0.2709185315 -2.2336690087 -0.1826278767
| 13> C -0.3716794431 -0.8782285136 -0.4900880486
| 14> C 0.7164887635 -0.0602086691 -0.2017213846
| 15> O 0.7808328115 1.2679051124 -0.4129217204
| 16> O -1.4897893134 -0.3685314761 -1.1276475313
| 17> C -2.6646894901 -0.1923920865 -0.4710310575
| 18> O -3.6507052699 0.1223400408 -1.0805316946
| 19> N -2.6263759394 -0.3967755566 0.8683265674
| 20> C -3.7910449995 -0.2163279714 1.6981686793
| 21> C 2.7779558803 2.1923537145 -1.3716469578
| 22> H 1.4512685044 2.564428229 1.8048572604
| 23> H 2.9356684472 3.2907353149 1.1655085169
| 24> H 1.3670521534 3.686168118 0.4456388504
| 25> H 3.7942465179 0.3306207031 0.0414062587
| 26> H 3.0655920917 0.6947701888 1.6084872343
| 27> H 2.8600309175 -2.3402472874 1.1103365394
| 28> H 0.9266239177 -3.8082331187 0.612205169
| 29> H -1.1101937833 -2.873321078 -0.41026969
| 30> H -1.746337907 -0.5987306686 1.3167568371
| 31> H -4.0105787748 -1.1315190865 2.2513615871
| 32> H -4.6256060625 0.0191912526 1.0402505975
| 33> H -3.6448672937 0.6043374387 2.4035856358
| 34> H 3.7711974892 2.5820414138 -1.164770696
| 35> H 2.1801240657 2.9700337807 -1.8394262677
| 36> H 2.8574135437 1.3568920813 -2.0637975543
| 37> *
| 38>
| 39>                          ****END OF INPUT****

CARTESIAN COORDINATES (ANGSTROEM)
---------------------------------
  C      1.958144    2.896379    0.901359
  C      2.107937    1.734515   -0.076870
  C      2.850212    0.526807    0.550897
  C      1.873302   -0.594738    0.367065
  C      1.962903   -1.935044    0.668549
  C      0.876337   -2.754267    0.388462
  C     -0.270919   -2.233669   -0.182628
  C     -0.371679   -0.878229   -0.490088
  C      0.716489   -0.060209   -0.201721
  O      0.780833    1.267905   -0.412922
  O     -1.489789   -0.368531   -1.127648
  C     -2.664689   -0.192392   -0.471031
  O     -3.650705    0.122340   -1.080532
  N     -2.626376   -0.396776    0.868327
  C     -3.791045   -0.216328    1.698169
  C      2.777956    2.192354   -1.371647
  H      1.451269    2.564428    1.804857
  H      2.935668    3.290735    1.165509
  H      1.367052    3.686168    0.445639
  H      3.794247    0.330621    0.041406
  H      3.065592    0.694770    1.608487
  H      2.860031   -2.340247    1.110337
  H      0.926624   -3.808233    0.612205
  H     -1.110194   -2.873321   -0.410270
  H     -1.746338   -0.598731    1.316757
  H     -4.010579   -1.131519    2.251362
  H     -4.625606    0.019191    1.040251
  H     -3.644867    0.604337    2.403586
  H      3.771197    2.582041   -1.164771
  H      2.180124    2.970034   -1.839426
  H      2.857414    1.356892   -2.063798

 Total Charge           Charge          ....    0
 Multiplicity           Mult            ....    1
 Number of Electrons    NEL             ....  118
 Basis Dimension        Dim             ....  254

ORBITAL ENERGIES
----------------

  NO   OCC          E(Eh)            E(eV)
   0   2.0000     -18.796882      -511.4892
   1   2.0000     -18.792276      -511.3638
   2   2.0000     -18.703943      -508.9602
   3   2.0000     -14.016600      -381.4111
   4   2.0000     -10.017775      -272.5975
   5   2.0000      -9.970897      -271.3219
   6   2.0000      -9.957313      -270.9523
   7   2.0000      -9.954959      -270.8882
   8   2.0000      -9.916057      -269.8296
   9   2.0000      -9.908557      -269.6255
  10   2.0000      -9.908463      -269.6230
  11   2.0000      -9.903119      -269.4776
  12   2.0000      -9.902416      -269.4584
  13   2.0000      -9.899049      -269.3668
  14   2.0000      -9.890200      -269.1260
  15   2.0000      -9.887906      -269.0636
  16   2.0000      -1.006769       -27.3956
  17   2.0000      -0.987102       -26.8604
  18   2.0000      -0.913047       -24.8453
  19   2.0000      -0.834156       -22.6985
  20   2.0000      -0.784809       -21.3557
  21   2.0000      -0.745540       -20.2872
  22   2.0000      -0.702502       -19.1160
  23   2.0000      -0.678034       -18.4502
  24   2.0000      -0.637964       -17.3599
  25   2.0000      -0.633828       -17.2473
  26   2.0000      -0.626522       -17.0485
  27   2.0000      -0.580246       -15.7893
  28   2.0000      -0.562291       -15.3007
  29   2.0000      -0.529535       -14.4094
  30   2.0000      -0.523897       -14.2559
  31   2.0000      -0.512125       -13.9356
  32   2.0000      -0.466040       -12.6816
  33   2.0000      -0.447096       -12.1661
  34   2.0000      -0.439711       -11.9651
  35   2.0000      -0.436076       -11.8662
  36   2.0000      -0.430161       -11.7053
  37   2.0000      -0.413468       -11.2510
  38   2.0000      -0.399997       -10.8845
  39   2.0000      -0.382064       -10.3965
  40   2.0000      -0.378539       -10.3006
  41   2.0000      -0.370835       -10.0909
  42   2.0000      -0.368282       -10.0215
  43   2.0000      -0.362681        -9.8690
  44   2.0000      -0.361126        -9.8267
  45   2.0000      -0.348930        -9.4949
  46   2.0000      -0.345341        -9.3972
  47   2.0000      -0.340218        -9.2578
  48   2.0000      -0.331081        -9.0092
  49   2.0000      -0.328591        -8.9414
  50   2.0000      -0.321289        -8.7427
  51   2.0000      -0.311174        -8.4675
  52   2.0000      -0.294262        -8.0073
  53   2.0000      -0.287110        -7.8127
  54   2.0000      -0.256020        -6.9667
  55   2.0000      -0.228336        -6.2133
  56   2.0000      -0.215883        -5.8745
  57   2.0000      -0.209693        -5.7060
  58   2.0000      -0.194183        -5.2840
  59   0.0000      -0.046599        -1.2680
  60   0.0000      -0.028570        -0.7774
  61   0.0000       0.021105         0.5743
  62   0.0000       0.032792         0.8923
  63   0.0000       0.041778         1.1368

MULLIKEN ATOMIC CHARGES
-----------------------
   0 C :   -0.200922
   1 C :   -0.093121
   2 C :   -0.004526
   3 C :   -0.047768
   4 C :   -0.149975
   5 C :   -0.046678
   6 C :   -0.132577
   7 C :    0.026862
   8 C :    0.205136
   9 O :   -0.235485
  10 O :   -0.202456
  11 C :    0.203200
  12 O :   -0.196601
  13 N :   -0.335757
  14 C :   -0.179966
  15 C :   -0.193912
  16 H :    0.102598
  17 H :    0.105872
  18 H :    0.113876
  19 H :    0.095158
  20 H :    0.092800
  21 H :    0.035465
  22 H :    0.053802
  23 H :    0.049871
  24 H :    0.246243
  25 H :    0.110606
  26 H :    0.139402
  27 H :    0.111601
  28 H :    0.103525
  29 H :    0.114470
  30 H :    0.109257
Sum of atomic charges:    0.0000000

LOEWDIN ATOMIC CHARGES
----------------------
   0 C :   -0.326599
   1 C :    0.015570
   2 C :   -0.199443
   3 C :   -0.067975
   4 C :   -0.126113
   5 C :   -0.140516
   6 C :   -0.138031
   7 C :   -0.016700
   8 C :    0.018634
   9 O :   -0.060995
  10 O :   -0.038194
  11 C :    0.029047
  12 O :   -0.182671
  13 N :   -0.195627
  14 C :   -0.258541
  15 C :   -0.326823
  16 H :    0.122346
  17 H :    0.126349
  18 H :    0.128316
  19 H :    0.133921
  20 H :    0.131533
  21 H :    0.125587
  22 H :    0.125927
  23 H :    0.135340
  24 H :    0.237105
  25 H :    0.115372
  26 H :    0.138311
  27 H :    0.115301
  28 H :    0.124743
  29 H :    0.128393
  30 H :    0.126430

  Mayer bond orders larger than 0.100000
B(  0-C ,  1-C ) :   1.1034 B(  0-C , 16-H ) :   0.9379 B(  0-C , 17-H ) :   0.9409
B(  0-C , 18-H ) :   0.9406 B(  1-C ,  2-C ) :   1.0552 B(  1-C ,  9-O ) :   0.9365
B(  1-C , 15-C ) :   1.0997 B(  2-C ,  3-C ) :   1.0653 B(  2-C , 19-H ) :   0.8804
B(  2-C , 20-H ) :   0.8785 B(  3-C ,  4-C ) :   1.3880 B(  3-C ,  6-C ) :   0.1028
B(  3-C ,  8-C ) :   1.3262 B(  4-C ,  5-C ) :   1.2985 B(  4-C , 21-H ) :   0.9852
B(  5-C ,  6-C ) :   1.3336 B(  5-C , 22-H ) :   0.9647 B(  6-C ,  7-C ) :   1.3738
B(  6-C , 23-H ) :   0.9728 B(  7-C ,  8-C ) :   1.3274 B(  7-C , 10-O ) :   1.0562
B(  8-C ,  9-O ) :   1.1739 B( 10-O , 11-C ) :   1.0549 B( 11-C , 12-O ) :   2.0963
B( 11-C , 13-N ) :   1.1826 B( 13-N , 14-C ) :   1.0295 B( 13-N , 24-H ) :   0.8393
B( 14-C , 25-H ) :   0.9582 B( 14-C , 26-H ) :   0.9345 B( 14-C , 27-H ) :   0.9591
B( 15-C , 28-H ) :   0.9396 B( 15-C , 29-H ) :   0.9393 B( 15-C , 30-H ) :   0.9371

Dispersion correction           -0.036320512
FINAL SINGLE POINT ENERGY      -745.170552107732

DIPOLE MOMENT
-------------

Method             : SCF
Type of density    : Electron Density
Multiplicity       :   1
Irrep              :   0
Energy             :  -745.2719999256150913 Eh
Relativity type    :
Basis              : AO
                                X                 Y                 Z
Electronic contribution:     -7.669277704      -7.002457545      -6.184864089
Nuclear contribution   :      9.369905148       6.905851380       7.773507025
                        -----------------------------------------
Total Dipole Moment    :      1.700627444      -0.096606165       1.588642936
                        -----------------------------------------
Magnitude (a.u.)       :      2.329217214
Magnitude (Debye)      :      5.920399657

Rotational constants in cm-1:             0.027076             0.012310             0.010147
Rotational constants in MHz :           811.710097           369.050940           304.185509

                             ****ORCA TERMINATED NORMALLY****
TOTAL RUN TIME: 0 days 0 hours 0 minutes 26 seconds 399 msec
