                         Program Version 6.0.1  -  RELEASE   -
|  1> ! pbe def2-sv(p) def2/J RI DEFGRID1 loosescf d4 GCP(DFT/SV(P)) printgap
|  2> %output
|  3>     printlevel normal
|  4> end
|  5> * xyz 0 1
|  6> C -2.1664220521 -1.2309410733 0.0303202614
|  7> C -1.1703184489 -0.356569171 0.8125409644
|  8> H -1.6571359514 -0.1047355662 1.7635713333
|  9> C -0.8669716467 0.9616223556 0.0579666727
| 10> H -1.0747421112 0.8279874504 -1.01068832
| 11> C 0.6170869984 1.2879861494 0.2435616603
| 12> H 0.8529802926 1.367234931 1.3125040385
| 13> C 1.4475854875 0.1434913609 -0.357600785
| 14> H 1.2454658231 0.0907094559 -1.4432604766
| 15> C 1.0410217582 -1.2075940484 0.2844025284
| 16> H 1.8868529325 -1.56813356 0.8800427803
| 17> O -0.0035037028 -1.0446393866 1.2205444398
| 18> O 0.7788211616 -2.1861984135 -0.6540331108
| 19> O 2.8151289468 0.360089192 -0.1385129763
| 20> O 0.9834573694 2.5262281739 -0.3142268206
| 21> O -1.7097738764 2.006912743 0.4637026539
| 22> O -1.7623412558 -1.3602749255 -1.3237462164
| 23> H -3.1493281654 -0.7480907269 0.0784392825
| 24> H -2.215184985 -2.2135981247 0.5131319117
| 25> H -0.0452045565 -1.9572740451 -1.1229518993
| 26> H 2.9827995229 1.3058110511 -0.2574868185
| 27> H 0.5765229665 2.6135562714 -1.1847158422
| 28> H -1.4275777954 2.324272783 1.3300710026
| 29> H -2.3803137038 -1.9429206845 -1.7775715761
| 30> *
| 31>
| 32>                          ****END OF INPUT****

CARTESIAN COORDINATES (ANGSTROEM)
---------------------------------
  C     -2.166422   -1.230941    0.030320
  C     -1.170318   -0.356569    0.812541
  H     -1.657136   -0.104736    1.763571
  C     -0.866972    0.961622    0.057967
  H     -1.074742    0.827987   -1.010688
  C      0.617087    1.287986    0.243562
  H      0.852980    1.367235    1.312504
  C      1.447585    0.143491   -0.357601
  H      1.245466    0.090709   -1.443260
  C      1.041022   -1.207594    0.284403
  H      1.886853   -1.568134    0.880043
  O     -0.003504   -1.044639    1.220544
  O      0.778821   -2.186198   -0.654033
  O      2.815129    0.360089   -0.138513
  O      0.983457    2.526228   -0.314227
  O     -1.709774    2.006913    0.463703
  O     -1.762341   -1.360275   -1.323746
  H     -3.149328   -0.748091    0.078439
  H     -2.215185   -2.213598    0.513132
  H     -0.045205   -1.957274   -1.122952
  H      2.982800    1.305811   -0.257487
  H      0.576523    2.613556   -1.184716
  H     -1.427578    2.324273    1.330071
  H     -2.380314   -1.942921   -1.777572

 Total Charge           Charge          ....    0
 Multiplicity           Mult            ....    1
 Number of Electrons    NEL             ....   96
 Basis Dimension        Dim             ....  192

ORBITAL ENERGIES
----------------

  NO   OCC          E(Eh)            E(eV)
   0   2.0000     -18.795091      -511.4404
   1   2.0000     -18.763173      -510.5719
   2   2.0000     -18.762967      -510.5663
   3   2.0000     -18.758900      -510.4556
   4   2.0000     -18.740975      -509.9679
   5   2.0000     -18.730963      -509.6954
   6   2.0000      -9.971306      -271.3330
   7   2.0000      -9.954955      -270.8881
   8   2.0000      -9.953183      -270.8399
   9   2.0000      -9.948754      -270.7194
  10   2.0000      -9.943429      -270.5744
  11   2.0000      -9.932365      -270.2734
  12   2.0000      -0.976820       -26.5806
  13   2.0000      -0.958764       -26.0893
  14   2.0000      -0.950342       -25.8601
  15   2.0000      -0.933168       -25.3928
  16   2.0000      -0.913761       -24.8647
  17   2.0000      -0.897109       -24.4116
  18   2.0000      -0.710431       -19.3318
  19   2.0000      -0.690573       -18.7915
  20   2.0000      -0.627877       -17.0854
  21   2.0000      -0.588409       -16.0114
  22   2.0000      -0.570937       -15.5360
  23   2.0000      -0.534073       -14.5329
  24   2.0000      -0.502295       -13.6681
  25   2.0000      -0.489267       -13.3136
  26   2.0000      -0.475117       -12.9286
  27   2.0000      -0.468546       -12.7498
  28   2.0000      -0.435193       -11.8422
  29   2.0000      -0.432744       -11.7756
  30   2.0000      -0.421076       -11.4581
  31   2.0000      -0.410210       -11.1624
  32   2.0000      -0.403484       -10.9793
  33   2.0000      -0.389517       -10.5993
  34   2.0000      -0.360619        -9.8129
  35   2.0000      -0.341941        -9.3047
  36   2.0000      -0.331244        -9.0136
  37   2.0000      -0.318487        -8.6665
  38   2.0000      -0.301653        -8.2084
  39   2.0000      -0.294432        -8.0119
  40   2.0000      -0.290542        -7.9060
  41   2.0000      -0.273259        -7.4357
  42   2.0000      -0.260684        -7.0936
  43   2.0000      -0.254168        -6.9163
  44   2.0000      -0.235093        -6.3972
  45   2.0000      -0.219706        -5.9785
  46   2.0000      -0.210069        -5.7163
  47   2.0000      -0.199956        -5.4411
  48   0.0000       0.001043         0.0284
  49   0.0000       0.021368         0.5814
  50   0.0000       0.025561         0.6956
  51   0.0000       0.049625         1.3504
  52   0.0000       0.061725         1.6796

MULLIKEN ATOMIC CHARGES
-----------------------
   0 C :    0.018431
   1 C :    0.057616
   2 H :    0.068727
   3 C :   -0.003994
   4 H :    0.070143
   5 C :    0.033324
   6 H :    0.058936
   7 C :    0.035882
   8 H :    0.037518
   9 C :    0.223786
  10 H :    0.075067
  11 O :   -0.305638
  12 O :   -0.413896
  13 O :   -0.409205
  14 O :   -0.411077
  15 O :   -0.405311
  16 O :   -0.440677
  17 H :    0.094316
  18 H :    0.100983
  19 H :    0.288422
  20 H :    0.299298
  21 H :    0.301768
  22 H :    0.301942
  23 H :    0.323639
Sum of atomic charges:   -0.0000000

LOEWDIN ATOMIC CHARGES
----------------------
   0 C :   -0.135800
   1 C :   -0.070512
   2 H :    0.122788
   3 C :   -0.087228
   4 H :    0.112188
   5 C :   -0.095223
   6 H :    0.114832
   7 C :   -0.089924
   8 H :    0.094521
   9 C :    0.003378
  10 H :    0.116980
  11 O :   -0.145005
  12 O :   -0.319035
  13 O :   -0.317469
  14 O :   -0.310697
  15 O :   -0.310411
  16 O :   -0.323820
  17 H :    0.114737
  18 H :    0.113160
  19 H :    0.259411
  20 H :    0.279470
  21 H :    0.287640
  22 H :    0.285842
  23 H :    0.300179

  Mayer bond orders larger than 0.100000
B(  0-C ,  1-C ) :   1.0712 B(  0-C , 16-O ) :   1.0096 B(  0-C , 17-H ) :   0.9112
B(  0-C , 18-H ) :   0.9098 B(  1-C ,  2-H ) :   0.8859 B(  1-C ,  3-C ) :   0.9569
B(  1-C , 11-O ) :   1.0474 B(  3-C ,  4-H ) :   0.8653 B(  3-C ,  5-C ) :   1.0197
B(  3-C , 15-O ) :   1.0575 B(  5-C ,  6-H ) :   0.8537 B(  5-C ,  7-C ) :   1.0131
B(  5-C , 14-O ) :   1.0483 B(  7-C ,  8-H ) :   0.8753 B(  7-C ,  9-C ) :   0.9664
B(  7-C , 13-O ) :   1.0920 B(  9-C , 10-H ) :   0.8875 B(  9-C , 11-O ) :   1.0281
B(  9-C , 12-O ) :   1.1402 B( 12-O , 19-H ) :   0.7857 B( 13-O , 20-H ) :   0.8317
B( 14-O , 21-H ) :   0.8477 B( 15-O , 22-H ) :   0.8485 B( 16-O , 19-H ) :   0.1367
B( 16-O , 23-H ) :   0.8374

Dispersion correction           -0.025077720
FINAL SINGLE POINT ENERGY      -685.692151103627

DIPOLE MOMENT
-------------

Method             : SCF
Type of density    : Electron Density
Multiplicity       :   1
Irrep              :   0
Energy             :  -685.8249248999436531 Eh
Relativity type    :
Basis              : AO
                                X                 Y                 Z
Electronic contribution:      2.579122322       0.294089139       0.505876386
Nuclear contribution   :     -4.116190965      -0.000384723      -0.873153844
                        -----------------------------------------
Total Dipole Moment    :     -1.537068642       0.293704416      -0.367277458
                        -----------------------------------------
Magnitude (a.u.)       :      1.607400083
Magnitude (Debye)      :      4.085686316

Rotational constants in cm-1:             0.037771             0.031129             0.020765
Rotational constants in MHz :          1132.358229           933.210505           622.509321

                             ****ORCA TERMINATED NORMALLY****
TOTAL RUN TIME: 0 days 0 hours 0 minutes 17 seconds 411 msec
