                         Program Version 6.0.1  -  RELEASE   -
|  1> ! pbe def2-sv(p) def2/J RI DEFGRID1 loosescf d4 GCP(DFT/SV(P)) printgap
|  2> %output
|  3>     printlevel normal
|  4> end
|  5> * xyz 0 1
|  6> C -1.8756412705 -0.9750897533 -0.7767378031
|  7> C -1.2989427769 -0.1437627242 0.3829387445
|  8> H -2.0865186359 0.0366650637 1.1200830308
|  9> C -0.7846847102 1.221286027 -0.1202939951
| 10> H -0.8968467986 1.289362426 -1.2159171175
| 11> C 0.7108065623 1.3542312813 0.1907650725
| 12> H 0.8495107055 1.4279723 1.2806831171
| 13> C 1.4343312165 0.0996979221 -0.305677708
| 14> H 1.2326538732 -0.0347028853 -1.3800440746
| 15> C 0.880011668 -1.1221742737 0.4606380103
| 16> H 1.5836146025 -1.3791954914 1.2727921533
| 17> O -0.3146976326 -0.8417718026 1.1218892511
| 18> O 0.7620821088 -2.2018696564 -0.4229874344
| 19> O 2.8136091845 0.2891529522 -0.095226632
| 20> O 1.1873828248 2.5154022337 -0.4413042554
| 21> O -1.5296827739 2.2391685921 0.4909425169
| 22> O -2.117987504 -2.2896067803 -0.3216666008
| 23> H -1.1641343153 -0.9931703882 -1.6145578992
| 24> H -2.8011079597 -0.4905065974 -1.1089288129
| 25> H -0.022360262 -2.7046507157 -0.1524409535
| 26> H 3.2780360143 -0.5102087917 -0.365609364
| 27> H 2.1515087658 2.4691770948 -0.4227420264
| 28> H -1.0750263701 3.0731948309 0.315879025
| 29> H -2.6279702146 -2.7621888108 -0.9873440632
| 30> *
| 31>
| 32>                          ****END OF INPUT****

CARTESIAN COORDINATES (ANGSTROEM)
---------------------------------
  C     -1.875641   -0.975090   -0.776738
  C     -1.298943   -0.143763    0.382939
  H     -2.086519    0.036665    1.120083
  C     -0.784685    1.221286   -0.120294
  H     -0.896847    1.289362   -1.215917
  C      0.710807    1.354231    0.190765
  H      0.849511    1.427972    1.280683
  C      1.434331    0.099698   -0.305678
  H      1.232654   -0.034703   -1.380044
  C      0.880012   -1.122174    0.460638
  H      1.583615   -1.379195    1.272792
  O     -0.314698   -0.841772    1.121889
  O      0.762082   -2.201870   -0.422987
  O      2.813609    0.289153   -0.095227
  O      1.187383    2.515402   -0.441304
  O     -1.529683    2.239169    0.490943
  O     -2.117988   -2.289607   -0.321667
  H     -1.164134   -0.993170   -1.614558
  H     -2.801108   -0.490507   -1.108929
  H     -0.022360   -2.704651   -0.152441
  H      3.278036   -0.510209   -0.365609
  H      2.151509    2.469177   -0.422742
  H     -1.075026    3.073195    0.315879
  H     -2.627970   -2.762189   -0.987344

 Total Charge           Charge          ....    0
 Multiplicity           Mult            ....    1
 Number of Electrons    NEL             ....   96
 Basis Dimension        Dim             ....  192

ORBITAL ENERGIES
----------------

  NO   OCC          E(Eh)            E(eV)
   0   2.0000     -18.768832      -510.7259
   1   2.0000     -18.768413      -510.7145
   2   2.0000     -18.764164      -510.5989
   3   2.0000     -18.752294      -510.2758
   4   2.0000     -18.747060      -510.1334
   5   2.0000     -18.746105      -510.1074
   6   2.0000      -9.980684      -271.5882
   7   2.0000      -9.946075      -270.6465
   8   2.0000      -9.942529      -270.5500
   9   2.0000      -9.942235      -270.5420
  10   2.0000      -9.940932      -270.5065
  11   2.0000      -9.939691      -270.4727
  12   2.0000      -0.983586       -26.7647
  13   2.0000      -0.949030       -25.8244
  14   2.0000      -0.939222       -25.5575
  15   2.0000      -0.934103       -25.4182
  16   2.0000      -0.915751       -24.9189
  17   2.0000      -0.903836       -24.5946
  18   2.0000      -0.708573       -19.2813
  19   2.0000      -0.692780       -18.8515
  20   2.0000      -0.622444       -16.9376
  21   2.0000      -0.581447       -15.8220
  22   2.0000      -0.569022       -15.4839
  23   2.0000      -0.521147       -14.1811
  24   2.0000      -0.504167       -13.7191
  25   2.0000      -0.482846       -13.1389
  26   2.0000      -0.476867       -12.9762
  27   2.0000      -0.454723       -12.3736
  28   2.0000      -0.443812       -12.0767
  29   2.0000      -0.434207       -11.8154
  30   2.0000      -0.424109       -11.5406
  31   2.0000      -0.396419       -10.7871
  32   2.0000      -0.390572       -10.6280
  33   2.0000      -0.381656       -10.3854
  34   2.0000      -0.360112        -9.7992
  35   2.0000      -0.345329        -9.3969
  36   2.0000      -0.335055        -9.1173
  37   2.0000      -0.319420        -8.6918
  38   2.0000      -0.309730        -8.4282
  39   2.0000      -0.305881        -8.3234
  40   2.0000      -0.283659        -7.7188
  41   2.0000      -0.269893        -7.3442
  42   2.0000      -0.244335        -6.6487
  43   2.0000      -0.239270        -6.5109
  44   2.0000      -0.228117        -6.2074
  45   2.0000      -0.224886        -6.1195
  46   2.0000      -0.217682        -5.9234
  47   2.0000      -0.209338        -5.6964
  48   0.0000       0.014087         0.3833
  49   0.0000       0.018803         0.5117
  50   0.0000       0.047984         1.3057
  51   0.0000       0.048846         1.3292
  52   0.0000       0.056664         1.5419

MULLIKEN ATOMIC CHARGES
-----------------------
   0 C :   -0.045970
   1 C :    0.084122
   2 H :    0.087569
   3 C :    0.064544
   4 H :    0.055108
   5 C :    0.049108
   6 H :    0.065920
   7 C :    0.002683
   8 H :    0.062551
   9 C :    0.198719
  10 H :    0.055807
  11 O :   -0.296878
  12 O :   -0.427003
  13 O :   -0.421852
  14 O :   -0.427792
  15 O :   -0.413526
  16 O :   -0.427969
  17 H :    0.091228
  18 H :    0.096833
  19 H :    0.305610
  20 H :    0.313436
  21 H :    0.311023
  22 H :    0.307764
  23 H :    0.308966
Sum of atomic charges:    0.0000000

LOEWDIN ATOMIC CHARGES
----------------------
   0 C :   -0.149924
   1 C :   -0.051713
   2 H :    0.129793
   3 C :   -0.062512
   4 H :    0.101094
   5 C :   -0.076300
   6 H :    0.110206
   7 C :   -0.091878
   8 H :    0.104811
   9 C :   -0.003291
  10 H :    0.096226
  11 O :   -0.124804
  12 O :   -0.335755
  13 O :   -0.321180
  14 O :   -0.325259
  15 O :   -0.317753
  16 O :   -0.330286
  17 H :    0.098349
  18 H :    0.111791
  19 H :    0.275401
  20 H :    0.294509
  21 H :    0.288519
  22 H :    0.287834
  23 H :    0.292120

  Mayer bond orders larger than 0.100000
B(  0-C ,  1-C ) :   1.0466 B(  0-C , 16-O ) :   1.0564 B(  0-C , 17-H ) :   0.9050
B(  0-C , 18-H ) :   0.9104 B(  1-C ,  2-H ) :   0.8838 B(  1-C ,  3-C ) :   0.9839
B(  1-C , 11-O ) :   1.0423 B(  3-C ,  4-H ) :   0.8810 B(  3-C ,  5-C ) :   1.0437
B(  3-C , 15-O ) :   1.0836 B(  5-C ,  6-H ) :   0.8631 B(  5-C ,  7-C ) :   1.0256
B(  5-C , 14-O ) :   1.0796 B(  7-C ,  8-H ) :   0.8751 B(  7-C ,  9-C ) :   0.9794
B(  7-C , 13-O ) :   1.0649 B(  9-C , 10-H ) :   0.8867 B(  9-C , 11-O ) :   1.0800
B(  9-C , 12-O ) :   1.1048 B( 12-O , 19-H ) :   0.8000 B( 13-O , 20-H ) :   0.8450
B( 14-O , 21-H ) :   0.8323 B( 15-O , 22-H ) :   0.8403 B( 16-O , 23-H ) :   0.8467

Dispersion correction           -0.024905321
FINAL SINGLE POINT ENERGY      -685.692846051332

DIPOLE MOMENT
-------------

Method             : SCF
Type of density    : Electron Density
Multiplicity       :   1
Irrep              :   0
Energy             :  -685.8248024433539740 Eh
Relativity type    :
Basis              : AO
                                X                 Y                 Z
Electronic contribution:      1.475756616       0.099690099       2.196051470
Nuclear contribution   :     -1.469171378      -0.546787872      -3.051782962
                        -----------------------------------------
Total Dipole Moment    :      0.006585238      -0.447097773      -0.855731492
                        -----------------------------------------
Magnitude (a.u.)       :      0.965513424
Magnitude (Debye)      :      2.454140089

Rotational constants in cm-1:             0.040715             0.028866             0.019080
Rotational constants in MHz :          1220.615301           865.381941           572.000346

                             ****ORCA TERMINATED NORMALLY****
TOTAL RUN TIME: 0 days 0 hours 0 minutes 10 seconds 590 msec
