                         Program Version 6.0.1  -  RELEASE   -
|  1> ! pbe def2-sv(p) def2/J RI DEFGRID1 loosescf d4 GCP(DFT/SV(P)) printgap
|  2> %output
|  3>     printlevel normal
|  4> end
|  5> * xyz 0 1
|  6> C 2.0749511878 -1.0207542342 -8.3578e-05
|  7> C 2.3288494414 0.3500055873 9.78666e-05
|  8> C 1.295825009 1.2596165122 9.97395e-05
|  9> C -0.0321882219 0.8214121129 -0.0001029491
| 10> C -0.2950366191 -0.5676881142 -5.72078e-05
| 11> C 0.7765537068 -1.4703284347 -5.81583e-05
| 12> C -1.6604521805 -1.0457223049 0.0001539739
| 13> O -2.6520707943 -0.3361545895 -1.79549e-05
| 14> O -1.0101582136 1.7258781073 -4.77627e-05
| 15> H 2.8954249866 -1.7212257772 -0.0001721079
| 16> H 3.3490486457 0.7035691477 3.17151e-05
| 17> H 1.4808284614 2.3221340093 0.0003594633
| 18> H 0.5606792268 -2.5291344819 -5.41094e-05
| 19> H -1.7650984711 -2.1453114829 0.0005407841
| 20> H -1.8755158662 1.2518736412 -0.0002546544
| 21> *
| 22>
| 23>                          ****END OF INPUT****

CARTESIAN COORDINATES (ANGSTROEM)
---------------------------------
  C      2.074951   -1.020754   -0.000084
  C      2.328849    0.350006    0.000098
  C      1.295825    1.259617    0.000100
  C     -0.032188    0.821412   -0.000103
  C     -0.295037   -0.567688   -0.000057
  C      0.776554   -1.470328   -0.000058
  C     -1.660452   -1.045722    0.000154
  O     -2.652071   -0.336155   -0.000018
  O     -1.010158    1.725878   -0.000048
  H      2.895425   -1.721226   -0.000172
  H      3.349049    0.703569    0.000032
  H      1.480828    2.322134    0.000359
  H      0.560679   -2.529134   -0.000054
  H     -1.765098   -2.145311    0.000541
  H     -1.875516    1.251874   -0.000255

 Total Charge           Charge          ....    0
 Multiplicity           Mult            ....    1
 Number of Electrons    NEL             ....   64
 Basis Dimension        Dim             ....  138

ORBITAL ENERGIES
----------------

  NO   OCC          E(Eh)            E(eV)
   0   2.0000     -18.786235      -511.1994
   1   2.0000     -18.766142      -510.6527
   2   2.0000      -9.982415      -271.6353
   3   2.0000      -9.973811      -271.4012
   4   2.0000      -9.916651      -269.8458
   5   2.0000      -9.916632      -269.8453
   6   2.0000      -9.911692      -269.7109
   7   2.0000      -9.904293      -269.5095
   8   2.0000      -9.902172      -269.4518
   9   2.0000      -0.982691       -26.7404
  10   2.0000      -0.952865       -25.9288
  11   2.0000      -0.790447       -21.5092
  12   2.0000      -0.705289       -19.1919
  13   2.0000      -0.680306       -18.5121
  14   2.0000      -0.598731       -16.2923
  15   2.0000      -0.562294       -15.3008
  16   2.0000      -0.550643       -14.9838
  17   2.0000      -0.480414       -13.0727
  18   2.0000      -0.473520       -12.8851
  19   2.0000      -0.431065       -11.7299
  20   2.0000      -0.419626       -11.4186
  21   2.0000      -0.398187       -10.8352
  22   2.0000      -0.396156       -10.7799
  23   2.0000      -0.390751       -10.6329
  24   2.0000      -0.354467        -9.6455
  25   2.0000      -0.350244        -9.5306
  26   2.0000      -0.341797        -9.3008
  27   2.0000      -0.314767        -8.5652
  28   2.0000      -0.310737        -8.4556
  29   2.0000      -0.250906        -6.8275
  30   2.0000      -0.225302        -6.1308
  31   2.0000      -0.212472        -5.7817
  32   0.0000      -0.100054        -2.7226
  33   0.0000      -0.039722        -1.0809
  34   0.0000      -0.004065        -0.1106
  35   0.0000       0.037074         1.0088
  36   0.0000       0.060579         1.6484

MULLIKEN ATOMIC CHARGES
-----------------------
   0 C :   -0.046001
   1 C :   -0.031949
   2 C :   -0.128352
   3 C :    0.151728
   4 C :    0.019426
   5 C :   -0.105970
   6 C :    0.043651
   7 O :   -0.211602
   8 O :   -0.293782
   9 H :    0.057162
  10 H :    0.067568
  11 H :    0.053629
  12 H :    0.052817
  13 H :    0.054268
  14 H :    0.317406
Sum of atomic charges:    0.0000000

LOEWDIN ATOMIC CHARGES
----------------------
   0 C :   -0.148368
   1 C :   -0.089707
   2 C :   -0.145375
   3 C :    0.057560
   4 C :   -0.138961
   5 C :   -0.089394
   6 C :    0.008842
   7 O :   -0.153641
   8 O :   -0.203169
   9 H :    0.127079
  10 H :    0.130615
  11 H :    0.135711
  12 H :    0.128054
  13 H :    0.092037
  14 H :    0.288717

  Mayer bond orders larger than 0.100000
B(  0-C ,  1-C ) :   1.3072 B(  0-C ,  5-C ) :   1.4153 B(  0-C ,  9-H ) :   0.9674
B(  1-C ,  2-C ) :   1.3961 B(  1-C , 10-H ) :   0.9646 B(  2-C ,  3-C ) :   1.3372
B(  2-C , 11-H ) :   0.9634 B(  3-C ,  4-C ) :   1.2026 B(  3-C ,  8-O ) :   1.3467
B(  4-C ,  5-C ) :   1.2855 B(  4-C ,  6-C ) :   1.0707 B(  5-C , 12-H ) :   0.9594
B(  6-C ,  7-O ) :   1.9640 B(  6-C , 13-H ) :   0.9224 B(  7-O , 14-H ) :   0.1607
B(  8-O , 14-H ) :   0.7490

Dispersion correction           -0.015947631
FINAL SINGLE POINT ENERGY      -419.939265617415

DIPOLE MOMENT
-------------

Method             : SCF
Type of density    : Electron Density
Multiplicity       :   1
Irrep              :   0
Energy             :  -419.9881125039081553 Eh
Relativity type    :
Basis              : AO
                                X                 Y                 Z
Electronic contribution:     -3.473972721       1.453368948      -0.000421757
Nuclear contribution   :      4.303922552      -1.966558117       0.000422228
                        -----------------------------------------
Total Dipole Moment    :      0.829949831      -0.513189169       0.000000471
                        -----------------------------------------
Magnitude (a.u.)       :      0.975797030
Magnitude (Debye)      :      2.480278940

Rotational constants in cm-1:             0.108640             0.050132             0.034303
Rotational constants in MHz :          3256.954349          1502.925777          1028.378981

                             ****ORCA TERMINATED NORMALLY****
TOTAL RUN TIME: 0 days 0 hours 0 minutes 15 seconds 660 msec
