                         Program Version 6.0.1  -  RELEASE   -
|  1> ! pbe def2-sv(p) def2/J RI DEFGRID1 loosescf d4 GCP(DFT/SV(P)) printgap
|  2> %output
|  3>     printlevel normal
|  4> end
|  5> * xyz 0 1
|  6> C -1.8104075192 -0.99878578 -0.7116616495
|  7> C -1.0491947879 -0.4266281096 0.5048776846
|  8> H -1.7258918072 -0.5070120147 1.3662169008
|  9> C -0.6804911159 1.0609257016 0.3435846774
| 10> H -1.4971021329 1.588089707 -0.1629148279
| 11> C 0.6031913478 1.249053624 -0.4940488043
| 12> H 0.8951968343 2.3090250582 -0.3988649227
| 13> C 1.7320416621 0.3633339964 0.0699570395
| 14> H 2.5932627751 0.3857615829 -0.6196617903
| 15> C 1.2440301621 -1.1012686039 0.1504590289
| 16> H 1.9741398622 -1.688274964 0.7193330709
| 17> O 0.0671547452 -1.2123084971 0.8958896424
| 18> O 1.1795730619 -1.6704057259 -1.1147943435
| 19> O 2.1159611234 0.7610023473 1.3621425141
| 20> O 0.3298577156 0.935883722 -1.8439925469
| 21> O -0.530985811 1.6839157725 1.5899902206
| 22> O -3.1932329194 -0.7673256556 -0.6157041938
| 23> H -1.6889469185 -2.0841775304 -0.7147469367
| 24> H -1.4224241816 -0.5841434996 -1.6504532561
| 25> H 0.6137643076 -1.1230339716 -1.6802536088
| 26> H 2.4371043644 1.6707901709 1.3395253681
| 27> H 1.0812765319 1.1935065393 -2.390864353
| 28> H 0.1341989303 1.1840562471 2.0887184908
| 29> H -3.3585963344 0.1819174517 -0.6074609962
| 30> *
| 31>
| 32>                          ****END OF INPUT****

CARTESIAN COORDINATES (ANGSTROEM)
---------------------------------
  C     -1.810408   -0.998786   -0.711662
  C     -1.049195   -0.426628    0.504878
  H     -1.725892   -0.507012    1.366217
  C     -0.680491    1.060926    0.343585
  H     -1.497102    1.588090   -0.162915
  C      0.603191    1.249054   -0.494049
  H      0.895197    2.309025   -0.398865
  C      1.732042    0.363334    0.069957
  H      2.593263    0.385762   -0.619662
  C      1.244030   -1.101269    0.150459
  H      1.974140   -1.688275    0.719333
  O      0.067155   -1.212308    0.895890
  O      1.179573   -1.670406   -1.114794
  O      2.115961    0.761002    1.362143
  O      0.329858    0.935884   -1.843993
  O     -0.530986    1.683916    1.589990
  O     -3.193233   -0.767326   -0.615704
  H     -1.688947   -2.084178   -0.714747
  H     -1.422424   -0.584143   -1.650453
  H      0.613764   -1.123034   -1.680254
  H      2.437104    1.670790    1.339525
  H      1.081277    1.193507   -2.390864
  H      0.134199    1.184056    2.088718
  H     -3.358596    0.181917   -0.607461

 Total Charge           Charge          ....    0
 Multiplicity           Mult            ....    1
 Number of Electrons    NEL             ....   96
 Basis Dimension        Dim             ....  192

ORBITAL ENERGIES
----------------

  NO   OCC          E(Eh)            E(eV)
   0   2.0000     -18.794230      -511.4170
   1   2.0000     -18.781901      -511.0815
   2   2.0000     -18.764555      -510.6095
   3   2.0000     -18.754731      -510.3422
   4   2.0000     -18.749438      -510.1982
   5   2.0000     -18.746509      -510.1184
   6   2.0000      -9.986062      -271.7346
   7   2.0000      -9.964788      -271.1557
   8   2.0000      -9.958345      -270.9803
   9   2.0000      -9.953644      -270.8524
  10   2.0000      -9.940575      -270.4968
  11   2.0000      -9.926552      -270.1152
  12   2.0000      -0.987299       -26.8658
  13   2.0000      -0.963539       -26.2192
  14   2.0000      -0.954223       -25.9657
  15   2.0000      -0.933119       -25.3915
  16   2.0000      -0.923771       -25.1371
  17   2.0000      -0.908242       -24.7145
  18   2.0000      -0.709540       -19.3076
  19   2.0000      -0.696606       -18.9556
  20   2.0000      -0.622970       -16.9519
  21   2.0000      -0.594456       -16.1760
  22   2.0000      -0.582604       -15.8535
  23   2.0000      -0.531758       -14.4699
  24   2.0000      -0.519479       -14.1357
  25   2.0000      -0.493307       -13.4236
  26   2.0000      -0.484269       -13.1776
  27   2.0000      -0.466842       -12.7034
  28   2.0000      -0.455900       -12.4057
  29   2.0000      -0.424700       -11.5567
  30   2.0000      -0.423028       -11.5112
  31   2.0000      -0.409131       -11.1330
  32   2.0000      -0.396048       -10.7770
  33   2.0000      -0.379684       -10.3317
  34   2.0000      -0.371105       -10.0983
  35   2.0000      -0.356990        -9.7142
  36   2.0000      -0.341662        -9.2971
  37   2.0000      -0.318551        -8.6682
  38   2.0000      -0.313465        -8.5298
  39   2.0000      -0.302304        -8.2261
  40   2.0000      -0.281035        -7.6473
  41   2.0000      -0.278292        -7.5727
  42   2.0000      -0.270762        -7.3678
  43   2.0000      -0.257758        -7.0139
  44   2.0000      -0.241385        -6.5684
  45   2.0000      -0.222652        -6.0587
  46   2.0000      -0.221356        -6.0234
  47   2.0000      -0.201738        -5.4896
  48   0.0000      -0.008134        -0.2213
  49   0.0000       0.002811         0.0765
  50   0.0000       0.020835         0.5670
  51   0.0000       0.054963         1.4956
  52   0.0000       0.068206         1.8560

MULLIKEN ATOMIC CHARGES
-----------------------
   0 C :    0.006317
   1 C :    0.001221
   2 H :    0.086110
   3 C :    0.084920
   4 H :    0.061091
   5 C :   -0.005864
   6 H :    0.069070
   7 C :   -0.016048
   8 H :    0.069228
   9 C :    0.225643
  10 H :    0.079499
  11 O :   -0.295901
  12 O :   -0.406749
  13 O :   -0.403669
  14 O :   -0.406126
  15 O :   -0.428490
  16 O :   -0.429432
  17 H :    0.101224
  18 H :    0.090617
  19 H :    0.298849
  20 H :    0.307407
  21 H :    0.312906
  22 H :    0.301252
  23 H :    0.296924
Sum of atomic charges:    0.0000000

LOEWDIN ATOMIC CHARGES
----------------------
   0 C :   -0.150887
   1 C :   -0.082241
   2 H :    0.123478
   3 C :   -0.065287
   4 H :    0.110476
   5 C :   -0.084469
   6 H :    0.100949
   7 C :   -0.101970
   8 H :    0.100959
   9 C :    0.001497
  10 H :    0.115737
  11 O :   -0.131986
  12 O :   -0.306986
  13 O :   -0.300523
  14 O :   -0.305128
  15 O :   -0.316512
  16 O :   -0.328605
  17 H :    0.121579
  18 H :    0.097796
  19 H :    0.265430
  20 H :    0.289244
  21 H :    0.294082
  22 H :    0.273322
  23 H :    0.280046

  Mayer bond orders larger than 0.100000
B(  0-C ,  1-C ) :   1.0250 B(  0-C , 16-O ) :   1.0553 B(  0-C , 17-H ) :   0.9086
B(  0-C , 18-H ) :   0.9011 B(  1-C ,  2-H ) :   0.8939 B(  1-C ,  3-C ) :   0.9948
B(  1-C , 11-O ) :   1.0016 B(  3-C ,  4-H ) :   0.8870 B(  3-C ,  5-C ) :   0.9748
B(  3-C , 15-O ) :   1.0566 B(  5-C ,  6-H ) :   0.9015 B(  5-C ,  7-C ) :   0.9716
B(  5-C , 14-O ) :   1.0264 B(  7-C ,  8-H ) :   0.8982 B(  7-C ,  9-C ) :   0.9813
B(  7-C , 13-O ) :   1.0447 B(  9-C , 10-H ) :   0.9037 B(  9-C , 11-O ) :   1.0631
B(  9-C , 12-O ) :   1.1274 B( 12-O , 19-H ) :   0.7994 B( 13-O , 20-H ) :   0.8372
B( 14-O , 21-H ) :   0.8354 B( 15-O , 22-H ) :   0.8162 B( 16-O , 23-H ) :   0.8517

Dispersion correction           -0.026019355
FINAL SINGLE POINT ENERGY      -685.690726703757

DIPOLE MOMENT
-------------

Method             : SCF
Type of density    : Electron Density
Multiplicity       :   1
Irrep              :   0
Energy             :  -685.8239571262569143 Eh
Relativity type    :
Basis              : AO
                                X                 Y                 Z
Electronic contribution:      1.031447663      -0.815274570       1.795000621
Nuclear contribution   :      0.033288248       2.366302660      -2.539727431
                        -----------------------------------------
Total Dipole Moment    :      1.064735911       1.551028090      -0.744726811
                        -----------------------------------------
Magnitude (a.u.)       :      2.023355806
Magnitude (Debye)      :      5.142961741

Rotational constants in cm-1:             0.041539             0.027988             0.024269
Rotational constants in MHz :          1245.303643           839.063919           727.564363

                             ****ORCA TERMINATED NORMALLY****
TOTAL RUN TIME: 0 days 0 hours 0 minutes 9 seconds 118 msec
