                         Program Version 6.0.1  -  RELEASE   -
|  1> ! pbe def2-sv(p) def2/J RI DEFGRID1 loosescf d4 GCP(DFT/SV(P)) printgap
|  2> %output
|  3>     printlevel normal
|  4> end
|  5> * xyz 0 1
|  6> C -1.0577782975 -0.7661718103 -0.0583745664
|  7> C -1.0533551171 0.7722351759 -0.0567348341
|  8> C 0.4274374508 1.1233807521 0.1726692704
|  9> O 1.1641215535 -0.0035788486 -0.2418843499
| 10> C 0.4203784536 -1.1256249866 0.1738959177
| 11> H -1.3967179213 -1.151274412 -1.0186965023
| 12> H -1.6919627467 -1.1805816187 0.7225744651
| 13> H -1.3929200585 1.1613255664 -1.01517104
| 14> H -1.6830176433 1.1883056333 0.7269929352
| 15> H 0.7697213121 1.9785286361 -0.4100569567
| 16> H 0.6109214052 1.3193251985 1.2403563801
| 17> H 0.7583569183 -1.9838433459 -0.4067856034
| 18> H 0.6011324082 -1.3204870674 1.2422319055
| 19> *
| 20>
| 21>                          ****END OF INPUT****

CARTESIAN COORDINATES (ANGSTROEM)
---------------------------------
  C     -1.057778   -0.766172   -0.058375
  C     -1.053355    0.772235   -0.056735
  C      0.427437    1.123381    0.172669
  O      1.164122   -0.003579   -0.241884
  C      0.420378   -1.125625    0.173896
  H     -1.396718   -1.151274   -1.018697
  H     -1.691963   -1.180582    0.722574
  H     -1.392920    1.161326   -1.015171
  H     -1.683018    1.188306    0.726993
  H      0.769721    1.978529   -0.410057
  H      0.610921    1.319325    1.240356
  H      0.758357   -1.983843   -0.406786
  H      0.601132   -1.320487    1.242232

 Total Charge           Charge          ....    0
 Multiplicity           Mult            ....    1
 Number of Electrons    NEL             ....   40
 Basis Dimension        Dim             ....   86

ORBITAL ENERGIES
----------------

  NO   OCC          E(Eh)            E(eV)
   0   2.0000     -18.747853      -510.1550
   1   2.0000      -9.925359      -270.0827
   2   2.0000      -9.925342      -270.0823
   3   2.0000      -9.887662      -269.0570
   4   2.0000      -9.887569      -269.0544
   5   2.0000      -0.942297       -25.6412
   6   2.0000      -0.700230       -19.0542
   7   2.0000      -0.660249       -17.9663
   8   2.0000      -0.528503       -14.3813
   9   2.0000      -0.528448       -14.3798
  10   2.0000      -0.450435       -12.2570
  11   2.0000      -0.434897       -11.8341
  12   2.0000      -0.404444       -11.0055
  13   2.0000      -0.368022       -10.0144
  14   2.0000      -0.354490        -9.6462
  15   2.0000      -0.315269        -8.5789
  16   2.0000      -0.304906        -8.2969
  17   2.0000      -0.284315        -7.7366
  18   2.0000      -0.268700        -7.3117
  19   2.0000      -0.202057        -5.4982
  20   0.0000       0.030544         0.8311
  21   0.0000       0.052320         1.4237
  22   0.0000       0.079344         2.1591
  23   0.0000       0.087535         2.3820
  24   0.0000       0.106962         2.9106

MULLIKEN ATOMIC CHARGES
-----------------------
   0 C :   -0.193224
   1 C :   -0.193471
   2 C :    0.026281
   3 O :   -0.339298
   4 C :    0.026010
   5 H :    0.093467
   6 H :    0.088318
   7 H :    0.093468
   8 H :    0.088297
   9 H :    0.092911
  10 H :    0.062121
  11 H :    0.092960
  12 H :    0.062160
Sum of atomic charges:   -0.0000000

LOEWDIN ATOMIC CHARGES
----------------------
   0 C :   -0.248656
   1 C :   -0.248711
   2 C :   -0.114335
   3 O :   -0.172045
   4 C :   -0.114292
   5 H :    0.122687
   6 H :    0.121566
   7 H :    0.122712
   8 H :    0.121550
   9 H :    0.111769
  10 H :    0.092979
  11 H :    0.111793
  12 H :    0.092984

  Mayer bond orders larger than 0.100000
B(  0-C ,  1-C ) :   1.1767 B(  0-C ,  4-C ) :   1.1525 B(  0-C ,  5-H ) :   0.9196
B(  0-C ,  6-H ) :   0.9183 B(  1-C ,  2-C ) :   1.1523 B(  1-C ,  7-H ) :   0.9197
B(  1-C ,  8-H ) :   0.9183 B(  2-C ,  3-O ) :   1.0356 B(  2-C ,  9-H ) :   0.9359
B(  2-C , 10-H ) :   0.9094 B(  3-O ,  4-C ) :   1.0352 B(  4-C , 11-H ) :   0.9359
B(  4-C , 12-H ) :   0.9093

Dispersion correction           -0.008770941
FINAL SINGLE POINT ENERGY      -231.907407906011

DIPOLE MOMENT
-------------

Method             : SCF
Type of density    : Electron Density
Multiplicity       :   1
Irrep              :   0
Energy             :  -231.9586949837341763 Eh
Relativity type    :
Basis              : AO
                                X                 Y                 Z
Electronic contribution:      2.656431710      -0.009024835      -0.842688991
Nuclear contribution   :     -3.195471490       0.010546875       1.010988073
                        -----------------------------------------
Total Dipole Moment    :     -0.539039781       0.001522040       0.168299082
                        -----------------------------------------
Magnitude (a.u.)       :      0.564704155
Magnitude (Debye)      :      1.435363892

Rotational constants in cm-1:             0.241299             0.231981             0.133915
Rotational constants in MHz :          7233.962551          6954.607964          4014.661366

                             ****ORCA TERMINATED NORMALLY****
TOTAL RUN TIME: 0 days 0 hours 0 minutes 7 seconds 143 msec
