                         Program Version 6.0.1  -  RELEASE   -
|  1> ! pbe def2-sv(p) def2/J RI DEFGRID1 loosescf d4 GCP(DFT/SV(P)) printgap
|  2> %output
|  3>     printlevel normal
|  4> end
|  5> * xyz 0 1
|  6> C -2.154369978 -1.1992533647 -0.1241022043
|  7> C -1.2379451357 -0.3440541271 0.7724017331
|  8> H -1.7763946838 -0.1277723524 1.7006605787
|  9> C -0.9017006928 1.0012772683 0.1062205126
| 10> H -1.1288208667 0.9463726769 -0.970724596
| 11> C 0.5955345534 1.2970204744 0.2533722703
| 12> H 0.8403846382 1.3872606791 1.3267133691
| 13> C 1.3810860802 0.1318208811 -0.3508593033
| 14> H 1.1189189635 0.0457410976 -1.41222344
| 15> C 1.0050021029 -1.1790485728 0.3835572498
| 16> H 1.8342185508 -1.4631770383 1.0547173043
| 17> O -0.0803582326 -1.0455985396 1.2289886158
| 18> O 0.7864029499 -2.2306407686 -0.5382743596
| 19> O 2.7677723129 0.3792295985 -0.3319356903
| 20> O 0.8864118928 2.5059077387 -0.4057694689
| 21> O -1.6778057289 1.9991355659 0.7147951017
| 22> O -1.6794457719 -1.3565926478 -1.4313385653
| 23> H -3.1158276256 -0.6877725737 -0.2044637183
| 24> H -2.3004162036 -2.1717930201 0.3633652867
| 25> H 1.6012929926 -2.4030350005 -1.0222782009
| 26> H 3.0574932189 0.5012471301 0.5812284538
| 27> H 1.8077580891 2.4745402021 -0.6950146312
| 28> H -1.3701800517 2.8487592107 0.3738991827
| 29> H -0.8500857246 -1.8591917161 -1.3761036661
| 30> *
| 31>
| 32>                          ****END OF INPUT****

CARTESIAN COORDINATES (ANGSTROEM)
---------------------------------
  C     -2.154370   -1.199253   -0.124102
  C     -1.237945   -0.344054    0.772402
  H     -1.776395   -0.127772    1.700661
  C     -0.901701    1.001277    0.106221
  H     -1.128821    0.946373   -0.970725
  C      0.595535    1.297020    0.253372
  H      0.840385    1.387261    1.326713
  C      1.381086    0.131821   -0.350859
  H      1.118919    0.045741   -1.412223
  C      1.005002   -1.179049    0.383557
  H      1.834219   -1.463177    1.054717
  O     -0.080358   -1.045599    1.228989
  O      0.786403   -2.230641   -0.538274
  O      2.767772    0.379230   -0.331936
  O      0.886412    2.505908   -0.405769
  O     -1.677806    1.999136    0.714795
  O     -1.679446   -1.356593   -1.431339
  H     -3.115828   -0.687773   -0.204464
  H     -2.300416   -2.171793    0.363365
  H      1.601293   -2.403035   -1.022278
  H      3.057493    0.501247    0.581228
  H      1.807758    2.474540   -0.695015
  H     -1.370180    2.848759    0.373899
  H     -0.850086   -1.859192   -1.376104

 Total Charge           Charge          ....    0
 Multiplicity           Mult            ....    1
 Number of Electrons    NEL             ....   96
 Basis Dimension        Dim             ....  192

ORBITAL ENERGIES
----------------

  NO   OCC          E(Eh)            E(eV)
   0   2.0000     -18.785093      -511.1684
   1   2.0000     -18.781619      -511.0738
   2   2.0000     -18.779979      -511.0292
   3   2.0000     -18.758944      -510.4568
   4   2.0000     -18.745433      -510.0892
   5   2.0000     -18.733079      -509.7530
   6   2.0000     -10.005327      -272.2588
   7   2.0000      -9.955841      -270.9122
   8   2.0000      -9.946157      -270.6487
   9   2.0000      -9.941739      -270.5285
  10   2.0000      -9.937910      -270.4243
  11   2.0000      -9.923262      -270.0257
  12   2.0000      -0.995736       -27.0953
  13   2.0000      -0.962254       -26.1843
  14   2.0000      -0.941617       -25.6227
  15   2.0000      -0.931421       -25.3453
  16   2.0000      -0.917736       -24.9729
  17   2.0000      -0.911348       -24.7990
  18   2.0000      -0.707895       -19.2628
  19   2.0000      -0.699503       -19.0344
  20   2.0000      -0.619565       -16.8592
  21   2.0000      -0.596601       -16.2343
  22   2.0000      -0.568831       -15.4787
  23   2.0000      -0.523425       -14.2431
  24   2.0000      -0.519477       -14.1357
  25   2.0000      -0.499257       -13.5855
  26   2.0000      -0.484642       -13.1878
  27   2.0000      -0.458681       -12.4813
  28   2.0000      -0.446605       -12.1527
  29   2.0000      -0.433566       -11.7979
  30   2.0000      -0.429375       -11.6839
  31   2.0000      -0.413324       -11.2471
  32   2.0000      -0.387939       -10.5563
  33   2.0000      -0.377487       -10.2719
  34   2.0000      -0.355661        -9.6780
  35   2.0000      -0.344718        -9.3802
  36   2.0000      -0.333909        -9.0861
  37   2.0000      -0.326376        -8.8811
  38   2.0000      -0.310424        -8.4471
  39   2.0000      -0.309273        -8.4157
  40   2.0000      -0.299378        -8.1465
  41   2.0000      -0.270160        -7.3514
  42   2.0000      -0.260333        -7.0840
  43   2.0000      -0.250619        -6.8197
  44   2.0000      -0.246815        -6.7162
  45   2.0000      -0.221608        -6.0302
  46   2.0000      -0.214233        -5.8296
  47   2.0000      -0.202138        -5.5005
  48   0.0000       0.005125         0.1395
  49   0.0000       0.015164         0.4126
  50   0.0000       0.031455         0.8559
  51   0.0000       0.051012         1.3881
  52   0.0000       0.057442         1.5631

MULLIKEN ATOMIC CHARGES
-----------------------
   0 C :    0.039684
   1 C :    0.038387
   2 H :    0.082653
   3 C :    0.051287
   4 H :    0.073827
   5 C :    0.039477
   6 H :    0.046936
   7 C :   -0.027635
   8 H :    0.072792
   9 C :    0.234982
  10 H :    0.055017
  11 O :   -0.292610
  12 O :   -0.419849
  13 O :   -0.416365
  14 O :   -0.420383
  15 O :   -0.414887
  16 O :   -0.445713
  17 H :    0.094246
  18 H :    0.082197
  19 H :    0.316002
  20 H :    0.304411
  21 H :    0.302083
  22 H :    0.308191
  23 H :    0.295269
Sum of atomic charges:    0.0000000

LOEWDIN ATOMIC CHARGES
----------------------
   0 C :   -0.131615
   1 C :   -0.063823
   2 H :    0.128624
   3 C :   -0.070544
   4 H :    0.109363
   5 C :   -0.087751
   6 H :    0.099249
   7 C :   -0.107313
   8 H :    0.120507
   9 C :    0.002141
  10 H :    0.099711
  11 O :   -0.119257
  12 O :   -0.317981
  13 O :   -0.311456
  14 O :   -0.326238
  15 O :   -0.317903
  16 O :   -0.346886
  17 H :    0.120909
  18 H :    0.103316
  19 H :    0.297857
  20 H :    0.286207
  21 H :    0.282310
  22 H :    0.287761
  23 H :    0.262810

  Mayer bond orders larger than 0.100000
B(  0-C ,  1-C ) :   1.0444 B(  0-C , 16-O ) :   1.0984 B(  0-C , 17-H ) :   0.9183
B(  0-C , 18-H ) :   0.9106 B(  1-C ,  2-H ) :   0.8751 B(  1-C ,  3-C ) :   0.9907
B(  1-C , 11-O ) :   0.9816 B(  3-C ,  4-H ) :   0.8737 B(  3-C ,  5-C ) :   1.0217
B(  3-C , 15-O ) :   1.0751 B(  5-C ,  6-H ) :   0.8638 B(  5-C ,  7-C ) :   1.0285
B(  5-C , 14-O ) :   1.0921 B(  7-C ,  8-H ) :   0.8620 B(  7-C ,  9-C ) :   0.9719
B(  7-C , 13-O ) :   1.0082 B(  9-C , 10-H ) :   0.8957 B(  9-C , 11-O ) :   1.1360
B(  9-C , 12-O ) :   0.9778 B( 12-O , 19-H ) :   0.8333 B( 12-O , 23-H ) :   0.1201
B( 13-O , 20-H ) :   0.8455 B( 14-O , 21-H ) :   0.8275 B( 15-O , 22-H ) :   0.8396
B( 16-O , 23-H ) :   0.7952

Dispersion correction           -0.025100955
FINAL SINGLE POINT ENERGY      -685.695093537208

DIPOLE MOMENT
-------------

Method             : SCF
Type of density    : Electron Density
Multiplicity       :   1
Irrep              :   0
Energy             :  -685.8279120942179361 Eh
Relativity type    :
Basis              : AO
                                X                 Y                 Z
Electronic contribution:      1.755087724       0.381312421       0.483612764
Nuclear contribution   :     -0.249385178      -0.473635411      -0.274209229
                        -----------------------------------------
Total Dipole Moment    :      1.505702546      -0.092322990       0.209403536
                        -----------------------------------------
Magnitude (a.u.)       :      1.522994922
Magnitude (Debye)      :      3.871145447

Rotational constants in cm-1:             0.036584             0.031990             0.021004
Rotational constants in MHz :          1096.746182           959.024236           629.689808

                             ****ORCA TERMINATED NORMALLY****
TOTAL RUN TIME: 0 days 0 hours 0 minutes 8 seconds 11 msec
