                         Program Version 6.0.1  -  RELEASE   -
|  1> ! pbe def2-sv(p) def2/J RI DEFGRID1 loosescf d4 GCP(DFT/SV(P)) printgap
|  2> %output
|  3>     printlevel normal
|  4> end
|  5> * xyz 0 1
|  6> C -1.7966054407 -1.503437238 -0.0004654874
|  7> C -0.5324411913 -0.6919243535 0.0008176389
|  8> C 0.6814331211 -1.3701534233 0.0002586617
|  9> C 1.8860206367 -0.6936972855 -0.0002899637
| 10> C 1.8889864699 0.6898976698 -0.0001033245
| 11> C 0.6879948391 1.3740290433 0.0001171139
| 12> C -0.5300708636 0.7042091971 0.0003467156
| 13> C -1.8050588181 1.4972934388 -0.0001650069
| 14> H -2.685487383 -0.8828927564 0.027855593
| 15> H -1.8383756877 -2.1241661973 -0.8953223883
| 16> H -1.8123593068 -2.1680056475 0.8628865668
| 17> H 0.6740489544 -2.4514510358 0.0005380976
| 18> H 2.816419185 -1.2424246255 -0.0007435256
| 19> H 2.8219151159 1.2343080661 -0.0004639076
| 20> H 0.6931015042 2.4552794979 -0.0003081033
| 21> H -1.5876879503 2.5626691313 -0.0034298436
| 22> H -2.4035990251 1.2686041906 -0.8813938157
| 23> H -2.4011502085 1.2739916965 0.8842280856
| 24> *
| 25>
| 26>                          ****END OF INPUT****

CARTESIAN COORDINATES (ANGSTROEM)
---------------------------------
  C     -1.796605   -1.503437   -0.000465
  C     -0.532441   -0.691924    0.000818
  C      0.681433   -1.370153    0.000259
  C      1.886021   -0.693697   -0.000290
  C      1.888986    0.689898   -0.000103
  C      0.687995    1.374029    0.000117
  C     -0.530071    0.704209    0.000347
  C     -1.805059    1.497293   -0.000165
  H     -2.685487   -0.882893    0.027856
  H     -1.838376   -2.124166   -0.895322
  H     -1.812359   -2.168006    0.862887
  H      0.674049   -2.451451    0.000538
  H      2.816419   -1.242425   -0.000744
  H      2.821915    1.234308   -0.000464
  H      0.693102    2.455279   -0.000308
  H     -1.587688    2.562669   -0.003430
  H     -2.403599    1.268604   -0.881394
  H     -2.401150    1.273992    0.884228

 Total Charge           Charge          ....    0
 Multiplicity           Mult            ....    1
 Number of Electrons    NEL             ....   58
 Basis Dimension        Dim             ....  132

ORBITAL ENERGIES
----------------

  NO   OCC          E(Eh)            E(eV)
   0   2.0000      -9.896947      -269.3096
   1   2.0000      -9.896564      -269.2992
   2   2.0000      -9.882432      -268.9146
   3   2.0000      -9.882237      -268.9093
   4   2.0000      -9.881867      -268.8993
   5   2.0000      -9.881842      -268.8986
   6   2.0000      -9.881600      -268.8920
   7   2.0000      -9.881304      -268.8840
   8   2.0000      -0.775329       -21.0978
   9   2.0000      -0.696446       -18.9513
  10   2.0000      -0.684086       -18.6149
  11   2.0000      -0.621176       -16.9031
  12   2.0000      -0.599495       -16.3131
  13   2.0000      -0.531146       -14.4532
  14   2.0000      -0.506957       -13.7950
  15   2.0000      -0.447045       -12.1647
  16   2.0000      -0.421580       -11.4718
  17   2.0000      -0.389901       -10.6097
  18   2.0000      -0.387151       -10.5349
  19   2.0000      -0.362088        -9.8529
  20   2.0000      -0.361734        -9.8433
  21   2.0000      -0.355325        -9.6689
  22   2.0000      -0.340684        -9.2705
  23   2.0000      -0.338003        -9.1975
  24   2.0000      -0.308837        -8.4039
  25   2.0000      -0.290163        -7.8957
  26   2.0000      -0.287604        -7.8261
  27   2.0000      -0.217380        -5.9152
  28   2.0000      -0.209953        -5.7131
  29   0.0000      -0.029355        -0.7988
  30   0.0000      -0.023969        -0.6522
  31   0.0000       0.044718         1.2168
  32   0.0000       0.055148         1.5007
  33   0.0000       0.069337         1.8867

MULLIKEN ATOMIC CHARGES
-----------------------
   0 C :   -0.231195
   1 C :   -0.011313
   2 C :   -0.122067
   3 C :   -0.042596
   4 C :   -0.042758
   5 C :   -0.132298
   6 C :   -0.002041
   7 C :   -0.236312
   8 H :    0.099274
   9 H :    0.114877
  10 H :    0.114126
  11 H :    0.031603
  12 H :    0.047363
  13 H :    0.046058
  14 H :    0.032320
  15 H :    0.099498
  16 H :    0.117414
  17 H :    0.118047
Sum of atomic charges:   -0.0000000

LOEWDIN ATOMIC CHARGES
----------------------
   0 C :   -0.326232
   1 C :   -0.047767
   2 C :   -0.121865
   3 C :   -0.128293
   4 C :   -0.129355
   5 C :   -0.125387
   6 C :   -0.050177
   7 C :   -0.324849
   8 H :    0.122693
   9 H :    0.133130
  10 H :    0.132660
  11 H :    0.118904
  12 H :    0.121247
  13 H :    0.121344
  14 H :    0.119011
  15 H :    0.124193
  16 H :    0.130326
  17 H :    0.130416

  Mayer bond orders larger than 0.100000
B(  0-C ,  1-C ) :   1.1216 B(  0-C ,  8-H ) :   0.9302 B(  0-C ,  9-H ) :   0.9352
B(  0-C , 10-H ) :   0.9358 B(  1-C ,  2-C ) :   1.3838 B(  1-C ,  6-C ) :   1.4232
B(  2-C ,  3-C ) :   1.3767 B(  2-C , 11-H ) :   0.9661 B(  3-C ,  4-C ) :   1.3638
B(  3-C , 12-H ) :   0.9656 B(  4-C ,  5-C ) :   1.3748 B(  4-C , 13-H ) :   0.9640
B(  5-C ,  6-C ) :   1.3923 B(  5-C , 14-H ) :   0.9557 B(  6-C ,  7-C ) :   1.1192
B(  7-C , 15-H ) :   0.9377 B(  7-C , 16-H ) :   0.9276 B(  7-C , 17-H ) :   0.9273

Dispersion correction           -0.017844269
FINAL SINGLE POINT ENERGY      -310.157679420619

DIPOLE MOMENT
-------------

Method             : SCF
Type of density    : Electron Density
Multiplicity       :   1
Irrep              :   0
Energy             :  -310.2072560320249863 Eh
Relativity type    :
Basis              : AO
                                X                 Y                 Z
Electronic contribution:      5.122500098       0.030487495       0.003924469
Nuclear contribution   :     -5.369297052      -0.069506659      -0.005772771
                        -----------------------------------------
Total Dipole Moment    :     -0.246796954      -0.039019165      -0.001848302
                        -----------------------------------------
Magnitude (a.u.)       :      0.249869262
Magnitude (Debye)      :      0.635117189

Rotational constants in cm-1:             0.104829             0.073362             0.043862
Rotational constants in MHz :          3142.702168          2199.337135          1314.939784

                             ****ORCA TERMINATED NORMALLY****
TOTAL RUN TIME: 0 days 0 hours 0 minutes 13 seconds 415 msec
