                         Program Version 6.0.0  -   RELEASE  -
|  1> ! r2SCAN-3c DEF2-TZVP FREQ
|  2> * xyzfile 0 1 censo.xyz
|  3>
|  4>                          ****END OF INPUT****

CARTESIAN COORDINATES (ANGSTROEM)
---------------------------------
  C     -2.492011   -0.029103   -0.322069
  C     -1.235803   -0.710111    0.196609
  C      0.025441    0.014506   -0.176650
  O      0.084820    1.082889   -0.761483
  O      1.121072   -0.663276    0.225621
  C      2.396057   -0.038772   -0.071733
  H     -2.596697    0.977603    0.091664
  H     -2.475509    0.050212   -1.412742
  H     -3.373736   -0.608260   -0.035917
  H     -1.151205   -1.737077   -0.176745
  H     -1.248900   -0.790551    1.290701
  H      2.471050    0.926650    0.434317
  H      2.510992    0.091876   -1.150306
  H      3.149967   -0.726519    0.309317

 Total Charge           Charge          ....    0
 Multiplicity           Mult            ....    1
 Number of Electrons    NEL             ....   48
 Basis Dimension        Dim             ....  234

ORBITAL ENERGIES
----------------

  NO   OCC          E(Eh)            E(eV)
   0   2.0000     -18.999264      -516.9963
   1   2.0000     -18.933950      -515.2190
   2   2.0000     -10.154372      -276.3145
   3   2.0000     -10.087455      -274.4936
   4   2.0000     -10.048905      -273.4446
   5   2.0000     -10.026382      -272.8317
   6   2.0000      -1.062866       -28.9221
   7   2.0000      -0.972799       -26.4712
   8   2.0000      -0.758251       -20.6331
   9   2.0000      -0.692672       -18.8486
  10   2.0000      -0.611879       -16.6501
  11   2.0000      -0.525245       -14.2926
  12   2.0000      -0.470086       -12.7917
  13   2.0000      -0.459150       -12.4941
  14   2.0000      -0.438559       -11.9338
  15   2.0000      -0.420366       -11.4388
  16   2.0000      -0.396311       -10.7842
  17   2.0000      -0.358101        -9.7444
  18   2.0000      -0.351304        -9.5595
  19   2.0000      -0.342680        -9.3248
  20   2.0000      -0.321907        -8.7595
  21   2.0000      -0.319330        -8.6894
  22   2.0000      -0.276041        -7.5115
  23   2.0000      -0.240180        -6.5356
  24   0.0000      -0.019560        -0.5322
  25   0.0000       0.042283         1.1506
  26   0.0000       0.069075         1.8796
  27   0.0000       0.076008         2.0683
  28   0.0000       0.102264         2.7827

MULLIKEN ATOMIC CHARGES
-----------------------
   0 C :   -0.296564
   1 C :   -0.146075
   2 C :    0.310742
   3 O :   -0.367468
   4 O :   -0.260739
   5 C :   -0.152237
   6 H :    0.111444
   7 H :    0.110242
   8 H :    0.106263
   9 H :    0.110485
  10 H :    0.109896
  11 H :    0.121694
  12 H :    0.122625
  13 H :    0.119691
Sum of atomic charges:   -0.0000000

LOEWDIN ATOMIC CHARGES
----------------------
   0 C :   -0.296164
   1 C :   -0.257224
   2 C :   -0.478571
   3 O :    0.091792
   4 O :    0.224658
   5 C :   -0.292900
   6 H :    0.124946
   7 H :    0.124750
   8 H :    0.119075
   9 H :    0.151737
  10 H :    0.153526
  11 H :    0.111817
  12 H :    0.112075
  13 H :    0.110482

  Mayer bond orders larger than 0.100000
B(  0-C ,  1-C ) :   0.9938 B(  0-C ,  6-H ) :   0.9698 B(  0-C ,  7-H ) :   0.9715
B(  0-C ,  8-H ) :   0.9713 B(  1-C ,  2-C ) :   1.0032 B(  1-C ,  9-H ) :   0.9463
B(  1-C , 10-H ) :   0.9399 B(  2-C ,  3-O ) :   1.9606 B(  2-C ,  4-O ) :   1.1734
B(  4-O ,  5-C ) :   0.8884 B(  5-C , 11-H ) :   0.9731 B(  5-C , 12-H ) :   0.9725
B(  5-C , 13-H ) :   0.9694

Dispersion correction           -0.002935738
FINAL SINGLE POINT ENERGY      -307.654272455458

DIPOLE MOMENT
-------------

Method             : SCF
Type of density    : Electron Density
Multiplicity       :   1
Irrep              :   0
Energy             :  -307.6605076846454949 Eh
Relativity type    :
Basis              : AO
                                X                 Y                 Z
Electronic contribution:      2.788067438       0.723006855      -0.206632832
Nuclear contribution   :     -2.602573872      -1.330921397       0.555755292
                        -----------------------------------------
Total Dipole Moment    :      0.185493567      -0.607914542       0.349122460
                        -----------------------------------------
Magnitude (a.u.)       :      0.725158222
Magnitude (Debye)      :      1.843205717

VIBRATIONAL FREQUENCIES
-----------------------

Scaling factor for frequencies =  1.000000000  (already applied!)

     0:       0.00 cm**-1
     1:       0.00 cm**-1
     2:       0.00 cm**-1
     3:       0.00 cm**-1
     4:       0.00 cm**-1
     5:       0.00 cm**-1
     6:      59.00 cm**-1
     7:     140.60 cm**-1
     8:     175.85 cm**-1
     9:     213.38 cm**-1
    10:     238.91 cm**-1
    11:     337.99 cm**-1
    12:     447.40 cm**-1
    13:     584.97 cm**-1
    14:     659.50 cm**-1
    15:     818.24 cm**-1
    16:     858.22 cm**-1
    17:     960.05 cm**-1
    18:    1028.18 cm**-1
    19:    1100.68 cm**-1
    20:    1106.35 cm**-1
    21:    1166.03 cm**-1
    22:    1194.76 cm**-1
    23:    1209.56 cm**-1
    24:    1284.05 cm**-1
    25:    1376.33 cm**-1
    26:    1411.11 cm**-1
    27:    1445.73 cm**-1
    28:    1459.44 cm**-1
    29:    1478.16 cm**-1
    30:    1484.20 cm**-1
    31:    1490.05 cm**-1
    32:    1495.27 cm**-1
    33:    1722.76 cm**-1
    34:    3020.79 cm**-1
    35:    3024.02 cm**-1
    36:    3031.22 cm**-1
    37:    3059.44 cm**-1
    38:    3102.48 cm**-1
    39:    3106.27 cm**-1
    40:    3119.11 cm**-1
    41:    3147.00 cm**-1

IR SPECTRUM
-----------

 Mode   freq       eps      Int      T**2         TX        TY        TZ
       cm**-1   L/(mol*cm) km/mol    a.u.
----------------------------------------------------------------------------
  6:     59.00   0.000005    0.02  0.000024  ( 0.000297  0.002383  0.004318)
  7:    140.60   0.000273    1.38  0.000605  (-0.000365 -0.009833 -0.022553)
  8:    175.85   0.000843    4.26  0.001495  ( 0.001701 -0.017762 -0.034304)
  9:    213.38   0.000589    2.97  0.000861  ( 0.003185 -0.026770  0.011572)
 10:    238.91   0.000312    1.58  0.000407  (-0.001133  0.010841  0.016983)
 11:    337.99   0.003491   17.64  0.003223  ( 0.054929 -0.010895  0.009343)
 12:    447.40   0.000176    0.89  0.000123  ( 0.002407  0.009115 -0.005801)
 13:    584.97   0.000352    1.78  0.000188  ( 0.002093 -0.006134 -0.012066)
 14:    659.50   0.000459    2.32  0.000217  ( 0.007357  0.011850 -0.004782)
 15:    818.24   0.001815    9.17  0.000692  ( 0.002203 -0.012385 -0.023111)
 16:    858.22   0.002556   12.91  0.000929  (-0.003307 -0.026554  0.014600)
 17:    960.05   0.003169   16.02  0.001030  ( 0.028700  0.013171 -0.005747)
 18:   1028.18   0.002137   10.80  0.000648  (-0.022065 -0.011650  0.005085)
 19:   1100.68   0.005269   26.63  0.001494  ( 0.037189 -0.008623  0.006035)
 20:   1106.35   0.000047    0.24  0.000013  (-0.001242 -0.000177 -0.003432)
 21:   1166.03   0.000189    0.95  0.000051  ( 0.003204 -0.003383 -0.005369)
 22:   1194.76   0.015080   76.21  0.003939  (-0.062444  0.004521 -0.004368)
 23:   1209.56   0.053957  272.67  0.013921  ( 0.115807 -0.018181  0.013370)
 24:   1284.05   0.000029    0.15  0.000007  ( 0.002340 -0.000348 -0.001194)
 25:   1376.33   0.011342   57.32  0.002572  (-0.050017  0.006825 -0.004839)
 26:   1411.11   0.001167    5.90  0.000258  ( 0.007311 -0.012021  0.007758)
 27:   1445.73   0.003712   18.76  0.000801  (-0.011449 -0.022485  0.012828)
 28:   1459.44   0.003197   16.16  0.000684  ( 0.025449  0.005318 -0.002787)
 29:   1478.16   0.001721    8.70  0.000363  (-0.000128 -0.008535 -0.017044)
 30:   1484.20   0.002004   10.13  0.000421  (-0.016709  0.010715 -0.005224)
 31:   1490.05   0.001539    7.78  0.000322  ( 0.000409  0.010150  0.014801)
 32:   1495.27   0.002680   13.55  0.000559  (-0.020019 -0.010448  0.007032)
 33:   1722.76   0.040653  205.44  0.007364  ( 0.014052 -0.073935  0.041231)
 34:   3020.79   0.001379    6.97  0.000142  (-0.005658  0.008113 -0.006680)
 35:   3024.02   0.006469   32.69  0.000668  ( 0.024138 -0.006333  0.006696)
 36:   3031.22   0.005237   26.47  0.000539  (-0.022013 -0.006764  0.002976)
 37:   3059.44   0.000554    2.80  0.000057  ( 0.001198 -0.005615 -0.004852)
 38:   3102.48   0.004581   23.15  0.000461  (-0.012964 -0.011720  0.012463)
 39:   3106.27   0.004231   21.38  0.000425  (-0.001983 -0.014421 -0.014600)
 40:   3119.11   0.003806   19.23  0.000381  ( 0.000737 -0.009447 -0.017057)
 41:   3147.00   0.003035   15.34  0.000301  (-0.010651  0.011980 -0.006635)

--------------------------
THERMOCHEMISTRY AT 298.15K
--------------------------

Temperature         ...   298.15 K
Pressure            ...     1.00 atm
Total Mass          ...    88.11 AMU
Quasi RRHO          ...     True
Cut-Off Frequency   ...     1.00 cm^-1

Throughout the following assumptions are being made:
  (1) The electronic state is orbitally nondegenerate
  (2) There are no thermally accessible electronically excited states
  (3) Hindered rotations indicated by low frequency modes are not
      treated as such but are treated as vibrations and this may
      cause some error
  (4) All equations used are the standard statistical mechanics
      equations for an ideal gas
  (5) All vibrations are strictly harmonic

freq.      59.00  E(vib)   ...       0.51
freq.     140.60  E(vib)   ...       0.41
freq.     175.85  E(vib)   ...       0.38
freq.     213.38  E(vib)   ...       0.34
freq.     238.91  E(vib)   ...       0.32
freq.     337.99  E(vib)   ...       0.24
freq.     447.40  E(vib)   ...       0.17
freq.     584.97  E(vib)   ...       0.11
freq.     659.50  E(vib)   ...       0.08
freq.     818.24  E(vib)   ...       0.05
freq.     858.22  E(vib)   ...       0.04
freq.     960.05  E(vib)   ...       0.03
freq.    1028.18  E(vib)   ...       0.02
freq.    1100.68  E(vib)   ...       0.02
freq.    1106.35  E(vib)   ...       0.02
freq.    1166.03  E(vib)   ...       0.01
freq.    1194.76  E(vib)   ...       0.01
freq.    1209.56  E(vib)   ...       0.01
freq.    1284.05  E(vib)   ...       0.01
freq.    1376.33  E(vib)   ...       0.01
freq.    1411.11  E(vib)   ...       0.00
freq.    1445.73  E(vib)   ...       0.00
freq.    1459.44  E(vib)   ...       0.00
freq.    1478.16  E(vib)   ...       0.00
freq.    1484.20  E(vib)   ...       0.00
freq.    1490.05  E(vib)   ...       0.00
freq.    1495.27  E(vib)   ...       0.00
freq.    1722.76  E(vib)   ...       0.00
freq.    3020.79  E(vib)   ...       0.00
freq.    3024.02  E(vib)   ...       0.00
freq.    3031.22  E(vib)   ...       0.00
freq.    3059.44  E(vib)   ...       0.00
freq.    3102.48  E(vib)   ...       0.00
freq.    3106.27  E(vib)   ...       0.00
freq.    3119.11  E(vib)   ...       0.00
freq.    3147.00  E(vib)   ...       0.00

------------
INNER ENERGY
------------

The inner energy is: U= E(el) + E(ZPE) + E(vib) + E(rot) + E(trans)
    E(el)   - is the total energy from the electronic structure calculation
              = E(kin-el) + E(nuc-el) + E(el-el) + E(nuc-nuc)
    E(ZPE)  - the the zero temperature vibrational energy from the frequency calculation
    E(vib)  - the the finite temperature correction to E(ZPE) due to population
              of excited vibrational states
    E(rot)  - is the rotational thermal energy
    E(trans)- is the translational thermal energy

Summary of contributions to the inner energy U:
Electronic energy                ...   -307.65427246 Eh
Zero point energy                ...      0.11745570 Eh      73.70 kcal/mol
Thermal vibrational correction   ...      0.00443335 Eh       2.78 kcal/mol
Thermal rotational correction    ...      0.00141627 Eh       0.89 kcal/mol
Thermal translational correction ...      0.00141627 Eh       0.89 kcal/mol
-----------------------------------------------------------------------
Total thermal energy                   -307.52955086 Eh

Summary of corrections to the electronic energy:
(perhaps to be used in another calculation)
Total thermal correction                  0.00726589 Eh       4.56 kcal/mol
Non-thermal (ZPE) correction              0.11745570 Eh      73.70 kcal/mol
-----------------------------------------------------------------------
Total correction                          0.12472159 Eh      78.26 kcal/mol

--------
ENTHALPY
--------

The enthalpy is H = U + kB*T
                kB is Boltzmann's constant
Total thermal energy              ...   -307.52955086 Eh
Thermal Enthalpy correction       ...      0.00094421 Eh       0.59 kcal/mol
-----------------------------------------------------------------------
Total Enthalpy                    ...   -307.52860665 Eh

Note: Only C1 symmetry has been detected, increase convergence thresholds
      if your molecule has a higher symmetry. Symmetry factor of 1.0 is
      used for the rotational entropy correction.

Note: Rotational entropy computed according to Herzberg
Infrared and Raman Spectra, Chapter V,1, Van Nostrand Reinhold, 1945
Point Group:  C1, Symmetry Number:   1
Rotational constants in cm-1:     0.317059     0.071083     0.060049

Vibrational entropy computed according to the QRRHO of S. Grimme
Chem.Eur.J. 2012 18 9955 using a reference frequency of 100.0 cm-1

-------
ENTROPY
-------

The entropy contributions are T*S = T*(S(el)+S(vib)+S(rot)+S(trans))
     S(el)   - electronic entropy
     S(vib)  - vibrational entropy
     S(rot)  - rotational entropy
     S(trans)- translational entropy
The entropies will be listed as multiplied by the temperature to get
units of energy

Electronic entropy                ...      0.00000000 Eh      0.00 kcal/mol
Vibrational entropy               ...      0.00772332 Eh      4.85 kcal/mol
Rotational entropy                ...      0.01262905 Eh      7.92 kcal/mol
Translational entropy             ...      0.01869190 Eh     11.73 kcal/mol
-----------------------------------------------------------------------
Final entropy term                ...      0.03904428 Eh     24.50 kcal/mol

In case the symmetry of your molecule has not been determined correctly
or in case you have a reason to use a different symmetry number we print
out the resulting rotational entropy values for sn=1,12:

 non-linear molecules -----------------------------------
|  sn= 1 | S(rot)=       0.01262905 Eh      7.92 kcal/mol|
|  sn= 2 | S(rot)=       0.01197460 Eh      7.51 kcal/mol|
|  sn= 3 | S(rot)=       0.01159176 Eh      7.27 kcal/mol|
|  sn= 4 | S(rot)=       0.01132014 Eh      7.10 kcal/mol|
|  sn= 5 | S(rot)=       0.01110945 Eh      6.97 kcal/mol|
|  sn= 6 | S(rot)=       0.01093731 Eh      6.86 kcal/mol|
|  sn= 7 | S(rot)=       0.01079176 Eh      6.77 kcal/mol|
|  sn= 8 | S(rot)=       0.01066568 Eh      6.69 kcal/mol|
|  sn= 9 | S(rot)=       0.01055447 Eh      6.62 kcal/mol|
|  sn=10 | S(rot)=       0.01045500 Eh      6.56 kcal/mol|
|  sn=11 | S(rot)=       0.01036501 Eh      6.50 kcal/mol|
|  sn=12 | S(rot)=       0.01028285 Eh      6.45 kcal/mol|
 linear molecules ---------------------------------------
|  Dinfh | S(rot)=       0.00798141 Eh      5.01 kcal/mol|
|  Cinfv | S(rot)=       0.00863586 Eh      5.42 kcal/mol|
 --------------------------------------------------------

-------------------
GIBBS FREE ENERGY
-------------------

The Gibbs free energy is G = H - T*S

                             ****ORCA TERMINATED NORMALLY****
TOTAL RUN TIME: 0 days 0 hours 5 minutes 22 seconds 440 msec
