                         Program Version 6.0.0  -   RELEASE  -
|  1> ! r2SCAN-3c DEF2-TZVP FREQ
|  2> * xyzfile 0 1 vacuum_censo.xyz
|  3>
|  4>                          ****END OF INPUT****

CARTESIAN COORDINATES (ANGSTROEM)
---------------------------------
  C     -2.482155    0.071716    0.374599
  C     -1.234415    0.696871   -0.232375
  C      0.032612    0.007159    0.213402
  O      0.094136   -0.954013    0.943818
  O      1.121591    0.612646   -0.320386
  C      2.384763    0.021116    0.049888
  H     -2.447421    0.114930    1.465931
  H     -3.376770    0.599254    0.033096
  H     -2.568245   -0.980103    0.091536
  H     -1.144997    1.758246    0.028230
  H     -1.259822    0.665695   -1.328553
  H      3.145355    0.623627   -0.446627
  H      2.433213   -1.017655   -0.287620
  H      2.515767    0.049876    1.134889

 Total Charge           Charge          ....    0
 Multiplicity           Mult            ....    1
 Number of Electrons    NEL             ....   48
 Basis Dimension        Dim             ....  234

ORBITAL ENERGIES
----------------

  NO   OCC          E(Eh)            E(eV)
   0   2.0000     -18.998857      -516.9852
   1   2.0000     -18.936746      -515.2951
   2   2.0000     -10.154493      -276.3178
   3   2.0000     -10.085979      -274.4535
   4   2.0000     -10.048729      -273.4398
   5   2.0000     -10.025989      -272.8210
   6   2.0000      -1.064716       -28.9724
   7   2.0000      -0.978998       -26.6399
   8   2.0000      -0.756855       -20.5951
   9   2.0000      -0.690984       -18.8026
  10   2.0000      -0.610324       -16.6078
  11   2.0000      -0.525601       -14.3023
  12   2.0000      -0.471154       -12.8208
  13   2.0000      -0.458944       -12.4885
  14   2.0000      -0.439623       -11.9628
  15   2.0000      -0.418969       -11.4007
  16   2.0000      -0.397835       -10.8256
  17   2.0000      -0.357766        -9.7353
  18   2.0000      -0.350280        -9.5316
  19   2.0000      -0.343510        -9.3474
  20   2.0000      -0.323967        -8.8156
  21   2.0000      -0.319519        -8.6946
  22   2.0000      -0.276631        -7.5275
  23   2.0000      -0.243133        -6.6160
  24   0.0000      -0.018701        -0.5089
  25   0.0000       0.042438         1.1548
  26   0.0000       0.071890         1.9562
  27   0.0000       0.076795         2.0897
  28   0.0000       0.102592         2.7917

MULLIKEN ATOMIC CHARGES
-----------------------
   0 C :   -0.296078
   1 C :   -0.151639
   2 C :    0.307578
   3 O :   -0.352980
   4 O :   -0.262413
   5 C :   -0.152486
   6 H :    0.109994
   7 H :    0.106733
   8 H :    0.110563
   9 H :    0.110524
  10 H :    0.110364
  11 H :    0.119232
  12 H :    0.120078
  13 H :    0.120530
Sum of atomic charges:    0.0000000

LOEWDIN ATOMIC CHARGES
----------------------
   0 C :   -0.297267
   1 C :   -0.256693
   2 C :   -0.480328
   3 O :    0.107864
   4 O :    0.222829
   5 C :   -0.300660
   6 H :    0.124560
   7 H :    0.118700
   8 H :    0.124676
   9 H :    0.151047
  10 H :    0.151619
  11 H :    0.110524
  12 H :    0.111484
  13 H :    0.111646

  Mayer bond orders larger than 0.100000
B(  0-C ,  1-C ) :   0.9935 B(  0-C ,  6-H ) :   0.9713 B(  0-C ,  7-H ) :   0.9710
B(  0-C ,  8-H ) :   0.9706 B(  1-C ,  2-C ) :   1.0013 B(  1-C ,  9-H ) :   0.9453
B(  1-C , 10-H ) :   0.9430 B(  2-C ,  3-O ) :   1.9736 B(  2-C ,  4-O ) :   1.1644
B(  4-O ,  5-C ) :   0.8929 B(  5-C , 11-H ) :   0.9694 B(  5-C , 12-H ) :   0.9736
B(  5-C , 13-H ) :   0.9733

Dispersion correction           -0.002940361
FINAL SINGLE POINT ENERGY      -307.654671579075

DIPOLE MOMENT
-------------

Method             : SCF
Type of density    : Electron Density
Multiplicity       :   1
Irrep              :   0
Energy             :  -307.6609301496662852 Eh
Relativity type    :
Basis              : AO
                                X                 Y                 Z
Electronic contribution:      2.780460558      -0.666545435       0.260792548
Nuclear contribution   :     -2.613728000       1.188856812      -0.671732496
                        -----------------------------------------
Total Dipole Moment    :      0.166732558       0.522311377      -0.410939948
                        -----------------------------------------
Magnitude (a.u.)       :      0.685186516
Magnitude (Debye)      :      1.741605715

VIBRATIONAL FREQUENCIES
-----------------------

Scaling factor for frequencies =  1.000000000  (already applied!)

     0:       0.00 cm**-1
     1:       0.00 cm**-1
     2:       0.00 cm**-1
     3:       0.00 cm**-1
     4:       0.00 cm**-1
     5:       0.00 cm**-1
     6:      60.37 cm**-1
     7:     155.16 cm**-1
     8:     172.50 cm**-1
     9:     216.03 cm**-1
    10:     235.75 cm**-1
    11:     341.00 cm**-1
    12:     449.25 cm**-1
    13:     581.19 cm**-1
    14:     653.84 cm**-1
    15:     813.85 cm**-1
    16:     853.91 cm**-1
    17:     972.30 cm**-1
    18:    1025.92 cm**-1
    19:    1100.90 cm**-1
    20:    1102.91 cm**-1
    21:    1170.15 cm**-1
    22:    1188.04 cm**-1
    23:    1208.00 cm**-1
    24:    1279.58 cm**-1
    25:    1368.13 cm**-1
    26:    1408.97 cm**-1
    27:    1447.99 cm**-1
    28:    1462.20 cm**-1
    29:    1476.29 cm**-1
    30:    1487.71 cm**-1
    31:    1489.61 cm**-1
    32:    1495.21 cm**-1
    33:    1774.47 cm**-1
    34:    3021.38 cm**-1
    35:    3025.13 cm**-1
    36:    3027.71 cm**-1
    37:    3057.50 cm**-1
    38:    3107.12 cm**-1
    39:    3107.18 cm**-1
    40:    3111.16 cm**-1
    41:    3141.86 cm**-1

IR SPECTRUM
-----------

 Mode   freq       eps      Int      T**2         TX        TY        TZ
       cm**-1   L/(mol*cm) km/mol    a.u.
----------------------------------------------------------------------------
  6:     60.37   0.000020    0.10  0.000105  (-0.000506 -0.005850 -0.008392)
  7:    155.16   0.000684    3.46  0.001376  ( 0.001187  0.022207  0.029696)
  8:    172.50   0.000362    1.83  0.000655  ( 0.001905  0.015566  0.020220)
  9:    216.03   0.000534    2.70  0.000772  ( 0.001957  0.022567 -0.016088)
 10:    235.75   0.000326    1.65  0.000432  (-0.001415 -0.012710 -0.016385)
 11:    341.00   0.003625   18.32  0.003318  (-0.055671 -0.009392  0.011419)
 12:    449.25   0.000165    0.83  0.000115  ( 0.001849 -0.008207  0.006633)
 13:    581.19   0.000373    1.88  0.000200  ( 0.001377  0.008440  0.011273)
 14:    653.84   0.000388    1.96  0.000185  ( 0.005700 -0.010345  0.006742)
 15:    813.85   0.001850    9.35  0.000709  ( 0.001939  0.016079  0.021143)
 16:    853.91   0.002713   13.71  0.000991  ( 0.001840  0.024857 -0.019236)
 17:    972.30   0.001912    9.66  0.000614  ( 0.019399 -0.012850  0.008495)
 18:   1025.92   0.002226   11.25  0.000677  (-0.021629  0.012271 -0.007659)
 19:   1100.90   0.006497   32.83  0.001842  ( 0.041856  0.005847 -0.007445)
 20:   1102.91   0.000034    0.17  0.000010  ( 0.000702  0.001685  0.002526)
 21:   1170.15   0.000171    0.86  0.000046  ( 0.003305  0.003817  0.004484)
 22:   1188.04   0.061108  308.81  0.016051  ( 0.125404  0.009274 -0.015462)
 23:   1208.00   0.010106   51.07  0.002611  (-0.049121 -0.009407  0.010459)
 24:   1279.58   0.000015    0.08  0.000004  ( 0.000590  0.000967  0.001563)
 25:   1368.13   0.009742   49.23  0.002222  (-0.046805 -0.002596  0.004978)
 26:   1408.97   0.001137    5.75  0.000252  (-0.007606 -0.010689  0.008933)
 27:   1447.99   0.003429   17.33  0.000739  ( 0.010493 -0.020149  0.014929)
 28:   1462.20   0.002229   11.27  0.000476  (-0.020973  0.005112 -0.003123)
 29:   1476.29   0.001764    8.92  0.000373  ( 0.001058  0.011770  0.015274)
 30:   1487.71   0.001576    7.96  0.000331  (-0.000876 -0.011428 -0.014112)
 31:   1489.61   0.002110   10.66  0.000442  (-0.017983 -0.008095  0.007282)
 32:   1495.21   0.002295   11.60  0.000479  (-0.016847  0.011407 -0.008064)
 33:   1774.47   0.041379  209.11  0.007277  (-0.013814 -0.066436  0.051696)
 34:   3021.38   0.003050   15.41  0.000315  ( 0.013608  0.008009 -0.008107)
 35:   3025.13   0.006650   33.60  0.000686  (-0.024837  0.007339 -0.003901)
 36:   3027.71   0.003982   20.12  0.000410  (-0.018651 -0.005093  0.006052)
 37:   3057.50   0.000662    3.35  0.000068  ( 0.000793  0.005680  0.005893)
 38:   3107.12   0.003386   17.11  0.000340  ( 0.004736 -0.015967 -0.007916)
 39:   3107.18   0.004741   23.96  0.000476  ( 0.010916 -0.004840  0.018263)
 40:   3111.16   0.004571   23.10  0.000458  ( 0.000259 -0.015130 -0.015149)
 41:   3141.86   0.003061   15.47  0.000304  (-0.010361 -0.010998  0.008703)

--------------------------
THERMOCHEMISTRY AT 298.15K
--------------------------

Temperature         ...   298.15 K
Pressure            ...     1.00 atm
Total Mass          ...    88.11 AMU
Quasi RRHO          ...     True
Cut-Off Frequency   ...     1.00 cm^-1

Throughout the following assumptions are being made:
  (1) The electronic state is orbitally nondegenerate
  (2) There are no thermally accessible electronically excited states
  (3) Hindered rotations indicated by low frequency modes are not
      treated as such but are treated as vibrations and this may
      cause some error
  (4) All equations used are the standard statistical mechanics
      equations for an ideal gas
  (5) All vibrations are strictly harmonic

freq.      60.37  E(vib)   ...       0.51
freq.     155.16  E(vib)   ...       0.40
freq.     172.50  E(vib)   ...       0.38
freq.     216.03  E(vib)   ...       0.34
freq.     235.75  E(vib)   ...       0.32
freq.     341.00  E(vib)   ...       0.23
freq.     449.25  E(vib)   ...       0.17
freq.     581.19  E(vib)   ...       0.11
freq.     653.84  E(vib)   ...       0.08
freq.     813.85  E(vib)   ...       0.05
freq.     853.91  E(vib)   ...       0.04
freq.     972.30  E(vib)   ...       0.03
freq.    1025.92  E(vib)   ...       0.02
freq.    1100.90  E(vib)   ...       0.02
freq.    1102.91  E(vib)   ...       0.02
freq.    1170.15  E(vib)   ...       0.01
freq.    1188.04  E(vib)   ...       0.01
freq.    1208.00  E(vib)   ...       0.01
freq.    1279.58  E(vib)   ...       0.01
freq.    1368.13  E(vib)   ...       0.01
freq.    1408.97  E(vib)   ...       0.00
freq.    1447.99  E(vib)   ...       0.00
freq.    1462.20  E(vib)   ...       0.00
freq.    1476.29  E(vib)   ...       0.00
freq.    1487.71  E(vib)   ...       0.00
freq.    1489.61  E(vib)   ...       0.00
freq.    1495.21  E(vib)   ...       0.00
freq.    1774.47  E(vib)   ...       0.00
freq.    3021.38  E(vib)   ...       0.00
freq.    3025.13  E(vib)   ...       0.00
freq.    3027.71  E(vib)   ...       0.00
freq.    3057.50  E(vib)   ...       0.00
freq.    3107.12  E(vib)   ...       0.00
freq.    3107.18  E(vib)   ...       0.00
freq.    3111.16  E(vib)   ...       0.00
freq.    3141.86  E(vib)   ...       0.00

------------
INNER ENERGY
------------

The inner energy is: U= E(el) + E(ZPE) + E(vib) + E(rot) + E(trans)
    E(el)   - is the total energy from the electronic structure calculation
              = E(kin-el) + E(nuc-el) + E(el-el) + E(nuc-nuc)
    E(ZPE)  - the the zero temperature vibrational energy from the frequency calculation
    E(vib)  - the the finite temperature correction to E(ZPE) due to population
              of excited vibrational states
    E(rot)  - is the rotational thermal energy
    E(trans)- is the translational thermal energy

Summary of contributions to the inner energy U:
Electronic energy                ...   -307.65467158 Eh
Zero point energy                ...      0.11753138 Eh      73.75 kcal/mol
Thermal vibrational correction   ...      0.00441213 Eh       2.77 kcal/mol
Thermal rotational correction    ...      0.00141627 Eh       0.89 kcal/mol
Thermal translational correction ...      0.00141627 Eh       0.89 kcal/mol
-----------------------------------------------------------------------
Total thermal energy                   -307.52989553 Eh

Summary of corrections to the electronic energy:
(perhaps to be used in another calculation)
Total thermal correction                  0.00724467 Eh       4.55 kcal/mol
Non-thermal (ZPE) correction              0.11753138 Eh      73.75 kcal/mol
-----------------------------------------------------------------------
Total correction                          0.12477605 Eh      78.30 kcal/mol

--------
ENTHALPY
--------

The enthalpy is H = U + kB*T
                kB is Boltzmann's constant
Total thermal energy              ...   -307.52989553 Eh
Thermal Enthalpy correction       ...      0.00094421 Eh       0.59 kcal/mol
-----------------------------------------------------------------------
Total Enthalpy                    ...   -307.52895132 Eh

Note: Only C1 symmetry has been detected, increase convergence thresholds
      if your molecule has a higher symmetry. Symmetry factor of 1.0 is
      used for the rotational entropy correction.

Note: Rotational entropy computed according to Herzberg
Infrared and Raman Spectra, Chapter V,1, Van Nostrand Reinhold, 1945
Point Group:  C1, Symmetry Number:   1
Rotational constants in cm-1:     0.316859     0.071486     0.060291

Vibrational entropy computed according to the QRRHO of S. Grimme
Chem.Eur.J. 2012 18 9955 using a reference frequency of 100.0 cm-1

-------
ENTROPY
-------

The entropy contributions are T*S = T*(S(el)+S(vib)+S(rot)+S(trans))
     S(el)   - electronic entropy
     S(vib)  - vibrational entropy
     S(rot)  - rotational entropy
     S(trans)- translational entropy
The entropies will be listed as multiplied by the temperature to get
units of energy

Electronic entropy                ...      0.00000000 Eh      0.00 kcal/mol
Vibrational entropy               ...      0.00765660 Eh      4.80 kcal/mol
Rotational entropy                ...      0.01262478 Eh      7.92 kcal/mol
Translational entropy             ...      0.01869190 Eh     11.73 kcal/mol
-----------------------------------------------------------------------
Final entropy term                ...      0.03897327 Eh     24.46 kcal/mol

In case the symmetry of your molecule has not been determined correctly
or in case you have a reason to use a different symmetry number we print
out the resulting rotational entropy values for sn=1,12:

 non-linear molecules -----------------------------------
|  sn= 1 | S(rot)=       0.01262478 Eh      7.92 kcal/mol|
|  sn= 2 | S(rot)=       0.01197032 Eh      7.51 kcal/mol|
|  sn= 3 | S(rot)=       0.01158749 Eh      7.27 kcal/mol|
|  sn= 4 | S(rot)=       0.01131587 Eh      7.10 kcal/mol|
|  sn= 5 | S(rot)=       0.01110518 Eh      6.97 kcal/mol|
|  sn= 6 | S(rot)=       0.01093303 Eh      6.86 kcal/mol|
|  sn= 7 | S(rot)=       0.01078749 Eh      6.77 kcal/mol|
|  sn= 8 | S(rot)=       0.01066141 Eh      6.69 kcal/mol|
|  sn= 9 | S(rot)=       0.01055020 Eh      6.62 kcal/mol|
|  sn=10 | S(rot)=       0.01045072 Eh      6.56 kcal/mol|
|  sn=11 | S(rot)=       0.01036073 Eh      6.50 kcal/mol|
|  sn=12 | S(rot)=       0.01027858 Eh      6.45 kcal/mol|
 linear molecules ---------------------------------------
|  Dinfh | S(rot)=       0.00797761 Eh      5.01 kcal/mol|
|  Cinfv | S(rot)=       0.00863207 Eh      5.42 kcal/mol|
 --------------------------------------------------------

-------------------
GIBBS FREE ENERGY
-------------------

The Gibbs free energy is G = H - T*S

                             ****ORCA TERMINATED NORMALLY****
TOTAL RUN TIME: 0 days 0 hours 5 minutes 24 seconds 869 msec
