                         Program Version 6.0.1  -  RELEASE   -
|  1> ! pbe def2-sv(p) def2/J RI DEFGRID1 loosescf d4 GCP(DFT/SV(P)) printgap
|  2> %output
|  3>     printlevel normal
|  4> end
|  5> * xyz 0 1
|  6> C -1.5458151808 0.1240014297 0.5466257936
|  7> C -0.6700444311 -0.4781700669 -0.5439958469
|  8> C 0.670737828 0.2463990082 -0.6520961219
|  9> N 1.4186716007 0.1079625943 0.587985359
| 10> H -2.4624074888 -0.4494282013 0.6633263715
| 11> H -1.0054296739 0.1260331095 1.4888831245
| 12> H -1.8076494663 1.1498001253 0.2986637815
| 13> H -1.1805048207 -0.4227829196 -1.507735425
| 14> H -0.4853891187 -1.5323379759 -0.3226976598
| 15> H 1.2173540458 -0.1398120809 -1.5311524794
| 16> H 0.4950786074 1.3143592644 -0.8106378567
| 17> H 1.6283388148 -0.8703456388 0.7601753419
| 18> H 2.2984464225 0.6084426291 0.5295880404
| 19> *
| 20>
| 21>                          ****END OF INPUT****

CARTESIAN COORDINATES (ANGSTROEM)
---------------------------------
  C     -1.545815    0.124001    0.546626
  C     -0.670044   -0.478170   -0.543996
  C      0.670738    0.246399   -0.652096
  N      1.418672    0.107963    0.587985
  H     -2.462407   -0.449428    0.663326
  H     -1.005430    0.126033    1.488883
  H     -1.807649    1.149800    0.298664
  H     -1.180505   -0.422783   -1.507735
  H     -0.485389   -1.532338   -0.322698
  H      1.217354   -0.139812   -1.531152
  H      0.495079    1.314359   -0.810638
  H      1.628339   -0.870346    0.760175
  H      2.298446    0.608443    0.529588

 Total Charge           Charge          ....    0
 Multiplicity           Mult            ....    1
 Number of Electrons    NEL             ....   34
 Basis Dimension        Dim             ....   74

ORBITAL ENERGIES
----------------

  NO   OCC          E(Eh)            E(eV)
   0   2.0000     -13.955143      -379.7387
   1   2.0000      -9.903102      -269.4771
   2   2.0000      -9.878749      -268.8144
   3   2.0000      -9.860202      -268.3097
   4   2.0000      -0.791904       -21.5488
   5   2.0000      -0.680499       -18.5173
   6   2.0000      -0.584603       -15.9079
   7   2.0000      -0.511324       -13.9138
   8   2.0000      -0.439459       -11.9583
   9   2.0000      -0.404585       -11.0093
  10   2.0000      -0.392176       -10.6716
  11   2.0000      -0.354574        -9.6484
  12   2.0000      -0.332484        -9.0473
  13   2.0000      -0.299383        -8.1466
  14   2.0000      -0.287036        -7.8107
  15   2.0000      -0.284921        -7.7531
  16   2.0000      -0.178833        -4.8663
  17   0.0000       0.033500         0.9116
  18   0.0000       0.068462         1.8629
  19   0.0000       0.075446         2.0530
  20   0.0000       0.092082         2.5057
  21   0.0000       0.114477         3.1151

MULLIKEN ATOMIC CHARGES
-----------------------
   0 C :   -0.272537
   1 C :   -0.197855
   2 C :   -0.073724
   3 N :   -0.462211
   4 H :    0.096309
   5 H :    0.111639
   6 H :    0.090124
   7 H :    0.084763
   8 H :    0.078456
   9 H :    0.066474
  10 H :    0.076757
  11 H :    0.198879
  12 H :    0.202926
Sum of atomic charges:   -0.0000000

LOEWDIN ATOMIC CHARGES
----------------------
   0 C :   -0.344652
   1 C :   -0.241790
   2 C :   -0.176603
   3 N :   -0.415013
   4 H :    0.114494
   5 H :    0.121997
   6 H :    0.115158
   7 H :    0.115295
   8 H :    0.110679
   9 H :    0.086717
  10 H :    0.109114
  11 H :    0.200495
  12 H :    0.204107

  Mayer bond orders larger than 0.100000
B(  0-C ,  1-C ) :   1.1484 B(  0-C ,  4-H ) :   0.9543 B(  0-C ,  5-H ) :   0.9463
B(  0-C ,  6-H ) :   0.9565 B(  1-C ,  2-C ) :   1.1215 B(  1-C ,  7-H ) :   0.9283
B(  1-C ,  8-H ) :   0.9290 B(  2-C ,  3-N ) :   1.1015 B(  2-C ,  9-H ) :   0.9235
B(  2-C , 10-H ) :   0.9284 B(  3-N , 11-H ) :   0.9032 B(  3-N , 12-H ) :   0.9055

Dispersion correction           -0.007414288
FINAL SINGLE POINT ENERGY      -174.032489080437

DIPOLE MOMENT
-------------

Method             : SCF
Type of density    : Electron Density
Multiplicity       :   1
Irrep              :   0
Energy             :  -174.0824380405792340 Eh
Relativity type    :
Basis              : AO
                                X                 Y                 Z
Electronic contribution:      1.625208876       0.008636720       0.104135080
Nuclear contribution   :     -1.213888402      -0.202120391      -0.401685733
                        -----------------------------------------
Total Dipole Moment    :      0.411320474      -0.193483671      -0.297550654
                        -----------------------------------------
Magnitude (a.u.)       :      0.543283402
Magnitude (Debye)      :      1.380916663

Rotational constants in cm-1:             0.462322             0.169046             0.144404
Rotational constants in MHz :         13860.060537          5067.877099          4329.120406

                             ****ORCA TERMINATED NORMALLY****
TOTAL RUN TIME: 0 days 0 hours 0 minutes 14 seconds 401 msec
