                         Program Version 6.0.1  -  RELEASE   -
|  1> ! pbe def2-sv(p) def2/J RI DEFGRID1 loosescf d4 GCP(DFT/SV(P)) printgap
|  2> %output
|  3>     printlevel normal
|  4> end
|  5> * xyz 0 1
|  6> C -2.1330595799 -0.8737171234 -0.372409038
|  7> C -1.2267573366 -0.3174521618 0.7454213026
|  8> H -1.8548857404 -0.3517421833 1.6482844304
|  9> C -0.75848197 1.1385831877 0.5938451961
| 10> H -1.5909389471 1.7789690662 0.2792057572
| 11> C 0.3982239073 1.3091012509 -0.4119451931
| 12> H 0.8270598417 2.3077612215 -0.2283407269
| 13> C 1.515683268 0.2838421463 -0.1339016609
| 14> H 2.1346361778 0.1588392188 -1.0319084946
| 15> C 1.0006964981 -1.1408712104 0.2317624687
| 16> H 1.7903548542 -1.6167399748 0.8295990136
| 17> O -0.1128464907 -1.1251904624 1.1006659487
| 18> O 0.8286996528 -1.935779626 -0.8844054379
| 19> O 2.3811267069 0.7811147748 0.8555520242
| 20> O -0.1132690556 1.2599354045 -1.7276260997
| 21> O -0.3125778012 1.5947282168 1.8560373511
| 22> O -1.5740513621 -0.9750462487 -1.653795985
| 23> H -3.0339628415 -0.2457382131 -0.3971241496
| 24> H -2.4198614906 -1.8907166839 -0.0919992039
| 25> H -0.033072866 -1.7342954282 -1.3106267637
| 26> H 1.8560220489 1.1162797825 1.5949592648
| 27> H 0.6180313805 1.3459942661 -2.350084254
| 28> H -0.1186096471 0.8202301348 2.4021285937
| 29> H -1.2455783544 -0.0960844894 -1.9230937396
| 30> *
| 31>
| 32>                          ****END OF INPUT****

CARTESIAN COORDINATES (ANGSTROEM)
---------------------------------
  C     -2.133060   -0.873717   -0.372409
  C     -1.226757   -0.317452    0.745421
  H     -1.854886   -0.351742    1.648284
  C     -0.758482    1.138583    0.593845
  H     -1.590939    1.778969    0.279206
  C      0.398224    1.309101   -0.411945
  H      0.827060    2.307761   -0.228341
  C      1.515683    0.283842   -0.133902
  H      2.134636    0.158839   -1.031908
  C      1.000696   -1.140871    0.231762
  H      1.790355   -1.616740    0.829599
  O     -0.112846   -1.125190    1.100666
  O      0.828700   -1.935780   -0.884405
  O      2.381127    0.781115    0.855552
  O     -0.113269    1.259935   -1.727626
  O     -0.312578    1.594728    1.856037
  O     -1.574051   -0.975046   -1.653796
  H     -3.033963   -0.245738   -0.397124
  H     -2.419861   -1.890717   -0.091999
  H     -0.033073   -1.734295   -1.310627
  H      1.856022    1.116280    1.594959
  H      0.618031    1.345994   -2.350084
  H     -0.118610    0.820230    2.402129
  H     -1.245578   -0.096084   -1.923094

 Total Charge           Charge          ....    0
 Multiplicity           Mult            ....    1
 Number of Electrons    NEL             ....   96
 Basis Dimension        Dim             ....  192

ORBITAL ENERGIES
----------------

  NO   OCC          E(Eh)            E(eV)
   0   2.0000     -18.799834      -511.5695
   1   2.0000     -18.778163      -510.9798
   2   2.0000     -18.777702      -510.9672
   3   2.0000     -18.769474      -510.7434
   4   2.0000     -18.752268      -510.2752
   5   2.0000     -18.732109      -509.7266
   6   2.0000      -9.978475      -271.5281
   7   2.0000      -9.966097      -271.1913
   8   2.0000      -9.963742      -271.1272
   9   2.0000      -9.962946      -271.1055
  10   2.0000      -9.951157      -270.7847
  11   2.0000      -9.945759      -270.6378
  12   2.0000      -0.988919       -26.9098
  13   2.0000      -0.969414       -26.3791
  14   2.0000      -0.953922       -25.9575
  15   2.0000      -0.942286       -25.6409
  16   2.0000      -0.930128       -25.3101
  17   2.0000      -0.899769       -24.4840
  18   2.0000      -0.718736       -19.5578
  19   2.0000      -0.693636       -18.8748
  20   2.0000      -0.635830       -17.3018
  21   2.0000      -0.598278       -16.2800
  22   2.0000      -0.591251       -16.0888
  23   2.0000      -0.541799       -14.7431
  24   2.0000      -0.505609       -13.7583
  25   2.0000      -0.497677       -13.5425
  26   2.0000      -0.486088       -13.2271
  27   2.0000      -0.466993       -12.7075
  28   2.0000      -0.448240       -12.1972
  29   2.0000      -0.443651       -12.0724
  30   2.0000      -0.437457       -11.9038
  31   2.0000      -0.417222       -11.3532
  32   2.0000      -0.402702       -10.9581
  33   2.0000      -0.388955       -10.5840
  34   2.0000      -0.377836       -10.2814
  35   2.0000      -0.362408        -9.8616
  36   2.0000      -0.345464        -9.4006
  37   2.0000      -0.328702        -8.9444
  38   2.0000      -0.314029        -8.5452
  39   2.0000      -0.303465        -8.2577
  40   2.0000      -0.290069        -7.8932
  41   2.0000      -0.284995        -7.7551
  42   2.0000      -0.271769        -7.3952
  43   2.0000      -0.260945        -7.1007
  44   2.0000      -0.246365        -6.7039
  45   2.0000      -0.239827        -6.5260
  46   2.0000      -0.222220        -6.0469
  47   2.0000      -0.199920        -5.4401
  48   0.0000      -0.004840        -0.1317
  49   0.0000       0.012895         0.3509
  50   0.0000       0.035294         0.9604
  51   0.0000       0.045449         1.2367
  52   0.0000       0.064801         1.7633

MULLIKEN ATOMIC CHARGES
-----------------------
   0 C :    0.046070
   1 C :   -0.034902
   2 H :    0.088129
   3 C :    0.039813
   4 H :    0.083018
   5 C :    0.050404
   6 H :    0.090884
   7 C :    0.011103
   8 H :    0.069765
   9 C :    0.204585
  10 H :    0.071733
  11 O :   -0.314589
  12 O :   -0.412900
  13 O :   -0.414614
  14 O :   -0.427150
  15 O :   -0.414657
  16 O :   -0.440765
  17 H :    0.088000
  18 H :    0.106556
  19 H :    0.285495
  20 H :    0.284909
  21 H :    0.325752
  22 H :    0.309473
  23 H :    0.303888
Sum of atomic charges:    0.0000000

LOEWDIN ATOMIC CHARGES
----------------------
   0 C :   -0.135119
   1 C :   -0.089032
   2 H :    0.125613
   3 C :   -0.064757
   4 H :    0.117741
   5 C :   -0.080573
   6 H :    0.114418
   7 C :   -0.095551
   8 H :    0.116235
   9 C :   -0.009403
  10 H :    0.110702
  11 O :   -0.148845
  12 O :   -0.328385
  13 O :   -0.312665
  14 O :   -0.304318
  15 O :   -0.308111
  16 O :   -0.328970
  17 H :    0.111269
  18 H :    0.124743
  19 H :    0.264996
  20 H :    0.268024
  21 H :    0.300617
  22 H :    0.281362
  23 H :    0.270009

  Mayer bond orders larger than 0.100000
B(  0-C ,  1-C ) :   1.0402 B(  0-C , 16-O ) :   1.0589 B(  0-C , 17-H ) :   0.9113
B(  0-C , 18-H ) :   0.9151 B(  1-C ,  2-H ) :   0.8822 B(  1-C ,  3-C ) :   1.0169
B(  1-C , 11-O ) :   1.0023 B(  3-C ,  4-H ) :   0.8977 B(  3-C ,  5-C ) :   0.9819
B(  3-C , 15-O ) :   1.0637 B(  5-C ,  6-H ) :   0.8995 B(  5-C ,  7-C ) :   0.9592
B(  5-C , 14-O ) :   0.9890 B(  7-C ,  8-H ) :   0.8914 B(  7-C ,  9-C ) :   0.9505
B(  7-C , 13-O ) :   1.0470 B(  9-C , 10-H ) :   0.9022 B(  9-C , 11-O ) :   1.0040
B(  9-C , 12-O ) :   1.1582 B( 12-O , 19-H ) :   0.7629 B( 13-O , 20-H ) :   0.8244
B( 14-O , 21-H ) :   0.8315 B( 14-O , 23-H ) :   0.1455 B( 15-O , 22-H ) :   0.8208
B( 16-O , 19-H ) :   0.1704 B( 16-O , 23-H ) :   0.7664

Dispersion correction           -0.026675180
FINAL SINGLE POINT ENERGY      -685.701284789874

DIPOLE MOMENT
-------------

Method             : SCF
Type of density    : Electron Density
Multiplicity       :   1
Irrep              :   0
Energy             :  -685.8384651711392053 Eh
Relativity type    :
Basis              : AO
                                X                 Y                 Z
Electronic contribution:      2.198597366      -0.603184266       0.490763144
Nuclear contribution   :     -2.864685331       1.488347436      -0.549920195
                        -----------------------------------------
Total Dipole Moment    :     -0.666087965       0.885163170      -0.059157051
                        -----------------------------------------
Magnitude (a.u.)       :      1.109363137
Magnitude (Debye)      :      2.819777004

Rotational constants in cm-1:             0.039734             0.030951             0.027976
Rotational constants in MHz :          1191.181513           927.897510           838.696927

                             ****ORCA TERMINATED NORMALLY****
TOTAL RUN TIME: 0 days 0 hours 0 minutes 10 seconds 797 msec
