                         Program Version 6.0.1  -  RELEASE   -
|  1> ! pbe def2-sv(p) def2/J RI DEFGRID1 loosescf d4 GCP(DFT/SV(P)) printgap
|  2> %output
|  3>     printlevel normal
|  4> end
|  5> * xyz 0 1
|  6> C -1.9840529479 -0.6354800235 -0.7694697543
|  7> C -1.2001612104 -0.1075274845 0.4441663998
|  8> H -1.8976634519 -0.0785821261 1.2946109415
|  9> C -0.6255746919 1.3017577025 0.239627042
| 10> H -1.3470772094 1.8847505473 -0.3512823779
| 11> C 0.7197199435 1.3048512944 -0.5252519646
| 12> H 1.1382002871 2.3139594995 -0.4208942009
| 13> C 1.6841577976 0.3034676161 0.1266251056
| 14> H 2.5696478844 0.1888588443 -0.5093038155
| 15> C 1.0069206748 -1.0814648795 0.2141460614
| 16> H 1.6266323002 -1.732046928 0.8496860504
| 17> O -0.2307485947 -1.0652537191 0.8699706191
| 18> O 0.9172588502 -1.5931725429 -1.0915444677
| 19> O 2.1335694427 0.7226548169 1.3793984012
| 20> O 0.546901207 1.0697169785 -1.8931535122
| 21> O -0.3788416551 1.9317520696 1.481922963
| 22> O -2.5263904383 -1.8995593337 -0.4807133692
| 23> H -1.3394871828 -0.6870762895 -1.6554362895
| 24> H -2.8213781168 0.0312199115 -0.9879236515
| 25> H 0.5678212431 -2.4923926369 -1.0681180148
| 26> H 1.3817038843 1.1059372859 1.8575017383
| 27> H 0.6362167037 0.1190268251 -2.0546866483
| 28> H -1.2040969101 2.0139643237 1.9730475116
| 29> H -1.8856060798 -2.36789208 0.0716343841
| 30> *
| 31>
| 32>                          ****END OF INPUT****

CARTESIAN COORDINATES (ANGSTROEM)
---------------------------------
  C     -1.984053   -0.635480   -0.769470
  C     -1.200161   -0.107527    0.444166
  H     -1.897663   -0.078582    1.294611
  C     -0.625575    1.301758    0.239627
  H     -1.347077    1.884751   -0.351282
  C      0.719720    1.304851   -0.525252
  H      1.138200    2.313959   -0.420894
  C      1.684158    0.303468    0.126625
  H      2.569648    0.188859   -0.509304
  C      1.006921   -1.081465    0.214146
  H      1.626632   -1.732047    0.849686
  O     -0.230749   -1.065254    0.869971
  O      0.917259   -1.593173   -1.091544
  O      2.133569    0.722655    1.379398
  O      0.546901    1.069717   -1.893154
  O     -0.378842    1.931752    1.481923
  O     -2.526390   -1.899559   -0.480713
  H     -1.339487   -0.687076   -1.655436
  H     -2.821378    0.031220   -0.987924
  H      0.567821   -2.492393   -1.068118
  H      1.381704    1.105937    1.857502
  H      0.636217    0.119027   -2.054687
  H     -1.204097    2.013964    1.973048
  H     -1.885606   -2.367892    0.071634

 Total Charge           Charge          ....    0
 Multiplicity           Mult            ....    1
 Number of Electrons    NEL             ....   96
 Basis Dimension        Dim             ....  192

ORBITAL ENERGIES
----------------

  NO   OCC          E(Eh)            E(eV)
   0   2.0000     -18.791158      -511.3334
   1   2.0000     -18.787572      -511.2358
   2   2.0000     -18.781013      -511.0573
   3   2.0000     -18.750096      -510.2161
   4   2.0000     -18.747363      -510.1417
   5   2.0000     -18.743329      -510.0319
   6   2.0000      -9.996862      -272.0284
   7   2.0000      -9.958467      -270.9837
   8   2.0000      -9.957251      -270.9506
   9   2.0000      -9.947157      -270.6759
  10   2.0000      -9.945275      -270.6247
  11   2.0000      -9.936282      -270.3800
  12   2.0000      -1.001440       -27.2506
  13   2.0000      -0.959202       -26.1012
  14   2.0000      -0.939702       -25.5706
  15   2.0000      -0.932013       -25.3614
  16   2.0000      -0.924437       -25.1552
  17   2.0000      -0.918645       -24.9976
  18   2.0000      -0.713822       -19.4241
  19   2.0000      -0.693548       -18.8724
  20   2.0000      -0.633272       -17.2322
  21   2.0000      -0.597009       -16.2454
  22   2.0000      -0.579765       -15.7762
  23   2.0000      -0.531249       -14.4560
  24   2.0000      -0.523502       -14.2452
  25   2.0000      -0.497297       -13.5322
  26   2.0000      -0.480745       -13.0817
  27   2.0000      -0.465182       -12.6582
  28   2.0000      -0.449416       -12.2292
  29   2.0000      -0.427791       -11.6408
  30   2.0000      -0.420830       -11.4514
  31   2.0000      -0.408146       -11.1062
  32   2.0000      -0.400948       -10.9104
  33   2.0000      -0.384957       -10.4752
  34   2.0000      -0.371621       -10.1123
  35   2.0000      -0.367966       -10.0129
  36   2.0000      -0.343462        -9.3461
  37   2.0000      -0.335266        -9.1231
  38   2.0000      -0.320304        -8.7159
  39   2.0000      -0.294560        -8.0154
  40   2.0000      -0.288780        -7.8581
  41   2.0000      -0.276940        -7.5359
  42   2.0000      -0.263499        -7.1702
  43   2.0000      -0.256522        -6.9803
  44   2.0000      -0.244813        -6.6617
  45   2.0000      -0.226851        -6.1729
  46   2.0000      -0.216945        -5.9034
  47   2.0000      -0.209863        -5.7107
  48   0.0000       0.000002         0.0000
  49   0.0000       0.003415         0.0929
  50   0.0000       0.044278         1.2049
  51   0.0000       0.050990         1.3875
  52   0.0000       0.061791         1.6814

MULLIKEN ATOMIC CHARGES
-----------------------
   0 C :    0.054413
   1 C :   -0.008351
   2 H :    0.064270
   3 C :    0.046229
   4 H :    0.081110
   5 C :    0.046578
   6 H :    0.088357
   7 C :    0.022941
   8 H :    0.090449
   9 C :    0.181428
  10 H :    0.079444
  11 O :   -0.323132
  12 O :   -0.412792
  13 O :   -0.420882
  14 O :   -0.416964
  15 O :   -0.423501
  16 O :   -0.437216
  17 H :    0.068959
  18 H :    0.084520
  19 H :    0.312537
  20 H :    0.303014
  21 H :    0.319507
  22 H :    0.310862
  23 H :    0.288218
Sum of atomic charges:   -0.0000000

LOEWDIN ATOMIC CHARGES
----------------------
   0 C :   -0.141820
   1 C :   -0.078106
   2 H :    0.112999
   3 C :   -0.074737
   4 H :    0.113752
   5 C :   -0.066798
   6 H :    0.120090
   7 C :   -0.083310
   8 H :    0.122887
   9 C :   -0.009107
  10 H :    0.106166
  11 O :   -0.143705
  12 O :   -0.310737
  13 O :   -0.312987
  14 O :   -0.312664
  15 O :   -0.309794
  16 O :   -0.340510
  17 H :    0.095418
  18 H :    0.115020
  19 H :    0.290859
  20 H :    0.273158
  21 H :    0.273989
  22 H :    0.291293
  23 H :    0.268645

  Mayer bond orders larger than 0.100000
B(  0-C ,  1-C ) :   1.0692 B(  0-C , 16-O ) :   1.0634 B(  0-C , 17-H ) :   0.8930
B(  0-C , 18-H ) :   0.9106 B(  1-C ,  2-H ) :   0.8904 B(  1-C ,  3-C ) :   0.9792
B(  1-C , 11-O ) :   0.9765 B(  3-C ,  4-H ) :   0.8953 B(  3-C ,  5-C ) :   0.9599
B(  3-C , 15-O ) :   0.9937 B(  5-C ,  6-H ) :   0.9008 B(  5-C ,  7-C ) :   1.0133
B(  5-C , 14-O ) :   1.0981 B(  7-C ,  8-H ) :   0.8946 B(  7-C ,  9-C ) :   0.9713
B(  7-C , 13-O ) :   1.0797 B(  9-C , 10-H ) :   0.9033 B(  9-C , 11-O ) :   1.0522
B(  9-C , 12-O ) :   1.0627 B( 12-O , 19-H ) :   0.8291 B( 13-O , 20-H ) :   0.8096
B( 14-O , 21-H ) :   0.7985 B( 15-O , 20-H ) :   0.1026 B( 15-O , 22-H ) :   0.8411
B( 16-O , 23-H ) :   0.8353

Dispersion correction           -0.026148102
FINAL SINGLE POINT ENERGY      -685.698728606036

DIPOLE MOMENT
-------------

Method             : SCF
Type of density    : Electron Density
Multiplicity       :   1
Irrep              :   0
Energy             :  -685.8332561402362444 Eh
Relativity type    :
Basis              : AO
                                X                 Y                 Z
Electronic contribution:      1.860561448      -0.631066543       1.392542365
Nuclear contribution   :     -2.409028771       0.268841844      -0.935323611
                        -----------------------------------------
Total Dipole Moment    :     -0.548467323      -0.362224699       0.457218754
                        -----------------------------------------
Magnitude (a.u.)       :      0.800669798
Magnitude (Debye)      :      2.035140891

Rotational constants in cm-1:             0.042021             0.028206             0.024980
Rotational constants in MHz :          1259.769170           845.594879           748.870108

                             ****ORCA TERMINATED NORMALLY****
TOTAL RUN TIME: 0 days 0 hours 7 minutes 58 seconds 665 msec
