                         Program Version 6.0.1  -  RELEASE   -
|  1> ! pbe def2-sv(p) def2/J RI DEFGRID1 loosescf d4 GCP(DFT/SV(P)) printgap
|  2> %output
|  3>     printlevel normal
|  4> end
|  5> * xyz 0 1
|  6> C -3.1064606257 -0.8994993363 0.1672808661
|  7> O -1.9385971723 -0.5188090632 -0.5464178226
|  8> C -1.0703870435 0.29672779 0.0714912783
|  9> O -1.2441302447 0.7346383776 1.1777111939
| 10> C 0.1039780627 0.6079066044 -0.8388704116
| 11> C 0.7907633134 -0.6816659805 -1.3066104386
| 12> C 1.5036106314 -1.3695408817 -0.1465061977
| 13> C 2.5326697365 -0.4296333773 0.4730366546
| 14> C 1.8512140222 0.8390427005 0.9741451443
| 15> C 1.1074071209 1.5416198849 -0.1589482317
| 16> H -2.9783372342 -1.9113256606 0.5565076697
| 17> H -3.9391112748 -0.8745120235 -0.5336400141
| 18> H -3.2797735035 -0.20875492 0.9947884711
| 19> H -0.3255402341 1.1085423927 -1.7152237666
| 20> H 0.0499965305 -1.3498211269 -1.7480204618
| 21> H 1.5213611106 -0.4265234219 -2.0777724142
| 22> H 0.7727385347 -1.6562593518 0.6131645532
| 23> H 1.9918034661 -2.2790471449 -0.503560778
| 24> H 3.0431180634 -0.9280444275 1.2994465103
| 25> H 3.2837730596 -0.1707412289 -0.2777542387
| 26> H 1.1406223963 0.585927866 1.7612917011
| 27> H 2.5928581767 1.5195218038 1.3972469276
| 28> H 0.5802887116 2.4112352372 0.2366199816
| 29> H 1.8239536351 1.8863374649 -0.9080691727
| 30> *
| 31>
| 32>                          ****END OF INPUT****

CARTESIAN COORDINATES (ANGSTROEM)
---------------------------------
  C     -3.106461   -0.899499    0.167281
  O     -1.938597   -0.518809   -0.546418
  C     -1.070387    0.296728    0.071491
  O     -1.244130    0.734638    1.177711
  C      0.103978    0.607907   -0.838870
  C      0.790763   -0.681666   -1.306610
  C      1.503611   -1.369541   -0.146506
  C      2.532670   -0.429633    0.473037
  C      1.851214    0.839043    0.974145
  C      1.107407    1.541620   -0.158948
  H     -2.978337   -1.911326    0.556508
  H     -3.939111   -0.874512   -0.533640
  H     -3.279774   -0.208755    0.994788
  H     -0.325540    1.108542   -1.715224
  H      0.049997   -1.349821   -1.748020
  H      1.521361   -0.426523   -2.077772
  H      0.772739   -1.656259    0.613165
  H      1.991803   -2.279047   -0.503561
  H      3.043118   -0.928044    1.299447
  H      3.283773   -0.170741   -0.277754
  H      1.140622    0.585928    1.761292
  H      2.592858    1.519522    1.397247
  H      0.580289    2.411235    0.236620
  H      1.823954    1.886337   -0.908069

 Total Charge           Charge          ....    0
 Multiplicity           Mult            ....    1
 Number of Electrons    NEL             ....   78
 Basis Dimension        Dim             ....  168

ORBITAL ENERGIES
----------------

  NO   OCC          E(Eh)            E(eV)
   0   2.0000     -18.796977      -511.4917
   1   2.0000     -18.740233      -509.9477
   2   2.0000     -10.006516      -272.2911
   3   2.0000      -9.938085      -270.4290
   4   2.0000      -9.904168      -269.5061
   5   2.0000      -9.887499      -269.0525
   6   2.0000      -9.882700      -268.9219
   7   2.0000      -9.881707      -268.8949
   8   2.0000      -9.878760      -268.8147
   9   2.0000      -9.873813      -268.6801
  10   2.0000      -1.005919       -27.3725
  11   2.0000      -0.918089       -24.9825
  12   2.0000      -0.760157       -20.6849
  13   2.0000      -0.690759       -18.7965
  14   2.0000      -0.665760       -18.1162
  15   2.0000      -0.648426       -17.6446
  16   2.0000      -0.557905       -15.1814
  17   2.0000      -0.540235       -14.7005
  18   2.0000      -0.513932       -13.9848
  19   2.0000      -0.492376       -13.3982
  20   2.0000      -0.446749       -12.1567
  21   2.0000      -0.435541       -11.8517
  22   2.0000      -0.425131       -11.5684
  23   2.0000      -0.411679       -11.2024
  24   2.0000      -0.393090       -10.6965
  25   2.0000      -0.390346       -10.6218
  26   2.0000      -0.378302       -10.2941
  27   2.0000      -0.359878        -9.7928
  28   2.0000      -0.334122        -9.0919
  29   2.0000      -0.333098        -9.0641
  30   2.0000      -0.327316        -8.9067
  31   2.0000      -0.323780        -8.8105
  32   2.0000      -0.300734        -8.1834
  33   2.0000      -0.297278        -8.0894
  34   2.0000      -0.282066        -7.6754
  35   2.0000      -0.263104        -7.1594
  36   2.0000      -0.258305        -7.0288
  37   2.0000      -0.253590        -6.9005
  38   2.0000      -0.222530        -6.0554
  39   0.0000      -0.023059        -0.6275
  40   0.0000       0.034795         0.9468
  41   0.0000       0.048499         1.3197
  42   0.0000       0.066159         1.8003
  43   0.0000       0.076788         2.0895

MULLIKEN ATOMIC CHARGES
-----------------------
   0 C :   -0.131151
   1 O :   -0.248792
   2 C :    0.132799
   3 O :   -0.179212
   4 C :   -0.182052
   5 C :   -0.127093
   6 C :   -0.161687
   7 C :   -0.154927
   8 C :   -0.167160
   9 C :   -0.094881
  10 H :    0.118267
  11 H :    0.120847
  12 H :    0.130962
  13 H :    0.095147
  14 H :    0.098050
  15 H :    0.078559
  16 H :    0.087261
  17 H :    0.085501
  18 H :    0.083802
  19 H :    0.070354
  20 H :    0.100173
  21 H :    0.081893
  22 H :    0.090709
  23 H :    0.072633
Sum of atomic charges:    0.0000000

LOEWDIN ATOMIC CHARGES
----------------------
   0 C :   -0.212586
   1 O :   -0.076905
   2 C :    0.047372
   3 O :   -0.147864
   4 C :   -0.167151
   5 C :   -0.213321
   6 C :   -0.227961
   7 C :   -0.226168
   8 C :   -0.231777
   9 C :   -0.213249
  10 H :    0.117413
  11 H :    0.119443
  12 H :    0.122362
  13 H :    0.138054
  14 H :    0.119479
  15 H :    0.116658
  16 H :    0.115576
  17 H :    0.117119
  18 H :    0.115637
  19 H :    0.111184
  20 H :    0.122106
  21 H :    0.116035
  22 H :    0.122831
  23 H :    0.115711

  Mayer bond orders larger than 0.100000
B(  0-C ,  1-O ) :   0.9480 B(  0-C , 10-H ) :   0.9586 B(  0-C , 11-H ) :   0.9608
B(  0-C , 12-H ) :   0.9314 B(  1-O ,  2-C ) :   1.1900 B(  2-C ,  3-O ) :   2.0728
B(  2-C ,  4-C ) :   0.9399 B(  4-C ,  5-C ) :   1.0812 B(  4-C ,  9-C ) :   1.0964
B(  4-C , 13-H ) :   0.8631 B(  5-C ,  6-C ) :   1.1281 B(  5-C , 14-H ) :   0.9114
B(  5-C , 15-H ) :   0.9120 B(  6-C ,  7-C ) :   1.1286 B(  6-C , 16-H ) :   0.9113
B(  6-C , 17-H ) :   0.9176 B(  7-C ,  8-C ) :   1.1305 B(  7-C , 18-H ) :   0.9195
B(  7-C , 19-H ) :   0.9152 B(  8-C ,  9-C ) :   1.1283 B(  8-C , 20-H ) :   0.9101
B(  8-C , 21-H ) :   0.9172 B(  9-C , 22-H ) :   0.9095 B(  9-C , 23-H ) :   0.9107

Dispersion correction           -0.023687132
FINAL SINGLE POINT ENERGY      -462.706047162513

DIPOLE MOMENT
-------------

Method             : SCF
Type of density    : Electron Density
Multiplicity       :   1
Irrep              :   0
Energy             :  -462.7943346759061569 Eh
Relativity type    :
Basis              : AO
                                X                 Y                 Z
Electronic contribution:     -6.038548839       1.766082962       0.358441086
Nuclear contribution   :      5.842392069      -2.148453156      -0.839658091
                        -----------------------------------------
Total Dipole Moment    :     -0.196156769      -0.382370195      -0.481217005
                        -----------------------------------------
Magnitude (a.u.)       :      0.645177689
Magnitude (Debye)      :      1.639911359

Rotational constants in cm-1:             0.079672             0.031566             0.028139
Rotational constants in MHz :          2388.507490           946.310938           843.588676

                             ****ORCA TERMINATED NORMALLY****
TOTAL RUN TIME: 0 days 0 hours 0 minutes 8 seconds 576 msec
