                         Program Version 6.0.1  -  RELEASE   -
|  1> ! r2scan-3c def2/J RI DEFGRID2 scfconv6 printgap
|  2> %output
|  3>     printlevel normal
|  4> end
|  5> * xyz 0 1
|  6> C 1.8275557011 -0.1172811518 1.57271e-05
|  7> C 0.6034624523 0.3989890476 -3.57231e-05
|  8> C -0.6034598027 -0.3989468148 -2.37928e-05
|  9> C -1.8275594717 0.1172475862 1.72494e-05
| 10> H 2.7092554594 0.5002749131 0.0001030723
| 11> H 1.9897284967 -1.1830412636 0.0001116433
| 12> H 0.4640153178 1.4724821898 1.9257e-05
| 13> H -0.4639605774 -1.4724857326 -8.70605e-05
| 14> H -2.7092583206 -0.5003162945 0.0001317435
| 15> H -1.9897670173 1.1829829022 3.76114e-05
| 16> *
| 17>
| 18>                          ****END OF INPUT****

CARTESIAN COORDINATES (ANGSTROEM)
---------------------------------
  C      1.827556   -0.117281    0.000016
  C      0.603462    0.398989   -0.000036
  C     -0.603460   -0.398947   -0.000024
  C     -1.827559    0.117248    0.000017
  H      2.709255    0.500275    0.000103
  H      1.989728   -1.183041    0.000112
  H      0.464015    1.472482    0.000019
  H     -0.463961   -1.472486   -0.000087
  H     -2.709258   -0.500316    0.000132
  H     -1.989767    1.182983    0.000038

 Total Charge           Charge          ....    0
 Multiplicity           Mult            ....    1
 Number of Electrons    NEL             ....   30
 Basis Dimension        Dim             ....  106

ORBITAL ENERGIES
----------------

  NO   OCC          E(Eh)            E(eV)
   0   2.0000     -10.040389      -273.2129
   1   2.0000     -10.040118      -273.2055
   2   2.0000     -10.029871      -272.9267
   3   2.0000     -10.029863      -272.9265
   4   2.0000      -0.779483       -21.2108
   5   2.0000      -0.705990       -19.2110
   6   2.0000      -0.577783       -15.7223
   7   2.0000      -0.524962       -14.2849
   8   2.0000      -0.439937       -11.9713
   9   2.0000      -0.434857       -11.8331
  10   2.0000      -0.365584        -9.9480
  11   2.0000      -0.356860        -9.7107
  12   2.0000      -0.316290        -8.6067
  13   2.0000      -0.307929        -8.3792
  14   2.0000      -0.219798        -5.9810
  15   0.0000      -0.058476        -1.5912
  16   0.0000       0.036644         0.9971
  17   0.0000       0.108189         2.9440
  18   0.0000       0.119600         3.2545
  19   0.0000       0.128048         3.4844

MULLIKEN ATOMIC CHARGES
-----------------------
   0 C :   -0.345165
   1 C :   -0.085352
   2 C :   -0.085360
   3 C :   -0.345165
   4 H :    0.143796
   5 H :    0.138599
   6 H :    0.148130
   7 H :    0.148126
   8 H :    0.143796
   9 H :    0.138596
Sum of atomic charges:    0.0000000

LOEWDIN ATOMIC CHARGES
----------------------
   0 C :   -0.295492
   1 C :   -0.185738
   2 C :   -0.185742
   3 C :   -0.295493
   4 H :    0.158640
   5 H :    0.157352
   6 H :    0.165239
   7 H :    0.165244
   8 H :    0.158642
   9 H :    0.157348

  Mayer bond orders larger than 0.100000
B(  0-C ,  1-C ) :   1.8133 B(  0-C ,  3-C ) :   0.1441 B(  0-C ,  4-H ) :   0.9602
B(  0-C ,  5-H ) :   0.9838 B(  1-C ,  2-C ) :   1.0741 B(  1-C ,  6-H ) :   0.9481
B(  2-C ,  3-C ) :   1.8133 B(  2-C ,  7-H ) :   0.9481 B(  3-C ,  8-H ) :   0.9602
B(  3-C ,  9-H ) :   0.9838

Dispersion correction           -0.001868155
FINAL SINGLE POINT ENERGY      -155.936826948584

DIPOLE MOMENT
-------------

Method             : SCF
Type of density    : Electron Density
Multiplicity       :   1
Irrep              :   0
Energy             :  -155.9375492819640385 Eh
Relativity type    :
Basis              : AO
                                X                 Y                 Z
Electronic contribution:     -0.000005160       0.000113691      -0.000205598
Nuclear contribution   :      0.000012533      -0.000096899       0.000296711
                        -----------------------------------------
Total Dipole Moment    :      0.000007372       0.000016792       0.000091112
                        -----------------------------------------
Magnitude (a.u.)       :      0.000092940
Magnitude (Debye)      :      0.000236234

Rotational constants in cm-1:             1.422446             0.150255             0.135899
Rotational constants in MHz :         42643.848238          4504.522371          4074.163458

                             ****ORCA TERMINATED NORMALLY****
TOTAL RUN TIME: 0 days 0 hours 0 minutes 19 seconds 152 msec
