                         Program Version 6.0.0  -   RELEASE  -
|  1> ! r2SCAN-3c DEF2-TZVP FREQ
|  2> * xyzfile 0 1 censo.xyz
|  3>
|  4>                          ****END OF INPUT****

CARTESIAN COORDINATES (ANGSTROEM)
---------------------------------
  C     -1.941288   -1.210564    0.000029
  C     -0.551183   -1.211868    0.000151
  C      0.129053    0.000071    0.000188
  C     -0.549715    1.211409    0.000107
  C     -1.941038    1.209196   -0.000015
  C     -2.634521   -0.000632   -0.000048
  O     -4.007338   -0.056062   -0.000180
  Br     2.049492   -0.000153    0.000398
  H     -2.489715   -2.146459    0.000001
  H     -0.013362   -2.152688    0.000232
  H     -0.013150    2.152979    0.000145
  H     -2.486986    2.148158   -0.000084
  H     -4.358430    0.845688   -0.000214

 Total Charge           Charge          ....    0
 Multiplicity           Mult            ....    1
 Number of Electrons    NEL             ....   84
 Basis Dimension        Dim             ....  295

ORBITAL ENERGIES
----------------

  NO   OCC          E(Eh)            E(eV)
   0   2.0000    -482.224905    -13122.0068
   1   2.0000     -62.295874     -1695.1569
   2   2.0000     -56.077087     -1525.9351
   3   2.0000     -56.073113     -1525.8270
   4   2.0000     -56.073086     -1525.8262
   5   2.0000     -18.998121      -516.9652
   6   2.0000     -10.110840      -275.1299
   7   2.0000     -10.095412      -274.7101
   8   2.0000     -10.058590      -273.7082
   9   2.0000     -10.056739      -273.6578
  10   2.0000     -10.054308      -273.5916
  11   2.0000     -10.048662      -273.4380
  12   2.0000      -8.628898      -234.8042
  13   2.0000      -6.435332      -175.1143
  14   2.0000      -6.423304      -174.7870
  15   2.0000      -6.423037      -174.7797
  16   2.0000      -2.533027       -68.9272
  17   2.0000      -2.530336       -68.8539
  18   2.0000      -2.530150       -68.8489
  19   2.0000      -2.520820       -68.5950
  20   2.0000      -2.520819       -68.5950
  21   2.0000      -1.036752       -28.2115
  22   2.0000      -0.844458       -22.9789
  23   2.0000      -0.767214       -20.8770
  24   2.0000      -0.736547       -20.0425
  25   2.0000      -0.691454       -18.8154
  26   2.0000      -0.608641       -16.5620
  27   2.0000      -0.579104       -15.7582
  28   2.0000      -0.528864       -14.3911
  29   2.0000      -0.469484       -12.7753
  30   2.0000      -0.448252       -12.1976
  31   2.0000      -0.424141       -11.5415
  32   2.0000      -0.410950       -11.1825
  33   2.0000      -0.395942       -10.7741
  34   2.0000      -0.374054       -10.1785
  35   2.0000      -0.345395        -9.3987
  36   2.0000      -0.343232        -9.3398
  37   2.0000      -0.328900        -8.9498
  38   2.0000      -0.276603        -7.5267
  39   2.0000      -0.265305        -7.2193
  40   2.0000      -0.255582        -6.9548
  41   2.0000      -0.210452        -5.7267
  42   0.0000      -0.053195        -1.4475
  43   0.0000      -0.034312        -0.9337
  44   0.0000      -0.026591        -0.7236
  45   0.0000       0.028262         0.7690
  46   0.0000       0.065217         1.7746

MULLIKEN ATOMIC CHARGES
-----------------------
   0 C :   -0.203841
   1 C :   -0.125216
   2 C :    0.080497
   3 C :   -0.155025
   4 C :   -0.200506
   5 C :    0.297552
   6 O :   -0.394609
   7 Br:   -0.106184
   8 H :    0.119512
   9 H :    0.133576
  10 H :    0.134356
  11 H :    0.104296
  12 H :    0.315592
Sum of atomic charges:    0.0000000

LOEWDIN ATOMIC CHARGES
----------------------
   0 C :   -0.111153
   1 C :   -0.138685
   2 C :   -0.378361
   3 C :   -0.142192
   4 C :   -0.138101
   5 C :   -0.266475
   6 O :    0.078966
   7 Br:    0.308088
   8 H :    0.152789
   9 H :    0.150901
  10 H :    0.150413
  11 H :    0.144416
  12 H :    0.189394

  Mayer bond orders larger than 0.100000
B(  0-C ,  1-C ) :   1.3860 B(  0-C ,  5-C ) :   1.3632 B(  0-C ,  8-H ) :   0.9763
B(  1-C ,  2-C ) :   1.3418 B(  1-C ,  9-H ) :   0.9699 B(  2-C ,  3-C ) :   1.3653
B(  2-C ,  7-Br) :   1.0279 B(  3-C ,  4-C ) :   1.3723 B(  3-C , 10-H ) :   0.9553
B(  4-C ,  5-C ) :   1.3257 B(  4-C , 11-H ) :   0.9601 B(  5-C ,  6-O ) :   1.1143
B(  6-O , 12-H ) :   0.8839

Dispersion correction           -0.004563358
FINAL SINGLE POINT ENERGY     -2880.966156046582

DIPOLE MOMENT
-------------

Method             : SCF
Type of density    : Electron Density
Multiplicity       :   1
Irrep              :   0
Energy             : -2880.9656056989729223 Eh
Relativity type    :
Basis              : AO
                                X                 Y                 Z
Electronic contribution:     27.043820021      -0.277187788       0.002652083
Nuclear contribution   :    -27.864856671       0.793656093      -0.002723587
                        -----------------------------------------
Total Dipole Moment    :     -0.821036651       0.516468305      -0.000071504
                        -----------------------------------------
Magnitude (a.u.)       :      0.969969431
Magnitude (Debye)      :      2.465466360

VIBRATIONAL FREQUENCIES
-----------------------

Scaling factor for frequencies =  1.000000000  (already applied!)

     0:       0.00 cm**-1
     1:       0.00 cm**-1
     2:       0.00 cm**-1
     3:       0.00 cm**-1
     4:       0.00 cm**-1
     5:       0.00 cm**-1
     6:     120.36 cm**-1
     7:     224.24 cm**-1
     8:     286.90 cm**-1
     9:     316.84 cm**-1
    10:     418.60 cm**-1
    11:     429.55 cm**-1
    12:     430.81 cm**-1
    13:     507.10 cm**-1
    14:     605.73 cm**-1
    15:     647.03 cm**-1
    16:     703.96 cm**-1
    17:     796.75 cm**-1
    18:     828.34 cm**-1
    19:     828.56 cm**-1
    20:     912.98 cm**-1
    21:     944.18 cm**-1
    22:    1024.14 cm**-1
    23:    1072.87 cm**-1
    24:    1121.89 cm**-1
    25:    1189.00 cm**-1
    26:    1201.56 cm**-1
    27:    1264.90 cm**-1
    28:    1318.84 cm**-1
    29:    1363.85 cm**-1
    30:    1453.74 cm**-1
    31:    1508.71 cm**-1
    32:    1617.71 cm**-1
    33:    1632.86 cm**-1
    34:    3158.85 cm**-1
    35:    3180.88 cm**-1
    36:    3193.24 cm**-1
    37:    3196.73 cm**-1
    38:    3757.45 cm**-1

IR SPECTRUM
-----------

 Mode   freq       eps      Int      T**2         TX        TY        TZ
       cm**-1   L/(mol*cm) km/mol    a.u.
----------------------------------------------------------------------------
  6:    120.36   0.000002    0.01  0.000005  (-0.000017 -0.000001 -0.002333)
  7:    224.24   0.000133    0.67  0.000185  (-0.013524  0.001322 -0.000001)
  8:    286.90   0.000249    1.26  0.000270  (-0.016402  0.001189 -0.000001)
  9:    316.84   0.000051    0.26  0.000051  ( 0.000012  0.000003 -0.007121)
 10:    418.60   0.003268   16.52  0.002436  (-0.000003  0.000014  0.049361)
 11:    429.55   0.015729   79.49  0.011427  ( 0.000015  0.000003 -0.106896)
 12:    430.81   0.001904    9.62  0.001379  ( 0.037040 -0.002667  0.000062)
 13:    507.10   0.004712   23.81  0.002900  ( 0.000005  0.000006 -0.053851)
 14:    605.73   0.006907   34.90  0.003558  (-0.059578 -0.002974 -0.000005)
 15:    647.03   0.000054    0.27  0.000026  ( 0.004964 -0.001079  0.000001)
 16:    703.96   0.000363    1.83  0.000161  (-0.000001 -0.000002  0.012686)
 17:    796.75   0.002878   14.55  0.001127  (-0.000007  0.000003 -0.033576)
 18:    828.34   0.000365    1.84  0.000137  (-0.011690  0.000893  0.000083)
 19:    828.56   0.008179   41.34  0.003081  ( 0.000031 -0.000004  0.055504)
 20:    912.98   0.000040    0.20  0.000014  (-0.000001  0.000004  0.003697)
 21:    944.18   0.000019    0.10  0.000006  (-0.000000  0.000006  0.002531)
 22:   1024.14   0.002745   13.87  0.000836  (-0.028909  0.000808 -0.000004)
 23:   1072.87   0.004720   23.85  0.001373  (-0.037043  0.000854 -0.000004)
 24:   1121.89   0.002979   15.05  0.000829  (-0.015999  0.023930 -0.000002)
 25:   1189.00   0.006081   30.73  0.001596  ( 0.039780 -0.003670  0.000004)
 26:   1201.56   0.038380  193.96  0.009968  (-0.099698 -0.005298 -0.000009)
 27:   1264.90   0.016498   83.37  0.004070  ( 0.063716 -0.003218  0.000006)
 28:   1318.84   0.001166    5.89  0.000276  (-0.012597 -0.010827 -0.000001)
 29:   1363.85   0.004708   23.79  0.001077  (-0.032752  0.002146 -0.000003)
 30:   1453.74   0.007632   38.57  0.001638  ( 0.039785 -0.007448  0.000004)
 31:   1508.71   0.022715  114.79  0.004698  ( 0.068495  0.002633  0.000006)
 32:   1617.71   0.006459   32.64  0.001246  ( 0.035204  0.002564  0.000003)
 33:   1632.86   0.000372    1.88  0.000071  ( 0.004115 -0.007363  0.000000)
 34:   3158.85   0.002458   12.42  0.000243  (-0.013434  0.007899 -0.000001)
 35:   3180.88   0.000432    2.18  0.000042  ( 0.006069  0.002354  0.000000)
 36:   3193.24   0.000278    1.40  0.000027  (-0.000932  0.005126 -0.000000)
 37:   3196.73   0.000187    0.94  0.000018  (-0.002487 -0.003470 -0.000000)
 38:   3757.45   0.012685   64.10  0.001053  ( 0.026673 -0.018494  0.000002)

--------------------------
THERMOCHEMISTRY AT 298.15K
--------------------------

Temperature         ...   298.15 K
Pressure            ...     1.00 atm
Total Mass          ...   173.00 AMU
Quasi RRHO          ...     True
Cut-Off Frequency   ...     1.00 cm^-1

Throughout the following assumptions are being made:
  (1) The electronic state is orbitally nondegenerate
  (2) There are no thermally accessible electronically excited states
  (3) Hindered rotations indicated by low frequency modes are not
      treated as such but are treated as vibrations and this may
      cause some error
  (4) All equations used are the standard statistical mechanics
      equations for an ideal gas
  (5) All vibrations are strictly harmonic

freq.     120.36  E(vib)   ...       0.44
freq.     224.24  E(vib)   ...       0.33
freq.     286.90  E(vib)   ...       0.27
freq.     316.84  E(vib)   ...       0.25
freq.     418.60  E(vib)   ...       0.18
freq.     429.55  E(vib)   ...       0.18
freq.     430.81  E(vib)   ...       0.18
freq.     507.10  E(vib)   ...       0.14
freq.     605.73  E(vib)   ...       0.10
freq.     647.03  E(vib)   ...       0.09
freq.     703.96  E(vib)   ...       0.07
freq.     796.75  E(vib)   ...       0.05
freq.     828.34  E(vib)   ...       0.04
freq.     828.56  E(vib)   ...       0.04
freq.     912.98  E(vib)   ...       0.03
freq.     944.18  E(vib)   ...       0.03
freq.    1024.14  E(vib)   ...       0.02
freq.    1072.87  E(vib)   ...       0.02
freq.    1121.89  E(vib)   ...       0.01
freq.    1189.00  E(vib)   ...       0.01
freq.    1201.56  E(vib)   ...       0.01
freq.    1264.90  E(vib)   ...       0.01
freq.    1318.84  E(vib)   ...       0.01
freq.    1363.85  E(vib)   ...       0.01
freq.    1453.74  E(vib)   ...       0.00
freq.    1508.71  E(vib)   ...       0.00
freq.    1617.71  E(vib)   ...       0.00
freq.    1632.86  E(vib)   ...       0.00
freq.    3158.85  E(vib)   ...       0.00
freq.    3180.88  E(vib)   ...       0.00
freq.    3193.24  E(vib)   ...       0.00
freq.    3196.73  E(vib)   ...       0.00
freq.    3757.45  E(vib)   ...       0.00

------------
INNER ENERGY
------------

The inner energy is: U= E(el) + E(ZPE) + E(vib) + E(rot) + E(trans)
    E(el)   - is the total energy from the electronic structure calculation
              = E(kin-el) + E(nuc-el) + E(el-el) + E(nuc-nuc)
    E(ZPE)  - the the zero temperature vibrational energy from the frequency calculation
    E(vib)  - the the finite temperature correction to E(ZPE) due to population
              of excited vibrational states
    E(rot)  - is the rotational thermal energy
    E(trans)- is the translational thermal energy

Summary of contributions to the inner energy U:
Electronic energy                ...  -2880.96615605 Eh
Zero point energy                ...      0.09399530 Eh      58.98 kcal/mol
Thermal vibrational correction   ...      0.00401759 Eh       2.52 kcal/mol
Thermal rotational correction    ...      0.00141627 Eh       0.89 kcal/mol
Thermal translational correction ...      0.00141627 Eh       0.89 kcal/mol
-----------------------------------------------------------------------
Total thermal energy                  -2880.86531062 Eh

Summary of corrections to the electronic energy:
(perhaps to be used in another calculation)
Total thermal correction                  0.00685013 Eh       4.30 kcal/mol
Non-thermal (ZPE) correction              0.09399530 Eh      58.98 kcal/mol
-----------------------------------------------------------------------
Total correction                          0.10084543 Eh      63.28 kcal/mol

--------
ENTHALPY
--------

The enthalpy is H = U + kB*T
                kB is Boltzmann's constant
Total thermal energy              ...  -2880.86531062 Eh
Thermal Enthalpy correction       ...      0.00094421 Eh       0.59 kcal/mol
-----------------------------------------------------------------------
Total Enthalpy                    ...  -2880.86436641 Eh

Note: Rotational entropy computed according to Herzberg
Infrared and Raman Spectra, Chapter V,1, Van Nostrand Reinhold, 1945
Point Group:  Cs, Symmetry Number:   1
Rotational constants in cm-1:     0.187641     0.020927     0.018828

Vibrational entropy computed according to the QRRHO of S. Grimme
Chem.Eur.J. 2012 18 9955 using a reference frequency of 100.0 cm-1

-------
ENTROPY
-------

The entropy contributions are T*S = T*(S(el)+S(vib)+S(rot)+S(trans))
     S(el)   - electronic entropy
     S(vib)  - vibrational entropy
     S(rot)  - rotational entropy
     S(trans)- translational entropy
The entropies will be listed as multiplied by the temperature to get
units of energy

Electronic entropy                ...      0.00000000 Eh      0.00 kcal/mol
Vibrational entropy               ...      0.00633631 Eh      3.98 kcal/mol
Rotational entropy                ...      0.01400150 Eh      8.79 kcal/mol
Translational entropy             ...      0.01964757 Eh     12.33 kcal/mol
-----------------------------------------------------------------------
Final entropy term                ...      0.03998538 Eh     25.09 kcal/mol

In case the symmetry of your molecule has not been determined correctly
or in case you have a reason to use a different symmetry number we print
out the resulting rotational entropy values for sn=1,12:

 non-linear molecules -----------------------------------
|  sn= 1 | S(rot)=       0.01400150 Eh      8.79 kcal/mol|
|  sn= 2 | S(rot)=       0.01334704 Eh      8.38 kcal/mol|
|  sn= 3 | S(rot)=       0.01296421 Eh      8.14 kcal/mol|
|  sn= 4 | S(rot)=       0.01269259 Eh      7.96 kcal/mol|
|  sn= 5 | S(rot)=       0.01248190 Eh      7.83 kcal/mol|
|  sn= 6 | S(rot)=       0.01230976 Eh      7.72 kcal/mol|
|  sn= 7 | S(rot)=       0.01216421 Eh      7.63 kcal/mol|
|  sn= 8 | S(rot)=       0.01203813 Eh      7.55 kcal/mol|
|  sn= 9 | S(rot)=       0.01192692 Eh      7.48 kcal/mol|
|  sn=10 | S(rot)=       0.01182744 Eh      7.42 kcal/mol|
|  sn=11 | S(rot)=       0.01173745 Eh      7.37 kcal/mol|
|  sn=12 | S(rot)=       0.01165530 Eh      7.31 kcal/mol|
 linear molecules ---------------------------------------
|  Dinfh | S(rot)=       0.00907650 Eh      5.70 kcal/mol|
|  Cinfv | S(rot)=       0.00973096 Eh      6.11 kcal/mol|
 --------------------------------------------------------

-------------------
GIBBS FREE ENERGY
-------------------

The Gibbs free energy is G = H - T*S

Total enthalpy                    ...  -2880.86436641 Eh
Total entropy correction          ...     -0.03998538 Eh    -25.09 kcal/mol
-----------------------------------------------------------------------
Final Gibbs free energy         ...  -2880.90435179 Eh

For completeness - the Gibbs free energy minus the electronic energy
G-E(el)                           ...      0.06180426 Eh     38.78 kcal/mol

                             ****ORCA TERMINATED NORMALLY****
TOTAL RUN TIME: 0 days 0 hours 9 minutes 8 seconds 748 msec
