                         Program Version 6.0.0  -   RELEASE  -
|  1> ! r2SCAN-3c DEF2-TZVP FREQ
|  2> * xyzfile 0 1 vacuum_censo.xyz
|  3>
|  4>                          ****END OF INPUT****

CARTESIAN COORDINATES (ANGSTROEM)
---------------------------------
  C     -1.934044   -1.208728   -0.000015
  C     -0.542692   -1.210256   -0.000060
  C      0.138199   -0.000598   -0.000073
  C     -0.548567    1.208515   -0.000051
  C     -1.937060    1.207067   -0.000008
  C     -2.632790   -0.001519    0.000013
  O     -3.996861    0.062734    0.000060
  Br     2.051526    0.002821   -0.000142
  H     -2.471591   -2.153785    0.000000
  H      0.001474   -2.147337   -0.000077
  H     -0.005188    2.146136   -0.000062
  H     -2.492945    2.138263    0.000014
  H     -4.358548   -0.830491    0.000057

 Total Charge           Charge          ....    0
 Multiplicity           Mult            ....    1
 Number of Electrons    NEL             ....   84
 Basis Dimension        Dim             ....  295

ORBITAL ENERGIES
----------------

  NO   OCC          E(Eh)            E(eV)
   0   2.0000    -482.225106    -13122.0122
   1   2.0000     -62.296079     -1695.1625
   2   2.0000     -56.077292     -1525.9407
   3   2.0000     -56.073313     -1525.8324
   4   2.0000     -56.073287     -1525.8317
   5   2.0000     -18.998778      -516.9830
   6   2.0000     -10.110365      -275.1170
   7   2.0000     -10.094182      -274.6766
   8   2.0000     -10.057660      -273.6828
   9   2.0000     -10.055776      -273.6316
  10   2.0000     -10.053694      -273.5749
  11   2.0000     -10.047571      -273.4083
  12   2.0000      -8.629152      -234.8112
  13   2.0000      -6.435557      -175.1204
  14   2.0000      -6.423577      -174.7944
  15   2.0000      -6.423304      -174.7870
  16   2.0000      -2.533279       -68.9340
  17   2.0000      -2.530589       -68.8608
  18   2.0000      -2.530401       -68.8557
  19   2.0000      -2.521096       -68.6025
  20   2.0000      -2.521095       -68.6025
  21   2.0000      -1.040775       -28.3209
  22   2.0000      -0.844145       -22.9704
  23   2.0000      -0.768051       -20.8997
  24   2.0000      -0.735644       -20.0179
  25   2.0000      -0.691660       -18.8210
  26   2.0000      -0.608988       -16.5714
  27   2.0000      -0.579225       -15.7615
  28   2.0000      -0.529959       -14.4209
  29   2.0000      -0.469337       -12.7713
  30   2.0000      -0.448384       -12.2011
  31   2.0000      -0.423599       -11.5267
  32   2.0000      -0.409746       -11.1498
  33   2.0000      -0.397140       -10.8067
  34   2.0000      -0.374472       -10.1899
  35   2.0000      -0.345879        -9.4119
  36   2.0000      -0.344075        -9.3628
  37   2.0000      -0.327942        -8.9238
  38   2.0000      -0.276902        -7.5349
  39   2.0000      -0.265420        -7.2225
  40   2.0000      -0.254839        -6.9345
  41   2.0000      -0.209775        -5.7083
  42   0.0000      -0.052341        -1.4243
  43   0.0000      -0.033578        -0.9137
  44   0.0000      -0.024768        -0.6740
  45   0.0000       0.029088         0.7915
  46   0.0000       0.066229         1.8022

MULLIKEN ATOMIC CHARGES
-----------------------
   0 C :   -0.205163
   1 C :   -0.153305
   2 C :    0.077865
   3 C :   -0.125658
   4 C :   -0.202658
   5 C :    0.298829
   6 O :   -0.392719
   7 Br:   -0.102067
   8 H :    0.104525
   9 H :    0.133758
  10 H :    0.132332
  11 H :    0.118599
  12 H :    0.315662
Sum of atomic charges:   -0.0000000

LOEWDIN ATOMIC CHARGES
----------------------
   0 C :   -0.138483
   1 C :   -0.142849
   2 C :   -0.384574
   3 C :   -0.139042
   4 C :   -0.111591
   5 C :   -0.273087
   6 O :    0.089100
   7 Br:    0.314507
   8 H :    0.144630
   9 H :    0.150094
  10 H :    0.150622
  11 H :    0.152659
  12 H :    0.188014

  Mayer bond orders larger than 0.100000
B(  0-C ,  1-C ) :   1.3717 B(  0-C ,  5-C ) :   1.3244 B(  0-C ,  8-H ) :   0.9594
B(  1-C ,  2-C ) :   1.3679 B(  1-C ,  9-H ) :   0.9550 B(  2-C ,  3-C ) :   1.3394
B(  2-C ,  7-Br) :   1.0325 B(  3-C ,  4-C ) :   1.3886 B(  3-C , 10-H ) :   0.9707
B(  4-C ,  5-C ) :   1.3590 B(  4-C , 11-H ) :   0.9770 B(  5-C ,  6-O ) :   1.1211
B(  6-O , 12-H ) :   0.8840

Dispersion correction           -0.004565804
FINAL SINGLE POINT ENERGY     -2880.966392589573

DIPOLE MOMENT
-------------

Method             : SCF
Type of density    : Electron Density
Multiplicity       :   1
Irrep              :   0
Energy             : -2880.9658373649040186 Eh
Relativity type    :
Basis              : AO
                                X                 Y                 Z
Electronic contribution:     26.993516395       0.294107685      -0.000893007
Nuclear contribution   :    -27.831141029      -0.811928719       0.000913445
                        -----------------------------------------
Total Dipole Moment    :     -0.837624634      -0.517821033       0.000020438
                        -----------------------------------------
Magnitude (a.u.)       :      0.984760707
Magnitude (Debye)      :      2.503062797

VIBRATIONAL FREQUENCIES
-----------------------

Scaling factor for frequencies =  1.000000000  (already applied!)

     0:       0.00 cm**-1
     1:       0.00 cm**-1
     2:       0.00 cm**-1
     3:       0.00 cm**-1
     4:       0.00 cm**-1
     5:       0.00 cm**-1
     6:     115.15 cm**-1
     7:     222.33 cm**-1
     8:     289.53 cm**-1
     9:     314.39 cm**-1
    10:     361.29 cm**-1
    11:     420.11 cm**-1
    12:     425.76 cm**-1
    13:     504.21 cm**-1
    14:     610.04 cm**-1
    15:     647.70 cm**-1
    16:     703.85 cm**-1
    17:     799.60 cm**-1
    18:     829.77 cm**-1
    19:     833.88 cm**-1
    20:     914.79 cm**-1
    21:     944.70 cm**-1
    22:    1025.75 cm**-1
    23:    1077.01 cm**-1
    24:    1121.01 cm**-1
    25:    1190.58 cm**-1
    26:    1191.39 cm**-1
    27:    1282.20 cm**-1
    28:    1320.09 cm**-1
    29:    1362.89 cm**-1
    30:    1453.41 cm**-1
    31:    1513.41 cm**-1
    32:    1620.76 cm**-1
    33:    1633.71 cm**-1
    34:    3148.84 cm**-1
    35:    3182.10 cm**-1
    36:    3193.47 cm**-1
    37:    3196.78 cm**-1
    38:    3809.90 cm**-1

IR SPECTRUM
-----------

 Mode   freq       eps      Int      T**2         TX        TY        TZ
       cm**-1   L/(mol*cm) km/mol    a.u.
----------------------------------------------------------------------------
  6:    115.15   0.000012    0.06  0.000032  ( 0.000004  0.000001 -0.005651)
  7:    222.33   0.000159    0.80  0.000224  (-0.014935 -0.000693 -0.000001)
  8:    289.53   0.000226    1.14  0.000243  ( 0.015552  0.001216 -0.000001)
  9:    314.39   0.000007    0.03  0.000007  (-0.000004 -0.000001 -0.002593)
 10:    361.29   0.019688   99.49  0.017005  ( 0.000002 -0.000002  0.130404)
 11:    420.11   0.000091    0.46  0.000068  (-0.000000  0.000007 -0.008230)
 12:    425.76   0.001966    9.93  0.001441  ( 0.037905  0.002002 -0.000004)
 13:    504.21   0.004248   21.47  0.002629  (-0.000002 -0.000002 -0.051273)
 14:    610.04   0.006462   32.66  0.003306  ( 0.057424 -0.002843 -0.000002)
 15:    647.70   0.000088    0.44  0.000042  ( 0.006450  0.000754 -0.000000)
 16:    703.85   0.000278    1.40  0.000123  ( 0.000002 -0.000001  0.011095)
 17:    799.60   0.002650   13.39  0.001034  ( 0.000002  0.000001 -0.032159)
 18:    829.77   0.008405   42.48  0.003161  (-0.000005  0.000000  0.056223)
 19:    833.88   0.000274    1.39  0.000103  ( 0.010110  0.000636 -0.000001)
 20:    914.79   0.000021    0.11  0.000007  ( 0.000000  0.000001  0.002665)
 21:    944.70   0.000017    0.09  0.000006  ( 0.000001 -0.000002 -0.002358)
 22:   1025.75   0.002400   12.13  0.000730  ( 0.027006  0.000843 -0.000001)
 23:   1077.01   0.004540   22.94  0.001315  ( 0.036266  0.000461 -0.000001)
 24:   1121.01   0.003623   18.31  0.001009  ( 0.021106  0.023729 -0.000001)
 25:   1190.58   0.021587  109.09  0.005658  (-0.075216  0.000810  0.000002)
 26:   1191.39   0.017723   89.56  0.004642  (-0.067629  0.008278  0.000002)
 27:   1282.20   0.020982  106.04  0.005107  ( 0.071425  0.002279 -0.000002)
 28:   1320.09   0.000954    4.82  0.000225  (-0.009696  0.011466  0.000000)
 29:   1362.89   0.004825   24.38  0.001105  (-0.033137 -0.002584  0.000001)
 30:   1453.41   0.006526   32.98  0.001401  (-0.036758 -0.007069  0.000001)
 31:   1513.41   0.024727  124.96  0.005099  (-0.071364  0.002429  0.000002)
 32:   1620.76   0.006548   33.09  0.001261  ( 0.035185 -0.004775 -0.000001)
 33:   1633.71   0.001529    7.73  0.000292  ( 0.015798  0.006517 -0.000000)
 34:   3148.84   0.002655   13.41  0.000263  ( 0.013836  0.008465 -0.000000)
 35:   3182.10   0.000419    2.12  0.000041  (-0.006127  0.001896  0.000000)
 36:   3193.47   0.000291    1.47  0.000028  (-0.000092 -0.005331 -0.000000)
 37:   3196.78   0.000238    1.20  0.000023  ( 0.002665 -0.004015 -0.000000)
 38:   3809.90   0.013230   66.86  0.001084  ( 0.027232  0.018496 -0.000001)

--------------------------
THERMOCHEMISTRY AT 298.15K
--------------------------

Temperature         ...   298.15 K
Pressure            ...     1.00 atm
Total Mass          ...   173.00 AMU
Quasi RRHO          ...     True
Cut-Off Frequency   ...     1.00 cm^-1

Throughout the following assumptions are being made:
  (1) The electronic state is orbitally nondegenerate
  (2) There are no thermally accessible electronically excited states
  (3) Hindered rotations indicated by low frequency modes are not
      treated as such but are treated as vibrations and this may
      cause some error
  (4) All equations used are the standard statistical mechanics
      equations for an ideal gas
  (5) All vibrations are strictly harmonic

freq.     115.15  E(vib)   ...       0.44
freq.     222.33  E(vib)   ...       0.33
freq.     289.53  E(vib)   ...       0.27
freq.     314.39  E(vib)   ...       0.25
freq.     361.29  E(vib)   ...       0.22
freq.     420.11  E(vib)   ...       0.18
freq.     425.76  E(vib)   ...       0.18
freq.     504.21  E(vib)   ...       0.14
freq.     610.04  E(vib)   ...       0.10
freq.     647.70  E(vib)   ...       0.09
freq.     703.85  E(vib)   ...       0.07
freq.     799.60  E(vib)   ...       0.05
freq.     829.77  E(vib)   ...       0.04
freq.     833.88  E(vib)   ...       0.04
freq.     914.79  E(vib)   ...       0.03
freq.     944.70  E(vib)   ...       0.03
freq.    1025.75  E(vib)   ...       0.02
freq.    1077.01  E(vib)   ...       0.02
freq.    1121.01  E(vib)   ...       0.01
freq.    1190.58  E(vib)   ...       0.01
freq.    1191.39  E(vib)   ...       0.01
freq.    1282.20  E(vib)   ...       0.01
freq.    1320.09  E(vib)   ...       0.01
freq.    1362.89  E(vib)   ...       0.01
freq.    1453.41  E(vib)   ...       0.00
freq.    1513.41  E(vib)   ...       0.00
freq.    1620.76  E(vib)   ...       0.00
freq.    1633.71  E(vib)   ...       0.00
freq.    3148.84  E(vib)   ...       0.00
freq.    3182.10  E(vib)   ...       0.00
freq.    3193.47  E(vib)   ...       0.00
freq.    3196.78  E(vib)   ...       0.00
freq.    3809.90  E(vib)   ...       0.00

------------
INNER ENERGY
------------

The inner energy is: U= E(el) + E(ZPE) + E(vib) + E(rot) + E(trans)
    E(el)   - is the total energy from the electronic structure calculation
              = E(kin-el) + E(nuc-el) + E(el-el) + E(nuc-nuc)
    E(ZPE)  - the the zero temperature vibrational energy from the frequency calculation
    E(vib)  - the the finite temperature correction to E(ZPE) due to population
              of excited vibrational states
    E(rot)  - is the rotational thermal energy
    E(trans)- is the translational thermal energy

Summary of contributions to the inner energy U:
Electronic energy                ...  -2880.96639259 Eh
Zero point energy                ...      0.09399811 Eh      58.98 kcal/mol
Thermal vibrational correction   ...      0.00409556 Eh       2.57 kcal/mol
Thermal rotational correction    ...      0.00141627 Eh       0.89 kcal/mol
Thermal translational correction ...      0.00141627 Eh       0.89 kcal/mol
-----------------------------------------------------------------------
Total thermal energy                  -2880.86546637 Eh

Summary of corrections to the electronic energy:
(perhaps to be used in another calculation)
Total thermal correction                  0.00692811 Eh       4.35 kcal/mol
Non-thermal (ZPE) correction              0.09399811 Eh      58.98 kcal/mol
-----------------------------------------------------------------------
Total correction                          0.10092622 Eh      63.33 kcal/mol

--------
ENTHALPY
--------

The enthalpy is H = U + kB*T
                kB is Boltzmann's constant
Total thermal energy              ...  -2880.86546637 Eh
Thermal Enthalpy correction       ...      0.00094421 Eh       0.59 kcal/mol
-----------------------------------------------------------------------
Total Enthalpy                    ...  -2880.86452216 Eh

Note: Rotational entropy computed according to Herzberg
Infrared and Raman Spectra, Chapter V,1, Van Nostrand Reinhold, 1945
Point Group:  Cs, Symmetry Number:   1
Rotational constants in cm-1:     0.188318     0.020966     0.018865

Vibrational entropy computed according to the QRRHO of S. Grimme
Chem.Eur.J. 2012 18 9955 using a reference frequency of 100.0 cm-1

-------
ENTROPY
-------

The entropy contributions are T*S = T*(S(el)+S(vib)+S(rot)+S(trans))
     S(el)   - electronic entropy
     S(vib)  - vibrational entropy
     S(rot)  - rotational entropy
     S(trans)- translational entropy
The entropies will be listed as multiplied by the temperature to get
units of energy

Electronic entropy                ...      0.00000000 Eh      0.00 kcal/mol
Vibrational entropy               ...      0.00648995 Eh      4.07 kcal/mol
Rotational entropy                ...      0.01399799 Eh      8.78 kcal/mol
Translational entropy             ...      0.01964757 Eh     12.33 kcal/mol
-----------------------------------------------------------------------
Final entropy term                ...      0.04013551 Eh     25.19 kcal/mol

In case the symmetry of your molecule has not been determined correctly
or in case you have a reason to use a different symmetry number we print
out the resulting rotational entropy values for sn=1,12:

 non-linear molecules -----------------------------------
|  sn= 1 | S(rot)=       0.01399799 Eh      8.78 kcal/mol|
|  sn= 2 | S(rot)=       0.01334354 Eh      8.37 kcal/mol|
|  sn= 3 | S(rot)=       0.01296070 Eh      8.13 kcal/mol|
|  sn= 4 | S(rot)=       0.01268908 Eh      7.96 kcal/mol|
|  sn= 5 | S(rot)=       0.01247839 Eh      7.83 kcal/mol|
|  sn= 6 | S(rot)=       0.01230625 Eh      7.72 kcal/mol|
|  sn= 7 | S(rot)=       0.01216070 Eh      7.63 kcal/mol|
|  sn= 8 | S(rot)=       0.01203462 Eh      7.55 kcal/mol|
|  sn= 9 | S(rot)=       0.01192342 Eh      7.48 kcal/mol|
|  sn=10 | S(rot)=       0.01182394 Eh      7.42 kcal/mol|
|  sn=11 | S(rot)=       0.01173395 Eh      7.36 kcal/mol|
|  sn=12 | S(rot)=       0.01165179 Eh      7.31 kcal/mol|
 linear molecules ---------------------------------------
|  Dinfh | S(rot)=       0.00907461 Eh      5.69 kcal/mol|
|  Cinfv | S(rot)=       0.00972906 Eh      6.11 kcal/mol|
 --------------------------------------------------------

-------------------
GIBBS FREE ENERGY
-------------------

The Gibbs free energy is G = H - T*S

Total enthalpy                    ...  -2880.86452216 Eh
Total entropy correction          ...     -0.04013551 Eh    -25.19 kcal/mol
-----------------------------------------------------------------------
Final Gibbs free energy         ...  -2880.90465767 Eh

For completeness - the Gibbs free energy minus the electronic energy
G-E(el)                           ...      0.06173491 Eh     38.74 kcal/mol

                             ****ORCA TERMINATED NORMALLY****
TOTAL RUN TIME: 0 days 0 hours 9 minutes 4 seconds 661 msec
