                         Program Version 6.0.1  -  RELEASE   -
|  1> ! r2scan-3c def2/J RI DEFGRID2 scfconv6 printgap
|  2> %output
|  3>     printlevel normal
|  4> end
|  5> * xyz 0 1
|  6> C 1.4336846812 0.0001074195 0.5825440277
|  7> C 0.9691271153 1.1779004349 -0.2137879038
|  8> C -0.3293586069 1.4915368984 -0.2935753451
|  9> C -1.3992659688 0.6754444651 0.2074449826
| 10> C -1.3992283612 -0.6756132522 0.2073227187
| 11> C -0.3291738008 -1.4915591411 -0.2935948583
| 12> C 0.969268241 -1.1778294285 -0.2136089046
| 13> H 0.9474479346 0.0001238424 1.5626667852
| 14> H 2.5142681479 0.000183238 0.7110360015
| 15> H 1.7133446842 1.7760454479 -0.7202976956
| 16> H -0.6247909619 2.4093590842 -0.7863753661
| 17> H -2.3135786266 1.1917674091 0.4729170448
| 18> H -2.3136161421 -1.1920694548 0.4723972672
| 19> H -0.6243616132 -2.4093167325 -0.7866715729
| 20> H 1.7135842405 -1.7759426361 -0.7200437312
| 21> *
| 22>
| 23>                          ****END OF INPUT****

CARTESIAN COORDINATES (ANGSTROEM)
---------------------------------
  C      1.433685    0.000107    0.582544
  C      0.969127    1.177900   -0.213788
  C     -0.329359    1.491537   -0.293575
  C     -1.399266    0.675444    0.207445
  C     -1.399228   -0.675613    0.207323
  C     -0.329174   -1.491559   -0.293595
  C      0.969268   -1.177829   -0.213609
  H      0.947448    0.000124    1.562667
  H      2.514268    0.000183    0.711036
  H      1.713345    1.776045   -0.720298
  H     -0.624791    2.409359   -0.786375
  H     -2.313579    1.191767    0.472917
  H     -2.313616   -1.192069    0.472397
  H     -0.624362   -2.409317   -0.786672
  H      1.713584   -1.775943   -0.720044

 Total Charge           Charge          ....    0
 Multiplicity           Mult            ....    1
 Number of Electrons    NEL             ....   50
 Basis Dimension        Dim             ....  173

ORBITAL ENERGIES
----------------

  NO   OCC          E(Eh)            E(eV)
   0   2.0000     -10.039046      -273.1763
   1   2.0000     -10.039044      -273.1763
   2   2.0000     -10.035270      -273.0736
   3   2.0000     -10.034958      -273.0651
   4   2.0000     -10.034332      -273.0481
   5   2.0000     -10.028300      -272.8839
   6   2.0000     -10.028293      -272.8837
   7   2.0000      -0.815173       -22.1820
   8   2.0000      -0.736328       -20.0365
   9   2.0000      -0.734672       -19.9914
  10   2.0000      -0.629205       -17.1215
  11   2.0000      -0.597659       -16.2631
  12   2.0000      -0.507398       -13.8070
  13   2.0000      -0.483842       -13.1660
  14   2.0000      -0.468563       -12.7503
  15   2.0000      -0.419931       -11.4269
  16   2.0000      -0.417645       -11.3647
  17   2.0000      -0.399695       -10.8762
  18   2.0000      -0.346665        -9.4332
  19   2.0000      -0.346143        -9.4190
  20   2.0000      -0.325812        -8.8658
  21   2.0000      -0.311235        -8.4691
  22   2.0000      -0.287901        -7.8342
  23   2.0000      -0.229636        -6.2487
  24   2.0000      -0.208130        -5.6635
  25   0.0000      -0.055899        -1.5211
  26   0.0000      -0.010625        -0.2891
  27   0.0000       0.059112         1.6085
  28   0.0000       0.091039         2.4773
  29   0.0000       0.119171         3.2428

MULLIKEN ATOMIC CHARGES
-----------------------
   0 C :   -0.299895
   1 C :   -0.155042
   2 C :   -0.148040
   3 C :   -0.175832
   4 C :   -0.175821
   5 C :   -0.148018
   6 C :   -0.155051
   7 H :    0.195649
   8 H :    0.142959
   9 H :    0.158118
  10 H :    0.152320
  11 H :    0.149115
  12 H :    0.149111
  13 H :    0.152313
  14 H :    0.158114
Sum of atomic charges:    0.0000000

LOEWDIN ATOMIC CHARGES
----------------------
   0 C :   -0.284494
   1 C :   -0.159479
   2 C :   -0.192064
   3 C :   -0.179484
   4 C :   -0.179476
   5 C :   -0.192075
   6 C :   -0.159478
   7 H :    0.176597
   8 H :    0.163036
   9 H :    0.165443
  10 H :    0.170901
  11 H :    0.167113
  12 H :    0.167119
  13 H :    0.170897
  14 H :    0.165444

  Mayer bond orders larger than 0.100000
B(  0-C ,  1-C ) :   0.8961 B(  0-C ,  6-C ) :   0.8961 B(  0-C ,  7-H ) :   1.0026
B(  0-C ,  8-H ) :   0.9697 B(  1-C ,  2-C ) :   1.7758 B(  1-C ,  9-H ) :   0.9351
B(  2-C ,  3-C ) :   1.1713 B(  2-C , 10-H ) :   0.9347 B(  3-C ,  4-C ) :   1.6714
B(  3-C , 11-H ) :   0.9457 B(  4-C ,  5-C ) :   1.1714 B(  4-C , 12-H ) :   0.9457
B(  5-C ,  6-C ) :   1.7759 B(  5-C , 13-H ) :   0.9347 B(  6-C , 14-H ) :   0.9351

Dispersion correction           -0.004675898
FINAL SINGLE POINT ENERGY      -271.425726204567

DIPOLE MOMENT
-------------

Method             : SCF
Type of density    : Electron Density
Multiplicity       :   1
Irrep              :   0
Energy             :  -271.4247014005444498 Eh
Relativity type    :
Basis              : AO
                                X                 Y                 Z
Electronic contribution:     -0.824374726      -0.000060606      -0.255302543
Nuclear contribution   :      0.949705548       0.000140911       0.192914353
                        -----------------------------------------
Total Dipole Moment    :      0.125330823       0.000080306      -0.062388190
                        -----------------------------------------
Magnitude (a.u.)       :      0.140000385
Magnitude (Debye)      :      0.355852699

Rotational constants in cm-1:             0.127086             0.124269             0.070147
Rotational constants in MHz :          3809.928643          3725.501023          2102.940729

                             ****ORCA TERMINATED NORMALLY****
TOTAL RUN TIME: 0 days 0 hours 0 minutes 18 seconds 818 msec
