                         Program Version 6.0.1  -  RELEASE   -
|  1> ! pbe def2-sv(p) def2/J RI DEFGRID1 loosescf d4 GCP(DFT/SV(P)) printgap
|  2> %output
|  3>     printlevel normal
|  4> end
|  5> * xyz 0 1
|  6> C -2.0842298948 -1.2047731106 -0.2276050806
|  7> C -1.2714591328 -0.3435121688 0.7597275893
|  8> H -1.8835966578 -0.1765620381 1.6513410086
|  9> C -0.9303489791 1.031768061 0.1612257709
| 10> H -1.2276970105 1.0448562937 -0.9023341035
| 11> C 0.5850176185 1.297231853 0.2314733335
| 12> H 0.8920109424 1.3906415401 1.2792961859
| 13> C 1.2925202298 0.1018217705 -0.4076799912
| 14> H 0.8735279915 -0.0600658833 -1.4156883558
| 15> C 0.9926770915 -1.142897199 0.4522960673
| 16> H 1.830535424 -1.2953484339 1.1517178587
| 17> O -0.1253906837 -1.0217216258 1.2722505704
| 18> O 0.895224206 -2.2488673927 -0.4194186782
| 19> O 2.6699541755 0.3515194243 -0.4901092928
| 20> O 0.8883928501 2.5264962685 -0.3719069697
| 21> O -1.6374624939 2.0217181179 0.8618319715
| 22> O -1.5120308857 -1.3087258975 -1.5029942722
| 23> H -3.0568797073 -0.7293807513 -0.3689983818
| 24> H -2.2356898888 -2.196903064 0.220017157
| 25> H 0.7038847197 -3.038575904 0.1022747991
| 26> H 3.1034535574 -0.4083348389 -0.8944971066
| 27> H 1.0260046525 2.3938308887 -1.3164087493
| 28> H -1.2013497502 2.8661651289 0.6823890875
| 29> H -0.6625182149 -1.7739687057 -1.4181594598
| 30> *
| 31>
| 32>                          ****END OF INPUT****

CARTESIAN COORDINATES (ANGSTROEM)
---------------------------------
  C     -2.084230   -1.204773   -0.227605
  C     -1.271459   -0.343512    0.759728
  H     -1.883597   -0.176562    1.651341
  C     -0.930349    1.031768    0.161226
  H     -1.227697    1.044856   -0.902334
  C      0.585018    1.297232    0.231473
  H      0.892011    1.390642    1.279296
  C      1.292520    0.101822   -0.407680
  H      0.873528   -0.060066   -1.415688
  C      0.992677   -1.142897    0.452296
  H      1.830535   -1.295348    1.151718
  O     -0.125391   -1.021722    1.272251
  O      0.895224   -2.248867   -0.419419
  O      2.669954    0.351519   -0.490109
  O      0.888393    2.526496   -0.371907
  O     -1.637462    2.021718    0.861832
  O     -1.512031   -1.308726   -1.502994
  H     -3.056880   -0.729381   -0.368998
  H     -2.235690   -2.196903    0.220017
  H      0.703885   -3.038576    0.102275
  H      3.103454   -0.408335   -0.894497
  H      1.026005    2.393831   -1.316409
  H     -1.201350    2.866165    0.682389
  H     -0.662518   -1.773969   -1.418159

 Total Charge           Charge          ....    0
 Multiplicity           Mult            ....    1
 Number of Electrons    NEL             ....   96
 Basis Dimension        Dim             ....  192

ORBITAL ENERGIES
----------------

  NO   OCC          E(Eh)            E(eV)
   0   2.0000     -18.793708      -511.4028
   1   2.0000     -18.778756      -510.9959
   2   2.0000     -18.764476      -510.6073
   3   2.0000     -18.759828      -510.4809
   4   2.0000     -18.742407      -510.0068
   5   2.0000     -18.741299      -509.9767
   6   2.0000     -10.001110      -272.1440
   7   2.0000      -9.955269      -270.8966
   8   2.0000      -9.945771      -270.6382
   9   2.0000      -9.943197      -270.5681
  10   2.0000      -9.936576      -270.3880
  11   2.0000      -9.930539      -270.2237
  12   2.0000      -0.998818       -27.1792
  13   2.0000      -0.953222       -25.9385
  14   2.0000      -0.939927       -25.5767
  15   2.0000      -0.930541       -25.3213
  16   2.0000      -0.918109       -24.9830
  17   2.0000      -0.915172       -24.9031
  18   2.0000      -0.707978       -19.2651
  19   2.0000      -0.700350       -19.0575
  20   2.0000      -0.622960       -16.9516
  21   2.0000      -0.587438       -15.9850
  22   2.0000      -0.579418       -15.7668
  23   2.0000      -0.538862       -14.6632
  24   2.0000      -0.513600       -13.9758
  25   2.0000      -0.484532       -13.1848
  26   2.0000      -0.468607       -12.7514
  27   2.0000      -0.454903       -12.3785
  28   2.0000      -0.450826       -12.2676
  29   2.0000      -0.442343       -12.0368
  30   2.0000      -0.431364       -11.7380
  31   2.0000      -0.402152       -10.9431
  32   2.0000      -0.396947       -10.8015
  33   2.0000      -0.370736       -10.0882
  34   2.0000      -0.365024        -9.9328
  35   2.0000      -0.354193        -9.6381
  36   2.0000      -0.344797        -9.3824
  37   2.0000      -0.324526        -8.8308
  38   2.0000      -0.306497        -8.3402
  39   2.0000      -0.295251        -8.0342
  40   2.0000      -0.283495        -7.7143
  41   2.0000      -0.274864        -7.4794
  42   2.0000      -0.271384        -7.3847
  43   2.0000      -0.248909        -6.7732
  44   2.0000      -0.239108        -6.5065
  45   2.0000      -0.234063        -6.3692
  46   2.0000      -0.210184        -5.7194
  47   2.0000      -0.204477        -5.5641
  48   0.0000       0.008890         0.2419
  49   0.0000       0.014883         0.4050
  50   0.0000       0.041840         1.1385
  51   0.0000       0.050083         1.3628
  52   0.0000       0.054721         1.4890

MULLIKEN ATOMIC CHARGES
-----------------------
   0 C :    0.011531
   1 C :    0.051368
   2 H :    0.084384
   3 C :    0.063220
   4 H :    0.061132
   5 C :    0.056667
   6 H :    0.073157
   7 C :   -0.015047
   8 H :    0.056572
   9 C :    0.165274
  10 H :    0.075134
  11 O :   -0.302920
  12 O :   -0.410703
  13 O :   -0.396658
  14 O :   -0.408670
  15 O :   -0.415480
  16 O :   -0.442074
  17 H :    0.099023
  18 H :    0.070952
  19 H :    0.311417
  20 H :    0.306760
  21 H :    0.304571
  22 H :    0.301983
  23 H :    0.298409
Sum of atomic charges:    0.0000000

LOEWDIN ATOMIC CHARGES
----------------------
   0 C :   -0.135725
   1 C :   -0.066854
   2 H :    0.129795
   3 C :   -0.076273
   4 H :    0.101945
   5 C :   -0.074375
   6 H :    0.121483
   7 C :   -0.094637
   8 H :    0.103344
   9 C :   -0.012914
  10 H :    0.106410
  11 O :   -0.135914
  12 O :   -0.313361
  13 O :   -0.311331
  14 O :   -0.304287
  15 O :   -0.322244
  16 O :   -0.346338
  17 H :    0.121928
  18 H :    0.095816
  19 H :    0.290083
  20 H :    0.290434
  21 H :    0.289656
  22 H :    0.282090
  23 H :    0.261271

  Mayer bond orders larger than 0.100000
B(  0-C ,  1-C ) :   1.0325 B(  0-C , 16-O ) :   1.0940 B(  0-C , 17-H ) :   0.9200
B(  0-C , 18-H ) :   0.9132 B(  1-C ,  2-H ) :   0.8766 B(  1-C ,  3-C ) :   0.9774
B(  1-C , 11-O ) :   0.9911 B(  3-C ,  4-H ) :   0.8721 B(  3-C ,  5-C ) :   1.0121
B(  3-C , 15-O ) :   1.0824 B(  5-C ,  6-H ) :   0.8649 B(  5-C ,  7-C ) :   1.0215
B(  5-C , 14-O ) :   1.0641 B(  7-C ,  8-H ) :   0.8675 B(  7-C ,  9-C ) :   1.0038
B(  7-C , 13-O ) :   1.0925 B(  9-C , 10-H ) :   0.8896 B(  9-C , 11-O ) :   1.1000
B(  9-C , 12-O ) :   1.0405 B( 12-O , 19-H ) :   0.8336 B( 12-O , 23-H ) :   0.1221
B( 13-O , 20-H ) :   0.8467 B( 14-O , 21-H ) :   0.8460 B( 15-O , 22-H ) :   0.8333
B( 16-O , 23-H ) :   0.7863

Dispersion correction           -0.025316631
FINAL SINGLE POINT ENERGY      -685.696826904255

DIPOLE MOMENT
-------------

Method             : SCF
Type of density    : Electron Density
Multiplicity       :   1
Irrep              :   0
Energy             :  -685.8297867892903241 Eh
Relativity type    :
Basis              : AO
                                X                 Y                 Z
Electronic contribution:      2.362834767       0.902060499       0.938263764
Nuclear contribution   :     -1.707189557      -1.856250341      -1.162692595
                        -----------------------------------------
Total Dipole Moment    :      0.655645210      -0.954189842      -0.224428831
                        -----------------------------------------
Magnitude (a.u.)       :      1.179286732
Magnitude (Debye)      :      2.997508658

Rotational constants in cm-1:             0.035829             0.032784             0.021547
Rotational constants in MHz :          1074.125231           982.830952           645.973505

                             ****ORCA TERMINATED NORMALLY****
TOTAL RUN TIME: 0 days 0 hours 0 minutes 9 seconds 702 msec
