                         Program Version 6.0.0  -   RELEASE  -
|  1> ! r2SCAN-3c DEF2-TZVP FREQ
|  2> * xyzfile 0 1 censo.xyz
|  3>
|  4>                          ****END OF INPUT****

CARTESIAN COORDINATES (ANGSTROEM)
---------------------------------
  C     -0.000055    0.000075   -1.839885
  C      0.000050    0.000078   -0.335327
  Cl    -1.634342    0.438825    0.306038
  Cl     0.435725   -1.635182    0.305930
  Cl     1.197946    1.195668    0.304134
  H     -0.265653    0.995162   -2.204132
  H      0.994493   -0.267379   -2.204238
  H     -0.728762   -0.727219   -2.204681

 Total Charge           Charge          ....    0
 Multiplicity           Mult            ....    1
 Number of Electrons    NEL             ....   66
 Basis Dimension        Dim             ....  191

ORBITAL ENERGIES
----------------

  NO   OCC          E(Eh)            E(eV)
   0   2.0000    -101.206105     -2753.9581
   1   2.0000    -101.205991     -2753.9550
   2   2.0000    -101.205990     -2753.9550
   3   2.0000     -10.230640      -278.3899
   4   2.0000     -10.067976      -273.9636
   5   2.0000      -9.382301      -255.3054
   6   2.0000      -9.382188      -255.3023
   7   2.0000      -9.382187      -255.3023
   8   2.0000      -7.127667      -193.9537
   9   2.0000      -7.127545      -193.9504
  10   2.0000      -7.127544      -193.9503
  11   2.0000      -7.116917      -193.6612
  12   2.0000      -7.116806      -193.6581
  13   2.0000      -7.116806      -193.6581
  14   2.0000      -7.116698      -193.6552
  15   2.0000      -7.116589      -193.6522
  16   2.0000      -7.116589      -193.6522
  17   2.0000      -0.904056       -24.6006
  18   2.0000      -0.796066       -21.6620
  19   2.0000      -0.795893       -21.6574
  20   2.0000      -0.728705       -19.8291
  21   2.0000      -0.573837       -15.6149
  22   2.0000      -0.467512       -12.7217
  23   2.0000      -0.467451       -12.7200
  24   2.0000      -0.441960       -12.0264
  25   2.0000      -0.386547       -10.5185
  26   2.0000      -0.386489       -10.5169
  27   2.0000      -0.325168        -8.8483
  28   2.0000      -0.325111        -8.8467
  29   2.0000      -0.304865        -8.2958
  30   2.0000      -0.291770        -7.9395
  31   2.0000      -0.291678        -7.9370
  32   2.0000      -0.279633        -7.6092
  33   0.0000      -0.071567        -1.9474
  34   0.0000      -0.026633        -0.7247
  35   0.0000      -0.026427        -0.7191
  36   0.0000       0.058682         1.5968
  37   0.0000       0.099849         2.7170

MULLIKEN ATOMIC CHARGES
-----------------------
   0 C :   -0.307126
   1 C :    0.186258
   2 Cl:   -0.091627
   3 Cl:   -0.091628
   4 Cl:   -0.091217
   5 H :    0.131785
   6 H :    0.131785
   7 H :    0.131771
Sum of atomic charges:    0.0000000

LOEWDIN ATOMIC CHARGES
----------------------
   0 C :   -0.339726
   1 C :   -1.017736
   2 Cl:    0.317806
   3 Cl:    0.317802
   4 Cl:    0.318541
   5 H :    0.134468
   6 H :    0.134467
   7 H :    0.134378

  Mayer bond orders larger than 0.100000
B(  0-C ,  1-C ) :   0.9909 B(  0-C ,  5-H ) :   0.9509 B(  0-C ,  6-H ) :   0.9509
B(  0-C ,  7-H ) :   0.9509 B(  1-C ,  2-Cl) :   1.0807 B(  1-C ,  3-Cl) :   1.0807
B(  1-C ,  4-Cl) :   1.0814

Dispersion correction           -0.002585053
FINAL SINGLE POINT ENERGY     -1458.543381160134

DIPOLE MOMENT
-------------

Method             : SCF
Type of density    : Electron Density
Multiplicity       :   1
Irrep              :   0
Energy             : -1458.5482028598780744 Eh
Relativity type    :
Basis              : AO
                                X                 Y                 Z
Electronic contribution:      0.000023079      -0.000420609       6.653273897
Nuclear contribution   :      0.000758559       0.001252862      -7.436660612
                        -----------------------------------------
Total Dipole Moment    :      0.000781637       0.000832253      -0.783386715
                        -----------------------------------------
Magnitude (a.u.)       :      0.783387547
Magnitude (Debye)      :      1.991212901

VIBRATIONAL FREQUENCIES
-----------------------

Scaling factor for frequencies =  1.000000000  (already applied!)

     0:       0.00 cm**-1
     1:       0.00 cm**-1
     2:       0.00 cm**-1
     3:       0.00 cm**-1
     4:       0.00 cm**-1
     5:       0.00 cm**-1
     6:     237.28 cm**-1
     7:     237.45 cm**-1
     8:     313.01 cm**-1
     9:     340.66 cm**-1
    10:     341.06 cm**-1
    11:     341.19 cm**-1
    12:     510.86 cm**-1
    13:     637.43 cm**-1
    14:     638.10 cm**-1
    15:    1079.35 cm**-1
    16:    1091.06 cm**-1
    17:    1091.20 cm**-1
    18:    1407.50 cm**-1
    19:    1469.75 cm**-1
    20:    1469.98 cm**-1
    21:    3032.95 cm**-1
    22:    3127.04 cm**-1
    23:    3127.49 cm**-1

IR SPECTRUM
-----------

 Mode   freq       eps      Int      T**2         TX        TY        TZ
       cm**-1   L/(mol*cm) km/mol    a.u.
----------------------------------------------------------------------------
  6:    237.28   0.000009    0.04  0.000011  ( 0.002331 -0.002462  0.000001)
  7:    237.45   0.000008    0.04  0.000011  ( 0.002398  0.002261 -0.000005)
  8:    313.01   0.000000    0.00  0.000000  (-0.000239  0.000243 -0.000001)
  9:    340.66   0.000147    0.74  0.000135  ( 0.003970  0.004145 -0.010099)
 10:    341.06   0.000942    4.76  0.000862  (-0.020225  0.021272  0.000100)
 11:    341.19   0.000916    4.63  0.000837  (-0.020954 -0.019852 -0.002069)
 12:    510.86   0.002519   12.73  0.001539  (-0.000059 -0.000046 -0.039224)
 13:    637.43   0.028424  143.64  0.013916  ( 0.084491  0.082321 -0.000136)
 14:    638.10   0.028328  143.16  0.013854  (-0.082135  0.084306  0.000003)
 15:   1079.35   0.005352   27.05  0.001548  ( 0.000086  0.000082  0.039338)
 16:   1091.06   0.010314   52.12  0.002950  (-0.038900 -0.037903  0.000171)
 17:   1091.20   0.010315   52.13  0.002950  (-0.037902  0.038902  0.000001)
 18:   1407.50   0.002219   11.21  0.000492  ( 0.000014  0.000017 -0.022180)
 19:   1469.75   0.000684    3.46  0.000145  ( 0.008681  0.008357  0.000380)
 20:   1469.98   0.000679    3.43  0.000144  ( 0.008323 -0.008649 -0.000009)
 21:   3032.95   0.000400    2.02  0.000041  (-0.000067 -0.000067  0.006416)
 22:   3127.04   0.000543    2.75  0.000054  (-0.005148 -0.005266  0.000046)
 23:   3127.49   0.000500    2.53  0.000050  ( 0.005057 -0.004935 -0.000001)

--------------------------
THERMOCHEMISTRY AT 298.15K
--------------------------

Temperature         ...   298.15 K
Pressure            ...     1.00 atm
Total Mass          ...   133.41 AMU
Quasi RRHO          ...     True
Cut-Off Frequency   ...     1.00 cm^-1

Throughout the following assumptions are being made:
  (1) The electronic state is orbitally nondegenerate
  (2) There are no thermally accessible electronically excited states
  (3) Hindered rotations indicated by low frequency modes are not
      treated as such but are treated as vibrations and this may
      cause some error
  (4) All equations used are the standard statistical mechanics
      equations for an ideal gas
  (5) All vibrations are strictly harmonic

freq.     237.28  E(vib)   ...       0.32
freq.     237.45  E(vib)   ...       0.32
freq.     313.01  E(vib)   ...       0.25
freq.     340.66  E(vib)   ...       0.23
freq.     341.06  E(vib)   ...       0.23
freq.     341.19  E(vib)   ...       0.23
freq.     510.86  E(vib)   ...       0.14
freq.     637.43  E(vib)   ...       0.09
freq.     638.10  E(vib)   ...       0.09
freq.    1079.35  E(vib)   ...       0.02
freq.    1091.06  E(vib)   ...       0.02
freq.    1091.20  E(vib)   ...       0.02
freq.    1407.50  E(vib)   ...       0.00
freq.    1469.75  E(vib)   ...       0.00
freq.    1469.98  E(vib)   ...       0.00
freq.    3032.95  E(vib)   ...       0.00
freq.    3127.04  E(vib)   ...       0.00
freq.    3127.49  E(vib)   ...       0.00

------------
INNER ENERGY
------------

The inner energy is: U= E(el) + E(ZPE) + E(vib) + E(rot) + E(trans)
    E(el)   - is the total energy from the electronic structure calculation
              = E(kin-el) + E(nuc-el) + E(el-el) + E(nuc-nuc)
    E(ZPE)  - the the zero temperature vibrational energy from the frequency calculation
    E(vib)  - the the finite temperature correction to E(ZPE) due to population
              of excited vibrational states
    E(rot)  - is the rotational thermal energy
    E(trans)- is the translational thermal energy

Summary of contributions to the inner energy U:
Electronic energy                ...  -1458.54338116 Eh
Zero point energy                ...      0.04668728 Eh      29.30 kcal/mol
Thermal vibrational correction   ...      0.00312134 Eh       1.96 kcal/mol
Thermal rotational correction    ...      0.00141627 Eh       0.89 kcal/mol
Thermal translational correction ...      0.00141627 Eh       0.89 kcal/mol
-----------------------------------------------------------------------
Total thermal energy                  -1458.49074000 Eh

Summary of corrections to the electronic energy:
(perhaps to be used in another calculation)
Total thermal correction                  0.00595388 Eh       3.74 kcal/mol
Non-thermal (ZPE) correction              0.04668728 Eh      29.30 kcal/mol
-----------------------------------------------------------------------
Total correction                          0.05264116 Eh      33.03 kcal/mol

--------
ENTHALPY
--------

The enthalpy is H = U + kB*T
                kB is Boltzmann's constant
Total thermal energy              ...  -1458.49074000 Eh
Thermal Enthalpy correction       ...      0.00094421 Eh       0.59 kcal/mol
-----------------------------------------------------------------------
Total Enthalpy                    ...  -1458.48979579 Eh

Note: Rotational entropy computed according to Herzberg
Infrared and Raman Spectra, Chapter V,1, Van Nostrand Reinhold, 1945
Point Group:  Cs, Symmetry Number:   1
Rotational constants in cm-1:     0.076474     0.076409     0.054765

Vibrational entropy computed according to the QRRHO of S. Grimme
Chem.Eur.J. 2012 18 9955 using a reference frequency of 100.0 cm-1

-------
ENTROPY
-------

The entropy contributions are T*S = T*(S(el)+S(vib)+S(rot)+S(trans))
     S(el)   - electronic entropy
     S(vib)  - vibrational entropy
     S(rot)  - rotational entropy
     S(trans)- translational entropy
The entropies will be listed as multiplied by the temperature to get
units of energy

Electronic entropy                ...      0.00000000 Eh      0.00 kcal/mol
Vibrational entropy               ...      0.00488970 Eh      3.07 kcal/mol
Rotational entropy                ...      0.01330981 Eh      8.35 kcal/mol
Translational entropy             ...      0.01927944 Eh     12.10 kcal/mol
-----------------------------------------------------------------------
Final entropy term                ...      0.03747894 Eh     23.52 kcal/mol

In case the symmetry of your molecule has not been determined correctly
or in case you have a reason to use a different symmetry number we print
out the resulting rotational entropy values for sn=1,12:

 non-linear molecules -----------------------------------
|  sn= 1 | S(rot)=       0.01330981 Eh      8.35 kcal/mol|
|  sn= 2 | S(rot)=       0.01265535 Eh      7.94 kcal/mol|
|  sn= 3 | S(rot)=       0.01227252 Eh      7.70 kcal/mol|
|  sn= 4 | S(rot)=       0.01200089 Eh      7.53 kcal/mol|
|  sn= 5 | S(rot)=       0.01179020 Eh      7.40 kcal/mol|
|  sn= 6 | S(rot)=       0.01161806 Eh      7.29 kcal/mol|
|  sn= 7 | S(rot)=       0.01147251 Eh      7.20 kcal/mol|
|  sn= 8 | S(rot)=       0.01134644 Eh      7.12 kcal/mol|
|  sn= 9 | S(rot)=       0.01123523 Eh      7.05 kcal/mol|
|  sn=10 | S(rot)=       0.01113575 Eh      6.99 kcal/mol|
|  sn=11 | S(rot)=       0.01104576 Eh      6.93 kcal/mol|
|  sn=12 | S(rot)=       0.01096360 Eh      6.88 kcal/mol|
 linear molecules ---------------------------------------
|  Dinfh | S(rot)=       0.00806838 Eh      5.06 kcal/mol|
|  Cinfv | S(rot)=       0.00872283 Eh      5.47 kcal/mol|
 --------------------------------------------------------

-------------------
GIBBS FREE ENERGY
-------------------

The Gibbs free energy is G = H - T*S

Total enthalpy                    ...  -1458.48979579 Eh
Total entropy correction          ...     -0.03747894 Eh    -23.52 kcal/mol
-----------------------------------------------------------------------
Final Gibbs free energy         ...  -1458.52727473 Eh

For completeness - the Gibbs free energy minus the electronic energy
G-E(el)                           ...      0.01610643 Eh     10.11 kcal/mol

                             ****ORCA TERMINATED NORMALLY****
TOTAL RUN TIME: 0 days 0 hours 2 minutes 38 seconds 423 msec
