                         Program Version 6.0.0  -   RELEASE  -
|  1> ! r2SCAN-3c DEF2-TZVP FREQ
|  2> * xyzfile 0 1 vacuum_censo.xyz
|  3>
|  4>                          ****END OF INPUT****

CARTESIAN COORDINATES (ANGSTROEM)
---------------------------------
  C     -0.000030   -0.000019    1.832527
  C     -0.000036   -0.000121    0.321420
  Cl     0.595315   -1.584632   -0.301872
  Cl    -1.670038    0.276935   -0.301984
  Cl     1.074865    1.307809   -0.301966
  H     -0.361796    0.964754    2.194048
  H     -0.654503   -0.795857    2.194042
  H      1.016489   -0.169088    2.193754

 Total Charge           Charge          ....    0
 Multiplicity           Mult            ....    1
 Number of Electrons    NEL             ....   66
 Basis Dimension        Dim             ....  191

ORBITAL ENERGIES
----------------

  NO   OCC          E(Eh)            E(eV)
   0   2.0000    -101.206353     -2753.9649
   1   2.0000    -101.206317     -2753.9639
   2   2.0000    -101.206292     -2753.9632
   3   2.0000     -10.229917      -278.3702
   4   2.0000     -10.067043      -273.9382
   5   2.0000      -9.382629      -255.3143
   6   2.0000      -9.382594      -255.3134
   7   2.0000      -9.382570      -255.3127
   8   2.0000      -7.127978      -193.9621
   9   2.0000      -7.127937      -193.9610
  10   2.0000      -7.127911      -193.9603
  11   2.0000      -7.117250      -193.6702
  12   2.0000      -7.117216      -193.6693
  13   2.0000      -7.117194      -193.6687
  14   2.0000      -7.117017      -193.6639
  15   2.0000      -7.116985      -193.6630
  16   2.0000      -7.116961      -193.6623
  17   2.0000      -0.905505       -24.6400
  18   2.0000      -0.797241       -21.6940
  19   2.0000      -0.797191       -21.6927
  20   2.0000      -0.726669       -19.7737
  21   2.0000      -0.573844       -15.6151
  22   2.0000      -0.467823       -12.7301
  23   2.0000      -0.467803       -12.7296
  24   2.0000      -0.441008       -12.0004
  25   2.0000      -0.386815       -10.5258
  26   2.0000      -0.386792       -10.5251
  27   2.0000      -0.325526        -8.8580
  28   2.0000      -0.325514        -8.8577
  29   2.0000      -0.303502        -8.2587
  30   2.0000      -0.292490        -7.9591
  31   2.0000      -0.292469        -7.9585
  32   2.0000      -0.280213        -7.6250
  33   0.0000      -0.070663        -1.9229
  34   0.0000      -0.024216        -0.6589
  35   0.0000      -0.024152        -0.6572
  36   0.0000       0.059167         1.6100
  37   0.0000       0.097717         2.6590

MULLIKEN ATOMIC CHARGES
-----------------------
   0 C :   -0.306995
   1 C :    0.185598
   2 Cl:   -0.089979
   3 Cl:   -0.090152
   4 Cl:   -0.090214
   5 H :    0.130587
   6 H :    0.130584
   7 H :    0.130570
Sum of atomic charges:    0.0000000

LOEWDIN ATOMIC CHARGES
----------------------
   0 C :   -0.340829
   1 C :   -1.030543
   2 Cl:    0.324276
   3 Cl:    0.324040
   4 Cl:    0.323893
   5 H :    0.133047
   6 H :    0.133055
   7 H :    0.133061

  Mayer bond orders larger than 0.100000
B(  0-C ,  1-C ) :   0.9881 B(  0-C ,  5-H ) :   0.9519 B(  0-C ,  6-H ) :   0.9519
B(  0-C ,  7-H ) :   0.9519 B(  1-C ,  2-Cl) :   1.0838 B(  1-C ,  3-Cl) :   1.0836
B(  1-C ,  4-Cl) :   1.0835

Dispersion correction           -0.002587149
FINAL SINGLE POINT ENERGY     -1458.543610093938

DIPOLE MOMENT
-------------

Method             : SCF
Type of density    : Electron Density
Multiplicity       :   1
Irrep              :   0
Energy             : -1458.5484790024345330 Eh
Relativity type    :
Basis              : AO
                                X                 Y                 Z
Electronic contribution:     -0.000086650      -0.000227327      -6.631802404
Nuclear contribution   :      0.000027581      -0.000310519       7.394287895
                        -----------------------------------------
Total Dipole Moment    :     -0.000059069      -0.000537847       0.762485491
                        -----------------------------------------
Magnitude (a.u.)       :      0.762485683
Magnitude (Debye)      :      1.938084585

VIBRATIONAL FREQUENCIES
-----------------------

Scaling factor for frequencies =  1.000000000  (already applied!)

     0:       0.00 cm**-1
     1:       0.00 cm**-1
     2:       0.00 cm**-1
     3:       0.00 cm**-1
     4:       0.00 cm**-1
     5:       0.00 cm**-1
     6:     237.37 cm**-1
     7:     237.55 cm**-1
     8:     313.55 cm**-1
     9:     341.08 cm**-1
    10:     344.72 cm**-1
    11:     344.94 cm**-1
    12:     513.90 cm**-1
    13:     648.30 cm**-1
    14:     649.29 cm**-1
    15:    1065.29 cm**-1
    16:    1092.72 cm**-1
    17:    1093.02 cm**-1
    18:    1404.35 cm**-1
    19:    1470.00 cm**-1
    20:    1470.04 cm**-1
    21:    3035.37 cm**-1
    22:    3131.14 cm**-1
    23:    3132.02 cm**-1

IR SPECTRUM
-----------

 Mode   freq       eps      Int      T**2         TX        TY        TZ
       cm**-1   L/(mol*cm) km/mol    a.u.
----------------------------------------------------------------------------
  6:    237.37   0.000008    0.04  0.000010  ( 0.003177 -0.000097 -0.000217)
  7:    237.55   0.000008    0.04  0.000011  ( 0.000155 -0.003268  0.000033)
  8:    313.55   0.000001    0.00  0.000001  (-0.000221  0.000564  0.000366)
  9:    341.08   0.000123    0.62  0.000112  ( 0.000232  0.000932 -0.010552)
 10:    344.72   0.000834    4.21  0.000755  ( 0.023809  0.013712 -0.000137)
 11:    344.94   0.000839    4.24  0.000759  (-0.013562  0.023971  0.000364)
 12:    513.90   0.002358   11.92  0.001432  ( 0.000146 -0.000137 -0.037844)
 13:    648.30   0.028441  143.73  0.013690  ( 0.018660 -0.115508  0.000035)
 14:    649.29   0.028425  143.65  0.013662  (-0.115391 -0.018618 -0.000108)
 15:   1065.29   0.004994   25.24  0.001463  (-0.000183  0.000047  0.038249)
 16:   1092.72   0.010203   51.56  0.002914  ( 0.020180  0.050066 -0.000021)
 17:   1093.02   0.010187   51.48  0.002908  (-0.050029  0.020141 -0.000005)
 18:   1404.35   0.002042   10.32  0.000454  ( 0.000009  0.000009 -0.021300)
 19:   1470.00   0.000679    3.43  0.000144  (-0.002649 -0.011706  0.000086)
 20:   1470.04   0.000661    3.34  0.000140  ( 0.011548 -0.002618 -0.000351)
 21:   3035.37   0.000458    2.31  0.000047  (-0.000114  0.000038  0.006860)
 22:   3131.14   0.000612    3.09  0.000061  (-0.006092 -0.004877 -0.000234)
 23:   3132.02   0.000562    2.84  0.000056  ( 0.004669 -0.005846 -0.000011)

--------------------------
THERMOCHEMISTRY AT 298.15K
--------------------------

Temperature         ...   298.15 K
Pressure            ...     1.00 atm
Total Mass          ...   133.41 AMU
Quasi RRHO          ...     True
Cut-Off Frequency   ...     1.00 cm^-1

Throughout the following assumptions are being made:
  (1) The electronic state is orbitally nondegenerate
  (2) There are no thermally accessible electronically excited states
  (3) Hindered rotations indicated by low frequency modes are not
      treated as such but are treated as vibrations and this may
      cause some error
  (4) All equations used are the standard statistical mechanics
      equations for an ideal gas
  (5) All vibrations are strictly harmonic

freq.     237.37  E(vib)   ...       0.32
freq.     237.55  E(vib)   ...       0.32
freq.     313.55  E(vib)   ...       0.25
freq.     341.08  E(vib)   ...       0.23
freq.     344.72  E(vib)   ...       0.23
freq.     344.94  E(vib)   ...       0.23
freq.     513.90  E(vib)   ...       0.13
freq.     648.30  E(vib)   ...       0.08
freq.     649.29  E(vib)   ...       0.08
freq.    1065.29  E(vib)   ...       0.02
freq.    1092.72  E(vib)   ...       0.02
freq.    1093.02  E(vib)   ...       0.02
freq.    1404.35  E(vib)   ...       0.00
freq.    1470.00  E(vib)   ...       0.00
freq.    1470.04  E(vib)   ...       0.00
freq.    3035.37  E(vib)   ...       0.00
freq.    3131.14  E(vib)   ...       0.00
freq.    3132.02  E(vib)   ...       0.00

------------
INNER ENERGY
------------

The inner energy is: U= E(el) + E(ZPE) + E(vib) + E(rot) + E(trans)
    E(el)   - is the total energy from the electronic structure calculation
              = E(kin-el) + E(nuc-el) + E(el-el) + E(nuc-nuc)
    E(ZPE)  - the the zero temperature vibrational energy from the frequency calculation
    E(vib)  - the the finite temperature correction to E(ZPE) due to population
              of excited vibrational states
    E(rot)  - is the rotational thermal energy
    E(trans)- is the translational thermal energy

Summary of contributions to the inner energy U:
Electronic energy                ...  -1458.54361009 Eh
Zero point energy                ...      0.04675859 Eh      29.34 kcal/mol
Thermal vibrational correction   ...      0.00310004 Eh       1.95 kcal/mol
Thermal rotational correction    ...      0.00141627 Eh       0.89 kcal/mol
Thermal translational correction ...      0.00141627 Eh       0.89 kcal/mol
-----------------------------------------------------------------------
Total thermal energy                  -1458.49091892 Eh

Summary of corrections to the electronic energy:
(perhaps to be used in another calculation)
Total thermal correction                  0.00593258 Eh       3.72 kcal/mol
Non-thermal (ZPE) correction              0.04675859 Eh      29.34 kcal/mol
-----------------------------------------------------------------------
Total correction                          0.05269118 Eh      33.06 kcal/mol

--------
ENTHALPY
--------

The enthalpy is H = U + kB*T
                kB is Boltzmann's constant
Total thermal energy              ...  -1458.49091892 Eh
Thermal Enthalpy correction       ...      0.00094421 Eh       0.59 kcal/mol
-----------------------------------------------------------------------
Total Enthalpy                    ...  -1458.48997471 Eh

Note: Only C1 symmetry has been detected, increase convergence thresholds
      if your molecule has a higher symmetry. Symmetry factor of 1.0 is
      used for the rotational entropy correction.

Note: Rotational entropy computed according to Herzberg
Infrared and Raman Spectra, Chapter V,1, Van Nostrand Reinhold, 1945
Point Group:  C1, Symmetry Number:   1
Rotational constants in cm-1:     0.076691     0.076682     0.054733

Vibrational entropy computed according to the QRRHO of S. Grimme
Chem.Eur.J. 2012 18 9955 using a reference frequency of 100.0 cm-1

-------
ENTROPY
-------

The entropy contributions are T*S = T*(S(el)+S(vib)+S(rot)+S(trans))
     S(el)   - electronic entropy
     S(vib)  - vibrational entropy
     S(rot)  - rotational entropy
     S(trans)- translational entropy
The entropies will be listed as multiplied by the temperature to get
units of energy

Electronic entropy                ...      0.00000000 Eh      0.00 kcal/mol
Vibrational entropy               ...      0.00485300 Eh      3.05 kcal/mol
Rotational entropy                ...      0.01330705 Eh      8.35 kcal/mol
Translational entropy             ...      0.01927944 Eh     12.10 kcal/mol
-----------------------------------------------------------------------
Final entropy term                ...      0.03743949 Eh     23.49 kcal/mol

In case the symmetry of your molecule has not been determined correctly
or in case you have a reason to use a different symmetry number we print
out the resulting rotational entropy values for sn=1,12:

 non-linear molecules -----------------------------------
|  sn= 1 | S(rot)=       0.01330705 Eh      8.35 kcal/mol|
|  sn= 2 | S(rot)=       0.01265259 Eh      7.94 kcal/mol|
|  sn= 3 | S(rot)=       0.01226976 Eh      7.70 kcal/mol|
|  sn= 4 | S(rot)=       0.01199814 Eh      7.53 kcal/mol|
|  sn= 5 | S(rot)=       0.01178745 Eh      7.40 kcal/mol|
|  sn= 6 | S(rot)=       0.01161530 Eh      7.29 kcal/mol|
|  sn= 7 | S(rot)=       0.01146976 Eh      7.20 kcal/mol|
|  sn= 8 | S(rot)=       0.01134368 Eh      7.12 kcal/mol|
|  sn= 9 | S(rot)=       0.01123247 Eh      7.05 kcal/mol|
|  sn=10 | S(rot)=       0.01113299 Eh      6.99 kcal/mol|
|  sn=11 | S(rot)=       0.01104300 Eh      6.93 kcal/mol|
|  sn=12 | S(rot)=       0.01096085 Eh      6.88 kcal/mol|
 linear molecules ---------------------------------------
|  Dinfh | S(rot)=       0.00806892 Eh      5.06 kcal/mol|
|  Cinfv | S(rot)=       0.00872337 Eh      5.47 kcal/mol|
 --------------------------------------------------------

-------------------
GIBBS FREE ENERGY
-------------------

The Gibbs free energy is G = H - T*S

Total enthalpy                    ...  -1458.48997471 Eh
Total entropy correction          ...     -0.03743949 Eh    -23.49 kcal/mol
-----------------------------------------------------------------------
Final Gibbs free energy         ...  -1458.52741420 Eh

For completeness - the Gibbs free energy minus the electronic energy
G-E(el)                           ...      0.01619589 Eh     10.16 kcal/mol

                             ****ORCA TERMINATED NORMALLY****
TOTAL RUN TIME: 0 days 0 hours 2 minutes 40 seconds 301 msec
