                         Program Version 6.0.1  -  RELEASE   -
|  1> ! pbe def2-sv(p) def2/J RI DEFGRID1 loosescf d4 GCP(DFT/SV(P)) printgap
|  2> %output
|  3>     printlevel normal
|  4> end
|  5> * xyz 0 1
|  6> C -0.6995569354 -0.5897181266 -0.2633791029
|  7> C 0.7052256416 -0.5241887978 0.3393660494
|  8> O 1.4972231737 0.5102645487 -0.1766613855
|  9> O -1.4479891133 0.5134466146 0.1863531974
| 10> H -1.1698498282 -1.5338170922 0.0490369293
| 11> H -0.6255495186 -0.5877854031 -1.3633155879
| 12> H 1.1925857592 -1.4998963997 0.1846361273
| 13> H 0.6244984094 -0.3289612562 1.4099528499
| 14> H 1.4582643993 0.4893762254 -1.1396247646
| 15> H -2.3290436323 0.4849669347 -0.2000588948
| 16> *
| 17>
| 18>                          ****END OF INPUT****

CARTESIAN COORDINATES (ANGSTROEM)
---------------------------------
  C     -0.699557   -0.589718   -0.263379
  C      0.705226   -0.524189    0.339366
  O      1.497223    0.510265   -0.176661
  O     -1.447989    0.513447    0.186353
  H     -1.169850   -1.533817    0.049037
  H     -0.625550   -0.587785   -1.363316
  H      1.192586   -1.499896    0.184636
  H      0.624498   -0.328961    1.409953
  H      1.458264    0.489376   -1.139625
  H     -2.329044    0.484967   -0.200059

 Total Charge           Charge          ....    0
 Multiplicity           Mult            ....    1
 Number of Electrons    NEL             ....   34
 Basis Dimension        Dim             ....   68

ORBITAL ENERGIES
----------------

  NO   OCC          E(Eh)            E(eV)
   0   2.0000     -18.744379      -510.0605
   1   2.0000     -18.736749      -509.8528
   2   2.0000      -9.935461      -270.3576
   3   2.0000      -9.927491      -270.1408
   4   2.0000      -0.928734       -25.2721
   5   2.0000      -0.910642       -24.7798
   6   2.0000      -0.659548       -17.9472
   7   2.0000      -0.556160       -15.1339
   8   2.0000      -0.478003       -13.0071
   9   2.0000      -0.438212       -11.9244
  10   2.0000      -0.414180       -11.2704
  11   2.0000      -0.372574       -10.1383
  12   2.0000      -0.350457        -9.5364
  13   2.0000      -0.300715        -8.1829
  14   2.0000      -0.263778        -7.1778
  15   2.0000      -0.217763        -5.9256
  16   2.0000      -0.208586        -5.6759
  17   0.0000       0.020026         0.5449
  18   0.0000       0.046641         1.2692
  19   0.0000       0.074298         2.0218
  20   0.0000       0.089612         2.4385
  21   0.0000       0.115005         3.1294

MULLIKEN ATOMIC CHARGES
-----------------------
   0 C :   -0.044178
   1 C :    0.023084
   2 O :   -0.431461
   3 O :   -0.427569
   4 H :    0.069663
   5 H :    0.058603
   6 H :    0.067748
   7 H :    0.096843
   8 H :    0.289335
   9 H :    0.297932
Sum of atomic charges:    0.0000000

LOEWDIN ATOMIC CHARGES
----------------------
   0 C :   -0.147468
   1 C :   -0.135486
   2 O :   -0.335319
   3 O :   -0.344186
   4 H :    0.096682
   5 H :    0.088005
   6 H :    0.093649
   7 H :    0.120614
   8 H :    0.278578
   9 H :    0.284931

  Mayer bond orders larger than 0.100000
B(  0-C ,  1-C ) :   1.0984 B(  0-C ,  3-O ) :   1.0911 B(  0-C ,  4-H ) :   0.9129
B(  0-C ,  5-H ) :   0.9126 B(  1-C ,  2-O ) :   1.0732 B(  1-C ,  6-H ) :   0.9177
B(  1-C ,  7-H ) :   0.9201 B(  2-O ,  8-H ) :   0.8556 B(  3-O ,  9-H ) :   0.8540

Dispersion correction           -0.004808362
FINAL SINGLE POINT ENERGY      -229.720903527449

DIPOLE MOMENT
-------------

Method             : SCF
Type of density    : Electron Density
Multiplicity       :   1
Irrep              :   0
Energy             :  -229.7713694023987046 Eh
Relativity type    :
Basis              : AO
                                X                 Y                 Z
Electronic contribution:      0.169255644       2.088004528       0.229251018
Nuclear contribution   :     -0.795862678      -2.776918339      -0.993725738
                        -----------------------------------------
Total Dipole Moment    :     -0.626607034      -0.688913812      -0.764474719
                        -----------------------------------------
Magnitude (a.u.)       :      1.204848626
Magnitude (Debye)      :      3.062481828

Rotational constants in cm-1:             0.564273             0.166974             0.147806
Rotational constants in MHz :         16916.490208          5005.761116          4431.105278

                             ****ORCA TERMINATED NORMALLY****
TOTAL RUN TIME: 0 days 0 hours 0 minutes 6 seconds 102 msec
