                         Program Version 6.0.1  -  RELEASE   -
|  1> ! pbe def2-sv(p) def2/J RI DEFGRID1 loosescf d4 GCP(DFT/SV(P)) printgap
|  2> %output
|  3>     printlevel normal
|  4> end
|  5> * xyz 0 1
|  6> C -2.469642651 -1.1443498016 0.1970989803
|  7> C -1.0558050328 -0.6068177627 0.5289439188
|  8> H -0.9320744986 -0.5370560487 1.6207412642
|  9> C -0.8098519355 0.78767894 -0.0678920929
| 10> H -0.9299625486 0.7325667137 -1.1613280753
| 11> C 0.6262228825 1.226710802 0.2315318304
| 12> H 0.762692804 1.3132468838 1.3227826079
| 13> C 1.5939996714 0.1674864934 -0.2942108923
| 14> H 1.4978059557 0.1033944495 -1.3913567085
| 15> C 1.2178102089 -1.2002768152 0.3126123442
| 16> H 1.3819923763 -1.1561836475 1.4048443415
| 17> O -0.1108879448 -1.5267506295 0.01523148
| 18> O 2.0414441796 -2.2016396592 -0.1819562103
| 19> O 2.9050726308 0.5312535408 0.0601761271
| 20> O 0.8312598338 2.4800338744 -0.3739968668
| 21> O -1.7388527222 1.6921805984 0.478692285
| 22> O -3.1643745 -0.3985077186 -0.756649678
| 23> H -3.0485367175 -1.2119721673 1.1272915691
| 24> H -2.3515921096 -2.1466143101 -0.2198551477
| 25> H 1.6138809404 -2.5673959502 -0.9664788465
| 26> H 3.4587040697 -0.2572319665 -0.0088227129
| 27> H 1.7789151307 2.6588365661 -0.3502213853
| 28> H -1.420128771 2.5792547419 0.2670822601
| 29> H -3.2414547678 0.5075184796 -0.4257162556
| 30> *
| 31>
| 32>                          ****END OF INPUT****

CARTESIAN COORDINATES (ANGSTROEM)
---------------------------------
  C     -2.469643   -1.144350    0.197099
  C     -1.055805   -0.606818    0.528944
  H     -0.932074   -0.537056    1.620741
  C     -0.809852    0.787679   -0.067892
  H     -0.929963    0.732567   -1.161328
  C      0.626223    1.226711    0.231532
  H      0.762693    1.313247    1.322783
  C      1.594000    0.167486   -0.294211
  H      1.497806    0.103394   -1.391357
  C      1.217810   -1.200277    0.312612
  H      1.381992   -1.156184    1.404844
  O     -0.110888   -1.526751    0.015231
  O      2.041444   -2.201640   -0.181956
  O      2.905073    0.531254    0.060176
  O      0.831260    2.480034   -0.373997
  O     -1.738853    1.692181    0.478692
  O     -3.164375   -0.398508   -0.756650
  H     -3.048537   -1.211972    1.127292
  H     -2.351592   -2.146614   -0.219855
  H      1.613881   -2.567396   -0.966479
  H      3.458704   -0.257232   -0.008823
  H      1.778915    2.658837   -0.350221
  H     -1.420129    2.579255    0.267082
  H     -3.241455    0.507518   -0.425716

 Total Charge           Charge          ....    0
 Multiplicity           Mult            ....    1
 Number of Electrons    NEL             ....   96
 Basis Dimension        Dim             ....  192

ORBITAL ENERGIES
----------------

  NO   OCC          E(Eh)            E(eV)
   0   2.0000     -18.783886      -511.1355
   1   2.0000     -18.773444      -510.8514
   2   2.0000     -18.768865      -510.7268
   3   2.0000     -18.763818      -510.5894
   4   2.0000     -18.762243      -510.5466
   5   2.0000     -18.739280      -509.9217
   6   2.0000      -9.995978      -272.0044
   7   2.0000      -9.951277      -270.7880
   8   2.0000      -9.948546      -270.7137
   9   2.0000      -9.948150      -270.7029
  10   2.0000      -9.945597      -270.6334
  11   2.0000      -9.930421      -270.2205
  12   2.0000      -0.998439       -27.1689
  13   2.0000      -0.957700       -26.0603
  14   2.0000      -0.946728       -25.7618
  15   2.0000      -0.929012       -25.2797
  16   2.0000      -0.926404       -25.2087
  17   2.0000      -0.916211       -24.9314
  18   2.0000      -0.711849       -19.3704
  19   2.0000      -0.695047       -18.9132
  20   2.0000      -0.617928       -16.8147
  21   2.0000      -0.593294       -16.1444
  22   2.0000      -0.567162       -15.4333
  23   2.0000      -0.540126       -14.6976
  24   2.0000      -0.513359       -13.9692
  25   2.0000      -0.497391       -13.5347
  26   2.0000      -0.480188       -13.0666
  27   2.0000      -0.456499       -12.4220
  28   2.0000      -0.446242       -12.1429
  29   2.0000      -0.440575       -11.9887
  30   2.0000      -0.427076       -11.6213
  31   2.0000      -0.420139       -11.4326
  32   2.0000      -0.387168       -10.5354
  33   2.0000      -0.370074       -10.0702
  34   2.0000      -0.363351        -9.8873
  35   2.0000      -0.359099        -9.7716
  36   2.0000      -0.338113        -9.2005
  37   2.0000      -0.329886        -8.9766
  38   2.0000      -0.321876        -8.7587
  39   2.0000      -0.304544        -8.2871
  40   2.0000      -0.295909        -8.0521
  41   2.0000      -0.272167        -7.4060
  42   2.0000      -0.260867        -7.0986
  43   2.0000      -0.251629        -6.8472
  44   2.0000      -0.235525        -6.4090
  45   2.0000      -0.228463        -6.2168
  46   2.0000      -0.216395        -5.8884
  47   2.0000      -0.212005        -5.7690
  48   0.0000       0.010412         0.2833
  49   0.0000       0.021585         0.5874
  50   0.0000       0.038216         1.0399
  51   0.0000       0.049514         1.3473
  52   0.0000       0.066371         1.8060

MULLIKEN ATOMIC CHARGES
-----------------------
   0 C :    0.089241
   1 C :    0.018053
   2 H :    0.057024
   3 C :    0.027838
   4 H :    0.068894
   5 C :    0.060931
   6 H :    0.055165
   7 C :    0.039796
   8 H :    0.046358
   9 C :    0.168720
  10 H :    0.055162
  11 O :   -0.305554
  12 O :   -0.392093
  13 O :   -0.423739
  14 O :   -0.425568
  15 O :   -0.431541
  16 O :   -0.433714
  17 H :    0.074929
  18 H :    0.091351
  19 H :    0.308403
  20 H :    0.308656
  21 H :    0.316749
  22 H :    0.319799
  23 H :    0.305140
Sum of atomic charges:   -0.0000000

LOEWDIN ATOMIC CHARGES
----------------------
   0 C :   -0.121847
   1 C :   -0.060386
   2 H :    0.105777
   3 C :   -0.077572
   4 H :    0.110267
   5 C :   -0.077591
   6 H :    0.103686
   7 C :   -0.100335
   8 H :    0.101885
   9 C :   -0.003193
  10 H :    0.095966
  11 O :   -0.142888
  12 O :   -0.300481
  13 O :   -0.325890
  14 O :   -0.324965
  15 O :   -0.316809
  16 O :   -0.332421
  17 H :    0.100897
  18 H :    0.121091
  19 H :    0.292305
  20 H :    0.288419
  21 H :    0.294239
  22 H :    0.294100
  23 H :    0.275747

  Mayer bond orders larger than 0.100000
B(  0-C ,  1-C ) :   1.0054 B(  0-C , 16-O ) :   1.1266 B(  0-C , 17-H ) :   0.9215
B(  0-C , 18-H ) :   0.9169 B(  1-C ,  2-H ) :   0.8719 B(  1-C ,  3-C ) :   1.0513
B(  1-C , 11-O ) :   0.9826 B(  3-C ,  4-H ) :   0.8626 B(  3-C ,  5-C ) :   1.0265
B(  3-C , 15-O ) :   1.0362 B(  5-C ,  6-H ) :   0.8736 B(  5-C ,  7-C ) :   1.0119
B(  5-C , 14-O ) :   1.0804 B(  7-C ,  8-H ) :   0.8585 B(  7-C ,  9-C ) :   0.9836
B(  7-C , 13-O ) :   1.0724 B(  9-C , 10-H ) :   0.8784 B(  9-C , 11-O ) :   1.0310
B(  9-C , 12-O ) :   1.1082 B( 12-O , 19-H ) :   0.8410 B( 13-O , 20-H ) :   0.8312
B( 14-O , 21-H ) :   0.8361 B( 15-O , 22-H ) :   0.8305 B( 16-O , 23-H ) :   0.8169

Dispersion correction           -0.024026284
FINAL SINGLE POINT ENERGY      -685.700146111383

DIPOLE MOMENT
-------------

Method             : SCF
Type of density    : Electron Density
Multiplicity       :   1
Irrep              :   0
Energy             :  -685.8328214035966539 Eh
Relativity type    :
Basis              : AO
                                X                 Y                 Z
Electronic contribution:      1.997948485       0.135096710      -1.012772264
Nuclear contribution   :     -1.330043103       0.025769908       1.132357744
                        -----------------------------------------
Total Dipole Moment    :      0.667905382       0.160866617       0.119585480
                        -----------------------------------------
Magnitude (a.u.)       :      0.697335181
Magnitude (Debye)      :      1.772485168

Rotational constants in cm-1:             0.042694             0.025698             0.017178
Rotational constants in MHz :          1279.926216           770.397926           514.984646

                             ****ORCA TERMINATED NORMALLY****
TOTAL RUN TIME: 0 days 0 hours 0 minutes 9 seconds 684 msec
