                         Program Version 6.0.1  -  RELEASE   -
|  1> ! pbe def2-sv(p) def2/J RI DEFGRID1 loosescf d4 GCP(DFT/SV(P)) printgap
|  2> %output
|  3>     printlevel normal
|  4> end
|  5> * xyz 0 1
|  6> C -2.5480264098 -0.9066316407 0.3099795327
|  7> C -1.1149968017 -0.4548752648 0.6340304845
|  8> H -0.9708536239 -0.4294423703 1.7281656432
|  9> C -0.8328587642 0.9395097007 0.0523868559
| 10> H -1.1162486063 0.941390768 -1.0063130335
| 11> C 0.6556043464 1.3161050591 0.1767502154
| 12> H 0.891196457 1.505207592 1.2404442062
| 13> C 1.5620759087 0.1799743551 -0.2998128448
| 14> H 1.4924333086 0.1189572764 -1.3984411656
| 15> C 1.1086437378 -1.1635431479 0.3126634006
| 16> H 1.3054210642 -1.1398938274 1.3981514878
| 17> O -0.249632162 -1.4162747752 0.0611160676
| 18> O 1.8546834119 -2.2149599704 -0.1934983668
| 19> O 2.8771943919 0.4453614631 0.1037636844
| 20> O 0.9204163461 2.4613657058 -0.5862155918
| 21> O -1.6287423894 1.9321171712 0.6519604596
| 22> O -2.722610506 -1.1159522384 -1.0609577331
| 23> H -3.248379943 -0.121318276 0.6005646245
| 24> H -2.7663360481 -1.8222114496 0.8768920217
| 25> H 1.5282674798 -2.4213053471 -1.0784352738
| 26> H 3.4088304314 -0.3432475048 -0.0673111601
| 27> H 0.2075198607 3.0941941816 -0.4258079158
| 28> H -1.4512426427 1.9536059455 1.6007611235
| 29> H -2.0316284374 -1.7248122422 -1.3497384465
| 30> *
| 31>
| 32>                          ****END OF INPUT****

CARTESIAN COORDINATES (ANGSTROEM)
---------------------------------
  C     -2.548026   -0.906632    0.309980
  C     -1.114997   -0.454875    0.634030
  H     -0.970854   -0.429442    1.728166
  C     -0.832859    0.939510    0.052387
  H     -1.116249    0.941391   -1.006313
  C      0.655604    1.316105    0.176750
  H      0.891196    1.505208    1.240444
  C      1.562076    0.179974   -0.299813
  H      1.492433    0.118957   -1.398441
  C      1.108644   -1.163543    0.312663
  H      1.305421   -1.139894    1.398151
  O     -0.249632   -1.416275    0.061116
  O      1.854683   -2.214960   -0.193498
  O      2.877194    0.445361    0.103764
  O      0.920416    2.461366   -0.586216
  O     -1.628742    1.932117    0.651960
  O     -2.722611   -1.115952   -1.060958
  H     -3.248380   -0.121318    0.600565
  H     -2.766336   -1.822211    0.876892
  H      1.528267   -2.421305   -1.078435
  H      3.408830   -0.343248   -0.067311
  H      0.207520    3.094194   -0.425808
  H     -1.451243    1.953606    1.600761
  H     -2.031628   -1.724812   -1.349738

 Total Charge           Charge          ....    0
 Multiplicity           Mult            ....    1
 Number of Electrons    NEL             ....   96
 Basis Dimension        Dim             ....  192

ORBITAL ENERGIES
----------------

  NO   OCC          E(Eh)            E(eV)
   0   2.0000     -18.791855      -511.3524
   1   2.0000     -18.777531      -510.9626
   2   2.0000     -18.772696      -510.8310
   3   2.0000     -18.753162      -510.2995
   4   2.0000     -18.750918      -510.2384
   5   2.0000     -18.746062      -510.1063
   6   2.0000      -9.997747      -272.0525
   7   2.0000      -9.957263      -270.9509
   8   2.0000      -9.947971      -270.6981
   9   2.0000      -9.945956      -270.6432
  10   2.0000      -9.944094      -270.5926
  11   2.0000      -9.938163      -270.4312
  12   2.0000      -1.002498       -27.2794
  13   2.0000      -0.956954       -26.0401
  14   2.0000      -0.945168       -25.7193
  15   2.0000      -0.932323       -25.3698
  16   2.0000      -0.924959       -25.1694
  17   2.0000      -0.917182       -24.9578
  18   2.0000      -0.707815       -19.2606
  19   2.0000      -0.696991       -18.9661
  20   2.0000      -0.622632       -16.9427
  21   2.0000      -0.600216       -16.3327
  22   2.0000      -0.564586       -15.3632
  23   2.0000      -0.546137       -14.8611
  24   2.0000      -0.513305       -13.9677
  25   2.0000      -0.492747       -13.4083
  26   2.0000      -0.483033       -13.1440
  27   2.0000      -0.469756       -12.7827
  28   2.0000      -0.455802       -12.4030
  29   2.0000      -0.436781       -11.8854
  30   2.0000      -0.433456       -11.7949
  31   2.0000      -0.393836       -10.7168
  32   2.0000      -0.387646       -10.5484
  33   2.0000      -0.383803       -10.4438
  34   2.0000      -0.374063       -10.1788
  35   2.0000      -0.355755        -9.6806
  36   2.0000      -0.339406        -9.2357
  37   2.0000      -0.328793        -8.9469
  38   2.0000      -0.306825        -8.3491
  39   2.0000      -0.299899        -8.1607
  40   2.0000      -0.288718        -7.8564
  41   2.0000      -0.285512        -7.7692
  42   2.0000      -0.267626        -7.2825
  43   2.0000      -0.246561        -6.7093
  44   2.0000      -0.242768        -6.6060
  45   2.0000      -0.226986        -6.1766
  46   2.0000      -0.224959        -6.1214
  47   2.0000      -0.203790        -5.5454
  48   0.0000       0.003582         0.0975
  49   0.0000       0.022064         0.6004
  50   0.0000       0.026309         0.7159
  51   0.0000       0.043360         1.1799
  52   0.0000       0.061944         1.6856

MULLIKEN ATOMIC CHARGES
-----------------------
   0 C :    0.111310
   1 C :   -0.030687
   2 H :    0.042393
   3 C :    0.019491
   4 H :    0.071441
   5 C :    0.099677
   6 H :    0.036958
   7 C :    0.064515
   8 H :    0.044820
   9 C :    0.160726
  10 H :    0.058580
  11 O :   -0.315602
  12 O :   -0.382802
  13 O :   -0.401245
  14 O :   -0.399169
  15 O :   -0.414463
  16 O :   -0.432514
  17 H :    0.087429
  18 H :    0.081831
  19 H :    0.302802
  20 H :    0.299190
  21 H :    0.299925
  22 H :    0.298771
  23 H :    0.296622
Sum of atomic charges:   -0.0000000

LOEWDIN ATOMIC CHARGES
----------------------
   0 C :   -0.122715
   1 C :   -0.082125
   2 H :    0.098994
   3 C :   -0.086267
   4 H :    0.122103
   5 C :   -0.072284
   6 H :    0.096486
   7 C :   -0.086567
   8 H :    0.102769
   9 C :   -0.006580
  10 H :    0.099172
  11 O :   -0.152905
  12 O :   -0.291449
  13 O :   -0.310898
  14 O :   -0.313666
  15 O :   -0.303661
  16 O :   -0.326016
  17 H :    0.120380
  18 H :    0.100655
  19 H :    0.288654
  20 H :    0.282509
  21 H :    0.282023
  22 H :    0.283848
  23 H :    0.277540

  Mayer bond orders larger than 0.100000
B(  0-C ,  1-C ) :   1.0368 B(  0-C , 16-O ) :   1.0709 B(  0-C , 17-H ) :   0.9122
B(  0-C , 18-H ) :   0.9152 B(  1-C ,  2-H ) :   0.8698 B(  1-C ,  3-C ) :   0.9825
B(  1-C , 11-O ) :   0.9770 B(  3-C ,  4-H ) :   0.8562 B(  3-C ,  5-C ) :   1.0138
B(  3-C , 15-O ) :   1.0013 B(  5-C ,  6-H ) :   0.8663 B(  5-C ,  7-C ) :   0.9967
B(  5-C , 14-O ) :   1.1123 B(  7-C ,  8-H ) :   0.8603 B(  7-C ,  9-C ) :   0.9855
B(  7-C , 13-O ) :   1.0910 B(  9-C , 10-H ) :   0.8792 B(  9-C , 11-O ) :   1.0016
B(  9-C , 12-O ) :   1.1164 B( 12-O , 19-H ) :   0.8436 B( 13-O , 20-H ) :   0.8359
B( 14-O , 21-H ) :   0.8355 B( 15-O , 22-H ) :   0.8459 B( 16-O , 23-H ) :   0.8396

Dispersion correction           -0.023948048
FINAL SINGLE POINT ENERGY      -685.698135357133

DIPOLE MOMENT
-------------

Method             : SCF
Type of density    : Electron Density
Multiplicity       :   1
Irrep              :   0
Energy             :  -685.8290352655697006 Eh
Relativity type    :
Basis              : AO
                                X                 Y                 Z
Electronic contribution:      2.446943098      -0.179642626      -1.458892270
Nuclear contribution   :     -2.565350805      -0.363473286       1.972751247
                        -----------------------------------------
Total Dipole Moment    :     -0.118407707      -0.543115912       0.513858977
                        -----------------------------------------
Magnitude (a.u.)       :      0.756998235
Magnitude (Debye)      :      1.924136599

Rotational constants in cm-1:             0.038705             0.027344             0.017904
Rotational constants in MHz :          1160.350290           819.754732           536.744454

                             ****ORCA TERMINATED NORMALLY****
TOTAL RUN TIME: 0 days 0 hours 0 minutes 9 seconds 896 msec
