                         Program Version 6.0.0  -   RELEASE  -
|  1> ! r2SCAN-3c DEF2-TZVP FREQ
|  2> * xyzfile 0 1 censo.xyz
|  3>
|  4>                          ****END OF INPUT****

CARTESIAN COORDINATES (ANGSTROEM)
---------------------------------
  C      1.449666   -0.732724   -0.237749
  C      1.449821    0.732514    0.237583
  C      0.045480    1.224910   -0.126348
  C     -0.832921    0.000027   -0.000474
  O     -2.056300    0.000159   -0.000012
  C      0.045311   -1.224857    0.126516
  H      2.242276   -1.327052    0.222516
  H      1.584517   -0.769138   -1.324670
  H      1.584786    0.768818    1.324498
  H      2.242483    1.326766   -0.222697
  H     -0.341249    2.058223    0.466177
  H      0.001427    1.524893   -1.183893
  H      0.001388   -1.524494    1.184197
  H     -0.341648   -2.058313   -0.465665

 Total Charge           Charge          ....    0
 Multiplicity           Mult            ....    1
 Number of Electrons    NEL             ....   46
 Basis Dimension        Dim             ....  234

ORBITAL ENERGIES
----------------

  NO   OCC          E(Eh)            E(eV)
   0   2.0000     -18.935908      -515.2723
   1   2.0000     -10.117481      -275.3107
   2   2.0000     -10.044248      -273.3179
   3   2.0000     -10.044134      -273.3148
   4   2.0000     -10.043020      -273.2845
   5   2.0000     -10.043014      -273.2843
   6   2.0000      -0.994119       -27.0514
   7   2.0000      -0.813722       -22.1425
   8   2.0000      -0.700723       -19.0677
   9   2.0000      -0.660347       -17.9689
  10   2.0000      -0.562475       -15.3057
  11   2.0000      -0.504755       -13.7351
  12   2.0000      -0.467930       -12.7330
  13   2.0000      -0.438324       -11.9274
  14   2.0000      -0.404003       -10.9935
  15   2.0000      -0.394087       -10.7236
  16   2.0000      -0.372173       -10.1273
  17   2.0000      -0.359198        -9.7743
  18   2.0000      -0.334125        -9.0920
  19   2.0000      -0.326879        -8.8948
  20   2.0000      -0.312579        -8.5057
  21   2.0000      -0.308663        -8.3992
  22   2.0000      -0.210649        -5.7320
  23   0.0000      -0.052689        -1.4337
  24   0.0000       0.032854         0.8940
  25   0.0000       0.070789         1.9263
  26   0.0000       0.081902         2.2287
  27   0.0000       0.084363         2.2956

MULLIKEN ATOMIC CHARGES
-----------------------
   0 C :   -0.171348
   1 C :   -0.171258
   2 C :   -0.151402
   3 C :    0.136682
   4 O :   -0.326617
   5 C :   -0.151392
   6 H :    0.097241
   7 H :    0.091175
   8 H :    0.091154
   9 H :    0.097248
  10 H :    0.120142
  11 H :    0.109111
  12 H :    0.109181
  13 H :    0.120083
Sum of atomic charges:    0.0000000

LOEWDIN ATOMIC CHARGES
----------------------
   0 C :   -0.247677
   1 C :   -0.247671
   2 C :   -0.218652
   3 C :   -0.314048
   4 O :    0.104929
   5 C :   -0.218650
   6 H :    0.130494
   7 H :    0.135945
   8 H :    0.135951
   9 H :    0.130495
  10 H :    0.145812
  11 H :    0.158633
  12 H :    0.158635
  13 H :    0.145804

  Mayer bond orders larger than 0.100000
B(  0-C ,  1-C ) :   0.9553 B(  0-C ,  5-C ) :   0.9831 B(  0-C ,  6-H ) :   0.9605
B(  0-C ,  7-H ) :   0.9672 B(  1-C ,  2-C ) :   0.9831 B(  1-C ,  8-H ) :   0.9672
B(  1-C ,  9-H ) :   0.9605 B(  2-C ,  3-C ) :   0.9503 B(  2-C , 10-H ) :   0.9492
B(  2-C , 11-H ) :   0.9347 B(  3-C ,  4-O ) :   2.0896 B(  3-C ,  5-C ) :   0.9503
B(  5-C , 12-H ) :   0.9348 B(  5-C , 13-H ) :   0.9492

Dispersion correction           -0.003444933
FINAL SINGLE POINT ENERGY      -270.522267498470

DIPOLE MOMENT
-------------

Method             : SCF
Type of density    : Electron Density
Multiplicity       :   1
Irrep              :   0
Energy             :  -270.5241382609764287 Eh
Relativity type    :
Basis              : AO
                                X                 Y                 Z
Electronic contribution:     -5.222459114       0.000267483      -0.000943276
Nuclear contribution   :      6.508562685      -0.000337005       0.000916392
                        -----------------------------------------
Total Dipole Moment    :      1.286103571      -0.000069522      -0.000026884
                        -----------------------------------------
Magnitude (a.u.)       :      1.286103574
Magnitude (Debye)      :      3.269015491

VIBRATIONAL FREQUENCIES
-----------------------

Scaling factor for frequencies =  1.000000000  (already applied!)

     0:       0.00 cm**-1
     1:       0.00 cm**-1
     2:       0.00 cm**-1
     3:       0.00 cm**-1
     4:       0.00 cm**-1
     5:       0.00 cm**-1
     6:     129.00 cm**-1
     7:     249.45 cm**-1
     8:     463.80 cm**-1
     9:     487.16 cm**-1
    10:     564.95 cm**-1
    11:     596.19 cm**-1
    12:     716.62 cm**-1
    13:     829.28 cm**-1
    14:     853.54 cm**-1
    15:     899.74 cm**-1
    16:     923.11 cm**-1
    17:     963.10 cm**-1
    18:     967.36 cm**-1
    19:    1028.98 cm**-1
    20:    1164.39 cm**-1
    21:    1165.68 cm**-1
    22:    1181.49 cm**-1
    23:    1219.23 cm**-1
    24:    1250.33 cm**-1
    25:    1298.25 cm**-1
    26:    1303.20 cm**-1
    27:    1334.14 cm**-1
    28:    1334.48 cm**-1
    29:    1434.22 cm**-1
    30:    1434.77 cm**-1
    31:    1487.19 cm**-1
    32:    1498.70 cm**-1
    33:    1717.09 cm**-1
    34:    2999.15 cm**-1
    35:    2999.42 cm**-1
    36:    3023.18 cm**-1
    37:    3029.07 cm**-1
    38:    3086.31 cm**-1
    39:    3087.80 cm**-1
    40:    3091.63 cm**-1
    41:    3096.71 cm**-1

IR SPECTRUM
-----------

 Mode   freq       eps      Int      T**2         TX        TY        TZ
       cm**-1   L/(mol*cm) km/mol    a.u.
----------------------------------------------------------------------------
  6:    129.00   0.001025    5.18  0.002479  (-0.000079  0.009306  0.048912)
  7:    249.45   0.000037    0.19  0.000047  (-0.006840 -0.000023 -0.000030)
  8:    463.80   0.000516    2.61  0.000347  (-0.000001  0.018214 -0.003960)
  9:    487.16   0.000902    4.56  0.000578  ( 0.000003  0.024040  0.000160)
 10:    564.95   0.001408    7.12  0.000778  (-0.027890  0.000006 -0.000014)
 11:    596.19   0.000469    2.37  0.000246  ( 0.000037 -0.006432 -0.014293)
 12:    716.62   0.000167    0.84  0.000073  ( 0.008515  0.000006 -0.000008)
 13:    829.28   0.000358    1.81  0.000135  ( 0.011603 -0.000032  0.000032)
 14:    853.54   0.001918    9.69  0.000701  ( 0.000022  0.022172 -0.014473)
 15:    899.74   0.000070    0.35  0.000024  ( 0.004923 -0.000017 -0.000003)
 16:    923.11   0.000119    0.60  0.000040  (-0.000010  0.002846 -0.005656)
 17:    963.10   0.000038    0.19  0.000012  ( 0.003497  0.000078  0.000004)
 18:    967.36   0.001849    9.34  0.000596  (-0.000003  0.024363  0.001688)
 19:   1028.98   0.000156    0.79  0.000047  ( 0.006879 -0.000008 -0.000002)
 20:   1164.39   0.000957    4.83  0.000256  ( 0.000077 -0.015575  0.003709)
 21:   1165.68   0.000194    0.98  0.000052  (-0.007204 -0.000283  0.000053)
 22:   1181.49   0.013284   67.13  0.003509  (-0.000004  0.058865 -0.006596)
 23:   1219.23   0.000080    0.40  0.000020  (-0.004512  0.000024 -0.000003)
 24:   1250.33   0.000923    4.66  0.000230  (-0.000000  0.015141 -0.001033)
 25:   1298.25   0.001795    9.07  0.000432  ( 0.000034  0.020232 -0.004709)
 26:   1303.20   0.000284    1.44  0.000068  ( 0.008252 -0.000064  0.000011)
 27:   1334.14   0.000074    0.37  0.000017  (-0.004081 -0.000769  0.000221)
 28:   1334.48   0.001122    5.67  0.000262  (-0.000207  0.015556 -0.004511)
 29:   1434.22   0.004626   23.38  0.001006  (-0.000042 -0.028708  0.013504)
 30:   1434.77   0.000014    0.07  0.000003  (-0.000612  0.001454 -0.000687)
 31:   1487.19   0.001063    5.37  0.000223  ( 0.000007 -0.009186 -0.011776)
 32:   1498.70   0.000381    1.93  0.000079  ( 0.008910 -0.000001  0.000008)
 33:   1717.09   0.047278  238.92  0.008592  (-0.092695  0.000003 -0.000014)
 34:   2999.15   0.001277    6.45  0.000133  (-0.010557 -0.002748  0.003722)
 35:   2999.42   0.001104    5.58  0.000115  (-0.005219  0.005586 -0.007512)
 36:   3023.18   0.004674   23.62  0.000482  (-0.021964 -0.000043 -0.000098)
 37:   3029.07   0.007655   38.69  0.000789  ( 0.000075 -0.014185 -0.024237)
 38:   3086.31   0.003019   15.26  0.000305  (-0.017472  0.000072  0.000045)
 39:   3087.80   0.003957   20.00  0.000400  (-0.000216 -0.019994  0.000269)
 40:   3091.63   0.002659   13.44  0.000268  ( 0.016381 -0.000174  0.000060)
 41:   3096.71   0.006159   31.12  0.000621  ( 0.000003  0.006534 -0.024040)

--------------------------
THERMOCHEMISTRY AT 298.15K
--------------------------

Temperature         ...   298.15 K
Pressure            ...     1.00 atm
Total Mass          ...    84.12 AMU
Quasi RRHO          ...     True
Cut-Off Frequency   ...     1.00 cm^-1

Throughout the following assumptions are being made:
  (1) The electronic state is orbitally nondegenerate
  (2) There are no thermally accessible electronically excited states
  (3) Hindered rotations indicated by low frequency modes are not
      treated as such but are treated as vibrations and this may
      cause some error
  (4) All equations used are the standard statistical mechanics
      equations for an ideal gas
  (5) All vibrations are strictly harmonic

freq.     129.00  E(vib)   ...       0.43
freq.     249.45  E(vib)   ...       0.31
freq.     463.80  E(vib)   ...       0.16
freq.     487.16  E(vib)   ...       0.15
freq.     564.95  E(vib)   ...       0.11
freq.     596.19  E(vib)   ...       0.10
freq.     716.62  E(vib)   ...       0.07
freq.     829.28  E(vib)   ...       0.04
freq.     853.54  E(vib)   ...       0.04
freq.     899.74  E(vib)   ...       0.03
freq.     923.11  E(vib)   ...       0.03
freq.     963.10  E(vib)   ...       0.03
freq.     967.36  E(vib)   ...       0.03
freq.    1028.98  E(vib)   ...       0.02
freq.    1164.39  E(vib)   ...       0.01
freq.    1165.68  E(vib)   ...       0.01
freq.    1181.49  E(vib)   ...       0.01
freq.    1219.23  E(vib)   ...       0.01
freq.    1250.33  E(vib)   ...       0.01
freq.    1298.25  E(vib)   ...       0.01
freq.    1303.20  E(vib)   ...       0.01
freq.    1334.14  E(vib)   ...       0.01
freq.    1334.48  E(vib)   ...       0.01
freq.    1434.22  E(vib)   ...       0.00
freq.    1434.77  E(vib)   ...       0.00
freq.    1487.19  E(vib)   ...       0.00
freq.    1498.70  E(vib)   ...       0.00
freq.    1717.09  E(vib)   ...       0.00
freq.    2999.15  E(vib)   ...       0.00
freq.    2999.42  E(vib)   ...       0.00
freq.    3023.18  E(vib)   ...       0.00
freq.    3029.07  E(vib)   ...       0.00
freq.    3086.31  E(vib)   ...       0.00
freq.    3087.80  E(vib)   ...       0.00
freq.    3091.63  E(vib)   ...       0.00
freq.    3096.71  E(vib)   ...       0.00

------------
INNER ENERGY
------------

The inner energy is: U= E(el) + E(ZPE) + E(vib) + E(rot) + E(trans)
    E(el)   - is the total energy from the electronic structure calculation
              = E(kin-el) + E(nuc-el) + E(el-el) + E(nuc-nuc)
    E(ZPE)  - the the zero temperature vibrational energy from the frequency calculation
    E(vib)  - the the finite temperature correction to E(ZPE) due to population
              of excited vibrational states
    E(rot)  - is the rotational thermal energy
    E(trans)- is the translational thermal energy

Summary of contributions to the inner energy U:
Electronic energy                ...   -270.52226750 Eh
Zero point energy                ...      0.12053503 Eh      75.64 kcal/mol
Thermal vibrational correction   ...      0.00261056 Eh       1.64 kcal/mol
Thermal rotational correction    ...      0.00141627 Eh       0.89 kcal/mol
Thermal translational correction ...      0.00141627 Eh       0.89 kcal/mol
-----------------------------------------------------------------------
Total thermal energy                   -270.39628937 Eh

Summary of corrections to the electronic energy:
(perhaps to be used in another calculation)
Total thermal correction                  0.00544310 Eh       3.42 kcal/mol
Non-thermal (ZPE) correction              0.12053503 Eh      75.64 kcal/mol
-----------------------------------------------------------------------
Total correction                          0.12597813 Eh      79.05 kcal/mol

--------
ENTHALPY
--------

The enthalpy is H = U + kB*T
                kB is Boltzmann's constant
Total thermal energy              ...   -270.39628937 Eh
Thermal Enthalpy correction       ...      0.00094421 Eh       0.59 kcal/mol
-----------------------------------------------------------------------
Total Enthalpy                    ...   -270.39534516 Eh

Note: Only C1 symmetry has been detected, increase convergence thresholds
      if your molecule has a higher symmetry. Symmetry factor of 1.0 is
      used for the rotational entropy correction.

Note: Rotational entropy computed according to Herzberg
Infrared and Raman Spectra, Chapter V,1, Van Nostrand Reinhold, 1945
Point Group:  C1, Symmetry Number:   1
Rotational constants in cm-1:     0.223146     0.111940     0.080713

Vibrational entropy computed according to the QRRHO of S. Grimme
Chem.Eur.J. 2012 18 9955 using a reference frequency of 100.0 cm-1

-------
ENTROPY
-------

The entropy contributions are T*S = T*(S(el)+S(vib)+S(rot)+S(trans))
     S(el)   - electronic entropy
     S(vib)  - vibrational entropy
     S(rot)  - rotational entropy
     S(trans)- translational entropy
The entropies will be listed as multiplied by the temperature to get
units of energy

Electronic entropy                ...      0.00000000 Eh      0.00 kcal/mol
Vibrational entropy               ...      0.00408863 Eh      2.57 kcal/mol
Rotational entropy                ...      0.01244088 Eh      7.81 kcal/mol
Translational entropy             ...      0.01862630 Eh     11.69 kcal/mol
-----------------------------------------------------------------------
Final entropy term                ...      0.03515580 Eh     22.06 kcal/mol

In case the symmetry of your molecule has not been determined correctly
or in case you have a reason to use a different symmetry number we print
out the resulting rotational entropy values for sn=1,12:

 non-linear molecules -----------------------------------
|  sn= 1 | S(rot)=       0.01244088 Eh      7.81 kcal/mol|
|  sn= 2 | S(rot)=       0.01178642 Eh      7.40 kcal/mol|
|  sn= 3 | S(rot)=       0.01140359 Eh      7.16 kcal/mol|
|  sn= 4 | S(rot)=       0.01113196 Eh      6.99 kcal/mol|
|  sn= 5 | S(rot)=       0.01092128 Eh      6.85 kcal/mol|
|  sn= 6 | S(rot)=       0.01074913 Eh      6.75 kcal/mol|
|  sn= 7 | S(rot)=       0.01060359 Eh      6.65 kcal/mol|
|  sn= 8 | S(rot)=       0.01047751 Eh      6.57 kcal/mol|
|  sn= 9 | S(rot)=       0.01036630 Eh      6.50 kcal/mol|
|  sn=10 | S(rot)=       0.01026682 Eh      6.44 kcal/mol|
|  sn=11 | S(rot)=       0.01017683 Eh      6.39 kcal/mol|
|  sn=12 | S(rot)=       0.01009468 Eh      6.33 kcal/mol|
 linear molecules ---------------------------------------
|  Dinfh | S(rot)=       0.00770217 Eh      4.83 kcal/mol|
|  Cinfv | S(rot)=       0.00835663 Eh      5.24 kcal/mol|
 --------------------------------------------------------

-------------------
GIBBS FREE ENERGY
-------------------

The Gibbs free energy is G = H - T*S

                             ****ORCA TERMINATED NORMALLY****
TOTAL RUN TIME: 0 days 0 hours 7 minutes 10 seconds 324 msec
