                         Program Version 6.0.0  -   RELEASE  -
|  1> ! r2SCAN-3c DEF2-TZVP FREQ
|  2> * xyzfile 0 1 vacuum_censo.xyz
|  3>
|  4>                          ****END OF INPUT****

CARTESIAN COORDINATES (ANGSTROEM)
---------------------------------
  C      1.450024   -0.734649    0.234870
  C      1.449967    0.734740   -0.234839
  C      0.047895    1.231308    0.129204
  C     -0.848027   -0.000036    0.000073
  O     -2.055877   -0.000067   -0.000022
  C      0.047964   -1.231330   -0.129063
  H      1.588461   -0.773343    1.321924
  H      2.250285   -1.322898   -0.221077
  H      2.250231    1.323053    0.221018
  H      1.588286    0.773427   -1.321909
  H      0.002321    1.547435    1.180803
  H     -0.337051    2.058012   -0.472751
  H     -0.336913   -2.058012    0.472969
  H      0.002347   -1.547545   -1.180635

 Total Charge           Charge          ....    0
 Multiplicity           Mult            ....    1
 Number of Electrons    NEL             ....   46
 Basis Dimension        Dim             ....  234

ORBITAL ENERGIES
----------------

  NO   OCC          E(Eh)            E(eV)
   0   2.0000     -18.938439      -515.3411
   1   2.0000     -10.118250      -275.3316
   2   2.0000     -10.043557      -273.2991
   3   2.0000     -10.043446      -273.2961
   4   2.0000     -10.042390      -273.2673
   5   2.0000     -10.042388      -273.2673
   6   2.0000      -1.003754       -27.3135
   7   2.0000      -0.810290       -22.0491
   8   2.0000      -0.698944       -19.0192
   9   2.0000      -0.657672       -17.8962
  10   2.0000      -0.560851       -15.2615
  11   2.0000      -0.503551       -13.7023
  12   2.0000      -0.465903       -12.6779
  13   2.0000      -0.438838       -11.9414
  14   2.0000      -0.402791       -10.9605
  15   2.0000      -0.394131       -10.7249
  16   2.0000      -0.373427       -10.1615
  17   2.0000      -0.362102        -9.8533
  18   2.0000      -0.333429        -9.0731
  19   2.0000      -0.325449        -8.8559
  20   2.0000      -0.313398        -8.5280
  21   2.0000      -0.310714        -8.4550
  22   2.0000      -0.211418        -5.7530
  23   0.0000      -0.050234        -1.3669
  24   0.0000       0.033759         0.9186
  25   0.0000       0.071488         1.9453
  26   0.0000       0.081979         2.2308
  27   0.0000       0.084675         2.3041

MULLIKEN ATOMIC CHARGES
-----------------------
   0 C :   -0.171406
   1 C :   -0.171403
   2 C :   -0.159688
   3 C :    0.137108
   4 O :   -0.306474
   5 C :   -0.159700
   6 H :    0.090538
   7 H :    0.097589
   8 H :    0.097593
   9 H :    0.090537
  10 H :    0.109106
  11 H :    0.118543
  12 H :    0.118541
  13 H :    0.109115
Sum of atomic charges:    0.0000000

LOEWDIN ATOMIC CHARGES
----------------------
   0 C :   -0.249638
   1 C :   -0.249635
   2 C :   -0.220111
   3 C :   -0.317376
   4 O :    0.124764
   5 C :   -0.220110
   6 H :    0.135655
   7 H :    0.130306
   8 H :    0.130306
   9 H :    0.135656
  10 H :    0.155602
  11 H :    0.144488
  12 H :    0.144490
  13 H :    0.155603

  Mayer bond orders larger than 0.100000
B(  0-C ,  1-C ) :   0.9544 B(  0-C ,  5-C ) :   0.9849 B(  0-C ,  6-H ) :   0.9677
B(  0-C ,  7-H ) :   0.9604 B(  1-C ,  2-C ) :   0.9849 B(  1-C ,  8-H ) :   0.9604
B(  1-C ,  9-H ) :   0.9677 B(  2-C ,  3-C ) :   0.9436 B(  2-C , 10-H ) :   0.9368
B(  2-C , 11-H ) :   0.9501 B(  3-C ,  4-O ) :   2.1054 B(  3-C ,  5-C ) :   0.9436
B(  5-C , 12-H ) :   0.9501 B(  5-C , 13-H ) :   0.9368

Dispersion correction           -0.003440275
FINAL SINGLE POINT ENERGY      -270.522842006583

DIPOLE MOMENT
-------------

Method             : SCF
Type of density    : Electron Density
Multiplicity       :   1
Irrep              :   0
Energy             :  -270.5246894503072781 Eh
Relativity type    :
Basis              : AO
                                X                 Y                 Z
Electronic contribution:     -5.308968248      -0.000139076      -0.000000982
Nuclear contribution   :      6.547026186       0.000169285       0.000057775
                        -----------------------------------------
Total Dipole Moment    :      1.238057937       0.000030209       0.000056792
                        -----------------------------------------
Magnitude (a.u.)       :      1.238057939
Magnitude (Debye)      :      3.146893193

VIBRATIONAL FREQUENCIES
-----------------------

Scaling factor for frequencies =  1.000000000  (already applied!)

     0:       0.00 cm**-1
     1:       0.00 cm**-1
     2:       0.00 cm**-1
     3:       0.00 cm**-1
     4:       0.00 cm**-1
     5:       0.00 cm**-1
     6:     111.11 cm**-1
     7:     247.82 cm**-1
     8:     449.88 cm**-1
     9:     473.40 cm**-1
    10:     565.07 cm**-1
    11:     587.96 cm**-1
    12:     704.44 cm**-1
    13:     808.76 cm**-1
    14:     845.32 cm**-1
    15:     896.14 cm**-1
    16:     922.37 cm**-1
    17:     957.51 cm**-1
    18:     968.56 cm**-1
    19:    1029.95 cm**-1
    20:    1144.29 cm**-1
    21:    1162.30 cm**-1
    22:    1164.80 cm**-1
    23:    1217.30 cm**-1
    24:    1246.60 cm**-1
    25:    1292.52 cm**-1
    26:    1297.94 cm**-1
    27:    1333.89 cm**-1
    28:    1335.35 cm**-1
    29:    1435.45 cm**-1
    30:    1436.32 cm**-1
    31:    1488.89 cm**-1
    32:    1500.13 cm**-1
    33:    1794.25 cm**-1
    34:    3009.08 cm**-1
    35:    3009.51 cm**-1
    36:    3018.41 cm**-1
    37:    3024.92 cm**-1
    38:    3081.63 cm**-1
    39:    3086.58 cm**-1
    40:    3094.75 cm**-1
    41:    3095.57 cm**-1

IR SPECTRUM
-----------

 Mode   freq       eps      Int      T**2         TX        TY        TZ
       cm**-1   L/(mol*cm) km/mol    a.u.
----------------------------------------------------------------------------
  6:    111.11   0.000994    5.02  0.002791  (-0.000007  0.009558 -0.051960)
  7:    247.82   0.000035    0.18  0.000044  (-0.006623  0.000000 -0.000000)
  8:    449.88   0.000477    2.41  0.000331  (-0.000003 -0.017688 -0.004265)
  9:    473.40   0.000851    4.30  0.000561  (-0.000002 -0.023673  0.000538)
 10:    565.07   0.001173    5.93  0.000648  ( 0.025455  0.000001 -0.000001)
 11:    587.96   0.000497    2.51  0.000264  ( 0.000007 -0.008056  0.014103)
 12:    704.44   0.000283    1.43  0.000125  (-0.011198 -0.000001  0.000000)
 13:    808.76   0.000451    2.28  0.000174  ( 0.013190 -0.000000  0.000002)
 14:    845.32   0.002591   13.09  0.000956  ( 0.000003  0.026802  0.015427)
 15:    896.14   0.000081    0.41  0.000028  (-0.005318  0.000003  0.000002)
 16:    922.37   0.000098    0.50  0.000033  ( 0.000003  0.002144  0.005357)
 17:    957.51   0.000044    0.22  0.000014  (-0.003803  0.000001  0.000001)
 18:    968.56   0.002003   10.12  0.000645  ( 0.000002 -0.025349  0.001692)
 19:   1029.95   0.000152    0.77  0.000046  (-0.006791 -0.000001 -0.000000)
 20:   1144.29   0.015124   76.43  0.004125  (-0.000000 -0.063775 -0.007565)
 21:   1162.30   0.000784    3.96  0.000211  ( 0.000001 -0.014512  0.000049)
 22:   1164.80   0.000083    0.42  0.000022  ( 0.004715  0.000004  0.000000)
 23:   1217.30   0.000063    0.32  0.000016  (-0.004015 -0.000003 -0.000000)
 24:   1246.60   0.000629    3.18  0.000157  (-0.000000  0.012511  0.000921)
 25:   1292.52   0.001128    5.70  0.000272  ( 0.000006  0.015964  0.004190)
 26:   1297.94   0.000439    2.22  0.000106  (-0.010279  0.000006  0.000002)
 27:   1333.89   0.000506    2.56  0.000118  (-0.000001  0.010286  0.003548)
 28:   1335.35   0.000066    0.34  0.000015  (-0.003937 -0.000001  0.000000)
 29:   1435.45   0.004339   21.93  0.000943  (-0.000000  0.028041  0.012527)
 30:   1436.32   0.000005    0.03  0.000001  (-0.001086  0.000032  0.000013)
 31:   1488.89   0.001042    5.27  0.000218  ( 0.000001 -0.009018  0.011708)
 32:   1500.13   0.000420    2.12  0.000087  ( 0.009344 -0.000001 -0.000001)
 33:   1794.25   0.049856  251.95  0.008671  ( 0.093119  0.000003  0.000003)
 34:   3009.08   0.000582    2.94  0.000060  (-0.007770 -0.000059 -0.000044)
 35:   3009.51   0.001044    5.28  0.000108  (-0.000049  0.008616  0.005831)
 36:   3018.41   0.005448   27.53  0.000563  (-0.023734 -0.000003  0.000013)
 37:   3024.92   0.008107   40.97  0.000836  ( 0.000011 -0.013043  0.025811)
 38:   3081.63   0.004684   23.67  0.000474  (-0.021780  0.000011  0.000009)
 39:   3086.58   0.006043   30.54  0.000611  ( 0.000017  0.020667  0.013558)
 40:   3094.75   0.001219    6.16  0.000123  (-0.011088 -0.000035  0.000152)
 41:   3095.57   0.004473   22.60  0.000451  (-0.000080  0.006015 -0.020365)

--------------------------
THERMOCHEMISTRY AT 298.15K
--------------------------

Temperature         ...   298.15 K
Pressure            ...     1.00 atm
Total Mass          ...    84.12 AMU
Quasi RRHO          ...     True
Cut-Off Frequency   ...     1.00 cm^-1

Throughout the following assumptions are being made:
  (1) The electronic state is orbitally nondegenerate
  (2) There are no thermally accessible electronically excited states
  (3) Hindered rotations indicated by low frequency modes are not
      treated as such but are treated as vibrations and this may
      cause some error
  (4) All equations used are the standard statistical mechanics
      equations for an ideal gas
  (5) All vibrations are strictly harmonic

freq.     111.11  E(vib)   ...       0.45
freq.     247.82  E(vib)   ...       0.31
freq.     449.88  E(vib)   ...       0.17
freq.     473.40  E(vib)   ...       0.15
freq.     565.07  E(vib)   ...       0.11
freq.     587.96  E(vib)   ...       0.10
freq.     704.44  E(vib)   ...       0.07
freq.     808.76  E(vib)   ...       0.05
freq.     845.32  E(vib)   ...       0.04
freq.     896.14  E(vib)   ...       0.03
freq.     922.37  E(vib)   ...       0.03
freq.     957.51  E(vib)   ...       0.03
freq.     968.56  E(vib)   ...       0.03
freq.    1029.95  E(vib)   ...       0.02
freq.    1144.29  E(vib)   ...       0.01
freq.    1162.30  E(vib)   ...       0.01
freq.    1164.80  E(vib)   ...       0.01
freq.    1217.30  E(vib)   ...       0.01
freq.    1246.60  E(vib)   ...       0.01
freq.    1292.52  E(vib)   ...       0.01
freq.    1297.94  E(vib)   ...       0.01
freq.    1333.89  E(vib)   ...       0.01
freq.    1335.35  E(vib)   ...       0.01
freq.    1435.45  E(vib)   ...       0.00
freq.    1436.32  E(vib)   ...       0.00
freq.    1488.89  E(vib)   ...       0.00
freq.    1500.13  E(vib)   ...       0.00
freq.    1794.25  E(vib)   ...       0.00
freq.    3009.08  E(vib)   ...       0.00
freq.    3009.51  E(vib)   ...       0.00
freq.    3018.41  E(vib)   ...       0.00
freq.    3024.92  E(vib)   ...       0.00
freq.    3081.63  E(vib)   ...       0.00
freq.    3086.58  E(vib)   ...       0.00
freq.    3094.75  E(vib)   ...       0.00
freq.    3095.57  E(vib)   ...       0.00

------------
INNER ENERGY
------------

The inner energy is: U= E(el) + E(ZPE) + E(vib) + E(rot) + E(trans)
    E(el)   - is the total energy from the electronic structure calculation
              = E(kin-el) + E(nuc-el) + E(el-el) + E(nuc-nuc)
    E(ZPE)  - the the zero temperature vibrational energy from the frequency calculation
    E(vib)  - the the finite temperature correction to E(ZPE) due to population
              of excited vibrational states
    E(rot)  - is the rotational thermal energy
    E(trans)- is the translational thermal energy

Summary of contributions to the inner energy U:
Electronic energy                ...   -270.52284201 Eh
Zero point energy                ...      0.12037552 Eh      75.54 kcal/mol
Thermal vibrational correction   ...      0.00268978 Eh       1.69 kcal/mol
Thermal rotational correction    ...      0.00141627 Eh       0.89 kcal/mol
Thermal translational correction ...      0.00141627 Eh       0.89 kcal/mol
-----------------------------------------------------------------------
Total thermal energy                   -270.39694416 Eh

Summary of corrections to the electronic energy:
(perhaps to be used in another calculation)
Total thermal correction                  0.00552233 Eh       3.47 kcal/mol
Non-thermal (ZPE) correction              0.12037552 Eh      75.54 kcal/mol
-----------------------------------------------------------------------
Total correction                          0.12589785 Eh      79.00 kcal/mol

--------
ENTHALPY
--------

The enthalpy is H = U + kB*T
                kB is Boltzmann's constant
Total thermal energy              ...   -270.39694416 Eh
Thermal Enthalpy correction       ...      0.00094421 Eh       0.59 kcal/mol
-----------------------------------------------------------------------
Total Enthalpy                    ...   -270.39599995 Eh

Note: Only C1 symmetry has been detected, increase convergence thresholds
      if your molecule has a higher symmetry. Symmetry factor of 1.0 is
      used for the rotational entropy correction.

Note: Rotational entropy computed according to Herzberg
Infrared and Raman Spectra, Chapter V,1, Van Nostrand Reinhold, 1945
Point Group:  C1, Symmetry Number:   1
Rotational constants in cm-1:     0.221530     0.111675     0.080339

Vibrational entropy computed according to the QRRHO of S. Grimme
Chem.Eur.J. 2012 18 9955 using a reference frequency of 100.0 cm-1

-------
ENTROPY
-------

The entropy contributions are T*S = T*(S(el)+S(vib)+S(rot)+S(trans))
     S(el)   - electronic entropy
     S(vib)  - vibrational entropy
     S(rot)  - rotational entropy
     S(trans)- translational entropy
The entropies will be listed as multiplied by the temperature to get
units of energy

Electronic entropy                ...      0.00000000 Eh      0.00 kcal/mol
Vibrational entropy               ...      0.00424900 Eh      2.67 kcal/mol
Rotational entropy                ...      0.01244762 Eh      7.81 kcal/mol
Translational entropy             ...      0.01862630 Eh     11.69 kcal/mol
-----------------------------------------------------------------------
Final entropy term                ...      0.03532291 Eh     22.17 kcal/mol

In case the symmetry of your molecule has not been determined correctly
or in case you have a reason to use a different symmetry number we print
out the resulting rotational entropy values for sn=1,12:

 non-linear molecules -----------------------------------
|  sn= 1 | S(rot)=       0.01244762 Eh      7.81 kcal/mol|
|  sn= 2 | S(rot)=       0.01179316 Eh      7.40 kcal/mol|
|  sn= 3 | S(rot)=       0.01141033 Eh      7.16 kcal/mol|
|  sn= 4 | S(rot)=       0.01113871 Eh      6.99 kcal/mol|
|  sn= 5 | S(rot)=       0.01092802 Eh      6.86 kcal/mol|
|  sn= 6 | S(rot)=       0.01075587 Eh      6.75 kcal/mol|
|  sn= 7 | S(rot)=       0.01061033 Eh      6.66 kcal/mol|
|  sn= 8 | S(rot)=       0.01048425 Eh      6.58 kcal/mol|
|  sn= 9 | S(rot)=       0.01037304 Eh      6.51 kcal/mol|
|  sn=10 | S(rot)=       0.01027356 Eh      6.45 kcal/mol|
|  sn=11 | S(rot)=       0.01018357 Eh      6.39 kcal/mol|
|  sn=12 | S(rot)=       0.01010142 Eh      6.34 kcal/mol|
 linear molecules ---------------------------------------
|  Dinfh | S(rot)=       0.00770656 Eh      4.84 kcal/mol|
|  Cinfv | S(rot)=       0.00836102 Eh      5.25 kcal/mol|
 --------------------------------------------------------

-------------------
GIBBS FREE ENERGY
-------------------

The Gibbs free energy is G = H - T*S

                             ****ORCA TERMINATED NORMALLY****
TOTAL RUN TIME: 0 days 0 hours 7 minutes 2 seconds 863 msec
