                         Program Version 6.0.1  -  RELEASE   -
|  1> ! r2scan-3c def2/J RI DEFGRID2 scfconv6 printgap
|  2> %output
|  3>     printlevel normal
|  4> end
|  5> * xyz 0 1
|  6> C -3.4748917206 0.3750763057 -3.04922e-05
|  7> C -2.7180039624 1.5355178469 -1.62019e-05
|  8> C -1.3376046794 1.4530399769 3.87124e-05
|  9> C -0.7250874198 0.214445006 6.79258e-05
| 10> C -1.4678318399 -0.963905349 1.83242e-05
| 11> C -2.8588351132 -0.8593584083 -2.52655e-05
| 12> O -0.9245044801 -2.195932372 1.08928e-05
| 13> I 1.4016868447 0.0998530903 -6.6965e-06
| 14> H -4.5524889165 0.4313047409 -2.2092e-05
| 15> H -3.1952549623 2.5027744999 -1.29833e-05
| 16> H -0.7379095238 2.3500326861 4.8003e-05
| 17> H -3.4285566188 -1.7747815467 -3.17397e-05
| 18> H 0.0445904371 -2.1354774289 5.74247e-05
| 19> *
| 20>
| 21>                          ****END OF INPUT****

CARTESIAN COORDINATES (ANGSTROEM)
---------------------------------
  C     -3.474892    0.375076   -0.000030
  C     -2.718004    1.535518   -0.000016
  C     -1.337605    1.453040    0.000039
  C     -0.725087    0.214445    0.000068
  C     -1.467832   -0.963905    0.000018
  C     -2.858835   -0.859358   -0.000025
  O     -0.924504   -2.195932    0.000011
  I      1.401687    0.099853   -0.000007
  H     -4.552489    0.431305   -0.000022
  H     -3.195255    2.502774   -0.000013
  H     -0.737910    2.350033    0.000048
  H     -3.428557   -1.774782   -0.000032
  H      0.044590   -2.135477    0.000057

 Total Charge           Charge          ....    0
 Multiplicity           Mult            ....    1
 Number of Electrons    NEL             ....   74
 Basis Dimension        Dim             ....  199

ORBITAL ENERGIES
----------------

  NO   OCC          E(Eh)            E(eV)
   0   2.0000     -18.994723      -516.8727
   1   2.0000     -10.116557      -275.2855
   2   2.0000     -10.093512      -274.6584
   3   2.0000     -10.055065      -273.6122
   4   2.0000     -10.047928      -273.4180
   5   2.0000     -10.044938      -273.3367
   6   2.0000     -10.042479      -273.2697
   7   2.0000      -6.830834      -185.8764
   8   2.0000      -4.849438      -131.9599
   9   2.0000      -4.833691      -131.5314
  10   2.0000      -4.832597      -131.5016
  11   2.0000      -1.884927       -51.2915
  12   2.0000      -1.880959       -51.1835
  13   2.0000      -1.879913       -51.1550
  14   2.0000      -1.867347       -50.8131
  15   2.0000      -1.867332       -50.8127
  16   2.0000      -1.044278       -28.4162
  17   2.0000      -0.841291       -22.8927
  18   2.0000      -0.746917       -20.3247
  19   2.0000      -0.726577       -19.7712
  20   2.0000      -0.670606       -18.2481
  21   2.0000      -0.594831       -16.1862
  22   2.0000      -0.590696       -16.0737
  23   2.0000      -0.524768       -14.2797
  24   2.0000      -0.479127       -13.0377
  25   2.0000      -0.447565       -12.1789
  26   2.0000      -0.418155       -11.3786
  27   2.0000      -0.401482       -10.9249
  28   2.0000      -0.390317       -10.6211
  29   2.0000      -0.370014       -10.0686
  30   2.0000      -0.342406        -9.3173
  31   2.0000      -0.329093        -8.9551
  32   2.0000      -0.318734        -8.6732
  33   2.0000      -0.283614        -7.7175
  34   2.0000      -0.262168        -7.1339
  35   2.0000      -0.236469        -6.4346
  36   2.0000      -0.215768        -5.8714
  37   0.0000      -0.069120        -1.8809
  38   0.0000      -0.048223        -1.3122
  39   0.0000      -0.030261        -0.8234
  40   0.0000       0.056912         1.5487
  41   0.0000       0.096256         2.6193

MULLIKEN ATOMIC CHARGES
-----------------------
   0 C :   -0.112105
   1 C :   -0.167055
   2 C :   -0.114401
   3 C :   -0.152310
   4 C :    0.405266
   5 C :   -0.274266
   6 O :   -0.400266
   7 I :   -0.111194
   8 H :    0.151248
   9 H :    0.150970
  10 H :    0.157542
  11 H :    0.162291
  12 H :    0.304281
Sum of atomic charges:    0.0000000

LOEWDIN ATOMIC CHARGES
----------------------
   0 C :   -0.148766
   1 C :   -0.181081
   2 C :   -0.159544
   3 C :   -0.237792
   4 C :    0.174640
   5 C :   -0.132835
   6 O :   -0.493561
   7 I :    0.194673
   8 H :    0.170914
   9 H :    0.170747
  10 H :    0.177337
  11 H :    0.183893
  12 H :    0.281375

  Mayer bond orders larger than 0.100000
B(  0-C ,  1-C ) :   1.4049 B(  0-C ,  5-C ) :   1.4056 B(  0-C ,  8-H ) :   0.9453
B(  1-C ,  2-C ) :   1.4163 B(  1-C ,  9-H ) :   0.9442 B(  2-C ,  3-C ) :   1.3455
B(  2-C , 10-H ) :   0.9375 B(  3-C ,  4-C ) :   1.3499 B(  3-C ,  7-I ) :   1.0281
B(  4-C ,  5-C ) :   1.3715 B(  4-C ,  6-O ) :   1.0265 B(  5-C , 11-H ) :   0.9437
B(  6-O , 12-H ) :   0.8351

Dispersion correction           -0.004892587
FINAL SINGLE POINT ENERGY      -604.540377142870

DIPOLE MOMENT
-------------

Method             : SCF
Type of density    : Electron Density
Multiplicity       :   1
Irrep              :   0
Energy             :  -604.5395242936533577 Eh
Relativity type    :
Basis              : AO
                                X                 Y                 Z
Electronic contribution:    112.689824734       6.301169543      -0.000508224
Nuclear contribution   :   -112.844270936      -5.987742797       0.000522227
                        -----------------------------------------
Total Dipole Moment    :     -0.154446202       0.313426746       0.000014003
                        -----------------------------------------
Magnitude (a.u.)       :      0.349413730
Magnitude (Debye)      :      0.888139119

Rotational constants in cm-1:             0.096769             0.024354             0.019457
Rotational constants in MHz :          2901.060516           730.115162           583.311979

                             ****ORCA TERMINATED NORMALLY****
TOTAL RUN TIME: 0 days 0 hours 0 minutes 23 seconds 706 msec
