                         Program Version 6.0.1  -  RELEASE   -
|  1> ! r2scan-3c def2/J RI DEFGRID2 scfconv6 printgap
|  2> %output
|  3>     printlevel normal
|  4> end
|  5> * xyz 0 1
|  6> C -2.8032107957 -0.6799878227 -0.0421463497
|  7> O -1.4810278318 -0.8123931327 0.4748423691
|  8> C -0.5643678996 0.0704782154 0.0712225935
|  9> O -0.7573581449 0.959574874 -0.7057187581
| 10> C 0.7512057762 -0.2233966472 0.773930234
| 11> Cl 2.1170405379 0.2985955088 -0.230092994
| 12> H -3.0952894357 -1.6427859883 -0.4590178671
| 13> H -2.8262573964 0.0917953911 -0.8130702556
| 14> H -3.4703692499 -0.4113479222 0.7771609502
| 15> H 0.8443114944 -1.289555122 0.9750343709
| 16> H 0.7915271361 0.3380241086 1.709058205
| 17> *
| 18>
| 19>                          ****END OF INPUT****

CARTESIAN COORDINATES (ANGSTROEM)
---------------------------------
  C     -2.803211   -0.679988   -0.042146
  O     -1.481028   -0.812393    0.474842
  C     -0.564368    0.070478    0.071223
  O     -0.757358    0.959575   -0.705719
  C      0.751206   -0.223397    0.773930
  Cl     2.117041    0.298596   -0.230093
  H     -3.095289   -1.642786   -0.459018
  H     -2.826257    0.091795   -0.813070
  H     -3.470369   -0.411348    0.777161
  H      0.844311   -1.289555    0.975034
  H      0.791527    0.338024    1.709058

 Total Charge           Charge          ....    0
 Multiplicity           Mult            ....    1
 Number of Electrons    NEL             ....   56
 Basis Dimension        Dim             ....  157

ORBITAL ENERGIES
----------------

  NO   OCC          E(Eh)            E(eV)
   0   2.0000    -101.212281     -2754.1262
   1   2.0000     -19.017363      -517.4888
   2   2.0000     -18.949551      -515.6435
   3   2.0000     -10.175001      -276.8758
   4   2.0000     -10.113605      -275.2052
   5   2.0000     -10.096447      -274.7383
   6   2.0000      -9.368114      -254.9193
   7   2.0000      -7.114939      -193.6073
   8   2.0000      -7.103884      -193.3065
   9   2.0000      -7.103801      -193.3043
  10   2.0000      -1.091961       -29.7138
  11   2.0000      -1.003174       -27.2978
  12   2.0000      -0.833564       -22.6824
  13   2.0000      -0.732940       -19.9443
  14   2.0000      -0.658878       -17.9290
  15   2.0000      -0.549049       -14.9404
  16   2.0000      -0.494204       -13.4480
  17   2.0000      -0.478626       -13.0241
  18   2.0000      -0.459947       -12.5158
  19   2.0000      -0.435044       -11.8381
  20   2.0000      -0.409112       -11.1325
  21   2.0000      -0.395368       -10.7585
  22   2.0000      -0.371062       -10.0971
  23   2.0000      -0.336537        -9.1576
  24   2.0000      -0.291530        -7.9329
  25   2.0000      -0.277995        -7.5646
  26   2.0000      -0.275239        -7.4896
  27   2.0000      -0.260252        -7.0818
  28   0.0000      -0.040558        -1.1036
  29   0.0000       0.007981         0.2172
  30   0.0000       0.068254         1.8573
  31   0.0000       0.085679         2.3314
  32   0.0000       0.113013         3.0752

MULLIKEN ATOMIC CHARGES
-----------------------
   0 C :   -0.302171
   1 O :   -0.193960
   2 C :    0.384265
   3 O :   -0.404500
   4 C :   -0.200924
   5 Cl:   -0.139624
   6 H :    0.151697
   7 H :    0.191086
   8 H :    0.150804
   9 H :    0.181403
  10 H :    0.181925
Sum of atomic charges:    0.0000000

LOEWDIN ATOMIC CHARGES
----------------------
   0 C :   -0.043302
   1 O :   -0.602793
   2 C :    0.333492
   3 O :   -0.411000
   4 C :   -0.260886
   5 Cl:    0.075505
   6 H :    0.175997
   7 H :    0.195380
   8 H :    0.174119
   9 H :    0.180928
  10 H :    0.182559

  Mayer bond orders larger than 0.100000
B(  0-C ,  1-O ) :   0.8408 B(  0-C ,  6-H ) :   0.9644 B(  0-C ,  7-H ) :   0.9660
B(  0-C ,  8-H ) :   0.9612 B(  1-O ,  2-C ) :   1.0487 B(  2-C ,  3-O ) :   1.8769
B(  2-C ,  4-C ) :   1.0013 B(  4-C ,  5-Cl) :   1.0360 B(  4-C ,  9-H ) :   0.9540
B(  4-C , 10-H ) :   0.9201

Dispersion correction           -0.002552860
FINAL SINGLE POINT ENERGY      -727.901878235600

DIPOLE MOMENT
-------------

Method             : SCF
Type of density    : Electron Density
Multiplicity       :   1
Irrep              :   0
Energy             :  -727.9098956302211718 Eh
Relativity type    :
Basis              : AO
                                X                 Y                 Z
Electronic contribution:      9.308879373       2.396605148      -1.628160093
Nuclear contribution   :    -10.151184409      -3.132313174       2.359231694
                        -----------------------------------------
Total Dipole Moment    :     -0.842305036      -0.735708026       0.731071601
                        -----------------------------------------
Magnitude (a.u.)       :      1.336117419
Magnitude (Debye)      :      3.396140584

Rotational constants in cm-1:             0.307008             0.047119             0.042466
Rotational constants in MHz :          9203.882473          1412.582204          1273.094185

                             ****ORCA TERMINATED NORMALLY****
TOTAL RUN TIME: 0 days 0 hours 0 minutes 13 seconds 813 msec
