                         Program Version 6.0.1  -  RELEASE   -
|  1> ! pbe def2-sv(p) def2/J RI DEFGRID1 loosescf d4 GCP(DFT/SV(P)) printgap
|  2> %output
|  3>     printlevel normal
|  4> end
|  5> * xyz 0 1
|  6> C -3.0521166432 -0.6808935796 0.6332851458
|  7> C -1.9370741922 -0.5331420625 -0.4022277073
|  8> H -2.389681434 -0.6385667191 -1.3971900951
|  9> C -0.8334178163 -1.5834583152 -0.2403463429
| 10> C 0.1707377761 -1.1526433121 0.8257496486
| 11> C 0.8881097258 0.1633961897 0.4670527521
| 12> H 0.8932220377 0.8028166868 1.3553383003
| 13> C 0.1221243562 0.9232642126 -0.6381126084
| 14> C -1.3590114647 0.8710002977 -0.3664746821
| 15> O -2.0242637508 1.8519585922 -0.1471364395
| 16> C 2.3240818088 -0.0182309688 0.0238395675
| 17> C 2.7182732968 -1.0052286328 -0.7644703726
| 18> C 3.2730325311 1.0313628832 0.5163620503
| 19> H -2.6433250199 -0.6657990759 1.6407564553
| 20> H -3.7511321119 0.1459986981 0.5381312638
| 21> H -3.588172263 -1.6158136333 0.488636169
| 22> H -1.2833621623 -2.5365746938 0.0447737737
| 23> H -0.3195821736 -1.7368810672 -1.1904632966
| 24> H -0.3646789314 -1.0205336714 1.7678501279
| 25> H 0.9082835417 -1.9413299174 0.9802816346
| 26> H 0.4525468883 1.9617162974 -0.6807458992
| 27> H 0.3202263143 0.4531223394 -1.6028378489
| 28> H 3.743958998 -1.0995296728 -1.078334792
| 29> H 2.0461162577 -1.7631262878 -1.1274057527
| 30> H 2.9123769329 2.0234881096 0.2475460268
| 31> H 3.3468870919 0.9894431125 1.6029998661
| 32> H 4.2650518017 0.8934629965 0.0949622155
| 33> *
| 34>
| 35>                          ****END OF INPUT****

CARTESIAN COORDINATES (ANGSTROEM)
---------------------------------
  C     -3.052117   -0.680894    0.633285
  C     -1.937074   -0.533142   -0.402228
  H     -2.389681   -0.638567   -1.397190
  C     -0.833418   -1.583458   -0.240346
  C      0.170738   -1.152643    0.825750
  C      0.888110    0.163396    0.467053
  H      0.893222    0.802817    1.355338
  C      0.122124    0.923264   -0.638113
  C     -1.359011    0.871000   -0.366475
  O     -2.024264    1.851959   -0.147136
  C      2.324082   -0.018231    0.023840
  C      2.718273   -1.005229   -0.764470
  C      3.273033    1.031363    0.516362
  H     -2.643325   -0.665799    1.640756
  H     -3.751132    0.145999    0.538131
  H     -3.588172   -1.615814    0.488636
  H     -1.283362   -2.536575    0.044774
  H     -0.319582   -1.736881   -1.190463
  H     -0.364679   -1.020534    1.767850
  H      0.908284   -1.941330    0.980282
  H      0.452547    1.961716   -0.680746
  H      0.320226    0.453122   -1.602838
  H      3.743959   -1.099530   -1.078335
  H      2.046116   -1.763126   -1.127406
  H      2.912377    2.023488    0.247546
  H      3.346887    0.989443    1.603000
  H      4.265052    0.893463    0.094962

 Total Charge           Charge          ....    0
 Multiplicity           Mult            ....    1
 Number of Electrons    NEL             ....   84
 Basis Dimension        Dim             ....  186

ORBITAL ENERGIES
----------------

  NO   OCC          E(Eh)            E(eV)
   0   2.0000     -18.740791      -509.9629
   1   2.0000      -9.969583      -271.2862
   2   2.0000      -9.909580      -269.6534
   3   2.0000      -9.904537      -269.5162
   4   2.0000      -9.902491      -269.4605
   5   2.0000      -9.894576      -269.2451
   6   2.0000      -9.893552      -269.2172
   7   2.0000      -9.891183      -269.1528
   8   2.0000      -9.886719      -269.0313
   9   2.0000      -9.878522      -268.8083
  10   2.0000      -9.876799      -268.7614
  11   2.0000      -0.940792       -25.6003
  12   2.0000      -0.773480       -21.0474
  13   2.0000      -0.730160       -19.8687
  14   2.0000      -0.683375       -18.5956
  15   2.0000      -0.658280       -17.9127
  16   2.0000      -0.618246       -16.8233
  17   2.0000      -0.610822       -16.6213
  18   2.0000      -0.550936       -14.9917
  19   2.0000      -0.539059       -14.6685
  20   2.0000      -0.469148       -12.7662
  21   2.0000      -0.456116       -12.4115
  22   2.0000      -0.448048       -12.1920
  23   2.0000      -0.429049       -11.6750
  24   2.0000      -0.417380       -11.3575
  25   2.0000      -0.402332       -10.9480
  26   2.0000      -0.388898       -10.5825
  27   2.0000      -0.375533       -10.2188
  28   2.0000      -0.367078        -9.9887
  29   2.0000      -0.360281        -9.8037
  30   2.0000      -0.354229        -9.6391
  31   2.0000      -0.349838        -9.5196
  32   2.0000      -0.333266        -9.0686
  33   2.0000      -0.329571        -8.9681
  34   2.0000      -0.325837        -8.8665
  35   2.0000      -0.318080        -8.6554
  36   2.0000      -0.307344        -8.3633
  37   2.0000      -0.285746        -7.7755
  38   2.0000      -0.278884        -7.5888
  39   2.0000      -0.277386        -7.5480
  40   2.0000      -0.223852        -6.0913
  41   2.0000      -0.191405        -5.2084
  42   0.0000      -0.052469        -1.4277
  43   0.0000      -0.017253        -0.4695
  44   0.0000       0.028050         0.7633
  45   0.0000       0.039549         1.0762
  46   0.0000       0.052518         1.4291

MULLIKEN ATOMIC CHARGES
-----------------------
   0 C :   -0.245675
   1 C :   -0.186387
   2 H :    0.101253
   3 C :   -0.109782
   4 C :   -0.111068
   5 C :   -0.176251
   6 H :    0.067733
   7 C :   -0.048413
   8 C :    0.008507
   9 O :   -0.149854
  10 C :   -0.040963
  11 C :   -0.247708
  12 C :   -0.214274
  13 H :    0.101292
  14 H :    0.120786
  15 H :    0.098675
  16 H :    0.088185
  17 H :    0.081367
  18 H :    0.086284
  19 H :    0.095712
  20 H :    0.085316
  21 H :    0.092810
  22 H :    0.085200
  23 H :    0.094277
  24 H :    0.112052
  25 H :    0.112748
  26 H :    0.098180
Sum of atomic charges:   -0.0000000

LOEWDIN ATOMIC CHARGES
----------------------
   0 C :   -0.325961
   1 C :   -0.176567
   2 H :    0.142974
   3 C :   -0.218777
   4 C :   -0.218455
   5 C :   -0.124342
   6 H :    0.123303
   7 C :   -0.227715
   8 C :    0.048708
   9 O :   -0.119055
  10 C :   -0.046105
  11 C :   -0.271578
  12 C :   -0.321189
  13 H :    0.118176
  14 H :    0.128064
  15 H :    0.119071
  16 H :    0.122059
  17 H :    0.115764
  18 H :    0.120426
  19 H :    0.125097
  20 H :    0.128783
  21 H :    0.137824
  22 H :    0.120186
  23 H :    0.116584
  24 H :    0.128596
  25 H :    0.130281
  26 H :    0.123848

  Mayer bond orders larger than 0.100000
B(  0-C ,  1-C ) :   1.1215 B(  0-C , 13-H ) :   0.9500 B(  0-C , 14-H ) :   0.9359
B(  0-C , 15-H ) :   0.9465 B(  1-C ,  2-H ) :   0.8580 B(  1-C ,  3-C ) :   1.0794
B(  1-C ,  8-C ) :   0.9189 B(  3-C ,  4-C ) :   1.1741 B(  3-C , 16-H ) :   0.9134
B(  3-C , 17-H ) :   0.8853 B(  4-C ,  5-C ) :   1.0756 B(  4-C , 18-H ) :   0.9018
B(  4-C , 19-H ) :   0.9088 B(  5-C ,  6-H ) :   0.8840 B(  5-C ,  7-C ) :   1.0925
B(  5-C , 10-C ) :   0.9978 B(  7-C ,  8-C ) :   1.0803 B(  7-C , 20-H ) :   0.8900
B(  7-C , 21-H ) :   0.8618 B(  8-C ,  9-O ) :   2.2030 B( 10-C , 11-C ) :   2.0442
B( 10-C , 12-C ) :   1.1294 B( 11-C , 22-H ) :   0.9012 B( 11-C , 23-H ) :   0.9016
B( 12-C , 24-H ) :   0.9296 B( 12-C , 25-H ) :   0.9264 B( 12-C , 26-H ) :   0.9403

Dispersion correction           -0.028775485
FINAL SINGLE POINT ENERGY      -464.822891434589

DIPOLE MOMENT
-------------

Method             : SCF
Type of density    : Electron Density
Multiplicity       :   1
Irrep              :   0
Energy             :  -464.9084953124553294 Eh
Relativity type    :
Basis              : AO
                                X                 Y                 Z
Electronic contribution:     -3.715076266       4.664678990      -1.621985267
Nuclear contribution   :      4.237454370      -5.365218941       1.577970324
                        -----------------------------------------
Total Dipole Moment    :      0.522378104      -0.700539951      -0.044014943
                        -----------------------------------------
Magnitude (a.u.)       :      0.874969955
Magnitude (Debye)      :      2.223996881

Rotational constants in cm-1:             0.069239             0.024030             0.020227
Rotational constants in MHz :          2075.743186           720.386524           606.401788

                             ****ORCA TERMINATED NORMALLY****
TOTAL RUN TIME: 0 days 0 hours 0 minutes 26 seconds 906 msec
