                         Program Version 6.0.1  -  RELEASE   -
|  1> ! pbe def2-sv(p) def2/J RI DEFGRID1 loosescf d4 GCP(DFT/SV(P)) printgap
|  2> %output
|  3>     printlevel normal
|  4> end
|  5> * xyz 0 1
|  6> C -1.1955935805 -1.2006372141 0.0091602861
|  7> C 0.184559119 -1.2030695796 0.0021962082
|  8> C 0.8712198742 4.77089e-05 -0.0006058686
|  9> C 0.1845458374 1.2031203129 0.0021395434
| 10> C -1.1956450262 1.2005683729 0.0091412493
| 11> C -1.9086123085 -3.70483e-05 0.0113317446
| 12> N -3.2843264726 3.75534e-05 -0.0543686485
| 13> Cl 2.6045759423 -6.784e-06 -0.0030713054
| 14> H -1.7341055477 -2.13702057 0.010926535
| 15> H 0.7277070985 -2.1350420045 0.0020962527
| 16> H 0.7275602232 2.1351621669 0.0021364123
| 17> H -1.7341307224 2.136963027 0.0109039172
| 18> H -3.7507056117 -0.8488826159 0.2192977875
| 19> H -3.7506497549 0.848625496 0.2206450387
| 20> *
| 21>
| 22>                          ****END OF INPUT****

CARTESIAN COORDINATES (ANGSTROEM)
---------------------------------
  C     -1.195594   -1.200637    0.009160
  C      0.184559   -1.203070    0.002196
  C      0.871220    0.000048   -0.000606
  C      0.184546    1.203120    0.002140
  C     -1.195645    1.200568    0.009141
  C     -1.908612   -0.000037    0.011332
  N     -3.284326    0.000038   -0.054369
  Cl     2.604576   -0.000007   -0.003071
  H     -1.734106   -2.137021    0.010927
  H      0.727707   -2.135042    0.002096
  H      0.727560    2.135162    0.002136
  H     -1.734131    2.136963    0.010904
  H     -3.750706   -0.848883    0.219298
  H     -3.750650    0.848625    0.220645

 Total Charge           Charge          ....    0
 Multiplicity           Mult            ....    1
 Number of Electrons    NEL             ....   66
 Basis Dimension        Dim             ....  128

ORBITAL ENERGIES
----------------

  NO   OCC          E(Eh)            E(eV)
   0   2.0000    -100.624368     -2738.1283
   1   2.0000     -13.999195      -380.9375
   2   2.0000      -9.937037      -270.4005
   3   2.0000      -9.931845      -270.2592
   4   2.0000      -9.895169      -269.2612
   5   2.0000      -9.895166      -269.2611
   6   2.0000      -9.892216      -269.1809
   7   2.0000      -9.892206      -269.1806
   8   2.0000      -9.160407      -249.2674
   9   2.0000      -6.991657      -190.2527
  10   2.0000      -6.980306      -189.9438
  11   2.0000      -6.979954      -189.9342
  12   2.0000      -0.843015       -22.9396
  13   2.0000      -0.796507       -21.6741
  14   2.0000      -0.739558       -20.1244
  15   2.0000      -0.676611       -18.4115
  16   2.0000      -0.637451       -17.3459
  17   2.0000      -0.562203       -15.2983
  18   2.0000      -0.534336       -14.5400
  19   2.0000      -0.481139       -13.0925
  20   2.0000      -0.475277       -12.9330
  21   2.0000      -0.424559       -11.5528
  22   2.0000      -0.398768       -10.8510
  23   2.0000      -0.391166       -10.6442
  24   2.0000      -0.380248       -10.3471
  25   2.0000      -0.357447        -9.7266
  26   2.0000      -0.333783        -9.0827
  27   2.0000      -0.310885        -8.4596
  28   2.0000      -0.310855        -8.4588
  29   2.0000      -0.254443        -6.9237
  30   2.0000      -0.249197        -6.7810
  31   2.0000      -0.232389        -6.3236
  32   2.0000      -0.172573        -4.6959
  33   0.0000      -0.037105        -1.0097
  34   0.0000      -0.016971        -0.4618
  35   0.0000       0.017352         0.4722
  36   0.0000       0.035345         0.9618
  37   0.0000       0.059616         1.6222

MULLIKEN ATOMIC CHARGES
-----------------------
   0 C :   -0.139497
   1 C :   -0.083373
   2 C :    0.113695
   3 C :   -0.083418
   4 C :   -0.139546
   5 C :    0.180342
   6 N :   -0.336937
   7 Cl:   -0.107116
   8 H :    0.028542
   9 H :    0.045751
  10 H :    0.045747
  11 H :    0.028547
  12 H :    0.223609
  13 H :    0.223654
Sum of atomic charges:    0.0000000

LOEWDIN ATOMIC CHARGES
----------------------
   0 C :   -0.155654
   1 C :   -0.132603
   2 C :   -0.162722
   3 C :   -0.132606
   4 C :   -0.155643
   5 C :   -0.009285
   6 N :   -0.313377
   7 Cl:    0.107653
   8 H :    0.121770
   9 H :    0.128890
  10 H :    0.128893
  11 H :    0.121772
  12 H :    0.226447
  13 H :    0.226465

  Mayer bond orders larger than 0.100000
B(  0-C ,  1-C ) :   1.3749 B(  0-C ,  5-C ) :   1.3154 B(  0-C ,  8-H ) :   0.9612
B(  1-C ,  2-C ) :   1.3782 B(  1-C ,  9-H ) :   0.9627 B(  2-C ,  3-C ) :   1.3782
B(  2-C ,  7-Cl) :   0.9465 B(  3-C ,  4-C ) :   1.3749 B(  3-C , 10-H ) :   0.9627
B(  4-C ,  5-C ) :   1.3155 B(  4-C , 11-H ) :   0.9612 B(  5-C ,  6-N ) :   1.2375
B(  6-N , 12-H ) :   0.8826 B(  6-N , 13-H ) :   0.8825

Dispersion correction           -0.015495522
FINAL SINGLE POINT ENERGY      -746.243916906476

DIPOLE MOMENT
-------------

Method             : SCF
Type of density    : Electron Density
Multiplicity       :   1
Irrep              :   0
Energy             :  -746.2828753269377557 Eh
Relativity type    :
Basis              : AO
                                X                 Y                 Z
Electronic contribution:     11.063560488      -0.000018581      -0.123030147
Nuclear contribution   :    -12.440016401      -0.000173163       0.441017706
                        -----------------------------------------
Total Dipole Moment    :     -1.376455913      -0.000191744       0.317987560
                        -----------------------------------------
Magnitude (a.u.)       :      1.412709101
Magnitude (Debye)      :      3.590821168

Rotational constants in cm-1:             0.188587             0.032717             0.027893
Rotational constants in MHz :          5653.704783           980.826693           836.220704

                             ****ORCA TERMINATED NORMALLY****
TOTAL RUN TIME: 0 days 0 hours 0 minutes 20 seconds 264 msec
