                         Program Version 6.0.1  -  RELEASE   -
|  1> ! r2scan-3c def2/J RI DEFGRID2 scfconv6 printgap
|  2> %output
|  3>     printlevel normal
|  4> end
|  5> * xyz 0 1
|  6> C -1.8071744137 0.04245099 0.9926083533
|  7> C -0.9702150153 -0.3439271679 -0.2238143992
|  8> H -1.0622579045 -1.4238453485 -0.4305304905
|  9> C 0.5134919826 -0.0909258494 0.0658606389
| 10> F 0.7692996796 1.181036092 0.3780710921
| 11> F 0.9299609668 -0.8333251555 1.1080965961
| 12> F 1.2967999735 -0.4136267933 -0.9647782866
| 13> O -1.2710789039 0.412644343 -1.3654974608
| 14> H -2.8553109456 -0.1790335384 0.8046316597
| 15> H -1.6985597849 1.1070100604 1.1888691201
| 16> H -1.4817060759 -0.5163214662 1.8657380326
| 17> H -2.2207346294 0.3805548748 -1.5271909563
| 18> *
| 19>
| 20>                          ****END OF INPUT****

CARTESIAN COORDINATES (ANGSTROEM)
---------------------------------
  C     -1.807174    0.042451    0.992608
  C     -0.970215   -0.343927   -0.223814
  H     -1.062258   -1.423845   -0.430530
  C      0.513492   -0.090926    0.065861
  F      0.769300    1.181036    0.378071
  F      0.929961   -0.833325    1.108097
  F      1.296800   -0.413627   -0.964778
  O     -1.271079    0.412644   -1.365497
  H     -2.855311   -0.179034    0.804632
  H     -1.698560    1.107010    1.188869
  H     -1.481706   -0.516321    1.865738
  H     -2.220735    0.380555   -1.527191

 Total Charge           Charge          ....    0
 Multiplicity           Mult            ....    1
 Number of Electrons    NEL             ....   58
 Basis Dimension        Dim             ....  178

ORBITAL ENERGIES
----------------

  NO   OCC          E(Eh)            E(eV)
   0   2.0000     -24.515526      -667.1014
   1   2.0000     -24.515204      -667.0926
   2   2.0000     -24.513119      -667.0359
   3   2.0000     -18.975359      -516.3458
   4   2.0000     -10.275597      -279.6132
   5   2.0000     -10.120396      -275.3900
   6   2.0000     -10.045476      -273.3513
   7   2.0000      -1.275580       -34.7103
   8   2.0000      -1.185282       -32.2532
   9   2.0000      -1.183637       -32.2084
  10   2.0000      -1.019321       -27.7371
  11   2.0000      -0.764166       -20.7940
  12   2.0000      -0.678858       -18.4727
  13   2.0000      -0.614797       -16.7295
  14   2.0000      -0.559631       -15.2283
  15   2.0000      -0.553695       -15.0668
  16   2.0000      -0.515045       -14.0151
  17   2.0000      -0.496226       -13.5030
  18   2.0000      -0.439564       -11.9611
  19   2.0000      -0.425585       -11.5808
  20   2.0000      -0.420779       -11.4500
  21   2.0000      -0.406738       -11.0679
  22   2.0000      -0.383087       -10.4243
  23   2.0000      -0.379985       -10.3399
  24   2.0000      -0.371825       -10.1179
  25   2.0000      -0.363378        -9.8880
  26   2.0000      -0.354187        -9.6379
  27   2.0000      -0.318262        -8.6603
  28   2.0000      -0.265754        -7.2315
  29   0.0000       0.037089         1.0093
  30   0.0000       0.082457         2.2438
  31   0.0000       0.104919         2.8550
  32   0.0000       0.117300         3.1919
  33   0.0000       0.131219         3.5707

MULLIKEN ATOMIC CHARGES
-----------------------
   0 C :   -0.502735
   1 C :    0.036744
   2 H :    0.149005
   3 C :    0.544452
   4 F :   -0.205764
   5 F :   -0.219924
   6 F :   -0.196234
   7 O :   -0.401887
   8 H :    0.147196
   9 H :    0.179472
  10 H :    0.170255
  11 H :    0.299419
Sum of atomic charges:    0.0000000

LOEWDIN ATOMIC CHARGES
----------------------
   0 C :   -0.383908
   1 C :    0.075580
   2 H :    0.181751
   3 C :    0.517645
   4 F :   -0.194402
   5 F :   -0.217536
   6 F :   -0.189593
   7 O :   -0.567862
   8 H :    0.157273
   9 H :    0.172802
  10 H :    0.172360
  11 H :    0.275890

  Mayer bond orders larger than 0.100000
B(  0-C ,  1-C ) :   0.9193 B(  0-C ,  8-H ) :   0.9653 B(  0-C ,  9-H ) :   0.9725
B(  0-C , 10-H ) :   0.9588 B(  1-C ,  2-H ) :   0.9255 B(  1-C ,  3-C ) :   1.0027
B(  1-C ,  7-O ) :   0.9191 B(  3-C ,  4-F ) :   1.0363 B(  3-C ,  5-F ) :   0.9993
B(  3-C ,  6-F ) :   1.0395 B(  7-O , 11-H ) :   0.8958

Dispersion correction           -0.002550276
FINAL SINGLE POINT ENERGY      -492.054358840917

DIPOLE MOMENT
-------------

Method             : SCF
Type of density    : Electron Density
Multiplicity       :   1
Irrep              :   0
Energy             :  -492.0637043119388636 Eh
Relativity type    :
Basis              : AO
                                X                 Y                 Z
Electronic contribution:     10.236884083       0.196857755      -1.090053077
Nuclear contribution   :    -11.537184332      -0.525406056       1.280670195
                        -----------------------------------------
Total Dipole Moment    :     -1.300300249      -0.328548301       0.190617118
                        -----------------------------------------
Magnitude (a.u.)       :      1.354643720
Magnitude (Debye)      :      3.443230699

Rotational constants in cm-1:             0.118380             0.080574             0.065896
Rotational constants in MHz :          3548.955441          2415.546083          1975.515872

                             ****ORCA TERMINATED NORMALLY****
TOTAL RUN TIME: 0 days 0 hours 0 minutes 19 seconds 397 msec
