                         Program Version 6.0.1  -  RELEASE   -
|  1> ! pbe def2-sv(p) def2/J RI DEFGRID1 loosescf d4 GCP(DFT/SV(P)) printgap
|  2> %output
|  3>     printlevel normal
|  4> end
|  5> * xyz 0 1
|  6> C -2.290957866 -0.9504156224 -0.2893260146
|  7> C -1.125442494 -0.236755884 0.4122050166
|  8> H -1.4924136075 0.1749547285 1.3645316214
|  9> C -0.5599563424 0.8975707661 -0.443177686
| 10> H -0.4268462061 0.5665180718 -1.4788138222
| 11> C 0.8021911152 1.3388222131 0.1119815559
| 12> H 0.6831668717 1.6490071953 1.1648720619
| 13> C 1.7968770677 0.17180348 0.0903713722
| 14> H 2.3870233863 0.2520854989 -0.8315304652
| 15> C 1.057780848 -1.1858793431 0.0488523638
| 16> H 1.6765733662 -1.9386228329 0.5672070005
| 17> O -0.1357713018 -1.200668818 0.7765184975
| 18> O 0.8736765762 -1.5311483264 -1.2920638731
| 19> O 2.6025922193 0.2762524951 1.234402152
| 20> O 1.3138600918 2.3999819252 -0.6481595957
| 21> O -1.4395831552 1.9923160528 -0.5131098141
| 22> O -2.8746387008 -1.9148719807 0.5434873657
| 23> H -1.9230777646 -1.4084587741 -1.2198329623
| 24> H -3.0688732249 -0.2261092699 -0.5390493199
| 25> H 0.4223915991 -2.3833173262 -1.3432797185
| 26> H 3.3860567672 -0.2745428823 1.1324610134
| 27> H 0.5621879814 2.9314293514 -0.9474067094
| 28> H -1.6405805745 2.2947223648 0.3821283022
| 29> H -2.1573944347 -2.4035182636 0.9676292202
| 30> *
| 31>
| 32>                          ****END OF INPUT****

CARTESIAN COORDINATES (ANGSTROEM)
---------------------------------
  C     -2.290958   -0.950416   -0.289326
  C     -1.125442   -0.236756    0.412205
  H     -1.492414    0.174955    1.364532
  C     -0.559956    0.897571   -0.443178
  H     -0.426846    0.566518   -1.478814
  C      0.802191    1.338822    0.111982
  H      0.683167    1.649007    1.164872
  C      1.796877    0.171803    0.090371
  H      2.387023    0.252085   -0.831530
  C      1.057781   -1.185879    0.048852
  H      1.676573   -1.938623    0.567207
  O     -0.135771   -1.200669    0.776518
  O      0.873677   -1.531148   -1.292064
  O      2.602592    0.276252    1.234402
  O      1.313860    2.399982   -0.648160
  O     -1.439583    1.992316   -0.513110
  O     -2.874639   -1.914872    0.543487
  H     -1.923078   -1.408459   -1.219833
  H     -3.068873   -0.226109   -0.539049
  H      0.422392   -2.383317   -1.343280
  H      3.386057   -0.274543    1.132461
  H      0.562188    2.931429   -0.947407
  H     -1.640581    2.294722    0.382128
  H     -2.157394   -2.403518    0.967629

 Total Charge           Charge          ....    0
 Multiplicity           Mult            ....    1
 Number of Electrons    NEL             ....   96
 Basis Dimension        Dim             ....  192

ORBITAL ENERGIES
----------------

  NO   OCC          E(Eh)            E(eV)
   0   2.0000     -18.782841      -511.1071
   1   2.0000     -18.774232      -510.8728
   2   2.0000     -18.773957      -510.8653
   3   2.0000     -18.756345      -510.3861
   4   2.0000     -18.743902      -510.0475
   5   2.0000     -18.743512      -510.0369
   6   2.0000      -9.994195      -271.9559
   7   2.0000      -9.952074      -270.8097
   8   2.0000      -9.949419      -270.7375
   9   2.0000      -9.944888      -270.6141
  10   2.0000      -9.942550      -270.5505
  11   2.0000      -9.932219      -270.2694
  12   2.0000      -0.993952       -27.0468
  13   2.0000      -0.957659       -26.0592
  14   2.0000      -0.937608       -25.5136
  15   2.0000      -0.930895       -25.3309
  16   2.0000      -0.917465       -24.9655
  17   2.0000      -0.915817       -24.9207
  18   2.0000      -0.711030       -19.3481
  19   2.0000      -0.697125       -18.9697
  20   2.0000      -0.619800       -16.8656
  21   2.0000      -0.601298       -16.3621
  22   2.0000      -0.568496       -15.4696
  23   2.0000      -0.527401       -14.3513
  24   2.0000      -0.514744       -14.0069
  25   2.0000      -0.491144       -13.3647
  26   2.0000      -0.480533       -13.0760
  27   2.0000      -0.470134       -12.7930
  28   2.0000      -0.451968       -12.2987
  29   2.0000      -0.418232       -11.3807
  30   2.0000      -0.413345       -11.2477
  31   2.0000      -0.407258       -11.0821
  32   2.0000      -0.390483       -10.6256
  33   2.0000      -0.381194       -10.3728
  34   2.0000      -0.371570       -10.1109
  35   2.0000      -0.361720        -9.8429
  36   2.0000      -0.345908        -9.4126
  37   2.0000      -0.315312        -8.5801
  38   2.0000      -0.302143        -8.2217
  39   2.0000      -0.295769        -8.0483
  40   2.0000      -0.290212        -7.8971
  41   2.0000      -0.274292        -7.4639
  42   2.0000      -0.261441        -7.1142
  43   2.0000      -0.247185        -6.7263
  44   2.0000      -0.241030        -6.5588
  45   2.0000      -0.229518        -6.2455
  46   2.0000      -0.217239        -5.9114
  47   2.0000      -0.203910        -5.5487
  48   0.0000       0.009789         0.2664
  49   0.0000       0.014596         0.3972
  50   0.0000       0.025361         0.6901
  51   0.0000       0.038492         1.0474
  52   0.0000       0.058245         1.5849

MULLIKEN ATOMIC CHARGES
-----------------------
   0 C :    0.097420
   1 C :    0.004028
   2 H :    0.058676
   3 C :    0.016963
   4 H :    0.081976
   5 C :    0.054162
   6 H :    0.047886
   7 C :    0.100532
   8 H :    0.080586
   9 C :    0.139502
  10 H :    0.048564
  11 O :   -0.323004
  12 O :   -0.392524
  13 O :   -0.406458
  14 O :   -0.407324
  15 O :   -0.410138
  16 O :   -0.431007
  17 H :    0.054053
  18 H :    0.086828
  19 H :    0.304327
  20 H :    0.301172
  21 H :    0.297696
  22 H :    0.301184
  23 H :    0.294901
Sum of atomic charges:    0.0000000

LOEWDIN ATOMIC CHARGES
----------------------
   0 C :   -0.130941
   1 C :   -0.076646
   2 H :    0.110121
   3 C :   -0.089925
   4 H :    0.124359
   5 C :   -0.065970
   6 H :    0.103993
   7 C :   -0.071253
   8 H :    0.118403
   9 C :   -0.011778
  10 H :    0.092996
  11 O :   -0.145875
  12 O :   -0.311141
  13 O :   -0.309891
  14 O :   -0.318178
  15 O :   -0.301910
  16 O :   -0.337423
  17 H :    0.091768
  18 H :    0.117200
  19 H :    0.284744
  20 H :    0.287029
  21 H :    0.277518
  22 H :    0.286212
  23 H :    0.276589

  Mayer bond orders larger than 0.100000
B(  0-C ,  1-C ) :   1.0680 B(  0-C , 16-O ) :   1.0785 B(  0-C , 17-H ) :   0.8973
B(  0-C , 18-H ) :   0.9120 B(  1-C ,  2-H ) :   0.8735 B(  1-C ,  3-C ) :   0.9673
B(  1-C , 11-O ) :   0.9514 B(  3-C ,  4-H ) :   0.8545 B(  3-C ,  5-C ) :   1.0651
B(  3-C , 15-O ) :   1.0058 B(  5-C ,  6-H ) :   0.8507 B(  5-C ,  7-C ) :   1.0110
B(  5-C , 14-O ) :   1.1079 B(  7-C ,  8-H ) :   0.8725 B(  7-C ,  9-C ) :   0.9941
B(  7-C , 13-O ) :   1.0901 B(  9-C , 10-H ) :   0.8945 B(  9-C , 11-O ) :   1.0727
B(  9-C , 12-O ) :   1.0891 B( 12-O , 19-H ) :   0.8331 B( 13-O , 20-H ) :   0.8490
B( 14-O , 21-H ) :   0.8277 B( 15-O , 22-H ) :   0.8446 B( 16-O , 23-H ) :   0.8414

Dispersion correction           -0.024435373
FINAL SINGLE POINT ENERGY      -685.691539152930

DIPOLE MOMENT
-------------

Method             : SCF
Type of density    : Electron Density
Multiplicity       :   1
Irrep              :   0
Energy             :  -685.8224292438665088 Eh
Relativity type    :
Basis              : AO
                                X                 Y                 Z
Electronic contribution:      1.811866789       0.186639321       0.853173593
Nuclear contribution   :     -1.488326972      -0.718175726      -0.731292089
                        -----------------------------------------
Total Dipole Moment    :      0.323539818      -0.531536405       0.121881504
                        -----------------------------------------
Magnitude (a.u.)       :      0.634085218
Magnitude (Debye)      :      1.611716540

Rotational constants in cm-1:             0.042061             0.025798             0.019200
Rotational constants in MHz :          1260.947309           773.400889           575.613038

                             ****ORCA TERMINATED NORMALLY****
TOTAL RUN TIME: 0 days 0 hours 0 minutes 9 seconds 391 msec
