                         Program Version 6.0.1  -  RELEASE   -
|  1> ! pbe def2-sv(p) def2/J RI DEFGRID1 loosescf d4 GCP(DFT/SV(P)) printgap
|  2> %output
|  3>     printlevel normal
|  4> end
|  5> * xyz 0 1
|  6> C -1.9543390999 0.152352074 -0.0301479716
|  7> C -0.5889583127 -0.5212192576 0.0233345805
|  8> C 0.5436093353 0.4985557357 -0.0226329404
|  9> O 1.8294112236 -0.0899164567 0.0251466964
| 10> H -2.7460011423 -0.5919734123 0.0036401578
| 11> H -2.079130514 0.8274910549 0.8131838319
| 12> H -2.0597527427 0.7269595623 -0.9473741496
| 13> H -0.4872607559 -1.2065216544 -0.82331507
| 14> H -0.5066156062 -1.1053244917 0.9446700545
| 15> H 0.4769300636 1.0874058894 -0.9467677453
| 16> H 0.4572590841 1.1891725299 0.8264161158
| 17> H 1.7345027241 -1.045355962 0.081275977
| 18> *
| 19>
| 20>                          ****END OF INPUT****

CARTESIAN COORDINATES (ANGSTROEM)
---------------------------------
  C     -1.954339    0.152352   -0.030148
  C     -0.588958   -0.521219    0.023335
  C      0.543609    0.498556   -0.022633
  O      1.829411   -0.089916    0.025147
  H     -2.746001   -0.591973    0.003640
  H     -2.079131    0.827491    0.813184
  H     -2.059753    0.726960   -0.947374
  H     -0.487261   -1.206522   -0.823315
  H     -0.506616   -1.105324    0.944670
  H      0.476930    1.087406   -0.946768
  H      0.457259    1.189173    0.826416
  H      1.734503   -1.045356    0.081276

 Total Charge           Charge          ....    0
 Multiplicity           Mult            ....    1
 Number of Electrons    NEL             ....   34
 Basis Dimension        Dim             ....   72

ORBITAL ENERGIES
----------------

  NO   OCC          E(Eh)            E(eV)
   0   2.0000     -18.732270      -509.7310
   1   2.0000      -9.924773      -270.0668
   2   2.0000      -9.894105      -269.2323
   3   2.0000      -9.883213      -268.9359
   4   2.0000      -0.911192       -24.7948
   5   2.0000      -0.705644       -19.2016
   6   2.0000      -0.600869       -16.3505
   7   2.0000      -0.541790       -14.7429
   8   2.0000      -0.438703       -11.9377
   9   2.0000      -0.430156       -11.7051
  10   2.0000      -0.373200       -10.1553
  11   2.0000      -0.360694        -9.8150
  12   2.0000      -0.356741        -9.7074
  13   2.0000      -0.315364        -8.5815
  14   2.0000      -0.303332        -8.2541
  15   2.0000      -0.263301        -7.1648
  16   2.0000      -0.205196        -5.5837
  17   0.0000       0.037104         1.0096
  18   0.0000       0.041253         1.1226
  19   0.0000       0.076093         2.0706
  20   0.0000       0.076988         2.0950
  21   0.0000       0.110791         3.0148

MULLIKEN ATOMIC CHARGES
-----------------------
   0 C :   -0.283467
   1 C :   -0.268233
   2 C :    0.036820
   3 O :   -0.440054
   4 H :    0.108862
   5 H :    0.106233
   6 H :    0.106175
   7 H :    0.093806
   8 H :    0.093735
   9 H :    0.075803
  10 H :    0.075705
  11 H :    0.294614
Sum of atomic charges:    0.0000000

LOEWDIN ATOMIC CHARGES
----------------------
   0 C :   -0.337840
   1 C :   -0.263506
   2 C :   -0.120534
   3 O :   -0.350098
   4 H :    0.122657
   5 H :    0.120319
   6 H :    0.120322
   7 H :    0.114806
   8 H :    0.114754
   9 H :    0.099650
  10 H :    0.099567
  11 H :    0.279902

  Mayer bond orders larger than 0.100000
B(  0-C ,  1-C ) :   1.1402 B(  0-C ,  4-H ) :   0.9505 B(  0-C ,  5-H ) :   0.9557
B(  0-C ,  6-H ) :   0.9557 B(  1-C ,  2-C ) :   1.1333 B(  1-C ,  7-H ) :   0.9201
B(  1-C ,  8-H ) :   0.9201 B(  2-C ,  3-O ) :   1.0710 B(  2-C ,  9-H ) :   0.9243
B(  2-C , 10-H ) :   0.9242 B(  3-O , 11-H ) :   0.8570

Dispersion correction           -0.006239096
FINAL SINGLE POINT ENERGY      -193.872143837048

DIPOLE MOMENT
-------------

Method             : SCF
Type of density    : Electron Density
Multiplicity       :   1
Irrep              :   0
Energy             :  -193.9217145620547171 Eh
Relativity type    :
Basis              : AO
                                X                 Y                 Z
Electronic contribution:      4.259095483      -0.305948126       0.063560320
Nuclear contribution   :     -4.860751285      -0.112175069      -0.044912788
                        -----------------------------------------
Total Dipole Moment    :     -0.601655802      -0.418123195       0.018647533
                        -----------------------------------------
Magnitude (a.u.)       :      0.732915030
Magnitude (Debye)      :      1.862921957

Rotational constants in cm-1:             0.868078             0.127616             0.118683
Rotational constants in MHz :         26024.335597          3825.831914          3558.019670

                             ****ORCA TERMINATED NORMALLY****
TOTAL RUN TIME: 0 days 0 hours 0 minutes 6 seconds 545 msec
