                         Program Version 6.0.1  -  RELEASE   -
|  1> ! r2scan-3c def2/J RI DEFGRID2 scfconv6 printgap
|  2> %output
|  3>     printlevel normal
|  4> end
|  5> * xyz 0 1
|  6> C 3.3529881162 0.0810170809 0.1634368469
|  7> N 1.9291969676 0.2953034011 0.2733869526
|  8> C 1.474186013 1.4210023699 1.0574752942
|  9> C 1.0742623223 -0.5435430923 -0.3573954072
| 10> O 1.4447483999 -1.4897319339 -1.0267412637
| 11> C -0.3788768889 -0.2213791472 -0.1705273226
| 12> C -1.08326517 -0.7667327663 0.8950481742
| 13> C -2.435399897 -0.5085010646 1.0372533882
| 14> C -3.090407392 0.2917739052 0.1164443892
| 15> C -2.3930086569 0.828541965 -0.9525161096
| 16> C -1.0409268288 0.571760238 -1.0986200573
| 17> H 3.8369239282 0.9418615673 -0.3033227549
| 18> H 3.5067160789 -0.7996252975 -0.4579813774
| 19> H 3.7933773995 -0.0897406587 1.1483536574
| 20> H 0.8617900985 1.0945993037 1.9013980273
| 21> H 0.8816134594 2.1106729314 0.4518762543
| 22> H 2.3416261783 1.9525289249 1.4422608611
| 23> H -0.5714605164 -1.399595337 1.6059242597
| 24> H -2.9797080293 -0.9359311597 1.8666133534
| 25> H -4.1458958031 0.4917050059 0.2283373424
| 26> H -2.9037596251 1.4460228496 -1.6768136364
| 27> H -0.4955015657 0.9803620329 -1.9371666705
| 28> *
| 29>
| 30>                          ****END OF INPUT****

CARTESIAN COORDINATES (ANGSTROEM)
---------------------------------
  C      3.352988    0.081017    0.163437
  N      1.929197    0.295303    0.273387
  C      1.474186    1.421002    1.057475
  C      1.074262   -0.543543   -0.357395
  O      1.444748   -1.489732   -1.026741
  C     -0.378877   -0.221379   -0.170527
  C     -1.083265   -0.766733    0.895048
  C     -2.435400   -0.508501    1.037253
  C     -3.090407    0.291774    0.116444
  C     -2.393009    0.828542   -0.952516
  C     -1.040927    0.571760   -1.098620
  H      3.836924    0.941862   -0.303323
  H      3.506716   -0.799625   -0.457981
  H      3.793377   -0.089741    1.148354
  H      0.861790    1.094599    1.901398
  H      0.881613    2.110673    0.451876
  H      2.341626    1.952529    1.442261
  H     -0.571461   -1.399595    1.605924
  H     -2.979708   -0.935931    1.866613
  H     -4.145896    0.491705    0.228337
  H     -2.903760    1.446023   -1.676814
  H     -0.495502    0.980362   -1.937167

 Total Charge           Charge          ....    0
 Multiplicity           Mult            ....    1
 Number of Electrons    NEL             ....   80
 Basis Dimension        Dim             ....  274

ORBITAL ENERGIES
----------------

  NO   OCC          E(Eh)            E(eV)
   0   2.0000     -18.909198      -514.5454
   1   2.0000     -14.193832      -386.2338
   2   2.0000     -10.122749      -275.4540
   3   2.0000     -10.069432      -274.0032
   4   2.0000     -10.059892      -273.7436
   5   2.0000     -10.048874      -273.4438
   6   2.0000     -10.042870      -273.2804
   7   2.0000     -10.042700      -273.2757
   8   2.0000     -10.041905      -273.2541
   9   2.0000     -10.041789      -273.2510
  10   2.0000     -10.040392      -273.2130
  11   2.0000      -1.001773       -27.2596
  12   2.0000      -0.907408       -24.6918
  13   2.0000      -0.834521       -22.7085
  14   2.0000      -0.738676       -20.1004
  15   2.0000      -0.724079       -19.7032
  16   2.0000      -0.695767       -18.9328
  17   2.0000      -0.668011       -18.1775
  18   2.0000      -0.589260       -16.0346
  19   2.0000      -0.583906       -15.8889
  20   2.0000      -0.525052       -14.2874
  21   2.0000      -0.499853       -13.6017
  22   2.0000      -0.462466       -12.5843
  23   2.0000      -0.452464       -12.3122
  24   2.0000      -0.441097       -12.0029
  25   2.0000      -0.425933       -11.5902
  26   2.0000      -0.417102       -11.3499
  27   2.0000      -0.397545       -10.8178
  28   2.0000      -0.381921       -10.3926
  29   2.0000      -0.380510       -10.3542
  30   2.0000      -0.372756       -10.1432
  31   2.0000      -0.358024        -9.7423
  32   2.0000      -0.345059        -9.3895
  33   2.0000      -0.343498        -9.3471
  34   2.0000      -0.328157        -8.9296
  35   2.0000      -0.315912        -8.5964
  36   2.0000      -0.247297        -6.7293
  37   2.0000      -0.244610        -6.6562
  38   2.0000      -0.215284        -5.8582
  39   2.0000      -0.212299        -5.7769
  40   0.0000      -0.039721        -1.0809
  41   0.0000      -0.039295        -1.0693
  42   0.0000      -0.001173        -0.0319
  43   0.0000       0.056785         1.5452
  44   0.0000       0.087748         2.3878

MULLIKEN ATOMIC CHARGES
-----------------------
   0 C :   -0.431550
   1 N :    0.105049
   2 C :   -0.415805
   3 C :    0.191400
   4 O :   -0.437749
   5 C :    0.133558
   6 C :   -0.224528
   7 C :   -0.144796
   8 C :   -0.133986
   9 C :   -0.144392
  10 C :   -0.221597
  11 H :    0.144758
  12 H :    0.200604
  13 H :    0.144607
  14 H :    0.168742
  15 H :    0.169273
  16 H :    0.152049
  17 H :    0.152466
  18 H :    0.145806
  19 H :    0.147695
  20 H :    0.145859
  21 H :    0.152539
Sum of atomic charges:   -0.0000000

LOEWDIN ATOMIC CHARGES
----------------------
   0 C :   -0.112965
   1 N :   -0.832760
   2 C :   -0.106727
   3 C :    0.338559
   4 O :   -0.453508
   5 C :   -0.028278
   6 C :   -0.139734
   7 C :   -0.157746
   8 C :   -0.164548
   9 C :   -0.157622
  10 C :   -0.138435
  11 H :    0.171695
  12 H :    0.211090
  13 H :    0.171710
  14 H :    0.179587
  15 H :    0.180510
  16 H :    0.182233
  17 H :    0.175839
  18 H :    0.168475
  19 H :    0.167873
  20 H :    0.168511
  21 H :    0.176243

  Mayer bond orders larger than 0.100000
B(  0-C ,  1-N ) :   0.9152 B(  0-C , 11-H ) :   0.9556 B(  0-C , 12-H ) :   0.9542
B(  0-C , 13-H ) :   0.9554 B(  1-N ,  2-C ) :   0.9109 B(  1-N ,  3-C ) :   1.2108
B(  2-C , 14-H ) :   0.9555 B(  2-C , 15-H ) :   0.9558 B(  2-C , 16-H ) :   0.9578
B(  3-C ,  4-O ) :   1.9038 B(  3-C ,  5-C ) :   0.8819 B(  5-C ,  6-C ) :   1.4233
B(  5-C , 10-C ) :   1.4277 B(  6-C ,  7-C ) :   1.4173 B(  6-C , 17-H ) :   0.9485
B(  7-C ,  8-C ) :   1.4192 B(  7-C , 18-H ) :   0.9481 B(  8-C ,  9-C ) :   1.4187
B(  8-C , 19-H ) :   0.9460 B(  9-C , 10-C ) :   1.4150 B(  9-C , 20-H ) :   0.9483
B( 10-C , 21-H ) :   0.9492

Dispersion correction           -0.008082897
FINAL SINGLE POINT ENERGY      -479.434493398841

DIPOLE MOMENT
-------------

Method             : SCF
Type of density    : Electron Density
Multiplicity       :   1
Irrep              :   0
Energy             :  -479.4404450871548988 Eh
Relativity type    :
Basis              : AO
                                X                 Y                 Z
Electronic contribution:     -3.927913531      -4.158819962      -3.096958511
Nuclear contribution   :      3.902616288       5.414231243       3.991781730
                        -----------------------------------------
Total Dipole Moment    :     -0.025297244       1.255411281       0.894823219
                        -----------------------------------------
Magnitude (a.u.)       :      1.541883922
Magnitude (Debye)      :      3.919157469

Rotational constants in cm-1:             0.081326             0.023441             0.022606
Rotational constants in MHz :          2438.086578           702.735342           677.719169

                             ****ORCA TERMINATED NORMALLY****
TOTAL RUN TIME: 0 days 0 hours 0 minutes 48 seconds 400 msec
