                         Program Version 6.0.0  -   RELEASE  -
|  1> ! r2SCAN-3c DEF2-TZVP FREQ
|  2> * xyzfile 0 1 censo.xyz
|  3>
|  4>                          ****END OF INPUT****

CARTESIAN COORDINATES (ANGSTROEM)
---------------------------------
  C     -1.259826   -0.261725    0.000078
  C      0.013807    0.573414   -0.000058
  N      1.265000   -0.210261    0.000005
  H     -2.150722    0.376984    0.000048
  H     -1.303838   -0.903718   -0.887061
  H     -1.303768   -0.903534    0.887354
  H      0.024013    1.229841    0.877523
  H      0.023962    1.229624   -0.877800
  H      1.236719   -0.833746    0.803484
  H      1.236643   -0.834001   -0.803273

 Total Charge           Charge          ....    0
 Multiplicity           Mult            ....    1
 Number of Electrons    NEL             ....   26
 Basis Dimension        Dim             ....  135

ORBITAL ENERGIES
----------------

  NO   OCC          E(Eh)            E(eV)
   0   2.0000     -14.136191      -384.6653
   1   2.0000     -10.052567      -273.5443
   2   2.0000     -10.020935      -272.6835
   3   2.0000      -0.844529       -22.9808
   4   2.0000      -0.695674       -18.9302
   5   2.0000      -0.575621       -15.6634
   6   2.0000      -0.461795       -12.5661
   7   2.0000      -0.405121       -11.0239
   8   2.0000      -0.379906       -10.3378
   9   2.0000      -0.376199       -10.2369
  10   2.0000      -0.330152        -8.9839
  11   2.0000      -0.308212        -8.3869
  12   2.0000      -0.211804        -5.7635
  13   0.0000       0.038029         1.0348
  14   0.0000       0.084836         2.3085
  15   0.0000       0.091722         2.4959
  16   0.0000       0.100805         2.7430
  17   0.0000       0.124872         3.3980

MULLIKEN ATOMIC CHARGES
-----------------------
   0 C :   -0.326312
   1 C :   -0.035908
   2 N :   -0.485329
   3 H :    0.094602
   4 H :    0.093224
   5 H :    0.093222
   6 H :    0.087335
   7 H :    0.087334
   8 H :    0.195916
   9 H :    0.195916
Sum of atomic charges:   -0.0000000

LOEWDIN ATOMIC CHARGES
----------------------
   0 C :   -0.331693
   1 C :   -0.366885
   2 N :   -0.181835
   3 H :    0.118214
   4 H :    0.113137
   5 H :    0.113137
   6 H :    0.123903
   7 H :    0.123903
   8 H :    0.144059
   9 H :    0.144059

  Mayer bond orders larger than 0.100000
B(  0-C ,  1-C ) :   0.9860 B(  0-C ,  3-H ) :   0.9645 B(  0-C ,  4-H ) :   0.9718
B(  0-C ,  5-H ) :   0.9718 B(  1-C ,  2-N ) :   0.9901 B(  1-C ,  6-H ) :   0.9687
B(  1-C ,  7-H ) :   0.9687 B(  2-N ,  8-H ) :   0.9469 B(  2-N ,  9-H ) :   0.9469

Dispersion correction           -0.001493425
FINAL SINGLE POINT ENERGY      -135.133787844189

DIPOLE MOMENT
-------------

Method             : SCF
Type of density    : Electron Density
Multiplicity       :   1
Irrep              :   0
Energy             :  -135.1401344689624580 Eh
Relativity type    :
Basis              : AO
                                X                 Y                 Z
Electronic contribution:      1.695714572       0.285380829      -0.000092999
Nuclear contribution   :     -2.164331578      -0.622815035       0.000171247
                        -----------------------------------------
Total Dipole Moment    :     -0.468617006      -0.337434206       0.000078248
                        -----------------------------------------
Magnitude (a.u.)       :      0.577463200
Magnitude (Debye)      :      1.467794807

VIBRATIONAL FREQUENCIES
-----------------------

Scaling factor for frequencies =  1.000000000  (already applied!)

     0:       0.00 cm**-1
     1:       0.00 cm**-1
     2:       0.00 cm**-1
     3:       0.00 cm**-1
     4:       0.00 cm**-1
     5:       0.00 cm**-1
     6:     273.20 cm**-1
     7:     314.65 cm**-1
     8:     414.99 cm**-1
     9:     789.35 cm**-1
    10:     869.09 cm**-1
    11:     934.78 cm**-1
    12:    1013.77 cm**-1
    13:    1047.80 cm**-1
    14:    1157.61 cm**-1
    15:    1275.35 cm**-1
    16:    1368.44 cm**-1
    17:    1393.18 cm**-1
    18:    1398.34 cm**-1
    19:    1479.01 cm**-1
    20:    1489.93 cm**-1
    21:    1496.88 cm**-1
    22:    1662.08 cm**-1
    23:    2991.90 cm**-1
    24:    3015.25 cm**-1
    25:    3050.04 cm**-1
    26:    3071.85 cm**-1
    27:    3081.96 cm**-1
    28:    3441.88 cm**-1
    29:    3518.74 cm**-1

IR SPECTRUM
-----------

 Mode   freq       eps      Int      T**2         TX        TY        TZ
       cm**-1   L/(mol*cm) km/mol    a.u.
----------------------------------------------------------------------------
  6:    273.20   0.002809   14.19  0.003208  ( 0.000002  0.000009  0.056641)
  7:    314.65   0.007416   37.48  0.007355  (-0.000002 -0.000012 -0.085760)
  8:    414.99   0.001177    5.95  0.000885  (-0.025264  0.015701 -0.000002)
  9:    789.35   0.000183    0.92  0.000072  ( 0.000000  0.000001  0.008496)
 10:    869.09   0.009131   46.14  0.003279  ( 0.056966 -0.005787 -0.000001)
 11:    934.78   0.022682  114.63  0.007572  (-0.087016  0.000572  0.000003)
 12:   1013.77   0.000259    1.31  0.000080  (-0.000001 -0.000002 -0.008931)
 13:   1047.80   0.002781   14.05  0.000828  ( 0.028737 -0.001551 -0.000000)
 14:   1157.61   0.002932   14.82  0.000791  ( 0.020642  0.019089 -0.000004)
 15:   1275.35   0.000014    0.07  0.000003  (-0.000000 -0.000000 -0.001867)
 16:   1368.44   0.002528   12.78  0.000577  ( 0.023782 -0.003308  0.000000)
 17:   1393.18   0.000001    0.00  0.000000  ( 0.000001  0.000002  0.000416)
 18:   1398.34   0.001442    7.29  0.000322  ( 0.015792  0.008510 -0.000002)
 19:   1479.01   0.000053    0.27  0.000011  ( 0.003144 -0.001121  0.000000)
 20:   1489.93   0.001789    9.04  0.000375  ( 0.000001  0.000002  0.019357)
 21:   1496.88   0.000632    3.19  0.000132  (-0.003857  0.010807 -0.000001)
 22:   1662.08   0.004432   22.40  0.000832  (-0.001061  0.028828 -0.000004)
 23:   2991.90   0.005689   28.75  0.000593  (-0.021253 -0.011902  0.000001)
 24:   3015.25   0.007170   36.23  0.000742  ( 0.001747  0.027184 -0.000001)
 25:   3050.04   0.000371    1.88  0.000038  (-0.000001  0.000003 -0.006163)
 26:   3071.85   0.009981   50.44  0.001014  ( 0.018522 -0.025901 -0.000004)
 27:   3081.96   0.012973   65.56  0.001314  (-0.000004  0.000003 -0.036243)
 28:   3441.88   0.000482    2.44  0.000044  ( 0.000350  0.006601 -0.000001)
 29:   3518.74   0.000042    0.21  0.000004  (-0.000000 -0.000000 -0.001924)

--------------------------
THERMOCHEMISTRY AT 298.15K
--------------------------

Temperature         ...   298.15 K
Pressure            ...     1.00 atm
Total Mass          ...    45.09 AMU
Quasi RRHO          ...     True
Cut-Off Frequency   ...     1.00 cm^-1

Throughout the following assumptions are being made:
  (1) The electronic state is orbitally nondegenerate
  (2) There are no thermally accessible electronically excited states
  (3) Hindered rotations indicated by low frequency modes are not
      treated as such but are treated as vibrations and this may
      cause some error
  (4) All equations used are the standard statistical mechanics
      equations for an ideal gas
  (5) All vibrations are strictly harmonic

freq.     273.20  E(vib)   ...       0.29
freq.     314.65  E(vib)   ...       0.25
freq.     414.99  E(vib)   ...       0.19
freq.     789.35  E(vib)   ...       0.05
freq.     869.09  E(vib)   ...       0.04
freq.     934.78  E(vib)   ...       0.03
freq.    1013.77  E(vib)   ...       0.02
freq.    1047.80  E(vib)   ...       0.02
freq.    1157.61  E(vib)   ...       0.01
freq.    1275.35  E(vib)   ...       0.01
freq.    1368.44  E(vib)   ...       0.01
freq.    1393.18  E(vib)   ...       0.00
freq.    1398.34  E(vib)   ...       0.00
freq.    1479.01  E(vib)   ...       0.00
freq.    1489.93  E(vib)   ...       0.00
freq.    1496.88  E(vib)   ...       0.00
freq.    1662.08  E(vib)   ...       0.00
freq.    2991.90  E(vib)   ...       0.00
freq.    3015.25  E(vib)   ...       0.00
freq.    3050.04  E(vib)   ...       0.00
freq.    3071.85  E(vib)   ...       0.00
freq.    3081.96  E(vib)   ...       0.00
freq.    3441.88  E(vib)   ...       0.00
freq.    3518.74  E(vib)   ...       0.00

------------
INNER ENERGY
------------

The inner energy is: U= E(el) + E(ZPE) + E(vib) + E(rot) + E(trans)
    E(el)   - is the total energy from the electronic structure calculation
              = E(kin-el) + E(nuc-el) + E(el-el) + E(nuc-nuc)
    E(ZPE)  - the the zero temperature vibrational energy from the frequency calculation
    E(vib)  - the the finite temperature correction to E(ZPE) due to population
              of excited vibrational states
    E(rot)  - is the rotational thermal energy
    E(trans)- is the translational thermal energy

Summary of contributions to the inner energy U:
Electronic energy                ...   -135.13378784 Eh
Zero point energy                ...      0.09237984 Eh      57.97 kcal/mol
Thermal vibrational correction   ...      0.00148089 Eh       0.93 kcal/mol
Thermal rotational correction    ...      0.00141627 Eh       0.89 kcal/mol
Thermal translational correction ...      0.00141627 Eh       0.89 kcal/mol
-----------------------------------------------------------------------
Total thermal energy                   -135.03709457 Eh

Summary of corrections to the electronic energy:
(perhaps to be used in another calculation)
Total thermal correction                  0.00431344 Eh       2.71 kcal/mol
Non-thermal (ZPE) correction              0.09237984 Eh      57.97 kcal/mol
-----------------------------------------------------------------------
Total correction                          0.09669327 Eh      60.68 kcal/mol

--------
ENTHALPY
--------

The enthalpy is H = U + kB*T
                kB is Boltzmann's constant
Total thermal energy              ...   -135.03709457 Eh
Thermal Enthalpy correction       ...      0.00094421 Eh       0.59 kcal/mol
-----------------------------------------------------------------------
Total Enthalpy                    ...   -135.03615036 Eh

Note: Rotational entropy computed according to Herzberg
Infrared and Raman Spectra, Chapter V,1, Van Nostrand Reinhold, 1945
Point Group:  Cs, Symmetry Number:   1
Rotational constants in cm-1:     1.048940     0.295282     0.262257

Vibrational entropy computed according to the QRRHO of S. Grimme
Chem.Eur.J. 2012 18 9955 using a reference frequency of 100.0 cm-1

-------
ENTROPY
-------

The entropy contributions are T*S = T*(S(el)+S(vib)+S(rot)+S(trans))
     S(el)   - electronic entropy
     S(vib)  - vibrational entropy
     S(rot)  - rotational entropy
     S(trans)- translational entropy
The entropies will be listed as multiplied by the temperature to get
units of energy

Electronic entropy                ...      0.00000000 Eh      0.00 kcal/mol
Vibrational entropy               ...      0.00222113 Eh      1.39 kcal/mol
Rotational entropy                ...      0.01069598 Eh      6.71 kcal/mol
Translational entropy             ...      0.01774301 Eh     11.13 kcal/mol
-----------------------------------------------------------------------
Final entropy term                ...      0.03066012 Eh     19.24 kcal/mol

In case the symmetry of your molecule has not been determined correctly
or in case you have a reason to use a different symmetry number we print
out the resulting rotational entropy values for sn=1,12:

 non-linear molecules -----------------------------------
|  sn= 1 | S(rot)=       0.01069598 Eh      6.71 kcal/mol|
|  sn= 2 | S(rot)=       0.01004153 Eh      6.30 kcal/mol|
|  sn= 3 | S(rot)=       0.00965869 Eh      6.06 kcal/mol|
|  sn= 4 | S(rot)=       0.00938707 Eh      5.89 kcal/mol|
|  sn= 5 | S(rot)=       0.00917638 Eh      5.76 kcal/mol|
|  sn= 6 | S(rot)=       0.00900424 Eh      5.65 kcal/mol|
|  sn= 7 | S(rot)=       0.00885869 Eh      5.56 kcal/mol|
|  sn= 8 | S(rot)=       0.00873261 Eh      5.48 kcal/mol|
|  sn= 9 | S(rot)=       0.00862140 Eh      5.41 kcal/mol|
|  sn=10 | S(rot)=       0.00852192 Eh      5.35 kcal/mol|
|  sn=11 | S(rot)=       0.00843193 Eh      5.29 kcal/mol|
|  sn=12 | S(rot)=       0.00834978 Eh      5.24 kcal/mol|
 linear molecules ---------------------------------------
|  Dinfh | S(rot)=       0.00658953 Eh      4.13 kcal/mol|
|  Cinfv | S(rot)=       0.00724398 Eh      4.55 kcal/mol|
 --------------------------------------------------------

-------------------
GIBBS FREE ENERGY
-------------------

The Gibbs free energy is G = H - T*S

Total enthalpy                    ...   -135.03615036 Eh
Total entropy correction          ...     -0.03066012 Eh    -19.24 kcal/mol
-----------------------------------------------------------------------
Final Gibbs free energy         ...   -135.06681048 Eh

For completeness - the Gibbs free energy minus the electronic energy
G-E(el)                           ...      0.06697736 Eh     42.03 kcal/mol

                             ****ORCA TERMINATED NORMALLY****
TOTAL RUN TIME: 0 days 0 hours 1 minutes 54 seconds 331 msec
