                         Program Version 6.0.0  -   RELEASE  -
|  1> ! r2SCAN-3c DEF2-TZVP FREQ
|  2> * xyzfile 0 1 vacuum_censo.xyz
|  3>
|  4>                          ****END OF INPUT****

CARTESIAN COORDINATES (ANGSTROEM)
---------------------------------
  C     -1.252536    0.301963   -0.021583
  C     -0.006059   -0.571187   -0.023104
  N      1.202023    0.271087   -0.019973
  H     -1.240411    0.985808   -0.875058
  H     -2.158536   -0.309366   -0.072708
  H     -1.307684    0.903366    0.893007
  H      0.012559   -1.177469   -0.937237
  H     -0.054303   -1.276417    0.825446
  H      1.229097    0.814411    0.837469
  H      2.030821   -0.313512   -0.004107

 Total Charge           Charge          ....    0
 Multiplicity           Mult            ....    1
 Number of Electrons    NEL             ....   26
 Basis Dimension        Dim             ....  135

ORBITAL ENERGIES
----------------

  NO   OCC          E(Eh)            E(eV)
   0   2.0000     -14.134184      -384.6107
   1   2.0000     -10.052671      -273.5471
   2   2.0000     -10.016699      -272.5682
   3   2.0000      -0.842188       -22.9171
   4   2.0000      -0.694924       -18.9098
   5   2.0000      -0.567947       -15.4546
   6   2.0000      -0.452072       -12.3015
   7   2.0000      -0.428812       -11.6686
   8   2.0000      -0.390550       -10.6274
   9   2.0000      -0.335667        -9.1340
  10   2.0000      -0.330369        -8.9898
  11   2.0000      -0.313194        -8.5224
  12   2.0000      -0.207884        -5.6568
  13   0.0000       0.041592         1.1318
  14   0.0000       0.080821         2.1992
  15   0.0000       0.092433         2.5152
  16   0.0000       0.112064         3.0494
  17   0.0000       0.124674         3.3926

MULLIKEN ATOMIC CHARGES
-----------------------
   0 C :   -0.312746
   1 C :   -0.024964
   2 N :   -0.515856
   3 H :    0.109660
   4 H :    0.098701
   5 H :    0.090400
   6 H :    0.080985
   7 H :    0.065857
   8 H :    0.203609
   9 H :    0.204353
Sum of atomic charges:   -0.0000000

LOEWDIN ATOMIC CHARGES
----------------------
   0 C :   -0.318633
   1 C :   -0.365224
   2 N :   -0.186129
   3 H :    0.119980
   4 H :    0.118249
   5 H :    0.114217
   6 H :    0.122818
   7 H :    0.106177
   8 H :    0.144862
   9 H :    0.143683

  Mayer bond orders larger than 0.100000
B(  0-C ,  1-C ) :   0.9887 B(  0-C ,  3-H ) :   0.9734 B(  0-C ,  4-H ) :   0.9734
B(  0-C ,  5-H ) :   0.9735 B(  1-C ,  2-N ) :   0.9788 B(  1-C ,  6-H ) :   0.9643
B(  1-C ,  7-H ) :   0.9638 B(  2-N ,  8-H ) :   0.9388 B(  2-N ,  9-H ) :   0.9413

Dispersion correction           -0.001479937
FINAL SINGLE POINT ENERGY      -135.133989917114

DIPOLE MOMENT
-------------

Method             : SCF
Type of density    : Electron Density
Multiplicity       :   1
Irrep              :   0
Energy             :  -135.1402671525666506 Eh
Relativity type    :
Basis              : AO
                                X                 Y                 Z
Electronic contribution:      1.463279100       0.067601634      -0.223798022
Nuclear contribution   :     -1.421799316      -0.375919548       0.646519030
                        -----------------------------------------
Total Dipole Moment    :      0.041479785      -0.308317914       0.422721009
                        -----------------------------------------
Magnitude (a.u.)       :      0.524855751
Magnitude (Debye)      :      1.334077299

VIBRATIONAL FREQUENCIES
-----------------------

Scaling factor for frequencies =  1.000000000  (already applied!)

     0:       0.00 cm**-1
     1:       0.00 cm**-1
     2:       0.00 cm**-1
     3:       0.00 cm**-1
     4:       0.00 cm**-1
     5:       0.00 cm**-1
     6:     243.13 cm**-1
     7:     284.78 cm**-1
     8:     421.99 cm**-1
     9:     809.68 cm**-1
    10:     856.21 cm**-1
    11:     905.74 cm**-1
    12:    1006.65 cm**-1
    13:    1081.98 cm**-1
    14:    1153.41 cm**-1
    15:    1265.16 cm**-1
    16:    1325.45 cm**-1
    17:    1392.46 cm**-1
    18:    1418.37 cm**-1
    19:    1484.35 cm**-1
    20:    1491.06 cm**-1
    21:    1511.90 cm**-1
    22:    1657.94 cm**-1
    23:    2924.26 cm**-1
    24:    3007.04 cm**-1
    25:    3025.60 cm**-1
    26:    3081.82 cm**-1
    27:    3099.57 cm**-1
    28:    3468.69 cm**-1
    29:    3554.40 cm**-1

IR SPECTRUM
-----------

 Mode   freq       eps      Int      T**2         TX        TY        TZ
       cm**-1   L/(mol*cm) km/mol    a.u.
----------------------------------------------------------------------------
  6:    243.13   0.005563   28.12  0.007141  ( 0.045983 -0.056567 -0.042737)
  7:    284.78   0.002898   14.64  0.003175  (-0.040223  0.029500  0.026218)
  8:    421.99   0.001959    9.90  0.001449  (-0.033733  0.000756  0.017620)
  9:    809.68   0.005866   29.64  0.002261  ( 0.019910  0.032846 -0.028026)
 10:    856.21   0.016982   85.82  0.006190  (-0.044852 -0.052885  0.037162)
 11:    905.74   0.005219   26.37  0.001798  ( 0.016595  0.031574 -0.022931)
 12:   1006.65   0.000203    1.03  0.000063  (-0.002750  0.007436  0.000298)
 13:   1081.98   0.002463   12.45  0.000710  (-0.024905 -0.007632 -0.005637)
 14:   1153.41   0.002318   11.72  0.000627  (-0.002327 -0.016250  0.018914)
 15:   1265.16   0.000163    0.82  0.000040  (-0.004514 -0.002739 -0.003513)
 16:   1325.45   0.001262    6.38  0.000297  (-0.015733 -0.005869 -0.003904)
 17:   1392.46   0.000352    1.78  0.000079  (-0.001317  0.008635 -0.001627)
 18:   1418.37   0.003168   16.01  0.000697  ( 0.026329 -0.000927  0.001704)
 19:   1484.35   0.001299    6.56  0.000273  ( 0.001900  0.000864  0.016393)
 20:   1491.06   0.000745    3.76  0.000156  (-0.009915 -0.007412  0.001607)
 21:   1511.90   0.000236    1.19  0.000049  ( 0.003931 -0.004935 -0.002986)
 22:   1657.94   0.005943   30.03  0.001119  ( 0.021801  0.001981  0.025287)
 23:   2924.26   0.019492   98.50  0.002080  ( 0.008810  0.038592 -0.022652)
 24:   3007.04   0.004280   21.63  0.000444  (-0.017723  0.010763  0.003768)
 25:   3025.60   0.005838   29.50  0.000602  (-0.005629  0.014378  0.019072)
 26:   3081.82   0.009286   46.93  0.000940  (-0.010913 -0.013595 -0.025227)
 27:   3099.57   0.006000   30.32  0.000604  ( 0.010808  0.016812 -0.014306)
 28:   3468.69   0.000266    1.35  0.000024  (-0.003566 -0.001156 -0.003148)
 29:   3554.40   0.000007    0.04  0.000001  ( 0.000377  0.000635  0.000274)

--------------------------
THERMOCHEMISTRY AT 298.15K
--------------------------

Temperature         ...   298.15 K
Pressure            ...     1.00 atm
Total Mass          ...    45.09 AMU
Quasi RRHO          ...     True
Cut-Off Frequency   ...     1.00 cm^-1

Throughout the following assumptions are being made:
  (1) The electronic state is orbitally nondegenerate
  (2) There are no thermally accessible electronically excited states
  (3) Hindered rotations indicated by low frequency modes are not
      treated as such but are treated as vibrations and this may
      cause some error
  (4) All equations used are the standard statistical mechanics
      equations for an ideal gas
  (5) All vibrations are strictly harmonic

freq.     243.13  E(vib)   ...       0.31
freq.     284.78  E(vib)   ...       0.28
freq.     421.99  E(vib)   ...       0.18
freq.     809.68  E(vib)   ...       0.05
freq.     856.21  E(vib)   ...       0.04
freq.     905.74  E(vib)   ...       0.03
freq.    1006.65  E(vib)   ...       0.02
freq.    1081.98  E(vib)   ...       0.02
freq.    1153.41  E(vib)   ...       0.01
freq.    1265.16  E(vib)   ...       0.01
freq.    1325.45  E(vib)   ...       0.01
freq.    1392.46  E(vib)   ...       0.00
freq.    1418.37  E(vib)   ...       0.00
freq.    1484.35  E(vib)   ...       0.00
freq.    1491.06  E(vib)   ...       0.00
freq.    1511.90  E(vib)   ...       0.00
freq.    1657.94  E(vib)   ...       0.00
freq.    2924.26  E(vib)   ...       0.00
freq.    3007.04  E(vib)   ...       0.00
freq.    3025.60  E(vib)   ...       0.00
freq.    3081.82  E(vib)   ...       0.00
freq.    3099.57  E(vib)   ...       0.00
freq.    3468.69  E(vib)   ...       0.00
freq.    3554.40  E(vib)   ...       0.00

------------
INNER ENERGY
------------

The inner energy is: U= E(el) + E(ZPE) + E(vib) + E(rot) + E(trans)
    E(el)   - is the total energy from the electronic structure calculation
              = E(kin-el) + E(nuc-el) + E(el-el) + E(nuc-nuc)
    E(ZPE)  - the the zero temperature vibrational energy from the frequency calculation
    E(vib)  - the the finite temperature correction to E(ZPE) due to population
              of excited vibrational states
    E(rot)  - is the rotational thermal energy
    E(trans)- is the translational thermal energy

Summary of contributions to the inner energy U:
Electronic energy                ...   -135.13398992 Eh
Zero point energy                ...      0.09220118 Eh      57.86 kcal/mol
Thermal vibrational correction   ...      0.00155452 Eh       0.98 kcal/mol
Thermal rotational correction    ...      0.00141627 Eh       0.89 kcal/mol
Thermal translational correction ...      0.00141627 Eh       0.89 kcal/mol
-----------------------------------------------------------------------
Total thermal energy                   -135.03740167 Eh

Summary of corrections to the electronic energy:
(perhaps to be used in another calculation)
Total thermal correction                  0.00438707 Eh       2.75 kcal/mol
Non-thermal (ZPE) correction              0.09220118 Eh      57.86 kcal/mol
-----------------------------------------------------------------------
Total correction                          0.09658825 Eh      60.61 kcal/mol

--------
ENTHALPY
--------

The enthalpy is H = U + kB*T
                kB is Boltzmann's constant
Total thermal energy              ...   -135.03740167 Eh
Thermal Enthalpy correction       ...      0.00094421 Eh       0.59 kcal/mol
-----------------------------------------------------------------------
Total Enthalpy                    ...   -135.03645746 Eh

Note: Only C1 symmetry has been detected, increase convergence thresholds
      if your molecule has a higher symmetry. Symmetry factor of 1.0 is
      used for the rotational entropy correction.

Note: Rotational entropy computed according to Herzberg
Infrared and Raman Spectra, Chapter V,1, Van Nostrand Reinhold, 1945
Point Group:  C1, Symmetry Number:   1
Rotational constants in cm-1:     1.082997     0.297932     0.261058

Vibrational entropy computed according to the QRRHO of S. Grimme
Chem.Eur.J. 2012 18 9955 using a reference frequency of 100.0 cm-1

-------
ENTROPY
-------

The entropy contributions are T*S = T*(S(el)+S(vib)+S(rot)+S(trans))
     S(el)   - electronic entropy
     S(vib)  - vibrational entropy
     S(rot)  - rotational entropy
     S(trans)- translational entropy
The entropies will be listed as multiplied by the temperature to get
units of energy

Electronic entropy                ...      0.00000000 Eh      0.00 kcal/mol
Vibrational entropy               ...      0.00238798 Eh      1.50 kcal/mol
Rotational entropy                ...      0.01067884 Eh      6.70 kcal/mol
Translational entropy             ...      0.01774301 Eh     11.13 kcal/mol
-----------------------------------------------------------------------
Final entropy term                ...      0.03080984 Eh     19.33 kcal/mol

In case the symmetry of your molecule has not been determined correctly
or in case you have a reason to use a different symmetry number we print
out the resulting rotational entropy values for sn=1,12:

 non-linear molecules -----------------------------------
|  sn= 1 | S(rot)=       0.01067884 Eh      6.70 kcal/mol|
|  sn= 2 | S(rot)=       0.01002439 Eh      6.29 kcal/mol|
|  sn= 3 | S(rot)=       0.00964155 Eh      6.05 kcal/mol|
|  sn= 4 | S(rot)=       0.00936993 Eh      5.88 kcal/mol|
|  sn= 5 | S(rot)=       0.00915924 Eh      5.75 kcal/mol|
|  sn= 6 | S(rot)=       0.00898710 Eh      5.64 kcal/mol|
|  sn= 7 | S(rot)=       0.00884155 Eh      5.55 kcal/mol|
|  sn= 8 | S(rot)=       0.00871547 Eh      5.47 kcal/mol|
|  sn= 9 | S(rot)=       0.00860427 Eh      5.40 kcal/mol|
|  sn=10 | S(rot)=       0.00850479 Eh      5.34 kcal/mol|
|  sn=11 | S(rot)=       0.00841480 Eh      5.28 kcal/mol|
|  sn=12 | S(rot)=       0.00833264 Eh      5.23 kcal/mol|
 linear molecules ---------------------------------------
|  Dinfh | S(rot)=       0.00659385 Eh      4.14 kcal/mol|
|  Cinfv | S(rot)=       0.00724831 Eh      4.55 kcal/mol|
 --------------------------------------------------------

-------------------
GIBBS FREE ENERGY
-------------------

The Gibbs free energy is G = H - T*S

Total enthalpy                    ...   -135.03645746 Eh
Total entropy correction          ...     -0.03080984 Eh    -19.33 kcal/mol
-----------------------------------------------------------------------
Final Gibbs free energy         ...   -135.06726730 Eh

For completeness - the Gibbs free energy minus the electronic energy
G-E(el)                           ...      0.06672262 Eh     41.87 kcal/mol

                             ****ORCA TERMINATED NORMALLY****
TOTAL RUN TIME: 0 days 0 hours 1 minutes 56 seconds 122 msec
