                         Program Version 6.0.1  -  RELEASE   -
|  1> ! pbe def2-sv(p) def2/J RI DEFGRID1 loosescf d4 GCP(DFT/SV(P)) printgap
|  2> %output
|  3>     printlevel normal
|  4> end
|  5> * xyz 0 1
|  6> C -2.3423429502 -1.0449988789 0.3339279835
|  7> C -1.0980842437 -0.2671555354 0.8063220188
|  8> H -1.355259993 0.1898192627 1.7702692999
|  9> C -0.6966993223 0.8652824459 -0.1449663573
| 10> H -0.6902473996 0.5245226403 -1.1945170321
| 11> C 0.7343191313 1.283608309 0.2084568048
| 12> H 0.8074916683 1.4569581132 1.2929127309
| 13> C 1.6870400986 0.1408663553 -0.1566991875
| 14> H 1.892245655 0.1820570081 -1.2383091652
| 15> C 0.995917128 -1.2218089784 0.1154570811
| 16> H 1.7297538527 -1.9131055582 0.5681632571
| 17> O -0.0109887274 -1.1453415843 1.077729866
| 18> O 0.5586827231 -1.7327810396 -1.1069285417
| 19> O 2.8693628078 0.3297447711 0.5807431592
| 20> O 1.024167007 2.4687426364 -0.4943706628
| 21> O -1.6045092273 1.9224167683 0.006872796
| 22> O -2.1930371371 -1.6682652913 -0.9211297091
| 23> H -3.1929295046 -0.3561031585 0.3336922654
| 24> H -2.5278859658 -1.8531608144 1.0445255316
| 25> H -0.3402525056 -2.0984775615 -0.9966851354
| 26> H 3.4696896984 -0.4053854493 0.4147033776
| 27> H 1.9471486917 2.6891895801 -0.3284256996
| 28> H -1.1540527947 2.7204232027 -0.3018215491
| 29> H -2.2250829701 -0.9968362828 -1.6125011101
| 30> *
| 31>
| 32>                          ****END OF INPUT****

CARTESIAN COORDINATES (ANGSTROEM)
---------------------------------
  C     -2.342343   -1.044999    0.333928
  C     -1.098084   -0.267156    0.806322
  H     -1.355260    0.189819    1.770269
  C     -0.696699    0.865282   -0.144966
  H     -0.690247    0.524523   -1.194517
  C      0.734319    1.283608    0.208457
  H      0.807492    1.456958    1.292913
  C      1.687040    0.140866   -0.156699
  H      1.892246    0.182057   -1.238309
  C      0.995917   -1.221809    0.115457
  H      1.729754   -1.913106    0.568163
  O     -0.010989   -1.145342    1.077730
  O      0.558683   -1.732781   -1.106929
  O      2.869363    0.329745    0.580743
  O      1.024167    2.468743   -0.494371
  O     -1.604509    1.922417    0.006873
  O     -2.193037   -1.668265   -0.921130
  H     -3.192930   -0.356103    0.333692
  H     -2.527886   -1.853161    1.044526
  H     -0.340253   -2.098478   -0.996685
  H      3.469690   -0.405385    0.414703
  H      1.947149    2.689190   -0.328426
  H     -1.154053    2.720423   -0.301822
  H     -2.225083   -0.996836   -1.612501

 Total Charge           Charge          ....    0
 Multiplicity           Mult            ....    1
 Number of Electrons    NEL             ....   96
 Basis Dimension        Dim             ....  192

ORBITAL ENERGIES
----------------

  NO   OCC          E(Eh)            E(eV)
   0   2.0000     -18.779091      -511.0050
   1   2.0000     -18.771615      -510.8016
   2   2.0000     -18.763501      -510.5808
   3   2.0000     -18.758917      -510.4561
   4   2.0000     -18.752653      -510.2856
   5   2.0000     -18.742204      -510.0013
   6   2.0000      -9.982951      -271.6499
   7   2.0000      -9.949194      -270.7313
   8   2.0000      -9.948651      -270.7166
   9   2.0000      -9.945770      -270.6382
  10   2.0000      -9.942147      -270.5396
  11   2.0000      -9.938579      -270.4425
  12   2.0000      -0.983526       -26.7631
  13   2.0000      -0.952524       -25.9195
  14   2.0000      -0.948575       -25.8120
  15   2.0000      -0.935098       -25.4453
  16   2.0000      -0.921735       -25.0817
  17   2.0000      -0.901010       -24.5177
  18   2.0000      -0.710949       -19.3459
  19   2.0000      -0.694308       -18.8931
  20   2.0000      -0.627669       -17.0797
  21   2.0000      -0.587928       -15.9983
  22   2.0000      -0.571896       -15.5621
  23   2.0000      -0.524943       -14.2844
  24   2.0000      -0.509441       -13.8626
  25   2.0000      -0.487389       -13.2625
  26   2.0000      -0.475018       -12.9259
  27   2.0000      -0.452627       -12.3166
  28   2.0000      -0.449308       -12.2263
  29   2.0000      -0.434447       -11.8219
  30   2.0000      -0.418230       -11.3806
  31   2.0000      -0.407545       -11.0899
  32   2.0000      -0.401223       -10.9178
  33   2.0000      -0.387348       -10.5403
  34   2.0000      -0.360512        -9.8100
  35   2.0000      -0.353953        -9.6316
  36   2.0000      -0.331231        -9.0133
  37   2.0000      -0.318532        -8.6677
  38   2.0000      -0.309945        -8.4340
  39   2.0000      -0.304477        -8.2853
  40   2.0000      -0.292552        -7.9608
  41   2.0000      -0.273081        -7.4309
  42   2.0000      -0.266009        -7.2385
  43   2.0000      -0.239552        -6.5186
  44   2.0000      -0.234419        -6.3789
  45   2.0000      -0.227149        -6.1810
  46   2.0000      -0.219849        -5.9824
  47   2.0000      -0.202969        -5.5231
  48   0.0000       0.013788         0.3752
  49   0.0000       0.017538         0.4772
  50   0.0000       0.037949         1.0326
  51   0.0000       0.048622         1.3231
  52   0.0000       0.069937         1.9031

MULLIKEN ATOMIC CHARGES
-----------------------
   0 C :    0.064497
   1 C :    0.043692
   2 H :    0.077532
   3 C :    0.012634
   4 H :    0.041505
   5 C :    0.036085
   6 H :    0.067650
   7 C :    0.069078
   8 H :    0.069610
   9 C :    0.169770
  10 H :    0.041593
  11 O :   -0.307080
  12 O :   -0.430787
  13 O :   -0.420276
  14 O :   -0.427926
  15 O :   -0.418935
  16 O :   -0.434926
  17 H :    0.099061
  18 H :    0.100946
  19 H :    0.297671
  20 H :    0.304088
  21 H :    0.314905
  22 H :    0.311251
  23 H :    0.318362
Sum of atomic charges:   -0.0000000

LOEWDIN ATOMIC CHARGES
----------------------
   0 C :   -0.131262
   1 C :   -0.069592
   2 H :    0.124913
   3 C :   -0.078133
   4 H :    0.092929
   5 C :   -0.069340
   6 H :    0.111734
   7 C :   -0.093293
   8 H :    0.108590
   9 C :   -0.001180
  10 H :    0.089648
  11 O :   -0.135522
  12 O :   -0.338955
  13 O :   -0.323150
  14 O :   -0.323150
  15 O :   -0.320936
  16 O :   -0.311190
  17 H :    0.116383
  18 H :    0.121943
  19 H :    0.267735
  20 H :    0.286914
  21 H :    0.295390
  22 H :    0.287225
  23 H :    0.292299

  Mayer bond orders larger than 0.100000
B(  0-C ,  1-C ) :   1.0478 B(  0-C , 16-O ) :   1.0374 B(  0-C , 17-H ) :   0.9167
B(  0-C , 18-H ) :   0.9192 B(  1-C ,  2-H ) :   0.8684 B(  1-C ,  3-C ) :   0.9799
B(  1-C , 11-O ) :   0.9725 B(  3-C ,  4-H ) :   0.8580 B(  3-C ,  5-C ) :   1.0513
B(  3-C , 15-O ) :   1.0863 B(  5-C ,  6-H ) :   0.8649 B(  5-C ,  7-C ) :   1.0405
B(  5-C , 14-O ) :   1.0674 B(  7-C ,  8-H ) :   0.8734 B(  7-C ,  9-C ) :   0.9669
B(  7-C , 13-O ) :   1.0714 B(  9-C , 10-H ) :   0.8929 B(  9-C , 11-O ) :   1.0908
B(  9-C , 12-O ) :   1.0863 B( 12-O , 19-H ) :   0.7737 B( 13-O , 20-H ) :   0.8463
B( 14-O , 21-H ) :   0.8412 B( 15-O , 22-H ) :   0.8273 B( 16-O , 19-H ) :   0.1373
B( 16-O , 23-H ) :   0.8342

Dispersion correction           -0.025095449
FINAL SINGLE POINT ENERGY      -685.696814650242

DIPOLE MOMENT
-------------

Method             : SCF
Type of density    : Electron Density
Multiplicity       :   1
Irrep              :   0
Energy             :  -685.8303561896107112 Eh
Relativity type    :
Basis              : AO
                                X                 Y                 Z
Electronic contribution:      1.799527114       0.182740952       0.099469509
Nuclear contribution   :     -1.528483044       0.133836291      -0.245357087
                        -----------------------------------------
Total Dipole Moment    :      0.271044069       0.316577243      -0.145887578
                        -----------------------------------------
Magnitude (a.u.)       :      0.441553195
Magnitude (Debye)      :      1.122339027

Rotational constants in cm-1:             0.042194             0.028534             0.020469
Rotational constants in MHz :          1264.931494           855.439186           613.646917

                             ****ORCA TERMINATED NORMALLY****
TOTAL RUN TIME: 0 days 0 hours 0 minutes 8 seconds 21 msec
