                         Program Version 6.0.1  -  RELEASE   -
|  1> ! r2scan-3c def2/J RI DEFGRID2 scfconv6 printgap
|  2> %output
|  3>     printlevel normal
|  4> end
|  5> * xyz 0 1
|  6> C -1.6975143092 -1.1793969713 0.1079312889
|  7> C -0.9287745741 -0.011138282 -0.495225478
|  8> H -0.8784382244 -0.1065046181 -1.5934543676
|  9> C 0.5281953626 -0.0333889921 -0.0057866911
| 10> F 1.1962333943 1.050756871 -0.4471036231
| 11> F 0.6429910728 -0.0366969664 1.3237073974
| 12> F 1.1919663635 -1.104527831 -0.462198746
| 13> O -1.5464469817 1.1850852327 -0.1168893887
| 14> H -1.2258646394 -2.1198754859 -0.1618407222
| 15> H -2.7163162524 -1.1612406549 -0.2659066521
| 16> H -1.7211327776 -1.0770461987 1.1896562331
| 17> H -1.0436740028 1.9432335739 -0.4399873339
| 18> *
| 19>
| 20>                          ****END OF INPUT****

CARTESIAN COORDINATES (ANGSTROEM)
---------------------------------
  C     -1.697514   -1.179397    0.107931
  C     -0.928775   -0.011138   -0.495225
  H     -0.878438   -0.106505   -1.593454
  C      0.528195   -0.033389   -0.005787
  F      1.196233    1.050757   -0.447104
  F      0.642991   -0.036697    1.323707
  F      1.191966   -1.104528   -0.462199
  O     -1.546447    1.185085   -0.116889
  H     -1.225865   -2.119875   -0.161841
  H     -2.716316   -1.161241   -0.265907
  H     -1.721133   -1.077046    1.189656
  H     -1.043674    1.943234   -0.439987

 Total Charge           Charge          ....    0
 Multiplicity           Mult            ....    1
 Number of Electrons    NEL             ....   58
 Basis Dimension        Dim             ....  178

ORBITAL ENERGIES
----------------

  NO   OCC          E(Eh)            E(eV)
   0   2.0000     -24.522698      -667.2965
   1   2.0000     -24.522512      -667.2915
   2   2.0000     -24.520960      -667.2492
   3   2.0000     -18.975703      -516.3551
   4   2.0000     -10.278214      -279.6844
   5   2.0000     -10.120265      -275.3864
   6   2.0000     -10.040153      -273.2064
   7   2.0000      -1.281055       -34.8593
   8   2.0000      -1.191567       -32.4242
   9   2.0000      -1.190715       -32.4010
  10   2.0000      -1.019302       -27.7366
  11   2.0000      -0.763616       -20.7790
  12   2.0000      -0.678375       -18.4595
  13   2.0000      -0.608683       -16.5631
  14   2.0000      -0.562327       -15.3017
  15   2.0000      -0.559577       -15.2269
  16   2.0000      -0.545980       -14.8569
  17   2.0000      -0.491121       -13.3641
  18   2.0000      -0.434694       -11.8286
  19   2.0000      -0.432061       -11.7570
  20   2.0000      -0.414023       -11.2661
  21   2.0000      -0.403707       -10.9854
  22   2.0000      -0.389434       -10.5970
  23   2.0000      -0.383706       -10.4412
  24   2.0000      -0.375546       -10.2191
  25   2.0000      -0.369266       -10.0482
  26   2.0000      -0.354578        -9.6486
  27   2.0000      -0.320601        -8.7240
  28   2.0000      -0.267980        -7.2921
  29   0.0000       0.045033         1.2254
  30   0.0000       0.081828         2.2267
  31   0.0000       0.098948         2.6925
  32   0.0000       0.121128         3.2961
  33   0.0000       0.130719         3.5570

MULLIKEN ATOMIC CHARGES
-----------------------
   0 C :   -0.490989
   1 C :    0.022447
   2 H :    0.151360
   3 C :    0.554738
   4 F :   -0.226908
   5 F :   -0.200782
   6 F :   -0.211860
   7 O :   -0.404737
   8 H :    0.161848
   9 H :    0.163265
  10 H :    0.172170
  11 H :    0.309448
Sum of atomic charges:   -0.0000000

LOEWDIN ATOMIC CHARGES
----------------------
   0 C :   -0.365189
   1 C :    0.077382
   2 H :    0.181205
   3 C :    0.509398
   4 F :   -0.217945
   5 F :   -0.197407
   6 F :   -0.211251
   7 O :   -0.563323
   8 H :    0.169015
   9 H :    0.167480
  10 H :    0.173020
  11 H :    0.277615

  Mayer bond orders larger than 0.100000
B(  0-C ,  1-C ) :   0.9384 B(  0-C ,  8-H ) :   0.9622 B(  0-C ,  9-H ) :   0.9621
B(  0-C , 10-H ) :   0.9724 B(  1-C ,  2-H ) :   0.9299 B(  1-C ,  3-C ) :   0.9714
B(  1-C ,  7-O ) :   0.9248 B(  3-C ,  4-F ) :   1.0019 B(  3-C ,  5-F ) :   1.0346
B(  3-C ,  6-F ) :   1.0139 B(  7-O , 11-H ) :   0.8842

Dispersion correction           -0.002550324
FINAL SINGLE POINT ENERGY      -492.058118809978

DIPOLE MOMENT
-------------

Method             : SCF
Type of density    : Electron Density
Multiplicity       :   1
Irrep              :   0
Energy             :  -492.0675064212315988 Eh
Relativity type    :
Basis              : AO
                                X                 Y                 Z
Electronic contribution:      9.578304116       2.210132780       1.100683844
Nuclear contribution   :     -9.947816403      -2.264189517      -1.578606937
                        -----------------------------------------
Total Dipole Moment    :     -0.369512288      -0.054056737      -0.477923094
                        -----------------------------------------
Magnitude (a.u.)       :      0.606524480
Magnitude (Debye)      :      1.541662711

Rotational constants in cm-1:             0.117973             0.080040             0.065518
Rotational constants in MHz :          3536.734505          2399.540797          1964.178612

                             ****ORCA TERMINATED NORMALLY****
TOTAL RUN TIME: 0 days 0 hours 0 minutes 18 seconds 471 msec
