                         Program Version 6.0.1  -  RELEASE   -
|  1> ! r2scan-3c def2/J RI DEFGRID2 scfconv6 printgap
|  2> %output
|  3>     printlevel normal
|  4> end
|  5> * xyz 0 1
|  6> C -2.434488246 1.0613844467 -0.4280604599
|  7> C -1.7021528983 -0.277183142 -0.2954343493
|  8> C -2.3141152143 -1.0643941569 0.8670183829
|  9> C -0.2014285748 -0.1029813061 -0.149580591
| 10> C 0.457383269 0.9837480483 -0.7168901956
| 11> C 1.8279606583 1.1350193097 -0.6014333258
| 12> C 2.5802065422 0.1980280466 0.08312949
| 13> C 1.9434488936 -0.8947258843 0.6424783754
| 14> C 0.5726270585 -1.0424581055 0.5248703793
| 15> H -2.1708481731 1.7213109799 0.395655711
| 16> H -3.5098307912 0.8973689686 -0.4061903677
| 17> H -2.1988881001 1.5581077938 -1.3651886627
| 18> H -1.8755171943 -0.8490399178 -1.2179735205
| 19> H -3.3989616659 -1.0611428601 0.7838963147
| 20> H -2.0410786149 -0.6112206388 1.8176773924
| 21> H -1.9894828846 -2.1012858251 0.8661615361
| 22> H -0.0951595908 1.7315583113 -1.263037443
| 23> H 2.3091100361 1.9920191067 -1.0508179562
| 24> H 3.6497617703 0.3159275981 0.1762581909
| 25> H 2.5159357313 -1.6406321559 1.1752299861
| 26> H 0.1123096966 -1.9105146561 0.9690118762
| 27> *
| 28>
| 29>                          ****END OF INPUT****

CARTESIAN COORDINATES (ANGSTROEM)
---------------------------------
  C     -2.434488    1.061384   -0.428060
  C     -1.702153   -0.277183   -0.295434
  C     -2.314115   -1.064394    0.867018
  C     -0.201429   -0.102981   -0.149581
  C      0.457383    0.983748   -0.716890
  C      1.827961    1.135019   -0.601433
  C      2.580207    0.198028    0.083129
  C      1.943449   -0.894726    0.642478
  C      0.572627   -1.042458    0.524870
  H     -2.170848    1.721311    0.395656
  H     -3.509831    0.897369   -0.406190
  H     -2.198888    1.558108   -1.365189
  H     -1.875517   -0.849040   -1.217974
  H     -3.398962   -1.061143    0.783896
  H     -2.041079   -0.611221    1.817677
  H     -1.989483   -2.101286    0.866162
  H     -0.095160    1.731558   -1.263037
  H      2.309110    1.992019   -1.050818
  H      3.649762    0.315928    0.176258
  H      2.515936   -1.640632    1.175230
  H      0.112310   -1.910515    0.969012

 Total Charge           Charge          ....    0
 Multiplicity           Mult            ....    1
 Number of Electrons    NEL             ....   66
 Basis Dimension        Dim             ....  231

ORBITAL ENERGIES
----------------

  NO   OCC          E(Eh)            E(eV)
   0   2.0000     -10.043870      -273.3076
   1   2.0000     -10.040479      -273.2153
   2   2.0000     -10.030316      -272.9388
   3   2.0000     -10.030267      -272.9374
   4   2.0000     -10.028311      -272.8842
   5   2.0000     -10.028065      -272.8775
   6   2.0000     -10.028048      -272.8770
   7   2.0000     -10.019745      -272.6511
   8   2.0000     -10.019730      -272.6507
   9   2.0000      -0.827751       -22.5243
  10   2.0000      -0.771051       -20.9814
  11   2.0000      -0.712806       -19.3964
  12   2.0000      -0.698700       -19.0126
  13   2.0000      -0.654097       -17.7989
  14   2.0000      -0.588582       -16.0161
  15   2.0000      -0.567390       -15.4395
  16   2.0000      -0.532057       -14.4780
  17   2.0000      -0.483474       -13.1560
  18   2.0000      -0.436424       -11.8757
  19   2.0000      -0.422969       -11.5096
  20   2.0000      -0.410660       -11.1746
  21   2.0000      -0.409461       -11.1420
  22   2.0000      -0.387030       -10.5316
  23   2.0000      -0.363529        -9.8921
  24   2.0000      -0.348148        -9.4736
  25   2.0000      -0.346637        -9.4325
  26   2.0000      -0.338760        -9.2181
  27   2.0000      -0.324033        -8.8174
  28   2.0000      -0.311969        -8.4891
  29   2.0000      -0.293505        -7.9867
  30   2.0000      -0.290860        -7.9147
  31   2.0000      -0.233098        -6.3429
  32   2.0000      -0.224787        -6.1168
  33   0.0000      -0.028148        -0.7659
  34   0.0000      -0.026502        -0.7212
  35   0.0000       0.080360         2.1867
  36   0.0000       0.097952         2.6654
  37   0.0000       0.116263         3.1637

MULLIKEN ATOMIC CHARGES
-----------------------
   0 C :   -0.538229
   1 C :    0.071619
   2 C :   -0.538533
   3 C :    0.079364
   4 C :   -0.193386
   5 C :   -0.160747
   6 C :   -0.159518
   7 C :   -0.160938
   8 C :   -0.193141
   9 H :    0.173648
  10 H :    0.145352
  11 H :    0.143111
  12 H :    0.162153
  13 H :    0.145386
  14 H :    0.173598
  15 H :    0.143157
  16 H :    0.136702
  17 H :    0.144195
  18 H :    0.145324
  19 H :    0.144186
  20 H :    0.136696
Sum of atomic charges:   -0.0000000

LOEWDIN ATOMIC CHARGES
----------------------
   0 C :   -0.410600
   1 C :   -0.216310
   2 C :   -0.410662
   3 C :   -0.081431
   4 C :   -0.160003
   5 C :   -0.163157
   6 C :   -0.172814
   7 C :   -0.163157
   8 C :   -0.160058
   9 H :    0.160551
  10 H :    0.153731
  11 H :    0.151260
  12 H :    0.169621
  13 H :    0.153742
  14 H :    0.160525
  15 H :    0.151288
  16 H :    0.169775
  17 H :    0.165979
  18 H :    0.165974
  19 H :    0.165977
  20 H :    0.169768

  Mayer bond orders larger than 0.100000
B(  0-C ,  1-C ) :   0.8824 B(  0-C ,  9-H ) :   0.9934 B(  0-C , 10-H ) :   0.9763
B(  0-C , 11-H ) :   0.9596 B(  1-C ,  2-C ) :   0.8825 B(  1-C ,  3-C ) :   0.8460
B(  1-C , 12-H ) :   0.9282 B(  2-C , 13-H ) :   0.9763 B(  2-C , 14-H ) :   0.9936
B(  2-C , 15-H ) :   0.9595 B(  3-C ,  4-C ) :   1.4128 B(  3-C ,  8-C ) :   1.4132
B(  4-C ,  5-C ) :   1.4407 B(  4-C , 16-H ) :   0.9509 B(  5-C ,  6-C ) :   1.4191
B(  5-C , 17-H ) :   0.9486 B(  6-C ,  7-C ) :   1.4192 B(  6-C , 18-H ) :   0.9491
B(  7-C ,  8-C ) :   1.4406 B(  7-C , 19-H ) :   0.9485 B(  8-C , 20-H ) :   0.9508

Dispersion correction           -0.007017340
FINAL SINGLE POINT ENERGY      -350.076436953240

DIPOLE MOMENT
-------------

Method             : SCF
Type of density    : Electron Density
Multiplicity       :   1
Irrep              :   0
Energy             :  -350.0766561310580300 Eh
Relativity type    :
Basis              : AO
                                X                 Y                 Z
Electronic contribution:      7.966145445      -0.072986029      -0.863319584
Nuclear contribution   :     -8.155157600       0.039831481       0.826227826
                        -----------------------------------------
Total Dipole Moment    :     -0.189012155      -0.033154548      -0.037091759
                        -----------------------------------------
Magnitude (a.u.)       :      0.195449782
Magnitude (Debye)      :      0.496793865

Rotational constants in cm-1:             0.113103             0.039795             0.030453
Rotational constants in MHz :          3390.731742          1193.009806           912.947827

                             ****ORCA TERMINATED NORMALLY****
TOTAL RUN TIME: 0 days 0 hours 0 minutes 22 seconds 749 msec
