                         Program Version 6.0.1  -  RELEASE   -
|  1> ! pbe def2-sv(p) def2/J RI DEFGRID1 loosescf d4 GCP(DFT/SV(P)) printgap
|  2> %output
|  3>     printlevel normal
|  4> end
|  5> * xyz 0 1
|  6> C -2.3034091502 0.1878548344 0.2824159713
|  7> C -0.952749839 0.3251411329 -0.4144204865
|  8> C 0.0012363443 -0.7479861122 0.0133246829
|  9> C 1.3076730143 -0.599807358 0.1705019985
| 10> C 2.0604927071 0.6767885082 -0.0536160104
| 11> H -2.9830537371 0.9722922829 -0.0432629252
| 12> H -2.1822518094 0.2632465921 1.360939385
| 13> H -2.7560068541 -0.7750331159 0.0549608557
| 14> H -1.1013936871 0.2558429017 -1.497697046
| 15> H -0.5302301866 1.3084274829 -0.2027186587
| 16> H -0.4493155138 -1.7156938047 0.191686233
| 17> H 1.8996868706 -1.448306502 0.4854490414
| 18> H 3.1309610582 0.5123442036 0.0323926769
| 19> H 1.7708935118 1.4277871399 0.6821490969
| 20> H 1.8512088193 1.0820633877 -1.0425216737
| 21> *
| 22>
| 23>                          ****END OF INPUT****

CARTESIAN COORDINATES (ANGSTROEM)
---------------------------------
  C     -2.303409    0.187855    0.282416
  C     -0.952750    0.325141   -0.414420
  C      0.001236   -0.747986    0.013325
  C      1.307673   -0.599807    0.170502
  C      2.060493    0.676789   -0.053616
  H     -2.983054    0.972292   -0.043263
  H     -2.182252    0.263247    1.360939
  H     -2.756007   -0.775033    0.054961
  H     -1.101394    0.255843   -1.497697
  H     -0.530230    1.308427   -0.202719
  H     -0.449316   -1.715694    0.191686
  H      1.899687   -1.448307    0.485449
  H      3.130961    0.512344    0.032393
  H      1.770894    1.427787    0.682149
  H      1.851209    1.082063   -1.042522

 Total Charge           Charge          ....    0
 Multiplicity           Mult            ....    1
 Number of Electrons    NEL             ....   40
 Basis Dimension        Dim             ....   90

ORBITAL ENERGIES
----------------

  NO   OCC          E(Eh)            E(eV)
   0   2.0000      -9.885300      -268.9927
   1   2.0000      -9.879132      -268.8248
   2   2.0000      -9.876694      -268.7585
   3   2.0000      -9.876579      -268.7554
   4   2.0000      -9.874133      -268.6888
   5   2.0000      -0.723127       -19.6773
   6   2.0000      -0.672441       -18.2980
   7   2.0000      -0.604622       -16.4526
   8   2.0000      -0.546028       -14.8582
   9   2.0000      -0.467096       -12.7103
  10   2.0000      -0.424801       -11.5594
  11   2.0000      -0.392680       -10.6854
  12   2.0000      -0.380925       -10.3655
  13   2.0000      -0.363922        -9.9028
  14   2.0000      -0.334482        -9.1017
  15   2.0000      -0.324896        -8.8409
  16   2.0000      -0.314650        -8.5621
  17   2.0000      -0.299740        -8.1563
  18   2.0000      -0.279228        -7.5982
  19   2.0000      -0.207944        -5.6584
  20   0.0000      -0.008905        -0.2423
  21   0.0000       0.044259         1.2043
  22   0.0000       0.064480         1.7546
  23   0.0000       0.068484         1.8635
  24   0.0000       0.091167         2.4808

MULLIKEN ATOMIC CHARGES
-----------------------
   0 C :   -0.295264
   1 C :   -0.131422
   2 C :   -0.136274
   3 C :   -0.162913
   4 C :   -0.241108
   5 H :    0.101584
   6 H :    0.106855
   7 H :    0.103929
   8 H :    0.101818
   9 H :    0.089728
  10 H :    0.057754
  11 H :    0.065200
  12 H :    0.101980
  13 H :    0.120431
  14 H :    0.117700
Sum of atomic charges:    0.0000000

LOEWDIN ATOMIC CHARGES
----------------------
   0 C :   -0.337426
   1 C :   -0.232495
   2 C :   -0.150229
   3 C :   -0.157966
   4 C :   -0.342643
   5 H :    0.118294
   6 H :    0.119501
   7 H :    0.117476
   8 H :    0.127202
   9 H :    0.120220
  10 H :    0.116826
  11 H :    0.117682
  12 H :    0.124066
  13 H :    0.130842
  14 H :    0.128650

  Mayer bond orders larger than 0.100000
B(  0-C ,  1-C ) :   1.1350 B(  0-C ,  5-H ) :   0.9523 B(  0-C ,  6-H ) :   0.9597
B(  0-C ,  7-H ) :   0.9556 B(  1-C ,  2-C ) :   1.0815 B(  1-C ,  8-H ) :   0.9076
B(  1-C ,  9-H ) :   0.9111 B(  2-C ,  3-C ) :   1.9987 B(  2-C , 10-H ) :   0.9336
B(  3-C ,  4-C ) :   1.1133 B(  3-C , 11-H ) :   0.9327 B(  4-C , 12-H ) :   0.9472
B(  4-C , 13-H ) :   0.9342 B(  4-C , 14-H ) :   0.9390

Dispersion correction           -0.009749938
FINAL SINGLE POINT ENERGY      -196.028785381859

DIPOLE MOMENT
-------------

Method             : SCF
Type of density    : Electron Density
Multiplicity       :   1
Irrep              :   0
Energy             :  -196.0769039626731001 Eh
Relativity type    :
Basis              : AO
                                X                 Y                 Z
Electronic contribution:      1.258133534      -1.646327637      -0.066167790
Nuclear contribution   :     -1.266052456       1.766533392       0.020055097
                        -----------------------------------------
Total Dipole Moment    :     -0.007918922       0.120205755      -0.046112692
                        -----------------------------------------
Magnitude (a.u.)       :      0.128990361
Magnitude (Debye)      :      0.327867441

Rotational constants in cm-1:             0.425525             0.085141             0.076427
Rotational constants in MHz :         12756.913996          2552.461537          2291.232073

                             ****ORCA TERMINATED NORMALLY****
TOTAL RUN TIME: 0 days 0 hours 0 minutes 6 seconds 186 msec
