                         Program Version 6.0.1  -  RELEASE   -
|  1> ! r2scan-3c def2/J RI DEFGRID2 scfconv6 printgap
|  2> %output
|  3>     printlevel normal
|  4> end
|  5> * xyz 0 1
|  6> C -1.8202311789 -1.3479212936 -8.931e-07
|  7> C -0.4878877767 -1.7039358534 5.381e-07
|  8> C 0.5016075783 -0.7306327155 2.727e-06
|  9> C 0.1419469323 0.6122489838 4.3014e-06
| 10> C -1.1955053938 0.9751611069 1.8374e-06
| 11> C -2.1838155981 -0.0025986381 -9.152e-07
| 12> O -3.5004395888 0.3084032243 -2.027e-07
| 13> Cl 1.348915729 1.8405902466 -7.966e-07
| 14> Cl 2.1634953854 -1.1911488545 -1.1135e-06
| 15> H -2.5955102137 -2.0960757275 -3.13e-07
| 16> H -0.2030208588 -2.7436962474 4.949e-07
| 17> H -1.4584940697 2.0230458094 -1.621e-07
| 18> H -3.6192225985 1.2663770828 -2.01329e-05
| 19> *
| 20>
| 21>                          ****END OF INPUT****

CARTESIAN COORDINATES (ANGSTROEM)
---------------------------------
  C     -1.820231   -1.347921   -0.000001
  C     -0.487888   -1.703936    0.000001
  C      0.501608   -0.730633    0.000003
  C      0.141947    0.612249    0.000004
  C     -1.195505    0.975161    0.000002
  C     -2.183816   -0.002599   -0.000001
  O     -3.500440    0.308403   -0.000000
  Cl     1.348916    1.840590   -0.000001
  Cl     2.163495   -1.191149   -0.000001
  H     -2.595510   -2.096076   -0.000000
  H     -0.203021   -2.743696    0.000000
  H     -1.458494    2.023046   -0.000000
  H     -3.619223    1.266377   -0.000020

 Total Charge           Charge          ....    0
 Multiplicity           Mult            ....    1
 Number of Electrons    NEL             ....   82
 Basis Dimension        Dim             ....  212

ORBITAL ENERGIES
----------------

  NO   OCC          E(Eh)            E(eV)
   0   2.0000    -101.229905     -2754.6057
   1   2.0000    -101.224041     -2754.4462
   2   2.0000     -19.004864      -517.1486
   3   2.0000     -10.120027      -275.3799
   4   2.0000     -10.117817      -275.3198
   5   2.0000     -10.107537      -275.0401
   6   2.0000     -10.062384      -273.8114
   7   2.0000     -10.061074      -273.7757
   8   2.0000     -10.052137      -273.5326
   9   2.0000      -9.385848      -255.4019
  10   2.0000      -9.379964      -255.2418
  11   2.0000      -7.132254      -194.0785
  12   2.0000      -7.126391      -193.9190
  13   2.0000      -7.122140      -193.8033
  14   2.0000      -7.121397      -193.7831
  15   2.0000      -7.116152      -193.6403
  16   2.0000      -7.115593      -193.6251
  17   2.0000      -1.052289       -28.6343
  18   2.0000      -0.890911       -24.2429
  19   2.0000      -0.829618       -22.5750
  20   2.0000      -0.811767       -22.0893
  21   2.0000      -0.730064       -19.8661
  22   2.0000      -0.705518       -19.1981
  23   2.0000      -0.618816       -16.8388
  24   2.0000      -0.583916       -15.8892
  25   2.0000      -0.539443       -14.6790
  26   2.0000      -0.491091       -13.3633
  27   2.0000      -0.467640       -12.7251
  28   2.0000      -0.437492       -11.9048
  29   2.0000      -0.421177       -11.4608
  30   2.0000      -0.413801       -11.2601
  31   2.0000      -0.390690       -10.6312
  32   2.0000      -0.375568       -10.2197
  33   2.0000      -0.374728       -10.1969
  34   2.0000      -0.342442        -9.3183
  35   2.0000      -0.327454        -8.9105
  36   2.0000      -0.303005        -8.2452
  37   2.0000      -0.294247        -8.0069
  38   2.0000      -0.281666        -7.6645
  39   2.0000      -0.247582        -6.7370
  40   2.0000      -0.215052        -5.8519
  41   0.0000      -0.057418        -1.5624
  42   0.0000      -0.038641        -1.0515
  43   0.0000      -0.017695        -0.4815
  44   0.0000       0.038396         1.0448
  45   0.0000       0.048245         1.3128

MULLIKEN ATOMIC CHARGES
-----------------------
   0 C :   -0.283746
   1 C :   -0.160515
   2 C :    0.081957
   3 C :    0.140051
   4 C :   -0.401878
   5 C :    0.456315
   6 O :   -0.403972
   7 Cl:   -0.109941
   8 Cl:   -0.118910
   9 H :    0.163201
  10 H :    0.166197
  11 H :    0.154243
  12 H :    0.316997
Sum of atomic charges:   -0.0000000

LOEWDIN ATOMIC CHARGES
----------------------
   0 C :   -0.135889
   1 C :   -0.149780
   2 C :   -0.205853
   3 C :   -0.174784
   4 C :   -0.173781
   5 C :    0.186654
   6 O :   -0.481078
   7 Cl:    0.156532
   8 Cl:    0.144350
   9 H :    0.184729
  10 H :    0.182176
  11 H :    0.181467
  12 H :    0.285256

  Mayer bond orders larger than 0.100000
B(  0-C ,  1-C ) :   1.3798 B(  0-C ,  5-C ) :   1.4008 B(  0-C ,  9-H ) :   0.9426
B(  1-C ,  2-C ) :   1.3379 B(  1-C , 10-H ) :   0.9432 B(  2-C ,  3-C ) :   1.3096
B(  2-C ,  8-Cl) :   1.0348 B(  3-C ,  4-C ) :   1.3643 B(  3-C ,  7-Cl) :   1.0163
B(  4-C ,  5-C ) :   1.3080 B(  4-C , 11-H ) :   0.9112 B(  5-C ,  6-O ) :   0.9228
B(  6-O , 12-H ) :   0.8822

Dispersion correction           -0.005287760
FINAL SINGLE POINT ENERGY     -1226.558447558069

DIPOLE MOMENT
-------------

Method             : SCF
Type of density    : Electron Density
Multiplicity       :   1
Irrep              :   0
Energy             : -1226.5594627487562320 Eh
Relativity type    :
Basis              : AO
                                X                 Y                 Z
Electronic contribution:     11.240945613       2.585754103       0.000003696
Nuclear contribution   :    -12.155467349      -2.321623103      -0.000016309
                        -----------------------------------------
Total Dipole Moment    :     -0.914521736       0.264131000      -0.000012613
                        -----------------------------------------
Magnitude (a.u.)       :      0.951900830
Magnitude (Debye)      :      2.419539626

Rotational constants in cm-1:             0.062733             0.029625             0.020122
Rotational constants in MHz :          1880.688729           888.130235           603.252341

                             ****ORCA TERMINATED NORMALLY****
TOTAL RUN TIME: 0 days 0 hours 0 minutes 26 seconds 100 msec
