                         Program Version 6.0.1  -  RELEASE   -
|  1> ! pbe def2-sv(p) def2/J RI DEFGRID1 loosescf d4 GCP(DFT/SV(P)) printgap
|  2> %output
|  3>     printlevel normal
|  4> end
|  5> * xyz 0 1
|  6> C -2.1300449941 -0.9815337329 -0.2452638401
|  7> C -1.1449107182 -0.3835351058 0.7804202377
|  8> H -1.6955026697 -0.420461094 1.7340828105
|  9> C -0.7693238466 1.0949642505 0.5347194204
| 10> H -1.6434188928 1.6147183026 0.1103948342
| 11> C 0.4248154555 1.2954367795 -0.4239818093
| 12> H 0.8143429666 2.3030880915 -0.2282664674
| 13> C 1.5626060902 0.3109068278 -0.0728781221
| 14> H 2.2779371468 0.2900449113 -0.9020812626
| 15> C 1.0739318082 -1.1402539838 0.1539594068
| 16> H 1.8662188727 -1.677717102 0.6895730275
| 17> O -0.0270376038 -1.2040857796 1.0384910407
| 18> O 0.8688463619 -1.8426256482 -1.0249531916
| 19> O 2.2649673331 0.7637953748 1.0545438226
| 20> O 0.0587646949 1.2943553765 -1.7714357708
| 21> O -0.3809169485 1.6980620027 1.7520372313
| 22> O -1.673937673 -0.8534453318 -1.582602668
| 23> H -3.0924437234 -0.4667289391 -0.1345751416
| 24> H -2.2563808069 -2.0406267652 0.0069359806
| 25> H 0.0760804756 -1.5021845592 -1.4697210127
| 26> H 1.617960562 0.9855439163 1.7396771561
| 27> H -0.4906767475 0.5195355141 -1.9580686393
| 28> H -1.0909175959 1.6254858721 2.3998672769
| 29> H -2.3008358356 -1.2812572716 -2.1756427784
| 30> *
| 31>
| 32>                          ****END OF INPUT****

CARTESIAN COORDINATES (ANGSTROEM)
---------------------------------
  C     -2.130045   -0.981534   -0.245264
  C     -1.144911   -0.383535    0.780420
  H     -1.695503   -0.420461    1.734083
  C     -0.769324    1.094964    0.534719
  H     -1.643419    1.614718    0.110395
  C      0.424815    1.295437   -0.423982
  H      0.814343    2.303088   -0.228266
  C      1.562606    0.310907   -0.072878
  H      2.277937    0.290045   -0.902081
  C      1.073932   -1.140254    0.153959
  H      1.866219   -1.677717    0.689573
  O     -0.027038   -1.204086    1.038491
  O      0.868846   -1.842626   -1.024953
  O      2.264967    0.763795    1.054544
  O      0.058765    1.294355   -1.771436
  O     -0.380917    1.698062    1.752037
  O     -1.673938   -0.853445   -1.582603
  H     -3.092444   -0.466729   -0.134575
  H     -2.256381   -2.040627    0.006936
  H      0.076080   -1.502185   -1.469721
  H      1.617961    0.985544    1.739677
  H     -0.490677    0.519536   -1.958069
  H     -1.090918    1.625486    2.399867
  H     -2.300836   -1.281257   -2.175643

 Total Charge           Charge          ....    0
 Multiplicity           Mult            ....    1
 Number of Electrons    NEL             ....   96
 Basis Dimension        Dim             ....  192

ORBITAL ENERGIES
----------------

  NO   OCC          E(Eh)            E(eV)
   0   2.0000     -18.818685      -512.0825
   1   2.0000     -18.775729      -510.9136
   2   2.0000     -18.765944      -510.6473
   3   2.0000     -18.737823      -509.8821
   4   2.0000     -18.737430      -509.8714
   5   2.0000     -18.727273      -509.5950
   6   2.0000      -9.971320      -271.3334
   7   2.0000      -9.967952      -271.2418
   8   2.0000      -9.967766      -271.2367
   9   2.0000      -9.957752      -270.9642
  10   2.0000      -9.935981      -270.3718
  11   2.0000      -9.920572      -269.9525
  12   2.0000      -0.990481       -26.9523
  13   2.0000      -0.970655       -26.4129
  14   2.0000      -0.950220       -25.8568
  15   2.0000      -0.921325       -25.0705
  16   2.0000      -0.905907       -24.6510
  17   2.0000      -0.901568       -24.5329
  18   2.0000      -0.719958       -19.5911
  19   2.0000      -0.678765       -18.4701
  20   2.0000      -0.636819       -17.3287
  21   2.0000      -0.587675       -15.9914
  22   2.0000      -0.580898       -15.8070
  23   2.0000      -0.538265       -14.6469
  24   2.0000      -0.508971       -13.8498
  25   2.0000      -0.492990       -13.4149
  26   2.0000      -0.482569       -13.1314
  27   2.0000      -0.452996       -12.3267
  28   2.0000      -0.450471       -12.2579
  29   2.0000      -0.442715       -12.0469
  30   2.0000      -0.421677       -11.4744
  31   2.0000      -0.416972       -11.3464
  32   2.0000      -0.407684       -11.0937
  33   2.0000      -0.374791       -10.1986
  34   2.0000      -0.362996        -9.8776
  35   2.0000      -0.353376        -9.6159
  36   2.0000      -0.345689        -9.4067
  37   2.0000      -0.319801        -8.7022
  38   2.0000      -0.297370        -8.0918
  39   2.0000      -0.296758        -8.0752
  40   2.0000      -0.282187        -7.6787
  41   2.0000      -0.273093        -7.4312
  42   2.0000      -0.268791        -7.3142
  43   2.0000      -0.245804        -6.6887
  44   2.0000      -0.239070        -6.5054
  45   2.0000      -0.223342        -6.0774
  46   2.0000      -0.218762        -5.9528
  47   2.0000      -0.182950        -4.9783
  48   0.0000      -0.018528        -0.5042
  49   0.0000       0.003835         0.1043
  50   0.0000       0.042615         1.1596
  51   0.0000       0.052939         1.4405
  52   0.0000       0.062164         1.6916

MULLIKEN ATOMIC CHARGES
-----------------------
   0 C :    0.018687
   1 C :    0.022965
   2 H :    0.065385
   3 C :    0.019462
   4 H :    0.070410
   5 C :    0.046269
   6 H :    0.086822
   7 C :    0.052246
   8 H :    0.080948
   9 C :    0.181185
  10 H :    0.071058
  11 O :   -0.302581
  12 O :   -0.408605
  13 O :   -0.428112
  14 O :   -0.416543
  15 O :   -0.414543
  16 O :   -0.449113
  17 H :    0.089959
  18 H :    0.108148
  19 H :    0.282176
  20 H :    0.296746
  21 H :    0.288431
  22 H :    0.303692
  23 H :    0.334910
Sum of atomic charges:   -0.0000000

LOEWDIN ATOMIC CHARGES
----------------------
   0 C :   -0.136121
   1 C :   -0.076997
   2 H :    0.120153
   3 C :   -0.074709
   4 H :    0.104793
   5 C :   -0.073465
   6 H :    0.123117
   7 C :   -0.091015
   8 H :    0.121949
   9 C :   -0.009817
  10 H :    0.112018
  11 O :   -0.143493
  12 O :   -0.321146
  13 O :   -0.319404
  14 O :   -0.320404
  15 O :   -0.306633
  16 O :   -0.315255
  17 H :    0.111926
  18 H :    0.118390
  19 H :    0.255012
  20 H :    0.269956
  21 H :    0.257856
  22 H :    0.286262
  23 H :    0.307028

  Mayer bond orders larger than 0.100000
B(  0-C ,  1-C ) :   1.0604 B(  0-C , 16-O ) :   0.9898 B(  0-C , 17-H ) :   0.9110
B(  0-C , 18-H ) :   0.9119 B(  1-C ,  2-H ) :   0.8846 B(  1-C ,  3-C ) :   0.9659
B(  1-C , 11-O ) :   1.0615 B(  3-C ,  4-H ) :   0.8984 B(  3-C ,  5-C ) :   0.9903
B(  3-C , 15-O ) :   1.0107 B(  5-C ,  6-H ) :   0.8924 B(  5-C ,  7-C ) :   0.9692
B(  5-C , 14-O ) :   1.0886 B(  7-C ,  8-H ) :   0.8902 B(  7-C ,  9-C ) :   0.9701
B(  7-C , 13-O ) :   1.0392 B(  9-C , 10-H ) :   0.9000 B(  9-C , 11-O ) :   1.0026
B(  9-C , 12-O ) :   1.1295 B( 12-O , 19-H ) :   0.7975 B( 13-O , 20-H ) :   0.8228
B( 14-O , 21-H ) :   0.8049 B( 15-O , 22-H ) :   0.8420 B( 16-O , 19-H ) :   0.1105
B( 16-O , 21-H ) :   0.1038 B( 16-O , 23-H ) :   0.8293

Dispersion correction           -0.026433337
FINAL SINGLE POINT ENERGY      -685.695557042633

DIPOLE MOMENT
-------------

Method             : SCF
Type of density    : Electron Density
Multiplicity       :   1
Irrep              :   0
Energy             :  -685.8308511044739362 Eh
Relativity type    :
Basis              : AO
                                X                 Y                 Z
Electronic contribution:      2.820796795      -0.281041550       0.349268996
Nuclear contribution   :     -5.535295247      -0.049565516      -0.184120813
                        -----------------------------------------
Total Dipole Moment    :     -2.714498451      -0.330607066       0.165148183
                        -----------------------------------------
Magnitude (a.u.)       :      2.739539523
Magnitude (Debye)      :      6.963356080

Rotational constants in cm-1:             0.039440             0.030889             0.027594
Rotational constants in MHz :          1182.385679           926.039767           827.239433

                             ****ORCA TERMINATED NORMALLY****
TOTAL RUN TIME: 0 days 0 hours 0 minutes 8 seconds 507 msec
