                         Program Version 6.0.0  -   RELEASE  -
|  1> ! r2SCAN-3c DEF2-TZVP FREQ
|  2> * xyzfile 0 1 censo.xyz
|  3>
|  4>                          ****END OF INPUT****

CARTESIAN COORDINATES (ANGSTROEM)
---------------------------------
  C      4.230394    1.233100    0.000087
  C      2.926785    1.722054    0.000092
  C      1.858573    0.843076    0.000015
  C      2.079274   -0.530097   -0.000054
  C      3.366996   -1.039557   -0.000066
  C      4.428202   -0.140908    0.000004
  Cl     6.066654   -0.773689   -0.000009
  O      1.034028   -1.439244   -0.000110
  C     -0.237342   -0.902775   -0.000070
  C     -1.297208   -1.788995   -0.000077
  C     -2.597109   -1.298375   -0.000058
  C     -2.846433    0.074342   -0.000034
  C     -1.758000    0.958265   -0.000020
  C     -0.452554    0.474263   -0.000025
  O      0.577632    1.379989    0.000008
  Cl    -2.000357    2.675165    0.000003
  Cl    -4.465633    0.688798   -0.000024
  Cl    -3.913412   -2.438871   -0.000067
  H      5.069693    1.917713    0.000147
  H      2.734476    2.789481    0.000153
  H      3.518052   -2.112721   -0.000127
  H     -1.101019   -2.854598   -0.000100

 Total Charge           Charge          ....    0
 Multiplicity           Mult            ....    1
 Number of Electrons    NEL             ....  160
 Basis Dimension        Dim             ....  606

ORBITAL ENERGIES
----------------

  NO   OCC          E(Eh)            E(eV)
   0   2.0000    -101.213322     -2754.1545
   1   2.0000    -101.210538     -2754.0788
   2   2.0000    -101.209375     -2754.0471
   3   2.0000    -101.202377     -2753.8567
   4   2.0000     -19.041541      -518.1467
   5   2.0000     -19.040405      -518.1158
   6   2.0000     -10.140799      -275.9452
   7   2.0000     -10.138978      -275.8956
   8   2.0000     -10.134825      -275.7826
   9   2.0000     -10.132425      -275.7173
  10   2.0000     -10.130235      -275.6577
  11   2.0000     -10.130122      -275.6546
  12   2.0000     -10.129082      -275.6263
  13   2.0000     -10.119323      -275.3608
  14   2.0000     -10.075268      -274.1620
  15   2.0000     -10.071222      -274.0519
  16   2.0000     -10.070172      -274.0233
  17   2.0000     -10.066960      -273.9359
  18   2.0000      -9.388917      -255.4854
  19   2.0000      -9.386189      -255.4112
  20   2.0000      -9.385103      -255.3816
  21   2.0000      -9.378203      -255.1939
  22   2.0000      -7.134302      -194.1342
  23   2.0000      -7.131611      -194.0610
  24   2.0000      -7.130311      -194.0256
  25   2.0000      -7.123897      -193.8511
  26   2.0000      -7.123187      -193.8318
  27   2.0000      -7.122967      -193.8258
  28   2.0000      -7.121134      -193.7759
  29   2.0000      -7.120188      -193.7502
  30   2.0000      -7.120019      -193.7456
  31   2.0000      -7.119374      -193.7280
  32   2.0000      -7.113107      -193.5575
  33   2.0000      -7.112717      -193.5469
  34   2.0000      -1.104540       -30.0561
  35   2.0000      -1.071272       -29.1508
  36   2.0000      -0.909503       -24.7488
  37   2.0000      -0.877188       -23.8695
  38   2.0000      -0.857548       -23.3351
  39   2.0000      -0.838074       -22.8052
  40   2.0000      -0.820608       -22.3299
  41   2.0000      -0.806880       -21.9563
  42   2.0000      -0.763257       -20.7693
  43   2.0000      -0.739603       -20.1256
  44   2.0000      -0.722558       -19.6618
  45   2.0000      -0.703074       -19.1316
  46   2.0000      -0.649370       -17.6703
  47   2.0000      -0.631059       -17.1720
  48   2.0000      -0.602369       -16.3913
  49   2.0000      -0.581612       -15.8265
  50   2.0000      -0.560702       -15.2575
  51   2.0000      -0.524898       -14.2832
  52   2.0000      -0.500343       -13.6150
  53   2.0000      -0.481179       -13.0935
  54   2.0000      -0.475778       -12.9466
  55   2.0000      -0.473210       -12.8767
  56   2.0000      -0.451534       -12.2869
  57   2.0000      -0.447117       -12.1667
  58   2.0000      -0.438873       -11.9423
  59   2.0000      -0.417235       -11.3535
  60   2.0000      -0.415914       -11.3176
  61   2.0000      -0.411962       -11.2101
  62   2.0000      -0.408730       -11.1221
  63   2.0000      -0.406422       -11.0593
  64   2.0000      -0.380985       -10.3671
  65   2.0000      -0.380940       -10.3659
  66   2.0000      -0.379204       -10.3187
  67   2.0000      -0.353370        -9.6157
  68   2.0000      -0.335966        -9.1421
  69   2.0000      -0.335957        -9.1419
  70   2.0000      -0.319767        -8.7013
  71   2.0000      -0.316233        -8.6051
  72   2.0000      -0.308429        -8.3928
  73   2.0000      -0.298058        -8.1106
  74   2.0000      -0.295689        -8.0461
  75   2.0000      -0.285719        -7.7748
  76   2.0000      -0.264485        -7.1970
  77   2.0000      -0.251770        -6.8510
  78   2.0000      -0.238892        -6.5006
  79   2.0000      -0.205435        -5.5902
  80   0.0000      -0.073288        -1.9943
  81   0.0000      -0.069884        -1.9016
  82   0.0000      -0.064040        -1.7426
  83   0.0000      -0.057719        -1.5706
  84   0.0000      -0.032546        -0.8856

MULLIKEN ATOMIC CHARGES
-----------------------
   0 C :   -0.159739
   1 C :   -0.226665
   2 C :    0.200851
   3 C :    0.295581
   4 C :   -0.361493
   5 C :    0.237967
   6 Cl:   -0.109903
   7 O :   -0.237935
   8 C :    0.259653
   9 C :   -0.385376
  10 C :    0.151732
  11 C :    0.063808
  12 C :   -0.051103
  13 C :    0.217557
  14 O :   -0.234587
  15 Cl:   -0.051898
  16 Cl:   -0.049899
  17 Cl:   -0.075255
  18 H :    0.131210
  19 H :    0.126702
  20 H :    0.129270
  21 H :    0.129521
Sum of atomic charges:   -0.0000000

LOEWDIN ATOMIC CHARGES
----------------------
   0 C :   -0.142439
   1 C :   -0.095978
   2 C :   -0.195427
   3 C :   -0.193672
   4 C :   -0.107805
   5 C :   -0.414606
   6 Cl:    0.381373
   7 O :    0.335140
   8 C :   -0.201083
   9 C :   -0.111571
  10 C :   -0.436847
  11 C :   -0.455001
  12 C :   -0.411681
  13 C :   -0.216555
  14 O :    0.336573
  15 Cl:    0.444475
  16 Cl:    0.435923
  17 Cl:    0.416844
  18 H :    0.152506
  19 H :    0.158556
  20 H :    0.159416
  21 H :    0.161861

  Mayer bond orders larger than 0.100000
B(  0-C ,  1-C ) :   1.3430 B(  0-C ,  5-C ) :   1.3577 B(  0-C , 18-H ) :   0.9734
B(  1-C ,  2-C ) :   1.3601 B(  1-C , 19-H ) :   0.9817 B(  2-C ,  3-C ) :   1.3663
B(  2-C , 14-O ) :   0.9661 B(  3-C ,  4-C ) :   1.3261 B(  3-C ,  7-O ) :   0.9734
B(  4-C ,  5-C ) :   1.3253 B(  4-C , 20-H ) :   0.9900 B(  5-C ,  6-Cl) :   0.9505
B(  7-O ,  8-C ) :   0.9878 B(  8-C ,  9-C ) :   1.3584 B(  8-C , 13-C ) :   1.4009
B(  9-C , 10-C ) :   1.3376 B(  9-C , 21-H ) :   0.9914 B( 10-C , 11-C ) :   1.2880
B( 10-C , 17-Cl) :   1.0474 B( 11-C , 12-C ) :   1.2357 B( 11-C , 16-Cl) :   1.1593
B( 12-C , 13-C ) :   1.2292 B( 12-C , 15-Cl) :   1.2118 B( 13-C , 14-O ) :   1.0724

Dispersion correction           -0.012594181
FINAL SINGLE POINT ENERGY     -2450.779252233655

DIPOLE MOMENT
-------------

Method             : SCF
Type of density    : Electron Density
Multiplicity       :   1
Irrep              :   0
Energy             : -2450.7782762719070888 Eh
Relativity type    :
Basis              : AO
                                X                 Y                 Z
Electronic contribution:    -14.876265200       0.486259703      -0.000142155
Nuclear contribution   :     15.400317303      -0.451062506       0.000160277
                        -----------------------------------------
Total Dipole Moment    :      0.524052103       0.035197196       0.000018121
                        -----------------------------------------
Magnitude (a.u.)       :      0.525232758
Magnitude (Debye)      :      1.335035574

VIBRATIONAL FREQUENCIES
-----------------------

Scaling factor for frequencies =  1.000000000  (already applied!)

     0:       0.00 cm**-1
     1:       0.00 cm**-1
     2:       0.00 cm**-1
     3:       0.00 cm**-1
     4:       0.00 cm**-1
     5:       0.00 cm**-1
     6:      32.13 cm**-1
     7:      72.12 cm**-1
     8:      88.12 cm**-1
     9:     116.45 cm**-1
    10:     149.76 cm**-1
    11:     165.83 cm**-1
    12:     190.92 cm**-1
    13:     215.49 cm**-1
    14:     226.95 cm**-1
    15:     227.78 cm**-1
    16:     278.65 cm**-1
    17:     296.83 cm**-1
    18:     338.05 cm**-1
    19:     349.37 cm**-1
    20:     367.74 cm**-1
    21:     375.79 cm**-1
    22:     409.90 cm**-1
    23:     455.05 cm**-1
    24:     490.35 cm**-1
    25:     531.99 cm**-1
    26:     536.96 cm**-1
    27:     577.03 cm**-1
    28:     589.58 cm**-1
    29:     611.55 cm**-1
    30:     628.13 cm**-1
    31:     653.07 cm**-1
    32:     678.76 cm**-1
    33:     705.74 cm**-1
    34:     729.65 cm**-1
    35:     779.26 cm**-1
    36:     813.17 cm**-1
    37:     813.55 cm**-1
    38:     851.58 cm**-1
    39:     862.72 cm**-1
    40:     903.22 cm**-1
    41:     921.36 cm**-1
    42:     926.20 cm**-1
    43:     980.17 cm**-1
    44:    1080.36 cm**-1
    45:    1132.70 cm**-1
    46:    1159.61 cm**-1
    47:    1182.78 cm**-1
    48:    1200.37 cm**-1
    49:    1240.04 cm**-1
    50:    1271.27 cm**-1
    51:    1307.41 cm**-1
    52:    1327.06 cm**-1
    53:    1358.11 cm**-1
    54:    1389.37 cm**-1
    55:    1441.50 cm**-1
    56:    1464.72 cm**-1
    57:    1509.27 cm**-1
    58:    1593.39 cm**-1
    59:    1597.72 cm**-1
    60:    1642.92 cm**-1
    61:    1652.17 cm**-1
    62:    3187.33 cm**-1
    63:    3201.08 cm**-1
    64:    3203.44 cm**-1
    65:    3205.21 cm**-1

IR SPECTRUM
-----------

 Mode   freq       eps      Int      T**2         TX        TY        TZ
       cm**-1   L/(mol*cm) km/mol    a.u.
----------------------------------------------------------------------------
  6:     32.13   0.000003    0.02  0.000033  ( 0.000007 -0.000008 -0.005780)
  7:     72.12   0.000046    0.23  0.000201  (-0.000007 -0.000021 -0.014177)
  8:     88.12   0.000003    0.01  0.000009  ( 0.000001 -0.000005 -0.003079)
  9:    116.45   0.000017    0.09  0.000046  (-0.006730 -0.001048  0.000000)
 10:    149.76   0.000072    0.36  0.000149  (-0.000005  0.000001  0.012224)
 11:    165.83   0.000066    0.33  0.000124  (-0.000003 -0.000002 -0.011140)
 12:    190.92   0.000017    0.09  0.000028  (-0.003999 -0.003433  0.000000)
 13:    215.49   0.000001    0.01  0.000002  ( 0.001211  0.000730 -0.000000)
 14:    226.95   0.000039    0.20  0.000054  ( 0.000412 -0.007347 -0.000001)
 15:    227.78   0.000018    0.09  0.000024  ( 0.000006 -0.000000  0.004906)
 16:    278.65   0.000123    0.62  0.000138  (-0.007362 -0.009130 -0.000001)
 17:    296.83   0.000045    0.23  0.000047  ( 0.000000 -0.000008 -0.006892)
 18:    338.05   0.000053    0.27  0.000049  (-0.005922  0.003694  0.000000)
 19:    349.37   0.000000    0.00  0.000000  ( 0.000003 -0.000011 -0.000126)
 20:    367.74   0.000046    0.23  0.000039  (-0.001317  0.006119 -0.000001)
 21:    375.79   0.000139    0.70  0.000116  (-0.000003  0.000017  0.010747)
 22:    409.90   0.002662   13.45  0.002026  (-0.044838  0.003983  0.000000)
 23:    455.05   0.000756    3.82  0.000519  (-0.000001 -0.000004 -0.022777)
 24:    490.35   0.001919    9.70  0.001221  ( 0.023984 -0.025418  0.000000)
 25:    531.99   0.000682    3.45  0.000400  (-0.019721  0.003381 -0.000001)
 26:    536.96   0.000187    0.95  0.000109  ( 0.000005  0.000004 -0.010438)
 27:    577.03   0.000107    0.54  0.000058  ( 0.000633 -0.007597  0.000000)
 28:    589.58   0.000982    4.96  0.000520  ( 0.000001 -0.000005 -0.022795)
 29:    611.55   0.001070    5.41  0.000546  (-0.002034  0.023280  0.000001)
 30:    628.13   0.000001    0.00  0.000000  ( 0.000001 -0.000003  0.000583)
 31:    653.07   0.000383    1.94  0.000183  (-0.013486  0.001101  0.000000)
 32:    678.76   0.000017    0.09  0.000008  ( 0.000006 -0.000001 -0.002812)
 33:    705.74   0.000195    0.99  0.000086  ( 0.000005  0.000012  0.009292)
 34:    729.65   0.002530   12.79  0.001082  ( 0.026520  0.019467  0.000000)
 35:    779.26   0.002963   14.98  0.001187  ( 0.022234 -0.026313 -0.000002)
 36:    813.17   0.013086   66.13  0.005022  (-0.037285 -0.060263  0.000033)
 37:    813.55   0.005488   27.73  0.002105  ( 0.000030  0.000054  0.045879)
 38:    851.58   0.002352   11.89  0.000862  (-0.000000 -0.000002 -0.029361)
 39:    862.72   0.006133   31.00  0.002219  (-0.000002  0.000008  0.047102)
 40:    903.22   0.023676  119.65  0.008180  (-0.090242 -0.006032 -0.000002)
 41:    921.36   0.021433  108.31  0.007259  (-0.077971  0.034348  0.000000)
 42:    926.20   0.000199    1.01  0.000067  (-0.000005  0.000004  0.008193)
 43:    980.17   0.013025   65.83  0.004147  ( 0.064330 -0.002935 -0.000000)
 44:   1080.36   0.006513   32.92  0.001881  ( 0.042528 -0.008528 -0.000000)
 45:   1132.70   0.006168   31.17  0.001699  (-0.027822  0.030420  0.000001)
 46:   1159.61   0.011053   55.86  0.002974  ( 0.054532 -0.000795 -0.000000)
 47:   1182.78   0.004843   24.48  0.001278  ( 0.035742 -0.000525  0.000001)
 48:   1200.37   0.002211   11.17  0.000575  (-0.005006  0.023444  0.000001)
 49:   1240.04   0.012068   60.99  0.003037  ( 0.055049  0.002557  0.000001)
 50:   1271.27   0.000070    0.35  0.000017  (-0.002950  0.002905  0.000001)
 51:   1307.41   0.074218  375.07  0.017715  (-0.130054 -0.028303 -0.000002)
 52:   1327.06   0.013437   67.91  0.003160  (-0.055061 -0.011315 -0.000000)
 53:   1358.11   0.001481    7.49  0.000340  ( 0.013294 -0.012794 -0.000000)
 54:   1389.37   0.014637   73.97  0.003288  ( 0.046960 -0.032898 -0.000000)
 55:   1441.50   0.004025   20.34  0.000871  ( 0.021488 -0.020237 -0.000000)
 56:   1464.72   0.148002  747.94  0.031532  ( 0.173849  0.036180  0.000001)
 57:   1509.27   0.060496  305.72  0.012508  (-0.111738  0.004785 -0.000001)
 58:   1593.39   0.011984   60.56  0.002347  ( 0.046003 -0.015190  0.000000)
 59:   1597.72   0.006303   31.85  0.001231  ( 0.034163  0.007998 -0.000001)
 60:   1642.92   0.003855   19.48  0.000732  ( 0.008832  0.025579  0.000001)
 61:   1652.17   0.000721    3.64  0.000136  ( 0.010969  0.003975  0.000001)
 62:   3187.33   0.000112    0.57  0.000011  (-0.003298  0.000359 -0.000000)
 63:   3201.08   0.000287    1.45  0.000028  ( 0.003215 -0.004202 -0.000000)
 64:   3203.44   0.000619    3.13  0.000060  ( 0.000983  0.007703  0.000000)
 65:   3205.21   0.000005    0.03  0.000000  ( 0.000029  0.000702  0.000000)

--------------------------
THERMOCHEMISTRY AT 298.15K
--------------------------

Temperature         ...   298.15 K
Pressure            ...     1.00 atm
Total Mass          ...   321.97 AMU
Quasi RRHO          ...     True
Cut-Off Frequency   ...     1.00 cm^-1

Throughout the following assumptions are being made:
  (1) The electronic state is orbitally nondegenerate
  (2) There are no thermally accessible electronically excited states
  (3) Hindered rotations indicated by low frequency modes are not
      treated as such but are treated as vibrations and this may
      cause some error
  (4) All equations used are the standard statistical mechanics
      equations for an ideal gas
  (5) All vibrations are strictly harmonic

freq.      32.13  E(vib)   ...       0.55
freq.      72.12  E(vib)   ...       0.50
freq.      88.12  E(vib)   ...       0.48
freq.     116.45  E(vib)   ...       0.44
freq.     149.76  E(vib)   ...       0.40
freq.     165.83  E(vib)   ...       0.39
freq.     190.92  E(vib)   ...       0.36
freq.     215.49  E(vib)   ...       0.34
freq.     226.95  E(vib)   ...       0.33
freq.     227.78  E(vib)   ...       0.33
freq.     278.65  E(vib)   ...       0.28
freq.     296.83  E(vib)   ...       0.27
freq.     338.05  E(vib)   ...       0.24
freq.     349.37  E(vib)   ...       0.23
freq.     367.74  E(vib)   ...       0.21
freq.     375.79  E(vib)   ...       0.21
freq.     409.90  E(vib)   ...       0.19
freq.     455.05  E(vib)   ...       0.16
freq.     490.35  E(vib)   ...       0.15
freq.     531.99  E(vib)   ...       0.13
freq.     536.96  E(vib)   ...       0.12
freq.     577.03  E(vib)   ...       0.11
freq.     589.58  E(vib)   ...       0.10
freq.     611.55  E(vib)   ...       0.10
freq.     628.13  E(vib)   ...       0.09
freq.     653.07  E(vib)   ...       0.08
freq.     678.76  E(vib)   ...       0.08
freq.     705.74  E(vib)   ...       0.07
freq.     729.65  E(vib)   ...       0.06
freq.     779.26  E(vib)   ...       0.05
freq.     813.17  E(vib)   ...       0.05
freq.     813.55  E(vib)   ...       0.05
freq.     851.58  E(vib)   ...       0.04
freq.     862.72  E(vib)   ...       0.04
freq.     903.22  E(vib)   ...       0.03
freq.     921.36  E(vib)   ...       0.03
freq.     926.20  E(vib)   ...       0.03
freq.     980.17  E(vib)   ...       0.02
freq.    1080.36  E(vib)   ...       0.02
freq.    1132.70  E(vib)   ...       0.01
freq.    1159.61  E(vib)   ...       0.01
freq.    1182.78  E(vib)   ...       0.01
freq.    1200.37  E(vib)   ...       0.01
freq.    1240.04  E(vib)   ...       0.01
freq.    1271.27  E(vib)   ...       0.01
freq.    1307.41  E(vib)   ...       0.01
freq.    1327.06  E(vib)   ...       0.01
freq.    1358.11  E(vib)   ...       0.01
freq.    1389.37  E(vib)   ...       0.00
freq.    1441.50  E(vib)   ...       0.00
freq.    1464.72  E(vib)   ...       0.00
freq.    1509.27  E(vib)   ...       0.00
freq.    1593.39  E(vib)   ...       0.00
freq.    1597.72  E(vib)   ...       0.00
freq.    1642.92  E(vib)   ...       0.00
freq.    1652.17  E(vib)   ...       0.00
freq.    3187.33  E(vib)   ...       0.00
freq.    3201.08  E(vib)   ...       0.00
freq.    3203.44  E(vib)   ...       0.00
freq.    3205.21  E(vib)   ...       0.00

------------
INNER ENERGY
------------

The inner energy is: U= E(el) + E(ZPE) + E(vib) + E(rot) + E(trans)
    E(el)   - is the total energy from the electronic structure calculation
              = E(kin-el) + E(nuc-el) + E(el-el) + E(nuc-nuc)
    E(ZPE)  - the the zero temperature vibrational energy from the frequency calculation
    E(vib)  - the the finite temperature correction to E(ZPE) due to population
              of excited vibrational states
    E(rot)  - is the rotational thermal energy
    E(trans)- is the translational thermal energy

Summary of contributions to the inner energy U:
Electronic energy                ...  -2450.77925223 Eh
Zero point energy                ...      0.12823540 Eh      80.47 kcal/mol
Thermal vibrational correction   ...      0.01186124 Eh       7.44 kcal/mol
Thermal rotational correction    ...      0.00141627 Eh       0.89 kcal/mol
Thermal translational correction ...      0.00141627 Eh       0.89 kcal/mol
-----------------------------------------------------------------------
Total thermal energy                  -2450.63632306 Eh

Summary of corrections to the electronic energy:
(perhaps to be used in another calculation)
Total thermal correction                  0.01469378 Eh       9.22 kcal/mol
Non-thermal (ZPE) correction              0.12823540 Eh      80.47 kcal/mol
-----------------------------------------------------------------------
Total correction                          0.14292918 Eh      89.69 kcal/mol

--------
ENTHALPY
--------

The enthalpy is H = U + kB*T
                kB is Boltzmann's constant
Total thermal energy              ...  -2450.63632306 Eh
Thermal Enthalpy correction       ...      0.00094421 Eh       0.59 kcal/mol
-----------------------------------------------------------------------
Total Enthalpy                    ...  -2450.63537885 Eh

Note: Only C1 symmetry has been detected, increase convergence thresholds
      if your molecule has a higher symmetry. Symmetry factor of 1.0 is
      used for the rotational entropy correction.

Note: Rotational entropy computed according to Herzberg
Infrared and Raman Spectra, Chapter V,1, Van Nostrand Reinhold, 1945
Point Group:  C1, Symmetry Number:   1
Rotational constants in cm-1:     0.022423     0.004450     0.003713

Vibrational entropy computed according to the QRRHO of S. Grimme
Chem.Eur.J. 2012 18 9955 using a reference frequency of 100.0 cm-1

-------
ENTROPY
-------

The entropy contributions are T*S = T*(S(el)+S(vib)+S(rot)+S(trans))
     S(el)   - electronic entropy
     S(vib)  - vibrational entropy
     S(rot)  - rotational entropy
     S(trans)- translational entropy
The entropies will be listed as multiplied by the temperature to get
units of energy

Electronic entropy                ...      0.00000000 Eh      0.00 kcal/mol
Vibrational entropy               ...      0.02035320 Eh     12.77 kcal/mol
Rotational entropy                ...      0.01650165 Eh     10.35 kcal/mol
Translational entropy             ...      0.02052729 Eh     12.88 kcal/mol
-----------------------------------------------------------------------
Final entropy term                ...      0.05738214 Eh     36.01 kcal/mol

In case the symmetry of your molecule has not been determined correctly
or in case you have a reason to use a different symmetry number we print
out the resulting rotational entropy values for sn=1,12:

 non-linear molecules -----------------------------------

                             ****ORCA TERMINATED NORMALLY****
TOTAL RUN TIME: 0 days 0 hours 42 minutes 29 seconds 840 msec
