                         Program Version 6.0.0  -   RELEASE  -
|  1> ! r2SCAN-3c DEF2-TZVP FREQ
|  2> * xyzfile 0 1 vacuum_censo.xyz
|  3>
|  4>                          ****END OF INPUT****

CARTESIAN COORDINATES (ANGSTROEM)
---------------------------------
  C      4.227309    1.230201    0.000103
  C      2.924434    1.719361   -0.000097
  C      1.852444    0.843540   -0.000311
  C      2.074398   -0.531128   -0.000329
  C      3.364072   -1.037033   -0.000105
  C      4.430242   -0.143650    0.000102
  Cl     6.061372   -0.776047    0.000380
  O      1.033888   -1.435213   -0.000595
  C     -0.234097   -0.900597   -0.000369
  C     -1.295755   -1.785447   -0.000216
  C     -2.597971   -1.298111   -0.000021
  C     -2.847158    0.076192    0.000045
  C     -1.757724    0.961804   -0.000100
  C     -0.451053    0.476824   -0.000330
  O      0.578561    1.378738   -0.000536
  Cl    -1.998459    2.674415   -0.000028
  Cl    -4.462665    0.687342    0.000311
  Cl    -3.907643   -2.439809    0.000148
  H      5.070067    1.909777    0.000263
  H      2.727472    2.785510   -0.000096
  H      3.518142   -2.109003   -0.000109
  H     -1.102296   -2.850694   -0.000259

 Total Charge           Charge          ....    0
 Multiplicity           Mult            ....    1
 Number of Electrons    NEL             ....  160
 Basis Dimension        Dim             ....  606

ORBITAL ENERGIES
----------------

  NO   OCC          E(Eh)            E(eV)
   0   2.0000    -101.213547     -2754.1606
   1   2.0000    -101.210603     -2754.0805
   2   2.0000    -101.209670     -2754.0551
   3   2.0000    -101.202762     -2753.8671
   4   2.0000     -19.041945      -518.1577
   5   2.0000     -19.040863      -518.1282
   6   2.0000     -10.140802      -275.9453
   7   2.0000     -10.138904      -275.8936
   8   2.0000     -10.134187      -275.7653
   9   2.0000     -10.132244      -275.7124
  10   2.0000     -10.129829      -275.6467
  11   2.0000     -10.129606      -275.6406
  12   2.0000     -10.128728      -275.6167
  13   2.0000     -10.118159      -275.3291
  14   2.0000     -10.074827      -274.1500
  15   2.0000     -10.070089      -274.0211
  16   2.0000     -10.069260      -273.9985
  17   2.0000     -10.065945      -273.9083
  18   2.0000      -9.389205      -255.4933
  19   2.0000      -9.386329      -255.4150
  20   2.0000      -9.385448      -255.3910
  21   2.0000      -9.378657      -255.2062
  22   2.0000      -7.134565      -194.1414
  23   2.0000      -7.131714      -194.0638
  24   2.0000      -7.130638      -194.0345
  25   2.0000      -7.124191      -193.8591
  26   2.0000      -7.123630      -193.8438
  27   2.0000      -7.123257      -193.8337
  28   2.0000      -7.121286      -193.7800
  29   2.0000      -7.120366      -193.7550
  30   2.0000      -7.120334      -193.7541
  31   2.0000      -7.119718      -193.7374
  32   2.0000      -7.113558      -193.5698
  33   2.0000      -7.113161      -193.5590
  34   2.0000      -1.107761       -30.1437
  35   2.0000      -1.074387       -29.2356
  36   2.0000      -0.909754       -24.7557
  37   2.0000      -0.877114       -23.8675
  38   2.0000      -0.858620       -23.3642
  39   2.0000      -0.838920       -22.8282
  40   2.0000      -0.821566       -22.3559
  41   2.0000      -0.806951       -21.9583
  42   2.0000      -0.762974       -20.7616
  43   2.0000      -0.739639       -20.1266
  44   2.0000      -0.721882       -19.6434
  45   2.0000      -0.702606       -19.1189
  46   2.0000      -0.650145       -17.6913
  47   2.0000      -0.631098       -17.1730
  48   2.0000      -0.602173       -16.3860
  49   2.0000      -0.582433       -15.8488
  50   2.0000      -0.560380       -15.2487
  51   2.0000      -0.525209       -14.2917
  52   2.0000      -0.500862       -13.6291
  53   2.0000      -0.480903       -13.0860
  54   2.0000      -0.477194       -12.9851
  55   2.0000      -0.473124       -12.8743
  56   2.0000      -0.452128       -12.3030
  57   2.0000      -0.447103       -12.1663
  58   2.0000      -0.437882       -11.9154
  59   2.0000      -0.417776       -11.3683
  60   2.0000      -0.416993       -11.3470
  61   2.0000      -0.412219       -11.2171
  62   2.0000      -0.410055       -11.1582
  63   2.0000      -0.406715       -11.0673
  64   2.0000      -0.381688       -10.3863
  65   2.0000      -0.381031       -10.3684
  66   2.0000      -0.378311       -10.2944
  67   2.0000      -0.354080        -9.6350
  68   2.0000      -0.336358        -9.1528
  69   2.0000      -0.335079        -9.1180
  70   2.0000      -0.320264        -8.7148
  71   2.0000      -0.316060        -8.6004
  72   2.0000      -0.308720        -8.4007
  73   2.0000      -0.298254        -8.1159
  74   2.0000      -0.295496        -8.0408
  75   2.0000      -0.286203        -7.7880
  76   2.0000      -0.263691        -7.1754
  77   2.0000      -0.251256        -6.8370
  78   2.0000      -0.238243        -6.4829
  79   2.0000      -0.204595        -5.5673
  80   0.0000      -0.073288        -1.9943
  81   0.0000      -0.069799        -1.8993
  82   0.0000      -0.063175        -1.7191
  83   0.0000      -0.055813        -1.5188
  84   0.0000      -0.031999        -0.8707

MULLIKEN ATOMIC CHARGES
-----------------------
   0 C :   -0.159733
   1 C :   -0.228276
   2 C :    0.203196
   3 C :    0.293912
   4 C :   -0.360954
   5 C :    0.236098
   6 Cl:   -0.106018
   7 O :   -0.238059
   8 C :    0.259104
   9 C :   -0.382939
  10 C :    0.148355
  11 C :    0.065177
  12 C :   -0.054719
  13 C :    0.220634
  14 O :   -0.235277
  15 Cl:   -0.050344
  16 Cl:   -0.049148
  17 Cl:   -0.073325
  18 H :    0.129962
  19 H :    0.125673
  20 H :    0.127899
  21 H :    0.128784
Sum of atomic charges:    0.0000000

LOEWDIN ATOMIC CHARGES
----------------------
   0 C :   -0.142928
   1 C :   -0.096495
   2 C :   -0.199785
   3 C :   -0.197954
   4 C :   -0.108262
   5 C :   -0.421657
   6 Cl:    0.389016
   7 O :    0.341834
   8 C :   -0.202962
   9 C :   -0.111722
  10 C :   -0.440749
  11 C :   -0.458793
  12 C :   -0.415488
  13 C :   -0.217396
  14 O :    0.342585
  15 Cl:    0.448863
  16 Cl:    0.440294
  17 Cl:    0.421278
  18 H :    0.152048
  19 H :    0.158231
  20 H :    0.158734
  21 H :    0.161307

  Mayer bond orders larger than 0.100000
B(  0-C ,  1-C ) :   1.3434 B(  0-C ,  5-C ) :   1.3574 B(  0-C , 18-H ) :   0.9741
B(  1-C ,  2-C ) :   1.3591 B(  1-C , 19-H ) :   0.9824 B(  2-C ,  3-C ) :   1.3634
B(  2-C , 14-O ) :   0.9694 B(  3-C ,  4-C ) :   1.3271 B(  3-C ,  7-O ) :   0.9748
B(  4-C ,  5-C ) :   1.3250 B(  4-C , 20-H ) :   0.9901 B(  5-C ,  6-Cl) :   0.9551
B(  7-O ,  8-C ) :   0.9863 B(  8-C ,  9-C ) :   1.3598 B(  8-C , 13-C ) :   1.4004
B(  9-C , 10-C ) :   1.3371 B(  9-C , 21-H ) :   0.9917 B( 10-C , 11-C ) :   1.2876
B( 10-C , 17-Cl) :   1.0503 B( 11-C , 12-C ) :   1.2346 B( 11-C , 16-Cl) :   1.1608
B( 12-C , 13-C ) :   1.2282 B( 12-C , 15-Cl) :   1.2148 B( 13-C , 14-O ) :   1.0680

Dispersion correction           -0.012605424
FINAL SINGLE POINT ENERGY     -2450.779749366769

DIPOLE MOMENT
-------------

Method             : SCF
Type of density    : Electron Density
Multiplicity       :   1
Irrep              :   0
Energy             : -2450.7787985111071976 Eh
Relativity type    :
Basis              : AO
                                X                 Y                 Z
Electronic contribution:    -14.880900490       0.477923552       0.001302812
Nuclear contribution   :     15.386034280      -0.447971061      -0.001338629
                        -----------------------------------------
Total Dipole Moment    :      0.505133790       0.029952491      -0.000035818
                        -----------------------------------------
Magnitude (a.u.)       :      0.506021046
Magnitude (Debye)      :      1.286203282

VIBRATIONAL FREQUENCIES
-----------------------

Scaling factor for frequencies =  1.000000000  (already applied!)

     0:       0.00 cm**-1
     1:       0.00 cm**-1
     2:       0.00 cm**-1
     3:       0.00 cm**-1
     4:       0.00 cm**-1
     5:       0.00 cm**-1
     6:      28.34 cm**-1
     7:      68.05 cm**-1
     8:      86.77 cm**-1
     9:     116.05 cm**-1
    10:     145.77 cm**-1
    11:     162.22 cm**-1
    12:     190.66 cm**-1
    13:     214.74 cm**-1
    14:     223.21 cm**-1
    15:     226.40 cm**-1
    16:     279.57 cm**-1
    17:     295.02 cm**-1
    18:     339.08 cm**-1
    19:     347.12 cm**-1
    20:     369.21 cm**-1
    21:     374.31 cm**-1
    22:     412.19 cm**-1
    23:     452.10 cm**-1
    24:     491.76 cm**-1
    25:     534.03 cm**-1
    26:     536.30 cm**-1
    27:     578.02 cm**-1
    28:     588.71 cm**-1
    29:     613.10 cm**-1
    30:     628.59 cm**-1
    31:     657.73 cm**-1
    32:     679.20 cm**-1
    33:     705.48 cm**-1
    34:     733.19 cm**-1
    35:     781.46 cm**-1
    36:     812.63 cm**-1
    37:     817.82 cm**-1
    38:     848.84 cm**-1
    39:     861.18 cm**-1
    40:     910.01 cm**-1
    41:     924.52 cm**-1
    42:     925.44 cm**-1
    43:     987.63 cm**-1
    44:    1084.08 cm**-1
    45:    1137.00 cm**-1
    46:    1161.68 cm**-1
    47:    1192.56 cm**-1
    48:    1209.26 cm**-1
    49:    1247.47 cm**-1
    50:    1272.87 cm**-1
    51:    1315.53 cm**-1
    52:    1321.66 cm**-1
    53:    1355.01 cm**-1
    54:    1389.13 cm**-1
    55:    1442.44 cm**-1
    56:    1466.38 cm**-1
    57:    1513.52 cm**-1
    58:    1590.07 cm**-1
    59:    1596.31 cm**-1
    60:    1640.41 cm**-1
    61:    1652.57 cm**-1
    62:    3190.92 cm**-1
    63:    3207.10 cm**-1
    64:    3209.08 cm**-1
    65:    3210.75 cm**-1

IR SPECTRUM
-----------

 Mode   freq       eps      Int      T**2         TX        TY        TZ
       cm**-1   L/(mol*cm) km/mol    a.u.
----------------------------------------------------------------------------
  6:     28.34   0.000002    0.01  0.000024  ( 0.000010 -0.000003 -0.004913)
  7:     68.05   0.000046    0.23  0.000211  ( 0.000021 -0.000068 -0.014540)
  8:     86.77   0.000002    0.01  0.000008  ( 0.000003 -0.000008 -0.002890)
  9:    116.05   0.000017    0.08  0.000045  ( 0.006591  0.001159 -0.000013)
 10:    145.77   0.000063    0.32  0.000135  ( 0.000000 -0.000039  0.011605)
 11:    162.22   0.000059    0.30  0.000114  (-0.000027 -0.000015 -0.010688)
 12:    190.66   0.000018    0.09  0.000029  ( 0.004141  0.003425 -0.000005)
 13:    214.74   0.000002    0.01  0.000002  (-0.001201 -0.000883 -0.000003)
 14:    223.21   0.000024    0.12  0.000034  ( 0.000028  0.000002  0.005808)
 15:    226.40   0.000037    0.19  0.000051  (-0.000506  0.007108  0.000001)
 16:    279.57   0.000110    0.56  0.000123  ( 0.007060  0.008560  0.000004)
 17:    295.02   0.000046    0.23  0.000048  (-0.000007 -0.000001 -0.006953)
 18:    339.08   0.000053    0.27  0.000049  (-0.005849  0.003800  0.000001)
 19:    347.12   0.000000    0.00  0.000000  (-0.000030  0.000011 -0.000049)
 20:    369.21   0.000045    0.23  0.000038  ( 0.001087 -0.006038 -0.000012)
 21:    374.31   0.000127    0.64  0.000106  ( 0.000010 -0.000001  0.010304)
 22:    412.19   0.002428   12.27  0.001838  ( 0.042730 -0.003501  0.000002)
 23:    452.10   0.000794    4.01  0.000548  (-0.000002  0.000006  0.023407)
 24:    491.76   0.001815    9.17  0.001152  (-0.023691  0.024302 -0.000003)
 25:    534.03   0.000718    3.63  0.000419  ( 0.020159 -0.003600  0.000027)
 26:    536.30   0.000194    0.98  0.000113  ( 0.000074 -0.000011 -0.010617)
 27:    578.02   0.000100    0.51  0.000054  (-0.000744  0.007319 -0.000021)
 28:    588.71   0.001017    5.14  0.000539  (-0.000002 -0.000007 -0.023217)
 29:    613.10   0.001031    5.21  0.000525  ( 0.001274 -0.022868  0.000003)
 30:    628.59   0.000000    0.00  0.000000  ( 0.000016 -0.000003  0.000429)
 31:    657.73   0.000327    1.65  0.000155  ( 0.012411 -0.001051  0.000012)
 32:    679.20   0.000018    0.09  0.000008  (-0.000001  0.000009 -0.002898)
 33:    705.48   0.000207    1.04  0.000091  (-0.000019  0.000042  0.009558)
 34:    733.19   0.002577   13.02  0.001097  (-0.027305 -0.018744  0.000005)
 35:    781.46   0.002827   14.29  0.001129  (-0.020271  0.026799  0.000002)
 36:    812.63   0.005362   27.10  0.002059  ( 0.000009  0.000007  0.045377)
 37:    817.82   0.012691   64.13  0.004843  ( 0.036180  0.059443 -0.000006)
 38:    848.84   0.002419   12.22  0.000889  (-0.000002 -0.000007 -0.029818)
 39:    861.18   0.006048   30.57  0.002192  (-0.000000  0.000003  0.046816)
 40:    910.01   0.023913  120.85  0.008200  ( 0.090490  0.003447  0.000007)
 41:    924.52   0.000197    0.99  0.000066  ( 0.000019 -0.000026  0.008147)
 42:    925.44   0.018201   91.98  0.006137  ( 0.070013 -0.035149 -0.000012)
 43:    987.63   0.012295   62.14  0.003885  (-0.062254  0.003081 -0.000002)
 44:   1084.08   0.007331   37.05  0.002110  (-0.044972  0.009377 -0.000004)
 45:   1137.00   0.005088   25.71  0.001397  ( 0.022900 -0.029532  0.000000)
 46:   1161.68   0.011683   59.04  0.003138  (-0.056010 -0.001123  0.000004)
 47:   1192.56   0.003920   19.81  0.001026  ( 0.032014 -0.000874  0.000000)
 48:   1209.26   0.003107   15.70  0.000802  ( 0.012837 -0.025237  0.000003)
 49:   1247.47   0.007849   39.67  0.001964  (-0.044312  0.000213 -0.000008)
 50:   1272.87   0.000049    0.25  0.000012  (-0.001343 -0.003188 -0.000003)
 51:   1315.53   0.048875  246.99  0.011594  ( 0.105026  0.023732  0.000003)
 52:   1321.66   0.034374  173.71  0.008116  ( 0.087985  0.019362 -0.000000)
 53:   1355.01   0.001966    9.94  0.000453  (-0.018565  0.010402 -0.000003)
 54:   1389.13   0.015221   76.92  0.003419  (-0.047947  0.033474  0.000002)
 55:   1442.44   0.004527   22.88  0.000979  (-0.024530  0.019433  0.000003)
 56:   1466.38   0.151129  763.75  0.032162  (-0.175415 -0.037305  0.000009)
 57:   1513.52   0.071227  359.95  0.014686  ( 0.121134 -0.003538  0.000015)
 58:   1590.07   0.015487   78.27  0.003040  ( 0.053404 -0.013694 -0.000002)
 59:   1596.31   0.005466   27.62  0.001069  (-0.031073 -0.010151 -0.000001)
 60:   1640.41   0.004270   21.58  0.000812  (-0.011965 -0.025866 -0.000002)
 61:   1652.57   0.000467    2.36  0.000088  (-0.009367 -0.000703 -0.000004)
 62:   3190.92   0.000127    0.64  0.000012  ( 0.003478 -0.000538  0.000001)
 63:   3207.10   0.000230    1.16  0.000022  (-0.003192  0.003490 -0.000000)
 64:   3209.08   0.000015    0.08  0.000001  ( 0.000002  0.001209 -0.000000)
 65:   3210.75   0.000572    2.89  0.000056  (-0.001146 -0.007370  0.000000)

--------------------------
THERMOCHEMISTRY AT 298.15K
--------------------------

Temperature         ...   298.15 K
Pressure            ...     1.00 atm
Total Mass          ...   321.97 AMU
Quasi RRHO          ...     True
Cut-Off Frequency   ...     1.00 cm^-1

Throughout the following assumptions are being made:
  (1) The electronic state is orbitally nondegenerate
  (2) There are no thermally accessible electronically excited states
  (3) Hindered rotations indicated by low frequency modes are not
      treated as such but are treated as vibrations and this may
      cause some error
  (4) All equations used are the standard statistical mechanics
      equations for an ideal gas
  (5) All vibrations are strictly harmonic

freq.      28.34  E(vib)   ...       0.55
freq.      68.05  E(vib)   ...       0.50
freq.      86.77  E(vib)   ...       0.48
freq.     116.05  E(vib)   ...       0.44
freq.     145.77  E(vib)   ...       0.41
freq.     162.22  E(vib)   ...       0.39
freq.     190.66  E(vib)   ...       0.36
freq.     214.74  E(vib)   ...       0.34
freq.     223.21  E(vib)   ...       0.33
freq.     226.40  E(vib)   ...       0.33
freq.     279.57  E(vib)   ...       0.28
freq.     295.02  E(vib)   ...       0.27
freq.     339.08  E(vib)   ...       0.23
freq.     347.12  E(vib)   ...       0.23
freq.     369.21  E(vib)   ...       0.21
freq.     374.31  E(vib)   ...       0.21
freq.     412.19  E(vib)   ...       0.19
freq.     452.10  E(vib)   ...       0.16
freq.     491.76  E(vib)   ...       0.14
freq.     534.03  E(vib)   ...       0.13
freq.     536.30  E(vib)   ...       0.12
freq.     578.02  E(vib)   ...       0.11
freq.     588.71  E(vib)   ...       0.10
freq.     613.10  E(vib)   ...       0.10
freq.     628.59  E(vib)   ...       0.09
freq.     657.73  E(vib)   ...       0.08
freq.     679.20  E(vib)   ...       0.08
freq.     705.48  E(vib)   ...       0.07
freq.     733.19  E(vib)   ...       0.06
freq.     781.46  E(vib)   ...       0.05
freq.     812.63  E(vib)   ...       0.05
freq.     817.82  E(vib)   ...       0.05
freq.     848.84  E(vib)   ...       0.04
freq.     861.18  E(vib)   ...       0.04
freq.     910.01  E(vib)   ...       0.03
freq.     924.52  E(vib)   ...       0.03
freq.     925.44  E(vib)   ...       0.03
freq.     987.63  E(vib)   ...       0.02
freq.    1084.08  E(vib)   ...       0.02
freq.    1137.00  E(vib)   ...       0.01
freq.    1161.68  E(vib)   ...       0.01
freq.    1192.56  E(vib)   ...       0.01
freq.    1209.26  E(vib)   ...       0.01
freq.    1247.47  E(vib)   ...       0.01
freq.    1272.87  E(vib)   ...       0.01
freq.    1315.53  E(vib)   ...       0.01
freq.    1321.66  E(vib)   ...       0.01
freq.    1355.01  E(vib)   ...       0.01
freq.    1389.13  E(vib)   ...       0.00
freq.    1442.44  E(vib)   ...       0.00
freq.    1466.38  E(vib)   ...       0.00
freq.    1513.52  E(vib)   ...       0.00
freq.    1590.07  E(vib)   ...       0.00
freq.    1596.31  E(vib)   ...       0.00
freq.    1640.41  E(vib)   ...       0.00
freq.    1652.57  E(vib)   ...       0.00
freq.    3190.92  E(vib)   ...       0.00
freq.    3207.10  E(vib)   ...       0.00
freq.    3209.08  E(vib)   ...       0.00
freq.    3210.75  E(vib)   ...       0.00

------------
INNER ENERGY
------------

The inner energy is: U= E(el) + E(ZPE) + E(vib) + E(rot) + E(trans)
    E(el)   - is the total energy from the electronic structure calculation
              = E(kin-el) + E(nuc-el) + E(el-el) + E(nuc-nuc)
    E(ZPE)  - the the zero temperature vibrational energy from the frequency calculation
    E(vib)  - the the finite temperature correction to E(ZPE) due to population
              of excited vibrational states
    E(rot)  - is the rotational thermal energy
    E(trans)- is the translational thermal energy

Summary of contributions to the inner energy U:
Electronic energy                ...  -2450.77974937 Eh
Zero point energy                ...      0.12837977 Eh      80.56 kcal/mol
Thermal vibrational correction   ...      0.01189300 Eh       7.46 kcal/mol
Thermal rotational correction    ...      0.00141627 Eh       0.89 kcal/mol
Thermal translational correction ...      0.00141627 Eh       0.89 kcal/mol
-----------------------------------------------------------------------
Total thermal energy                  -2450.63664406 Eh

Summary of corrections to the electronic energy:
(perhaps to be used in another calculation)
Total thermal correction                  0.01472554 Eh       9.24 kcal/mol
Non-thermal (ZPE) correction              0.12837977 Eh      80.56 kcal/mol
-----------------------------------------------------------------------
Total correction                          0.14310531 Eh      89.80 kcal/mol

--------
ENTHALPY
--------

The enthalpy is H = U + kB*T
                kB is Boltzmann's constant
Total thermal energy              ...  -2450.63664406 Eh
Thermal Enthalpy correction       ...      0.00094421 Eh       0.59 kcal/mol
-----------------------------------------------------------------------
Total Enthalpy                    ...  -2450.63569985 Eh

Note: Only C1 symmetry has been detected, increase convergence thresholds
      if your molecule has a higher symmetry. Symmetry factor of 1.0 is
      used for the rotational entropy correction.

Note: Rotational entropy computed according to Herzberg
Infrared and Raman Spectra, Chapter V,1, Van Nostrand Reinhold, 1945
Point Group:  C1, Symmetry Number:   1
Rotational constants in cm-1:     0.022440     0.004457     0.003719

Vibrational entropy computed according to the QRRHO of S. Grimme
Chem.Eur.J. 2012 18 9955 using a reference frequency of 100.0 cm-1

-------
ENTROPY
-------

The entropy contributions are T*S = T*(S(el)+S(vib)+S(rot)+S(trans))
     S(el)   - electronic entropy
     S(vib)  - vibrational entropy
     S(rot)  - rotational entropy
     S(trans)- translational entropy
The entropies will be listed as multiplied by the temperature to get
units of energy

Electronic entropy                ...      0.00000000 Eh      0.00 kcal/mol
Vibrational entropy               ...      0.02048208 Eh     12.85 kcal/mol
Rotational entropy                ...      0.01649984 Eh     10.35 kcal/mol
Translational entropy             ...      0.02052729 Eh     12.88 kcal/mol
-----------------------------------------------------------------------
Final entropy term                ...      0.05750921 Eh     36.09 kcal/mol

In case the symmetry of your molecule has not been determined correctly
or in case you have a reason to use a different symmetry number we print
out the resulting rotational entropy values for sn=1,12:

 non-linear molecules -----------------------------------

                             ****ORCA TERMINATED NORMALLY****
TOTAL RUN TIME: 0 days 0 hours 42 minutes 13 seconds 841 msec
