                         Program Version 6.0.1  -  RELEASE   -
|  1> ! pbe def2-sv(p) def2/J RI DEFGRID1 loosescf d4 GCP(DFT/SV(P)) printgap
|  2> %output
|  3>     printlevel normal
|  4> end
|  5> * xyz 0 1
|  6> C -2.2433317013 -0.9981145741 -0.4010731255
|  7> C -1.1816326948 -0.2014691773 0.3748643806
|  8> H -1.6634608649 0.2166760296 1.2671022909
|  9> C -0.6060049879 0.9641488083 -0.4355030871
| 10> H -0.4591306596 0.6786627718 -1.4935017263
| 11> C 0.7594704035 1.3351231207 0.1551289845
| 12> H 0.6246587421 1.5408282834 1.2310402027
| 13> C 1.7461257155 0.1653289402 -0.0080434432
| 14> H 2.1945840586 0.2130568228 -1.0075696719
| 15> C 1.0135533844 -1.1953474308 0.1382032869
| 16> H 1.6379780785 -1.8745706006 0.7325808477
| 17> O -0.1683464295 -1.0699040358 0.8847349034
| 18> O 0.8410207182 -1.8427145973 -1.0795149653
| 19> O 2.8244705084 0.2930489089 0.8837941788
| 20> O 1.2123099282 2.4952665018 -0.5021751002
| 21> O -1.5031050035 2.0344668992 -0.3639408723
| 22> O -2.7831053738 -2.0178574549 0.3892433929
| 23> H -1.8080580135 -1.4178919566 -1.3214456543
| 24> H -3.0611620185 -0.3269240637 -0.6700088429
| 25> H 0.3493017613 -1.2875525933 -1.6968408951
| 26> H 2.511979762 0.1438160906 1.7844705777
| 27> H 2.1261564067 2.6546243195 -0.2387845063
| 28> H -1.0280735291 2.8264674911 -0.6503843624
| 29> H -2.0440683305 -2.4879057391 0.7982156241
| 30> *
| 31>
| 32>                          ****END OF INPUT****

CARTESIAN COORDINATES (ANGSTROEM)
---------------------------------
  C     -2.243332   -0.998115   -0.401073
  C     -1.181633   -0.201469    0.374864
  H     -1.663461    0.216676    1.267102
  C     -0.606005    0.964149   -0.435503
  H     -0.459131    0.678663   -1.493502
  C      0.759470    1.335123    0.155129
  H      0.624659    1.540828    1.231040
  C      1.746126    0.165329   -0.008043
  H      2.194584    0.213057   -1.007570
  C      1.013553   -1.195347    0.138203
  H      1.637978   -1.874571    0.732581
  O     -0.168346   -1.069904    0.884735
  O      0.841021   -1.842715   -1.079515
  O      2.824471    0.293049    0.883794
  O      1.212310    2.495267   -0.502175
  O     -1.503105    2.034467   -0.363941
  O     -2.783105   -2.017857    0.389243
  H     -1.808058   -1.417892   -1.321446
  H     -3.061162   -0.326924   -0.670009
  H      0.349302   -1.287553   -1.696841
  H      2.511980    0.143816    1.784471
  H      2.126156    2.654624   -0.238785
  H     -1.028074    2.826467   -0.650384
  H     -2.044068   -2.487906    0.798216

 Total Charge           Charge          ....    0
 Multiplicity           Mult            ....    1
 Number of Electrons    NEL             ....   96
 Basis Dimension        Dim             ....  192

ORBITAL ENERGIES
----------------

  NO   OCC          E(Eh)            E(eV)
   0   2.0000     -18.784641      -511.1561
   1   2.0000     -18.772630      -510.8292
   2   2.0000     -18.771054      -510.7863
   3   2.0000     -18.770782      -510.7790
   4   2.0000     -18.761355      -510.5224
   5   2.0000     -18.742330      -510.0047
   6   2.0000      -9.996887      -272.0291
   7   2.0000      -9.959910      -271.0229
   8   2.0000      -9.956332      -270.9256
   9   2.0000      -9.954715      -270.8816
  10   2.0000      -9.951802      -270.8023
  11   2.0000      -9.933010      -270.2909
  12   2.0000      -0.994396       -27.0589
  13   2.0000      -0.962070       -26.1792
  14   2.0000      -0.947579       -25.7849
  15   2.0000      -0.933284       -25.3960
  16   2.0000      -0.929381       -25.2897
  17   2.0000      -0.916043       -24.9268
  18   2.0000      -0.718911       -19.5626
  19   2.0000      -0.699382       -19.0311
  20   2.0000      -0.626179       -17.0392
  21   2.0000      -0.601208       -16.3597
  22   2.0000      -0.576127       -15.6772
  23   2.0000      -0.542458       -14.7610
  24   2.0000      -0.513532       -13.9739
  25   2.0000      -0.505179       -13.7466
  26   2.0000      -0.477951       -13.0057
  27   2.0000      -0.469970       -12.7885
  28   2.0000      -0.453295       -12.3348
  29   2.0000      -0.437940       -11.9170
  30   2.0000      -0.432790       -11.7768
  31   2.0000      -0.405658       -11.0385
  32   2.0000      -0.395255       -10.7554
  33   2.0000      -0.385072       -10.4784
  34   2.0000      -0.377674       -10.2770
  35   2.0000      -0.350380        -9.5343
  36   2.0000      -0.332688        -9.0529
  37   2.0000      -0.324633        -8.8337
  38   2.0000      -0.321551        -8.7498
  39   2.0000      -0.309341        -8.4176
  40   2.0000      -0.296793        -8.0762
  41   2.0000      -0.278388        -7.5753
  42   2.0000      -0.263318        -7.1653
  43   2.0000      -0.257703        -7.0125
  44   2.0000      -0.246094        -6.6966
  45   2.0000      -0.231188        -6.2909
  46   2.0000      -0.219189        -5.9644
  47   2.0000      -0.210948        -5.7402
  48   0.0000      -0.001169        -0.0318
  49   0.0000       0.017064         0.4643
  50   0.0000       0.022174         0.6034
  51   0.0000       0.046007         1.2519
  52   0.0000       0.053156         1.4464

MULLIKEN ATOMIC CHARGES
-----------------------
   0 C :    0.095815
   1 C :    0.016196
   2 H :    0.085816
   3 C :    0.001643
   4 H :    0.038388
   5 C :    0.081309
   6 H :    0.049262
   7 C :    0.020181
   8 H :    0.077060
   9 C :    0.178646
  10 H :    0.072988
  11 O :   -0.318482
  12 O :   -0.394045
  13 O :   -0.418888
  14 O :   -0.424224
  15 O :   -0.408099
  16 O :   -0.428770
  17 H :    0.044031
  18 H :    0.098585
  19 H :    0.304594
  20 H :    0.303602
  21 H :    0.312936
  22 H :    0.312366
  23 H :    0.299089
Sum of atomic charges:    0.0000000

LOEWDIN ATOMIC CHARGES
----------------------
   0 C :   -0.129919
   1 C :   -0.072409
   2 H :    0.126359
   3 C :   -0.074051
   4 H :    0.091456
   5 C :   -0.080545
   6 H :    0.104582
   7 C :   -0.096824
   8 H :    0.120693
   9 C :   -0.012020
  10 H :    0.113559
  11 O :   -0.147801
  12 O :   -0.297768
  13 O :   -0.311225
  14 O :   -0.324117
  15 O :   -0.309831
  16 O :   -0.331548
  17 H :    0.087389
  18 H :    0.123131
  19 H :    0.271951
  20 H :    0.286497
  21 H :    0.293631
  22 H :    0.289424
  23 H :    0.279385

  Mayer bond orders larger than 0.100000
B(  0-C ,  1-C ) :   1.0814 B(  0-C , 16-O ) :   1.0867 B(  0-C , 17-H ) :   0.8920
B(  0-C , 18-H ) :   0.9118 B(  1-C ,  2-H ) :   0.8704 B(  1-C ,  3-C ) :   0.9614
B(  1-C , 11-O ) :   0.9696 B(  3-C ,  4-H ) :   0.8747 B(  3-C ,  5-C ) :   1.0239
B(  3-C , 15-O ) :   1.0899 B(  5-C ,  6-H ) :   0.8589 B(  5-C ,  7-C ) :   0.9993
B(  5-C , 14-O ) :   1.0739 B(  7-C ,  8-H ) :   0.8758 B(  7-C ,  9-C ) :   0.9879
B(  7-C , 13-O ) :   1.0286 B(  9-C , 10-H ) :   0.8981 B(  9-C , 11-O ) :   1.0609
B(  9-C , 12-O ) :   1.1031 B( 12-O , 19-H ) :   0.8252 B( 13-O , 20-H ) :   0.8481
B( 14-O , 21-H ) :   0.8373 B( 15-O , 22-H ) :   0.8300 B( 16-O , 23-H ) :   0.8378

Dispersion correction           -0.024550266
FINAL SINGLE POINT ENERGY      -685.690108796330

DIPOLE MOMENT
-------------

Method             : SCF
Type of density    : Electron Density
Multiplicity       :   1
Irrep              :   0
Energy             :  -685.8214186702124380 Eh
Relativity type    :
Basis              : AO
                                X                 Y                 Z
Electronic contribution:      1.462285052      -0.105467798       1.285890759
Nuclear contribution   :     -0.574733545       0.823325225      -1.183760749
                        -----------------------------------------
Total Dipole Moment    :      0.887551507       0.717857426       0.102130011
                        -----------------------------------------
Magnitude (a.u.)       :      1.146079186
Magnitude (Debye)      :      2.913101783

Rotational constants in cm-1:             0.042084             0.026130             0.018650
Rotational constants in MHz :          1261.638256           783.361654           559.105973

                             ****ORCA TERMINATED NORMALLY****
TOTAL RUN TIME: 0 days 0 hours 0 minutes 8 seconds 70 msec
