                         Program Version 6.0.1  -  RELEASE   -
|  1> ! r2scan-3c def2/J RI DEFGRID2 scfconv6 printgap
|  2> %output
|  3>     printlevel normal
|  4> end
|  5> * xyz 0 1
|  6> C -1.8809962041 0.9850146595 -0.7593361286
|  7> C -1.4544696008 -0.3501877335 -0.1542547482
|  8> C -2.5897391991 -0.887209638 0.7208798437
|  9> C -0.1831340501 -0.2654967644 0.7030790662
| 10> C 1.1697932449 0.0468303184 0.0262416569
| 11> C 1.3125112888 -0.6714355429 -1.3167187535
| 12> C 1.3760165649 1.5515312015 -0.1687989383
| 13> C 2.2753283387 -0.4558978001 0.9656547252
| 14> H -1.9052230928 1.7601916568 0.0035092417
| 15> H -1.2084828804 1.297208259 -1.5530122884
| 16> H -2.8778553446 0.897266576 -1.187929943
| 17> H -1.2915668523 -1.0659982024 -0.9655071213
| 18> H -2.3321598797 -1.8575351793 1.1399761271
| 19> H -2.7916161844 -0.2024180956 1.542199879
| 20> H -3.5015796528 -1.0000593903 0.1383906913
| 21> H -0.3491405409 0.4734684091 1.4912692927
| 22> H -0.078506942 -1.2370765471 1.1938196976
| 23> H 2.3233270653 -0.54554264 -1.6996830979
| 24> H 0.6219525562 -0.2708919592 -2.0539207417
| 25> H 1.1222141929 -1.7365358522 -1.2035368912
| 26> H 1.2880628175 2.0741116459 0.7813912941
| 27> H 0.6516397212 1.9718650507 -0.8578612408
| 28> H 2.3701777512 1.7417142081 -0.5691955789
| 29> H 3.256967175 -0.1996685428 0.5727537348
| 30> H 2.2260784108 -1.5370467168 1.0772605262
| 31> H 2.1740914676 -0.0047324497 1.9505081135
| 32> *
| 33>
| 34>                          ****END OF INPUT****

CARTESIAN COORDINATES (ANGSTROEM)
---------------------------------
  C     -1.880996    0.985015   -0.759336
  C     -1.454470   -0.350188   -0.154255
  C     -2.589739   -0.887210    0.720880
  C     -0.183134   -0.265497    0.703079
  C      1.169793    0.046830    0.026242
  C      1.312511   -0.671436   -1.316719
  C      1.376017    1.551531   -0.168799
  C      2.275328   -0.455898    0.965655
  H     -1.905223    1.760192    0.003509
  H     -1.208483    1.297208   -1.553012
  H     -2.877855    0.897267   -1.187930
  H     -1.291567   -1.065998   -0.965507
  H     -2.332160   -1.857535    1.139976
  H     -2.791616   -0.202418    1.542200
  H     -3.501580   -1.000059    0.138391
  H     -0.349141    0.473468    1.491269
  H     -0.078507   -1.237077    1.193820
  H      2.323327   -0.545543   -1.699683
  H      0.621953   -0.270892   -2.053921
  H      1.122214   -1.736536   -1.203537
  H      1.288063    2.074112    0.781391
  H      0.651640    1.971865   -0.857861
  H      2.370178    1.741714   -0.569196
  H      3.256967   -0.199669    0.572754
  H      2.226078   -1.537047    1.077261
  H      2.174091   -0.004732    1.950508

 Total Charge           Charge          ....    0
 Multiplicity           Mult            ....    1
 Number of Electrons    NEL             ....   66
 Basis Dimension        Dim             ....  242

ORBITAL ENERGIES
----------------

  NO   OCC          E(Eh)            E(eV)
   0   2.0000     -10.039079      -273.1772
   1   2.0000     -10.030271      -272.9375
   2   2.0000     -10.017543      -272.5912
   3   2.0000     -10.012803      -272.4622
   4   2.0000     -10.012495      -272.4538
   5   2.0000     -10.012430      -272.4521
   6   2.0000     -10.011229      -272.4194
   7   2.0000     -10.010011      -272.3863
   8   2.0000      -0.795227       -21.6392
   9   2.0000      -0.752512       -20.4769
  10   2.0000      -0.654004       -17.7963
  11   2.0000      -0.650047       -17.6887
  12   2.0000      -0.642789       -17.4912
  13   2.0000      -0.639326       -17.3969
  14   2.0000      -0.533816       -14.5259
  15   2.0000      -0.493566       -13.4306
  16   2.0000      -0.439088       -11.9482
  17   2.0000      -0.421528       -11.4704
  18   2.0000      -0.417143       -11.3510
  19   2.0000      -0.401797       -10.9334
  20   2.0000      -0.382669       -10.4129
  21   2.0000      -0.368963       -10.0400
  22   2.0000      -0.359571        -9.7844
  23   2.0000      -0.353892        -9.6299
  24   2.0000      -0.346640        -9.4326
  25   2.0000      -0.330248        -8.9865
  26   2.0000      -0.327405        -8.9091
  27   2.0000      -0.317353        -8.6356
  28   2.0000      -0.299844        -8.1592
  29   2.0000      -0.297053        -8.0832
  30   2.0000      -0.281788        -7.6678
  31   2.0000      -0.276773        -7.5314
  32   2.0000      -0.266655        -7.2560
  33   0.0000       0.072582         1.9751
  34   0.0000       0.100460         2.7336
  35   0.0000       0.112932         3.0730
  36   0.0000       0.121432         3.3043
  37   0.0000       0.124111         3.3772

MULLIKEN ATOMIC CHARGES
-----------------------
   0 C :   -0.522198
   1 C :    0.000021
   2 C :   -0.487423
   3 C :   -0.361122
   4 C :    0.166137
   5 C :   -0.516403
   6 C :   -0.505884
   7 C :   -0.501793
   8 H :    0.160116
   9 H :    0.144072
  10 H :    0.142653
  11 H :    0.154927
  12 H :    0.143891
  13 H :    0.147342
  14 H :    0.147046
  15 H :    0.156821
  16 H :    0.147515
  17 H :    0.152719
  18 H :    0.155691
  19 H :    0.159614
  20 H :    0.155209
  21 H :    0.151007
  22 H :    0.150943
  23 H :    0.153087
  24 H :    0.152371
  25 H :    0.153642
Sum of atomic charges:    0.0000000

LOEWDIN ATOMIC CHARGES
----------------------
   0 C :   -0.417970
   1 C :   -0.242591
   2 C :   -0.417769
   3 C :   -0.289436
   4 C :   -0.209438
   5 C :   -0.407768
   6 C :   -0.407130
   7 C :   -0.410899
   8 H :    0.154772
   9 H :    0.148927
  10 H :    0.152891
  11 H :    0.157338
  12 H :    0.151845
  13 H :    0.154268
  14 H :    0.151271
  15 H :    0.163652
  16 H :    0.164650
  17 H :    0.156985
  18 H :    0.155544
  19 H :    0.157460
  20 H :    0.156361
  21 H :    0.155727
  22 H :    0.155114
  23 H :    0.154221
  24 H :    0.154668
  25 H :    0.157308

  Mayer bond orders larger than 0.100000
B(  0-C ,  1-C ) :   0.8754 B(  0-C ,  8-H ) :   0.9875 B(  0-C ,  9-H ) :   0.9720
B(  0-C , 10-H ) :   0.9729 B(  1-C ,  2-C ) :   0.9105 B(  1-C ,  3-C ) :   0.8981
B(  1-C , 11-H ) :   0.9580 B(  2-C , 12-H ) :   0.9779 B(  2-C , 13-H ) :   0.9856
B(  2-C , 14-H ) :   0.9772 B(  3-C ,  4-C ) :   0.8551 B(  3-C , 15-H ) :   0.9921
B(  3-C , 16-H ) :   0.9865 B(  4-C ,  5-C ) :   0.8944 B(  4-C ,  6-C ) :   0.9487
B(  4-C ,  7-C ) :   0.9344 B(  5-C , 17-H ) :   0.9727 B(  5-C , 18-H ) :   0.9711
B(  5-C , 19-H ) :   0.9804 B(  6-C , 20-H ) :   0.9801 B(  6-C , 21-H ) :   0.9609
B(  6-C , 22-H ) :   0.9803 B(  7-C , 23-H ) :   0.9796 B(  7-C , 24-H ) :   0.9768
B(  7-C , 25-H ) :   0.9763

Dispersion correction           -0.008033131
FINAL SINGLE POINT ENERGY      -315.586734632740

DIPOLE MOMENT
-------------

Method             : SCF
Type of density    : Electron Density
Multiplicity       :   1
Irrep              :   0
Energy             :  -315.5916226108469118 Eh
Relativity type    :
Basis              : AO
                                X                 Y                 Z
Electronic contribution:      0.272689115      -0.555643827       0.165610686
Nuclear contribution   :     -0.282968511       0.523794619      -0.187227327
                        -----------------------------------------
Total Dipole Moment    :     -0.010279396      -0.031849209      -0.021616641
                        -----------------------------------------
Magnitude (a.u.)       :      0.039841150
Magnitude (Debye)      :      0.101268155

Rotational constants in cm-1:             0.099868             0.040939             0.037125
Rotational constants in MHz :          2993.960425          1227.332266          1112.979480

                             ****ORCA TERMINATED NORMALLY****
TOTAL RUN TIME: 0 days 0 hours 0 minutes 27 seconds 449 msec
