                         Program Version 6.0.1  -  RELEASE   -
|  1> ! pbe def2-sv(p) def2/J RI DEFGRID1 loosescf d4 GCP(DFT/SV(P)) printgap
|  2> %output
|  3>     printlevel normal
|  4> end
|  5> * xyz 0 1
|  6> C -2.5379597079 -0.7593714483 1.1080457553
|  7> C -2.0195199097 -0.4009010497 -0.289091156
|  8> H -2.8889564451 -0.3431136375 -0.9549633563
|  9> C -1.0359422339 -1.4316169729 -0.8379644909
| 10> C 0.2750908235 -1.4751906748 -0.0489143277
| 11> C 0.7722409071 -0.0712965911 0.3589379323
| 12> H 0.4992268239 0.1073500789 1.4040378494
| 13> C 0.0876502205 1.0183109256 -0.4762709275
| 14> C -1.401919891 0.9862360539 -0.2469474996
| 15> O -2.0558659867 1.9767458496 -0.0334387298
| 16> C 2.2775110439 0.0094287007 0.2611931368
| 17> C 3.03531767 -0.0426477764 1.3449710928
| 18> C 2.8684556367 0.136520698 -1.1107907281
| 19> H -3.0573862329 -1.7147060219 1.0810378959
| 20> H -1.72140914 -0.8279719952 1.8217173945
| 21> H -3.2296803576 0.0066569847 1.4496799616
| 22> H -1.4988485092 -2.4205296654 -0.8218752901
| 23> H -0.8268178951 -1.191477517 -1.8830502462
| 24> H 0.1461856771 -2.0792302762 0.8498075696
| 25> H 1.0308545998 -1.9760702272 -0.6568629354
| 26> H 0.471000533 2.0047639048 -0.209483433
| 27> H 0.2706327776 0.8531161036 -1.5396967351
| 28> H 4.1103954046 -0.0104893503 1.290265119
| 29> H 2.6143754791 -0.1183414836 2.3333262043
| 30> H 2.7342506049 1.1511865391 -1.4849780373
| 31> H 3.9336613848 -0.0776116486 -1.0894728807
| 32> H 2.3891968979 -0.5448733078 -1.8114562306
| 33> *
| 34>
| 35>                          ****END OF INPUT****

CARTESIAN COORDINATES (ANGSTROEM)
---------------------------------
  C     -2.537960   -0.759371    1.108046
  C     -2.019520   -0.400901   -0.289091
  H     -2.888956   -0.343114   -0.954963
  C     -1.035942   -1.431617   -0.837964
  C      0.275091   -1.475191   -0.048914
  C      0.772241   -0.071297    0.358938
  H      0.499227    0.107350    1.404038
  C      0.087650    1.018311   -0.476271
  C     -1.401920    0.986236   -0.246947
  O     -2.055866    1.976746   -0.033439
  C      2.277511    0.009429    0.261193
  C      3.035318   -0.042648    1.344971
  C      2.868456    0.136521   -1.110791
  H     -3.057386   -1.714706    1.081038
  H     -1.721409   -0.827972    1.821717
  H     -3.229680    0.006657    1.449680
  H     -1.498849   -2.420530   -0.821875
  H     -0.826818   -1.191478   -1.883050
  H      0.146186   -2.079230    0.849808
  H      1.030855   -1.976070   -0.656863
  H      0.471001    2.004764   -0.209483
  H      0.270633    0.853116   -1.539697
  H      4.110395   -0.010489    1.290265
  H      2.614375   -0.118341    2.333326
  H      2.734251    1.151187   -1.484978
  H      3.933661   -0.077612   -1.089473
  H      2.389197   -0.544873   -1.811456

 Total Charge           Charge          ....    0
 Multiplicity           Mult            ....    1
 Number of Electrons    NEL             ....   84
 Basis Dimension        Dim             ....  186

ORBITAL ENERGIES
----------------

  NO   OCC          E(Eh)            E(eV)
   0   2.0000     -18.738643      -509.9044
   1   2.0000      -9.969214      -271.2761
   2   2.0000      -9.908573      -269.6260
   3   2.0000      -9.904656      -269.5194
   4   2.0000      -9.901774      -269.4410
   5   2.0000      -9.894395      -269.2402
   6   2.0000      -9.894100      -269.2321
   7   2.0000      -9.893760      -269.2229
   8   2.0000      -9.888222      -269.0722
   9   2.0000      -9.885785      -269.0059
  10   2.0000      -9.876390      -268.7502
  11   2.0000      -0.938717       -25.5438
  12   2.0000      -0.774186       -21.0667
  13   2.0000      -0.730799       -19.8860
  14   2.0000      -0.682665       -18.5763
  15   2.0000      -0.660049       -17.9608
  16   2.0000      -0.624172       -16.9846
  17   2.0000      -0.610002       -16.5990
  18   2.0000      -0.553185       -15.0529
  19   2.0000      -0.532601       -14.4928
  20   2.0000      -0.477703       -12.9990
  21   2.0000      -0.458440       -12.4748
  22   2.0000      -0.445207       -12.1147
  23   2.0000      -0.425426       -11.5764
  24   2.0000      -0.413295       -11.2463
  25   2.0000      -0.405082       -11.0228
  26   2.0000      -0.393313       -10.7026
  27   2.0000      -0.379503       -10.3268
  28   2.0000      -0.368987       -10.0407
  29   2.0000      -0.362170        -9.8551
  30   2.0000      -0.356240        -9.6938
  31   2.0000      -0.346304        -9.4234
  32   2.0000      -0.341062        -9.2808
  33   2.0000      -0.330954        -9.0057
  34   2.0000      -0.321282        -8.7425
  35   2.0000      -0.313824        -8.5396
  36   2.0000      -0.308611        -8.3977
  37   2.0000      -0.293485        -7.9861
  38   2.0000      -0.278023        -7.5654
  39   2.0000      -0.277022        -7.5382
  40   2.0000      -0.222487        -6.0542
  41   2.0000      -0.191164        -5.2018
  42   0.0000      -0.050796        -1.3822
  43   0.0000      -0.014462        -0.3935
  44   0.0000       0.021328         0.5804
  45   0.0000       0.035058         0.9540
  46   0.0000       0.054318         1.4781

MULLIKEN ATOMIC CHARGES
-----------------------
   0 C :   -0.254987
   1 C :   -0.180462
   2 H :    0.091392
   3 C :   -0.085711
   4 C :   -0.128473
   5 C :   -0.190175
   6 H :    0.071271
   7 C :   -0.066443
   8 C :    0.012141
   9 O :   -0.153718
  10 C :   -0.029054
  11 C :   -0.226159
  12 C :   -0.229359
  13 H :    0.106069
  14 H :    0.108275
  15 H :    0.120075
  16 H :    0.086362
  17 H :    0.075453
  18 H :    0.088779
  19 H :    0.091579
  20 H :    0.094793
  21 H :    0.099922
  22 H :    0.080505
  23 H :    0.084407
  24 H :    0.122856
  25 H :    0.103797
  26 H :    0.106864
Sum of atomic charges:    0.0000000

LOEWDIN ATOMIC CHARGES
----------------------
   0 C :   -0.319664
   1 C :   -0.175715
   2 H :    0.137428
   3 C :   -0.220581
   4 C :   -0.214936
   5 C :   -0.128015
   6 H :    0.122699
   7 C :   -0.236105
   8 C :    0.051890
   9 O :   -0.122296
  10 C :   -0.048721
  11 C :   -0.264450
  12 C :   -0.324508
  13 H :    0.121737
  14 H :    0.118547
  15 H :    0.128741
  16 H :    0.121934
  17 H :    0.116287
  18 H :    0.122197
  19 H :    0.122866
  20 H :    0.133065
  21 H :    0.139036
  22 H :    0.117167
  23 H :    0.117432
  24 H :    0.133280
  25 H :    0.128157
  26 H :    0.122527

  Mayer bond orders larger than 0.100000
B(  0-C ,  1-C ) :   1.0950 B(  0-C , 13-H ) :   0.9477 B(  0-C , 14-H ) :   0.9447
B(  0-C , 15-H ) :   0.9428 B(  1-C ,  2-H ) :   0.8711 B(  1-C ,  3-C ) :   1.1012
B(  1-C ,  8-C ) :   0.9189 B(  3-C ,  4-C ) :   1.1466 B(  3-C , 16-H ) :   0.9095
B(  3-C , 17-H ) :   0.8938 B(  4-C ,  5-C ) :   1.0500 B(  4-C , 18-H ) :   0.9124
B(  4-C , 19-H ) :   0.9058 B(  5-C ,  6-H ) :   0.8781 B(  5-C ,  7-C ) :   1.1084
B(  5-C , 10-C ) :   1.0080 B(  7-C ,  8-C ) :   1.0685 B(  7-C , 20-H ) :   0.8980
B(  7-C , 21-H ) :   0.8412 B(  8-C ,  9-O ) :   2.1985 B( 10-C , 11-C ) :   2.0455
B( 10-C , 12-C ) :   1.1124 B( 11-C , 22-H ) :   0.9043 B( 11-C , 23-H ) :   0.9089
B( 12-C , 24-H ) :   0.9226 B( 12-C , 25-H ) :   0.9352 B( 12-C , 26-H ) :   0.9269

Dispersion correction           -0.028856915
FINAL SINGLE POINT ENERGY      -464.824414809835

DIPOLE MOMENT
-------------

Method             : SCF
Type of density    : Electron Density
Multiplicity       :   1
Irrep              :   0
Energy             :  -464.9098964607410380 Eh
Relativity type    :
Basis              : AO
                                X                 Y                 Z
Electronic contribution:     -4.176836781       5.816727893      -0.086796424
Nuclear contribution   :      4.638470213      -6.707981648      -0.208738010
                        -----------------------------------------
Total Dipole Moment    :      0.461633432      -0.891253755      -0.295534435
                        -----------------------------------------
Magnitude (a.u.)       :      1.046317010
Magnitude (Debye)      :      2.659526482

Rotational constants in cm-1:             0.062571             0.024181             0.021825
Rotational constants in MHz :          1875.838820           724.919821           654.296481

                             ****ORCA TERMINATED NORMALLY****
TOTAL RUN TIME: 0 days 0 hours 0 minutes 26 seconds 922 msec
