                         Program Version 6.0.1  -  RELEASE   -
|  1> ! pbe def2-sv(p) def2/J RI DEFGRID1 loosescf d4 GCP(DFT/SV(P)) printgap
|  2> %output
|  3>     printlevel normal
|  4> end
|  5> * xyz 0 1
|  6> C -2.7139851187 0.804168444 -0.1213903352
|  7> O -1.2866882012 0.8544953708 -0.1507044963
|  8> C -0.6574439981 -0.2771971438 0.0681260485
|  9> O -1.1413949521 -1.3467684648 0.2887695229
| 10> C 0.885304442 -0.059289371 -0.0003417766
| 11> F 1.21673443 1.2183284835 -0.1924568909
| 12> F 1.4708192228 -0.4603411665 1.1311753742
| 13> F 1.4164090492 -0.7663722963 -1.0026824432
| 14> H -3.0566597204 0.4807914613 0.8625200133
| 15> H -3.0794482709 0.1040742826 -0.8740170408
| 16> H -3.0513192602 1.8142290843 -0.3356428333
| 17> *
| 18>
| 19>                          ****END OF INPUT****

CARTESIAN COORDINATES (ANGSTROEM)
---------------------------------
  C     -2.713985    0.804168   -0.121390
  O     -1.286688    0.854495   -0.150704
  C     -0.657444   -0.277197    0.068126
  O     -1.141395   -1.346768    0.288770
  C      0.885304   -0.059289   -0.000342
  F      1.216734    1.218328   -0.192457
  F      1.470819   -0.460341    1.131175
  F      1.416409   -0.766372   -1.002682
  H     -3.056660    0.480791    0.862520
  H     -3.079448    0.104074   -0.874017
  H     -3.051319    1.814229   -0.335643

 Total Charge           Charge          ....    0
 Multiplicity           Mult            ....    1
 Number of Electrons    NEL             ....   64
 Basis Dimension        Dim             ....  118

ORBITAL ENERGIES
----------------

  NO   OCC          E(Eh)            E(eV)
   0   2.0000     -24.297339      -661.1642
   1   2.0000     -24.297245      -661.1616
   2   2.0000     -24.296196      -661.1331
   3   2.0000     -18.835503      -512.5401
   4   2.0000     -18.773719      -510.8589
   5   2.0000     -10.134614      -275.7769
   6   2.0000     -10.039413      -273.1863
   7   2.0000      -9.964312      -271.1427
   8   2.0000      -1.203118       -32.7385
   9   2.0000      -1.109567       -30.1928
  10   2.0000      -1.109419       -30.1888
  11   2.0000      -1.044464       -28.4213
  12   2.0000      -0.955502       -26.0005
  13   2.0000      -0.712569       -19.3900
  14   2.0000      -0.640834       -17.4380
  15   2.0000      -0.568525       -15.4703
  16   2.0000      -0.537471       -14.6253
  17   2.0000      -0.536672       -14.6036
  18   2.0000      -0.520637       -14.1672
  19   2.0000      -0.462039       -12.5727
  20   2.0000      -0.444181       -12.0868
  21   2.0000      -0.418894       -11.3987
  22   2.0000      -0.407692       -11.0939
  23   2.0000      -0.404865       -11.0169
  24   2.0000      -0.386227       -10.5098
  25   2.0000      -0.369703       -10.0601
  26   2.0000      -0.365149        -9.9362
  27   2.0000      -0.359690        -9.7877
  28   2.0000      -0.345785        -9.4093
  29   2.0000      -0.329321        -8.9613
  30   2.0000      -0.292128        -7.9492
  31   2.0000      -0.255219        -6.9449
  32   0.0000      -0.062005        -1.6873
  33   0.0000       0.040329         1.0974
  34   0.0000       0.056426         1.5354
  35   0.0000       0.085116         2.3161
  36   0.0000       0.096248         2.6190

MULLIKEN ATOMIC CHARGES
-----------------------
   0 C :   -0.122367
   1 O :   -0.219497
   2 C :    0.049708
   3 O :   -0.164458
   4 C :    0.432706
   5 F :   -0.121667
   6 F :   -0.126605
   7 F :   -0.128655
   8 H :    0.132033
   9 H :    0.132175
  10 H :    0.136628
Sum of atomic charges:    0.0000000

LOEWDIN ATOMIC CHARGES
----------------------
   0 C :   -0.199678
   1 O :   -0.043495
   2 C :   -0.021092
   3 O :   -0.112324
   4 C :    0.087133
   5 F :   -0.031571
   6 F :   -0.029535
   7 F :   -0.031096
   8 H :    0.126504
   9 H :    0.126478
  10 H :    0.128677

  Mayer bond orders larger than 0.100000
B(  0-C ,  1-O ) :   0.9240 B(  0-C ,  8-H ) :   0.9507 B(  0-C ,  9-H ) :   0.9501
B(  0-C , 10-H ) :   0.9579 B(  1-O ,  2-C ) :   1.2426 B(  1-O ,  3-O ) :   0.1146
B(  2-C ,  3-O ) :   2.0837 B(  2-C ,  4-C ) :   0.8435 B(  4-C ,  5-F ) :   1.1906
B(  4-C ,  6-F ) :   1.1806 B(  4-C ,  7-F ) :   1.1768

Dispersion correction           -0.007858684
FINAL SINGLE POINT ENERGY      -565.037161816776

DIPOLE MOMENT
-------------

Method             : SCF
Type of density    : Electron Density
Multiplicity       :   1
Irrep              :   0
Energy             :  -565.0975461458706377 Eh
Relativity type    :
Basis              : AO
                                X                 Y                 Z
Electronic contribution:     11.484433689      -1.585468770       0.149219420
Nuclear contribution   :    -12.457796484       2.251262560      -0.264371744
                        -----------------------------------------
Total Dipole Moment    :     -0.973362795       0.665793790      -0.115152324
                        -----------------------------------------
Magnitude (a.u.)       :      1.184895168
Magnitude (Debye)      :      3.011764168

Rotational constants in cm-1:             0.121061             0.050071             0.043855
Rotational constants in MHz :          3629.311004          1501.104833          1314.727632

                             ****ORCA TERMINATED NORMALLY****
TOTAL RUN TIME: 0 days 0 hours 0 minutes 5 seconds 827 msec
