                         Program Version 6.0.1  -  RELEASE   -
|  1> ! pbe def2-sv(p) def2/J RI DEFGRID1 loosescf d4 GCP(DFT/SV(P)) printgap
|  2> %output
|  3>     printlevel normal
|  4> end
|  5> * xyz 0 1
|  6> C -2.2147293414 -1.2003497258 0.1026416262
|  7> C -1.1578417786 -0.3374733501 0.8118648443
|  8> H -1.5947495654 -0.0197771501 1.7658157318
|  9> C -0.8360157239 0.9334149403 0.0062452741
| 10> H -0.9989924786 0.746315667 -1.0693371903
| 11> C 0.636974257 1.2894853649 0.2210783058
| 12> H 0.8284937527 1.4283355404 1.2907356914
| 13> C 1.513176929 0.1534169755 -0.3108992314
| 14> H 1.4165667081 0.117457451 -1.4126004075
| 15> C 1.0362317448 -1.2123501567 0.256835101
| 16> H 1.8669223854 -1.6380211774 0.8314584385
| 17> O -0.0011595088 -1.0597543424 1.1946658689
| 18> O 0.7422659171 -2.1211273404 -0.7435784913
| 19> O 2.8574059898 0.3414278568 0.043277996
| 20> O 0.9545532721 2.526159308 -0.3808431708
| 21> O -1.680219089 1.9739355605 0.4316363951
| 22> O -1.8633089127 -1.4061770731 -1.2574891657
| 23> H -3.1735524639 -0.6733600213 0.1614475662
| 24> H -2.2859517133 -2.157438833 0.6308984514
| 25> H -0.1271862551 -1.8988677949 -1.1279044407
| 26> H 3.0699178975 1.2785875073 -0.0625068217
| 27> H 0.8423295554 2.4466442759 -1.3373851281
| 28> H -1.194272982 2.8041879962 0.325965915
| 29> H -2.4934634984 -2.0182354961 -1.6518063567
| 30> *
| 31>
| 32>                          ****END OF INPUT****

CARTESIAN COORDINATES (ANGSTROEM)
---------------------------------
  C     -2.214729   -1.200350    0.102642
  C     -1.157842   -0.337473    0.811865
  H     -1.594750   -0.019777    1.765816
  C     -0.836016    0.933415    0.006245
  H     -0.998992    0.746316   -1.069337
  C      0.636974    1.289485    0.221078
  H      0.828494    1.428336    1.290736
  C      1.513177    0.153417   -0.310899
  H      1.416567    0.117457   -1.412600
  C      1.036232   -1.212350    0.256835
  H      1.866922   -1.638021    0.831458
  O     -0.001160   -1.059754    1.194666
  O      0.742266   -2.121127   -0.743578
  O      2.857406    0.341428    0.043278
  O      0.954553    2.526159   -0.380843
  O     -1.680219    1.973936    0.431636
  O     -1.863309   -1.406177   -1.257489
  H     -3.173552   -0.673360    0.161448
  H     -2.285952   -2.157439    0.630898
  H     -0.127186   -1.898868   -1.127904
  H      3.069918    1.278588   -0.062507
  H      0.842330    2.446644   -1.337385
  H     -1.194273    2.804188    0.325966
  H     -2.493463   -2.018235   -1.651806

 Total Charge           Charge          ....    0
 Multiplicity           Mult            ....    1
 Number of Electrons    NEL             ....   96
 Basis Dimension        Dim             ....  192

ORBITAL ENERGIES
----------------

  NO   OCC          E(Eh)            E(eV)
   0   2.0000     -18.792395      -511.3671
   1   2.0000     -18.777286      -510.9559
   2   2.0000     -18.763825      -510.5896
   3   2.0000     -18.750805      -510.2354
   4   2.0000     -18.746953      -510.1305
   5   2.0000     -18.729964      -509.6682
   6   2.0000      -9.972998      -271.3791
   7   2.0000      -9.952144      -270.8116
   8   2.0000      -9.950192      -270.7585
   9   2.0000      -9.946390      -270.6550
  10   2.0000      -9.945372      -270.6273
  11   2.0000      -9.937021      -270.4001
  12   2.0000      -0.977038       -26.5866
  13   2.0000      -0.960823       -26.1453
  14   2.0000      -0.954310       -25.9681
  15   2.0000      -0.929289       -25.2872
  16   2.0000      -0.918911       -25.0048
  17   2.0000      -0.895859       -24.3776
  18   2.0000      -0.710920       -19.3451
  19   2.0000      -0.692619       -18.8471
  20   2.0000      -0.628077       -17.0908
  21   2.0000      -0.586728       -15.9657
  22   2.0000      -0.572311       -15.5734
  23   2.0000      -0.534208       -14.5365
  24   2.0000      -0.494297       -13.4505
  25   2.0000      -0.489274       -13.3138
  26   2.0000      -0.474791       -12.9197
  27   2.0000      -0.468248       -12.7417
  28   2.0000      -0.450352       -12.2547
  29   2.0000      -0.429925       -11.6988
  30   2.0000      -0.424075       -11.5397
  31   2.0000      -0.412768       -11.2320
  32   2.0000      -0.400069       -10.8864
  33   2.0000      -0.381934       -10.3929
  34   2.0000      -0.366417        -9.9707
  35   2.0000      -0.343214        -9.3393
  36   2.0000      -0.330291        -8.9877
  37   2.0000      -0.322670        -8.7803
  38   2.0000      -0.302595        -8.2340
  39   2.0000      -0.294522        -8.0144
  40   2.0000      -0.289056        -7.8656
  41   2.0000      -0.280534        -7.6337
  42   2.0000      -0.262402        -7.1403
  43   2.0000      -0.251846        -6.8531
  44   2.0000      -0.233735        -6.3602
  45   2.0000      -0.214906        -5.8479
  46   2.0000      -0.213569        -5.8115
  47   2.0000      -0.204833        -5.5738
  48   0.0000       0.004099         0.1115
  49   0.0000       0.008523         0.2319
  50   0.0000       0.043368         1.1801
  51   0.0000       0.052822         1.4374
  52   0.0000       0.056774         1.5449

MULLIKEN ATOMIC CHARGES
-----------------------
   0 C :    0.032402
   1 C :    0.057021
   2 H :    0.087197
   3 C :    0.002967
   4 H :    0.057732
   5 C :    0.018315
   6 H :    0.075406
   7 C :    0.043534
   8 H :    0.039472
   9 C :    0.213113
  10 H :    0.076509
  11 O :   -0.305072
  12 O :   -0.419410
  13 O :   -0.406340
  14 O :   -0.422683
  15 O :   -0.414968
  16 O :   -0.441275
  17 H :    0.095960
  18 H :    0.098693
  19 H :    0.289032
  20 H :    0.299090
  21 H :    0.300323
  22 H :    0.300234
  23 H :    0.322746
Sum of atomic charges:   -0.0000000

LOEWDIN ATOMIC CHARGES
----------------------
   0 C :   -0.133574
   1 C :   -0.061461
   2 H :    0.131191
   3 C :   -0.082845
   4 H :    0.097544
   5 C :   -0.095504
   6 H :    0.123387
   7 C :   -0.090373
   8 H :    0.094169
   9 C :    0.005208
  10 H :    0.116869
  11 O :   -0.139266
  12 O :   -0.324751
  13 O :   -0.315543
  14 O :   -0.311259
  15 O :   -0.324778
  16 O :   -0.323710
  17 H :    0.116364
  18 H :    0.112714
  19 H :    0.260044
  20 H :    0.280913
  21 H :    0.285344
  22 H :    0.279575
  23 H :    0.299742

  Mayer bond orders larger than 0.100000
B(  0-C ,  1-C ) :   1.0847 B(  0-C , 16-O ) :   1.0076 B(  0-C , 17-H ) :   0.9115
B(  0-C , 18-H ) :   0.9103 B(  1-C ,  2-H ) :   0.8788 B(  1-C ,  3-C ) :   0.9832
B(  1-C , 11-O ) :   1.0337 B(  3-C ,  4-H ) :   0.8684 B(  3-C ,  5-C ) :   1.0271
B(  3-C , 15-O ) :   1.0930 B(  5-C ,  6-H ) :   0.8519 B(  5-C ,  7-C ) :   1.0353
B(  5-C , 14-O ) :   0.9979 B(  7-C ,  8-H ) :   0.8752 B(  7-C ,  9-C ) :   0.9631
B(  7-C , 13-O ) :   1.0881 B(  9-C , 10-H ) :   0.8891 B(  9-C , 11-O ) :   1.0451
B(  9-C , 12-O ) :   1.1351 B( 12-O , 19-H ) :   0.7820 B( 13-O , 20-H ) :   0.8379
B( 14-O , 21-H ) :   0.8458 B( 15-O , 22-H ) :   0.8276 B( 16-O , 19-H ) :   0.1416
B( 16-O , 23-H ) :   0.8374

Dispersion correction           -0.025007900
FINAL SINGLE POINT ENERGY      -685.693831391663

DIPOLE MOMENT
-------------

Method             : SCF
Type of density    : Electron Density
Multiplicity       :   1
Irrep              :   0
Energy             :  -685.8272600537891321 Eh
Relativity type    :
Basis              : AO
                                X                 Y                 Z
Electronic contribution:      2.439468362       0.067498085       0.742176325
Nuclear contribution   :     -3.591312597       0.393887125      -1.563429398
                        -----------------------------------------
Total Dipole Moment    :     -1.151844235       0.461385210      -0.821253073
                        -----------------------------------------
Magnitude (a.u.)       :      1.487977843
Magnitude (Debye)      :      3.782139106

Rotational constants in cm-1:             0.038611             0.030537             0.020610
Rotational constants in MHz :          1157.517207           915.474626           617.872885

                             ****ORCA TERMINATED NORMALLY****
TOTAL RUN TIME: 0 days 0 hours 0 minutes 27 seconds 350 msec
