                         Program Version 6.0.1  -  RELEASE   -
|  1> ! pbe def2-sv(p) def2/J RI DEFGRID1 loosescf d4 GCP(DFT/SV(P)) printgap
|  2> %output
|  3>     printlevel normal
|  4> end
|  5> * xyz 0 1
|  6> C -0.8476150318 0.5913277858 -0.9515252931
|  7> C 0.5221119387 -0.0360512692 -0.7860417645
|  8> Cl 0.3805216901 -1.7243083232 -0.245964174
|  9> Cl 1.500571896 0.8860749704 0.3778861157
| 10> Cl -1.7389365316 0.6045774817 0.5899223894
| 11> H -0.7477290809 1.6257140453 -1.2822894571
| 12> H -1.4376501887 0.0176914582 -1.6672517315
| 13> H 1.0639620672 -0.0416837446 -1.7350794472
| 14> *
| 15>
| 16>                          ****END OF INPUT****

CARTESIAN COORDINATES (ANGSTROEM)
---------------------------------
  C     -0.847615    0.591328   -0.951525
  C      0.522112   -0.036051   -0.786042
  Cl     0.380522   -1.724308   -0.245964
  Cl     1.500572    0.886075    0.377886
  Cl    -1.738937    0.604577    0.589922
  H     -0.747729    1.625714   -1.282289
  H     -1.437650    0.017691   -1.667252
  H      1.063962   -0.041684   -1.735079

 Total Charge           Charge          ....    0
 Multiplicity           Mult            ....    1
 Number of Electrons    NEL             ....   66
 Basis Dimension        Dim             ....   88

ORBITAL ENERGIES
----------------

  NO   OCC          E(Eh)            E(eV)
   0   2.0000    -100.643380     -2738.6456
   1   2.0000    -100.643338     -2738.6445
   2   2.0000    -100.633607     -2738.3797
   3   2.0000     -10.017852      -272.5996
   4   2.0000      -9.968471      -271.2559
   5   2.0000      -9.179652      -249.7910
   6   2.0000      -9.179614      -249.7900
   7   2.0000      -9.169336      -249.5103
   8   2.0000      -7.011539      -190.7937
   9   2.0000      -7.011514      -190.7930
  10   2.0000      -7.001427      -190.5185
  11   2.0000      -6.999312      -190.4610
  12   2.0000      -6.999284      -190.4602
  13   2.0000      -6.998792      -190.4468
  14   2.0000      -6.998775      -190.4464
  15   2.0000      -6.988840      -190.1760
  16   2.0000      -6.988562      -190.1684
  17   2.0000      -0.846143       -23.0247
  18   2.0000      -0.776723       -21.1357
  19   2.0000      -0.751020       -20.4363
  20   2.0000      -0.656840       -17.8735
  21   2.0000      -0.550688       -14.9850
  22   2.0000      -0.463019       -12.5994
  23   2.0000      -0.452317       -12.3082
  24   2.0000      -0.418737       -11.3944
  25   2.0000      -0.381864       -10.3911
  26   2.0000      -0.373483       -10.1630
  27   2.0000      -0.293193        -7.9782
  28   2.0000      -0.281643        -7.6639
  29   2.0000      -0.266236        -7.2446
  30   2.0000      -0.261798        -7.1239
  31   2.0000      -0.260117        -7.0781
  32   2.0000      -0.253962        -6.9107
  33   0.0000      -0.035043        -0.9536
  34   0.0000      -0.001348        -0.0367
  35   0.0000       0.015682         0.4267
  36   0.0000       0.030811         0.8384
  37   0.0000       0.078909         2.1472

MULLIKEN ATOMIC CHARGES
-----------------------
   0 C :   -0.113812
   1 C :   -0.124199
   2 Cl:   -0.066949
   3 Cl:   -0.067057
   4 Cl:   -0.111671
   5 H :    0.155148
   6 H :    0.155063
   7 H :    0.173477
Sum of atomic charges:   -0.0000000

LOEWDIN ATOMIC CHARGES
----------------------
   0 C :   -0.315973
   1 C :   -0.298785
   2 Cl:    0.075061
   3 Cl:    0.074920
   4 Cl:    0.057003
   5 H :    0.136204
   6 H :    0.136188
   7 H :    0.135383

  Mayer bond orders larger than 0.100000
B(  0-C ,  1-C ) :   1.0056 B(  0-C ,  4-Cl) :   1.0794 B(  0-C ,  5-H ) :   0.9090
B(  0-C ,  6-H ) :   0.9090 B(  1-C ,  2-Cl) :   1.0613 B(  1-C ,  3-Cl) :   1.0611
B(  1-C ,  7-H ) :   0.8980

Dispersion correction           -0.009064677
FINAL SINGLE POINT ENERGY     -1457.419556974552

DIPOLE MOMENT
-------------

Method             : SCF
Type of density    : Electron Density
Multiplicity       :   1
Irrep              :   0
Energy             : -1457.4407116829729603 Eh
Relativity type    :
Basis              : AO
                                X                 Y                 Z
Electronic contribution:      1.243436003      -1.582784137       4.385037904
Nuclear contribution   :     -1.242892448       1.816313685      -5.363869693
                        -----------------------------------------
Total Dipole Moment    :      0.000543554       0.233529549      -0.978831789
                        -----------------------------------------
Magnitude (a.u.)       :      1.006304138
Magnitude (Debye)      :      2.557821845

Rotational constants in cm-1:             0.089559             0.066177             0.045611
Rotational constants in MHz :          2684.924434          1983.923930          1367.373159

                             ****ORCA TERMINATED NORMALLY****
TOTAL RUN TIME: 0 days 0 hours 0 minutes 10 seconds 320 msec
