                         Program Version 6.0.1  -  RELEASE   -
|  1> ! r2scan-3c def2/J RI DEFGRID2 scfconv6 printgap
|  2> %output
|  3>     printlevel normal
|  4> end
|  5> * xyz 0 1
|  6> C -1.5347767081 0.641021583 -0.0382884514
|  7> C -1.2595388722 -0.8049038493 -0.4432756568
|  8> C -0.0676827858 -1.177829093 0.4350755093
|  9> C 0.8107314781 0.0895413492 0.469758499
| 10> C -0.139729 1.2549027349 0.1053864139
| 11> O 1.9155582152 0.0051338131 -0.3998068489
| 12> H -2.0515265109 0.6578456295 0.9223598217
| 13> H -2.1469087097 1.1732367004 -0.7651374813
| 14> H -2.1165605662 -1.4569389487 -0.2824626004
| 15> H -0.9868867611 -0.8537199092 -1.4998399602
| 16> H -0.4109939386 -1.4146478663 1.4421129531
| 17> H 0.4960911079 -2.0296891869 0.0563020157
| 18> H 1.260589924 0.2305280396 1.4555265777
| 19> H -0.1155966507 2.0452549581 0.8529655858
| 20> H 0.187631185 1.6865214102 -0.8426527381
| 21> H 1.5863828689 -0.1524504424 -1.2925636865
| 22> *
| 23>
| 24>                          ****END OF INPUT****

CARTESIAN COORDINATES (ANGSTROEM)
---------------------------------
  C     -1.534777    0.641022   -0.038288
  C     -1.259539   -0.804904   -0.443276
  C     -0.067683   -1.177829    0.435076
  C      0.810731    0.089541    0.469758
  C     -0.139729    1.254903    0.105386
  O      1.915558    0.005134   -0.399807
  H     -2.051527    0.657846    0.922360
  H     -2.146909    1.173237   -0.765137
  H     -2.116561   -1.456939   -0.282463
  H     -0.986887   -0.853720   -1.499840
  H     -0.410994   -1.414648    1.442113
  H      0.496091   -2.029689    0.056302
  H      1.260590    0.230528    1.455527
  H     -0.115597    2.045255    0.852966
  H      0.187631    1.686521   -0.842653
  H      1.586383   -0.152450   -1.292564

 Total Charge           Charge          ....    0
 Multiplicity           Mult            ....    1
 Number of Electrons    NEL             ....   48
 Basis Dimension        Dim             ....  169

ORBITAL ENERGIES
----------------

  NO   OCC          E(Eh)            E(eV)
   0   2.0000     -18.942249      -515.4448
   1   2.0000     -10.075902      -274.1792
   2   2.0000     -10.028073      -272.8777
   3   2.0000     -10.026664      -272.8394
   4   2.0000     -10.022916      -272.7374
   5   2.0000     -10.022563      -272.7278
   6   2.0000      -0.984678       -26.7945
   7   2.0000      -0.797132       -21.6911
   8   2.0000      -0.680556       -18.5189
   9   2.0000      -0.665975       -18.1221
  10   2.0000      -0.549511       -14.9529
  11   2.0000      -0.542444       -14.7606
  12   2.0000      -0.469548       -12.7771
  13   2.0000      -0.455985       -12.4080
  14   2.0000      -0.411378       -11.1942
  15   2.0000      -0.392770       -10.6878
  16   2.0000      -0.383659       -10.4399
  17   2.0000      -0.342506        -9.3201
  18   2.0000      -0.313924        -8.5423
  19   2.0000      -0.310297        -8.4436
  20   2.0000      -0.307553        -8.3690
  21   2.0000      -0.298561        -8.1243
  22   2.0000      -0.280236        -7.6256
  23   2.0000      -0.227293        -6.1849
  24   0.0000       0.063363         1.7242
  25   0.0000       0.085698         2.3320
  26   0.0000       0.099113         2.6970
  27   0.0000       0.126098         3.4313
  28   0.0000       0.128141         3.4869

MULLIKEN ATOMIC CHARGES
-----------------------
   0 C :   -0.252143
   1 C :   -0.296783
   2 C :   -0.362378
   3 C :    0.036190
   4 C :   -0.396508
   5 O :   -0.409478
   6 H :    0.150760
   7 H :    0.152633
   8 H :    0.154463
   9 H :    0.147770
  10 H :    0.150720
  11 H :    0.169678
  12 H :    0.149508
  13 H :    0.155434
  14 H :    0.164228
  15 H :    0.285906
Sum of atomic charges:   -0.0000000

LOEWDIN ATOMIC CHARGES
----------------------
   0 C :   -0.302266
   1 C :   -0.305924
   2 C :   -0.288810
   3 C :    0.061755
   4 C :   -0.285817
   5 O :   -0.606678
   6 H :    0.155522
   7 H :    0.156327
   8 H :    0.157923
   9 H :    0.151436
  10 H :    0.161620
  11 H :    0.169290
  12 H :    0.181258
  13 H :    0.161707
  14 H :    0.169138
  15 H :    0.263518

  Mayer bond orders larger than 0.100000
B(  0-C ,  1-C ) :   0.8832 B(  0-C ,  4-C ) :   0.9144 B(  0-C ,  6-H ) :   0.9790
B(  0-C ,  7-H ) :   0.9579 B(  1-C ,  2-C ) :   0.8959 B(  1-C ,  8-H ) :   0.9499
B(  1-C ,  9-H ) :   0.9968 B(  2-C ,  3-C ) :   0.9448 B(  2-C , 10-H ) :   0.9799
B(  2-C , 11-H ) :   0.9661 B(  3-C ,  4-C ) :   0.9429 B(  3-C ,  5-O ) :   0.9477
B(  3-C , 12-H ) :   0.9459 B(  4-C , 13-H ) :   0.9593 B(  4-C , 14-H ) :   1.0020
B(  5-O , 15-H ) :   0.8944

Dispersion correction           -0.003996948
FINAL SINGLE POINT ENERGY      -271.696916160357

DIPOLE MOMENT
-------------

Method             : SCF
Type of density    : Electron Density
Multiplicity       :   1
Irrep              :   0
Energy             :  -271.7006167880572889 Eh
Relativity type    :
Basis              : AO
                                X                 Y                 Z
Electronic contribution:      3.354012956       0.054283506      -0.177377688
Nuclear contribution   :     -4.003613775      -0.106930648       0.037798043
                        -----------------------------------------
Total Dipole Moment    :     -0.649600819      -0.052647142      -0.139579646
                        -----------------------------------------
Magnitude (a.u.)       :      0.666509882
Magnitude (Debye)      :      1.694133485

Rotational constants in cm-1:             0.192492             0.109192             0.084437
Rotational constants in MHz :          5770.757958          3273.489276          2531.343138

                             ****ORCA TERMINATED NORMALLY****
TOTAL RUN TIME: 0 days 0 hours 0 minutes 22 seconds 709 msec
