                         Program Version 6.0.1  -  RELEASE   -
|  1> ! pbe def2-sv(p) def2/J RI DEFGRID1 loosescf d4 GCP(DFT/SV(P)) printgap
|  2> %output
|  3>     printlevel normal
|  4> end
|  5> * xyz 0 1
|  6> C -2.4952408876 -0.7490458784 0.0510375386
|  7> C -1.0977171376 -0.4653653349 0.6224826422
|  8> H -1.080222782 -0.7649091769 1.6834161364
|  9> C -0.7229867658 1.040246192 0.552096811
| 10> H -1.5969776219 1.6225707372 0.2354373931
| 11> C 0.4073614265 1.2329085948 -0.4827775754
| 12> H 0.6980890116 2.2907285073 -0.4914151607
| 13> C 1.6216958085 0.3757072616 -0.0604103165
| 14> H 2.3328741939 0.3241670714 -0.8945905082
| 15> C 1.1593312625 -1.066240696 0.2410103766
| 16> H 1.285587927 -1.245868051 1.3300704255
| 17> O -0.187627777 -1.2703296603 -0.1090362551
| 18> O 1.9241689246 -1.9385392269 -0.5089713213
| 19> O 2.2353838545 0.8797087364 1.1076410836
| 20> O -0.0155830605 0.9329210843 -1.7818695575
| 21> O -0.3753806176 1.555422345 1.8080983331
| 22> O -2.6058400757 -0.4848119007 -1.3178501977
| 23> H -3.2250074055 -0.16821043 0.6340771582
| 24> H -2.7160331303 -1.8126029363 0.1617923591
| 25> H 1.496053134 -2.803697865 -0.5048658613
| 26> H 2.7198447601 1.6841847265 0.8906361338
| 27> H -0.1969281569 -0.0199061543 -1.8302427944
| 28> H 0.5266850948 1.2677628004 2.0231599359
| 29> H -2.2861083507 0.4069005223 -1.5112187496
| 30> *
| 31>
| 32>                          ****END OF INPUT****

CARTESIAN COORDINATES (ANGSTROEM)
---------------------------------
  C     -2.495241   -0.749046    0.051038
  C     -1.097717   -0.465365    0.622483
  H     -1.080223   -0.764909    1.683416
  C     -0.722987    1.040246    0.552097
  H     -1.596978    1.622571    0.235437
  C      0.407361    1.232909   -0.482778
  H      0.698089    2.290729   -0.491415
  C      1.621696    0.375707   -0.060410
  H      2.332874    0.324167   -0.894591
  C      1.159331   -1.066241    0.241010
  H      1.285588   -1.245868    1.330070
  O     -0.187628   -1.270330   -0.109036
  O      1.924169   -1.938539   -0.508971
  O      2.235384    0.879709    1.107641
  O     -0.015583    0.932921   -1.781870
  O     -0.375381    1.555422    1.808098
  O     -2.605840   -0.484812   -1.317850
  H     -3.225007   -0.168210    0.634077
  H     -2.716033   -1.812603    0.161792
  H      1.496053   -2.803698   -0.504866
  H      2.719845    1.684185    0.890636
  H     -0.196928   -0.019906   -1.830243
  H      0.526685    1.267763    2.023160
  H     -2.286108    0.406901   -1.511219

 Total Charge           Charge          ....    0
 Multiplicity           Mult            ....    1
 Number of Electrons    NEL             ....   96
 Basis Dimension        Dim             ....  192

ORBITAL ENERGIES
----------------

  NO   OCC          E(Eh)            E(eV)
   0   2.0000     -18.787706      -511.2395
   1   2.0000     -18.786785      -511.2144
   2   2.0000     -18.770526      -510.7720
   3   2.0000     -18.761544      -510.5276
   4   2.0000     -18.750738      -510.2335
   5   2.0000     -18.744683      -510.0688
   6   2.0000     -10.000509      -272.1277
   7   2.0000      -9.955827      -270.9118
   8   2.0000      -9.951753      -270.8010
   9   2.0000      -9.950339      -270.7625
  10   2.0000      -9.947573      -270.6872
  11   2.0000      -9.938243      -270.4333
  12   2.0000      -1.001562       -27.2539
  13   2.0000      -0.962136       -26.1810
  14   2.0000      -0.946785       -25.7633
  15   2.0000      -0.931395       -25.3445
  16   2.0000      -0.925757       -25.1911
  17   2.0000      -0.919970       -25.0336
  18   2.0000      -0.702492       -19.1158
  19   2.0000      -0.700558       -19.0631
  20   2.0000      -0.630767       -17.1640
  21   2.0000      -0.595834       -16.2135
  22   2.0000      -0.575654       -15.6643
  23   2.0000      -0.528114       -14.3707
  24   2.0000      -0.520581       -14.1657
  25   2.0000      -0.501134       -13.6366
  26   2.0000      -0.495747       -13.4900
  27   2.0000      -0.471426       -12.8281
  28   2.0000      -0.457190       -12.4408
  29   2.0000      -0.433948       -11.8083
  30   2.0000      -0.420165       -11.4333
  31   2.0000      -0.400603       -10.9010
  32   2.0000      -0.395991       -10.7755
  33   2.0000      -0.382458       -10.4072
  34   2.0000      -0.362439        -9.8625
  35   2.0000      -0.352837        -9.6012
  36   2.0000      -0.345694        -9.4068
  37   2.0000      -0.328647        -8.9429
  38   2.0000      -0.320516        -8.7217
  39   2.0000      -0.314897        -8.5688
  40   2.0000      -0.287326        -7.8185
  41   2.0000      -0.281296        -7.6545
  42   2.0000      -0.267662        -7.2835
  43   2.0000      -0.259647        -7.0654
  44   2.0000      -0.242798        -6.6069
  45   2.0000      -0.226128        -6.1532
  46   2.0000      -0.219886        -5.9834
  47   2.0000      -0.206501        -5.6192
  48   0.0000       0.002228         0.0606
  49   0.0000       0.022849         0.6218
  50   0.0000       0.035143         0.9563
  51   0.0000       0.049904         1.3579
  52   0.0000       0.054844         1.4924

MULLIKEN ATOMIC CHARGES
-----------------------
   0 C :    0.076740
   1 C :    0.001419
   2 H :    0.067036
   3 C :    0.010429
   4 H :    0.076134
   5 C :    0.035854
   6 H :    0.071891
   7 C :    0.006410
   8 H :    0.092615
   9 C :    0.201237
  10 H :    0.053480
  11 O :   -0.310403
  12 O :   -0.379872
  13 O :   -0.413648
  14 O :   -0.422661
  15 O :   -0.425432
  16 O :   -0.438090
  17 H :    0.086752
  18 H :    0.088938
  19 H :    0.306395
  20 H :    0.316383
  21 H :    0.310039
  22 H :    0.296102
  23 H :    0.292254
Sum of atomic charges:   -0.0000000

LOEWDIN ATOMIC CHARGES
----------------------
   0 C :   -0.121029
   1 C :   -0.084768
   2 H :    0.112122
   3 C :   -0.081318
   4 H :    0.112524
   5 C :   -0.084794
   6 H :    0.113899
   7 C :   -0.090214
   8 H :    0.119833
   9 C :    0.007572
  10 H :    0.085905
  11 O :   -0.152660
  12 O :   -0.292165
  13 O :   -0.302917
  14 O :   -0.306145
  15 O :   -0.322244
  16 O :   -0.329512
  17 H :    0.102712
  18 H :    0.117163
  19 H :    0.290009
  20 H :    0.296533
  21 H :    0.272852
  22 H :    0.267329
  23 H :    0.269313

  Mayer bond orders larger than 0.100000
B(  0-C ,  1-C ) :   1.0300 B(  0-C , 16-O ) :   1.0943 B(  0-C , 17-H ) :   0.9171
B(  0-C , 18-H ) :   0.9147 B(  1-C ,  2-H ) :   0.8740 B(  1-C ,  3-C ) :   0.9389
B(  1-C , 11-O ) :   0.9738 B(  3-C ,  4-H ) :   0.9002 B(  3-C ,  5-C ) :   0.9717
B(  3-C , 15-O ) :   1.0778 B(  5-C ,  6-H ) :   0.8958 B(  5-C ,  7-C ) :   0.9877
B(  5-C , 14-O ) :   1.0486 B(  7-C ,  8-H ) :   0.8873 B(  7-C ,  9-C ) :   0.9827
B(  7-C , 13-O ) :   1.0226 B(  9-C , 10-H ) :   0.8837 B(  9-C , 11-O ) :   1.0337
B(  9-C , 12-O ) :   1.1689 B( 12-O , 19-H ) :   0.8399 B( 13-O , 20-H ) :   0.8399
B( 13-O , 22-H ) :   0.1138 B( 14-O , 21-H ) :   0.8004 B( 15-O , 22-H ) :   0.8059
B( 16-O , 23-H ) :   0.8154

Dispersion correction           -0.025616937
FINAL SINGLE POINT ENERGY      -685.694167735095

DIPOLE MOMENT
-------------

Method             : SCF
Type of density    : Electron Density
Multiplicity       :   1
Irrep              :   0
Energy             :  -685.8286580828089427 Eh
Relativity type    :
Basis              : AO
                                X                 Y                 Z
Electronic contribution:      2.530018326      -0.766906737      -1.153648792
Nuclear contribution   :     -1.901431920       0.727999187       1.607641191
                        -----------------------------------------
Total Dipole Moment    :      0.628586406      -0.038907550       0.453992399
                        -----------------------------------------
Magnitude (a.u.)       :      0.776365742
Magnitude (Debye)      :      1.973364891

Rotational constants in cm-1:             0.041392             0.028252             0.023473
Rotational constants in MHz :          1240.909620           846.959315           703.714565

                             ****ORCA TERMINATED NORMALLY****
TOTAL RUN TIME: 0 days 0 hours 0 minutes 57 seconds 987 msec
