                         Program Version 6.0.0  -   RELEASE  -
|  1> ! r2SCAN-3c DEF2-TZVP FREQ
|  2> * xyzfile 0 1 censo.xyz
|  3>
|  4>                          ****END OF INPUT****

CARTESIAN COORDINATES (ANGSTROEM)
---------------------------------
  C      4.954915    0.695841   -0.000638
  C      4.954916   -0.695836   -0.000612
  C      3.749903   -1.395181   -0.000188
  C      2.553923   -0.695996    0.000236
  C      2.553922    0.695999    0.000214
  C      3.749902    1.395184   -0.000235
  O      1.374239    1.432478    0.000694
  C      0.206297    0.697430    0.000468
  C     -0.989089    1.394058    0.000235
  C     -2.193673    0.696784    0.000045
  C     -2.193672   -0.696786    0.000055
  C     -0.989088   -1.394059    0.000258
  C      0.206298   -0.697430    0.000481
  O      1.374240   -1.432477    0.000731
  Cl    -3.684454   -1.602451   -0.000198
  Cl    -3.684455    1.602448   -0.000233
  H      5.889933    1.245015   -0.000966
  H      5.889934   -1.245009   -0.000915
  H      3.723018   -2.479707   -0.000157
  H      3.723015    2.479711   -0.000234
  H     -0.973177    2.477627    0.000218
  H     -0.973175   -2.477628    0.000260

 Total Charge           Charge          ....    0
 Multiplicity           Mult            ....    1
 Number of Electrons    NEL             ....  128
 Basis Dimension        Dim             ....  544

ORBITAL ENERGIES
----------------

  NO   OCC          E(Eh)            E(eV)
   0   2.0000    -101.201448     -2753.8314
   1   2.0000    -101.201442     -2753.8312
   2   2.0000     -19.027744      -517.7712
   3   2.0000     -19.027731      -517.7709
   4   2.0000     -10.126786      -275.5638
   5   2.0000     -10.126368      -275.5525
   6   2.0000     -10.119873      -275.3758
   7   2.0000     -10.119444      -275.3641
   8   2.0000     -10.118652      -275.3425
   9   2.0000     -10.118231      -275.3311
  10   2.0000     -10.067269      -273.9443
  11   2.0000     -10.067255      -273.9439
  12   2.0000     -10.055339      -273.6197
  13   2.0000     -10.055328      -273.6194
  14   2.0000     -10.051961      -273.5278
  15   2.0000     -10.051528      -273.5160
  16   2.0000      -9.377166      -255.1656
  17   2.0000      -9.377160      -255.1655
  18   2.0000      -7.122366      -193.8094
  19   2.0000      -7.122364      -193.8094
  20   2.0000      -7.112066      -193.5291
  21   2.0000      -7.112065      -193.5291
  22   2.0000      -7.111446      -193.5123
  23   2.0000      -7.111446      -193.5123
  24   2.0000      -1.089473       -29.6461
  25   2.0000      -1.056593       -28.7514
  26   2.0000      -0.889282       -24.1986
  27   2.0000      -0.848374       -23.0854
  28   2.0000      -0.826217       -22.4825
  29   2.0000      -0.811314       -22.0770
  30   2.0000      -0.757916       -20.6239
  31   2.0000      -0.737019       -20.0553
  32   2.0000      -0.723702       -19.6929
  33   2.0000      -0.695407       -18.9230
  34   2.0000      -0.637792       -17.3552
  35   2.0000      -0.626857       -17.0576
  36   2.0000      -0.596226       -16.2241
  37   2.0000      -0.570111       -15.5135
  38   2.0000      -0.550494       -14.9797
  39   2.0000      -0.507428       -13.8078
  40   2.0000      -0.488501       -13.2928
  41   2.0000      -0.470231       -12.7956
  42   2.0000      -0.460873       -12.5410
  43   2.0000      -0.459324       -12.4988
  44   2.0000      -0.438020       -11.9191
  45   2.0000      -0.432314       -11.7639
  46   2.0000      -0.423755       -11.5310
  47   2.0000      -0.400109       -10.8875
  48   2.0000      -0.397069       -10.8048
  49   2.0000      -0.396156       -10.7800
  50   2.0000      -0.395348       -10.7580
  51   2.0000      -0.392096       -10.6695
  52   2.0000      -0.357600        -9.7308
  53   2.0000      -0.354148        -9.6368
  54   2.0000      -0.354119        -9.6361
  55   2.0000      -0.327070        -8.9000
  56   2.0000      -0.320821        -8.7300
  57   2.0000      -0.305007        -8.2997
  58   2.0000      -0.300587        -8.1794
  59   2.0000      -0.285742        -7.7754
  60   2.0000      -0.260739        -7.0951
  61   2.0000      -0.247787        -6.7426
  62   2.0000      -0.236263        -6.4290
  63   2.0000      -0.195990        -5.3331
  64   0.0000      -0.061343        -1.6692
  65   0.0000      -0.060656        -1.6505
  66   0.0000      -0.049707        -1.3526
  67   0.0000      -0.032627        -0.8878
  68   0.0000      -0.019588        -0.5330

MULLIKEN ATOMIC CHARGES
-----------------------
   0 C :   -0.088647
   1 C :   -0.088653
   2 C :   -0.243609
   3 C :    0.234430
   4 C :    0.234394
   5 C :   -0.243573
   6 O :   -0.244278
   7 C :    0.253535
   8 C :   -0.347844
   9 C :    0.160430
  10 C :    0.160574
  11 C :   -0.348032
  12 C :    0.253761
  13 O :   -0.244275
  14 Cl:   -0.085082
  15 Cl:   -0.085084
  16 H :    0.116400
  17 H :    0.116402
  18 H :    0.117022
  19 H :    0.117013
  20 H :    0.127563
  21 H :    0.127553
Sum of atomic charges:   -0.0000000

LOEWDIN ATOMIC CHARGES
----------------------
   0 C :   -0.141876
   1 C :   -0.141876
   2 C :   -0.107604
   3 C :   -0.195500
   4 C :   -0.195500
   5 C :   -0.107604
   6 O :    0.326104
   7 C :   -0.201314
   8 C :   -0.108074
   9 C :   -0.437073
  10 C :   -0.437073
  11 C :   -0.108074
  12 C :   -0.201314
  13 O :    0.326104
  14 Cl:    0.405323
  15 Cl:    0.405323
  16 H :    0.146216
  17 H :    0.146216
  18 H :    0.153595
  19 H :    0.153595
  20 H :    0.160203
  21 H :    0.160203

  Mayer bond orders larger than 0.100000
B(  0-C ,  1-C ) :   1.3939 B(  0-C ,  5-C ) :   1.3691 B(  0-C , 16-H ) :   0.9720
B(  1-C ,  2-C ) :   1.3691 B(  1-C , 17-H ) :   0.9720 B(  2-C ,  3-C ) :   1.3581
B(  2-C , 18-H ) :   0.9823 B(  3-C ,  4-C ) :   1.3712 B(  3-C , 13-O ) :   0.9745
B(  4-C ,  5-C ) :   1.3581 B(  4-C ,  6-O ) :   0.9745 B(  5-C , 19-H ) :   0.9823
B(  6-O ,  7-C ) :   0.9936 B(  7-C ,  8-C ) :   1.3542 B(  7-C , 12-C ) :   1.3594
B(  8-C ,  9-C ) :   1.3224 B(  8-C , 20-H ) :   0.9850 B(  9-C , 10-C ) :   1.2788
B(  9-C , 15-Cl) :   1.0380 B( 10-C , 11-C ) :   1.3224 B( 10-C , 14-Cl) :   1.0380
B( 11-C , 12-C ) :   1.3541 B( 11-C , 21-H ) :   0.9851 B( 12-C , 13-O ) :   0.9937

Dispersion correction           -0.010785153
FINAL SINGLE POINT ENERGY     -1531.614121528962

DIPOLE MOMENT
-------------

Method             : SCF
Type of density    : Electron Density
Multiplicity       :   1
Irrep              :   0
Energy             : -1531.6121643356193545 Eh
Relativity type    :
Basis              : AO
                                X                 Y                 Z
Electronic contribution:    -24.940778592      -0.000011401       0.001017088
Nuclear contribution   :     26.153120034       0.000012467      -0.001196169
                        -----------------------------------------
Total Dipole Moment    :      1.212341442       0.000001066      -0.000179081
                        -----------------------------------------
Magnitude (a.u.)       :      1.212341455
Magnitude (Debye)      :      3.081527085

VIBRATIONAL FREQUENCIES
-----------------------

Scaling factor for frequencies =  1.000000000  (already applied!)

     0:       0.00 cm**-1
     1:       0.00 cm**-1
     2:       0.00 cm**-1
     3:       0.00 cm**-1
     4:       0.00 cm**-1
     5:       0.00 cm**-1
     6:      43.46 cm**-1
     7:      79.82 cm**-1
     8:     163.55 cm**-1
     9:     164.82 cm**-1
    10:     178.99 cm**-1
    11:     198.97 cm**-1
    12:     277.05 cm**-1
    13:     292.38 cm**-1
    14:     294.99 cm**-1
    15:     302.59 cm**-1
    16:     389.05 cm**-1
    17:     424.85 cm**-1
    18:     453.76 cm**-1
    19:     461.28 cm**-1
    20:     507.27 cm**-1
    21:     530.37 cm**-1
    22:     558.63 cm**-1
    23:     585.41 cm**-1
    24:     594.26 cm**-1
    25:     639.25 cm**-1
    26:     669.43 cm**-1
    27:     678.94 cm**-1
    28:     704.12 cm**-1
    29:     743.58 cm**-1
    30:     753.08 cm**-1
    31:     753.84 cm**-1
    32:     843.49 cm**-1
    33:     849.70 cm**-1
    34:     869.29 cm**-1
    35:     874.54 cm**-1
    36:     878.99 cm**-1
    37:     921.58 cm**-1
    38:     939.55 cm**-1
    39:     957.65 cm**-1
    40:    1049.97 cm**-1
    41:    1114.24 cm**-1
    42:    1118.46 cm**-1
    43:    1171.20 cm**-1
    44:    1175.83 cm**-1
    45:    1190.13 cm**-1
    46:    1233.68 cm**-1
    47:    1243.75 cm**-1
    48:    1296.48 cm**-1
    49:    1297.88 cm**-1
    50:    1337.68 cm**-1
    51:    1366.14 cm**-1
    52:    1397.78 cm**-1
    53:    1488.39 cm**-1
    54:    1494.75 cm**-1
    55:    1518.34 cm**-1
    56:    1607.43 cm**-1
    57:    1609.51 cm**-1
    58:    1650.40 cm**-1
    59:    1657.67 cm**-1
    60:    3171.66 cm**-1
    61:    3179.88 cm**-1
    62:    3187.21 cm**-1
    63:    3195.18 cm**-1
    64:    3200.12 cm**-1
    65:    3200.98 cm**-1

IR SPECTRUM
-----------

 Mode   freq       eps      Int      T**2         TX        TY        TZ
       cm**-1   L/(mol*cm) km/mol    a.u.
----------------------------------------------------------------------------
  6:     43.46   0.000042    0.21  0.000303  (-0.000019  0.000000  0.017404)
  7:     79.82   0.000000    0.00  0.000000  ( 0.000005  0.000119  0.000001)
  8:    163.55   0.000032    0.16  0.000061  ( 0.000000 -0.007791 -0.000005)
  9:    164.82   0.000118    0.60  0.000224  (-0.000044 -0.000004  0.014953)
 10:    178.99   0.000000    0.00  0.000000  ( 0.000002 -0.000025 -0.000001)
 11:    198.97   0.000012    0.06  0.000019  (-0.004390 -0.000000 -0.000004)
 12:    277.05   0.000000    0.00  0.000000  ( 0.000000  0.000012 -0.000001)
 13:    292.38   0.000046    0.23  0.000049  ( 0.000094 -0.000007 -0.006996)
 14:    294.99   0.000056    0.28  0.000059  (-0.000000 -0.007687  0.000000)
 15:    302.59   0.000461    2.33  0.000475  (-0.021797  0.000000  0.000007)
 16:    389.05   0.000193    0.98  0.000155  ( 0.000009  0.000004 -0.012453)
 17:    424.85   0.000604    3.05  0.000444  ( 0.000000  0.021060 -0.000000)
 18:    453.76   0.000212    1.07  0.000146  ( 0.000011 -0.000000 -0.012071)
 19:    461.28   0.001289    6.51  0.000872  (-0.000009 -0.000000  0.029526)
 20:    507.27   0.000133    0.67  0.000082  (-0.000000 -0.009040  0.000000)
 21:    530.37   0.001450    7.33  0.000853  (-0.029205 -0.000000 -0.000032)
 22:    558.63   0.000000    0.00  0.000000  ( 0.000001  0.000016  0.000001)
 23:    585.41   0.000939    4.74  0.000500  (-0.022371 -0.000000  0.000012)
 24:    594.26   0.001038    5.24  0.000545  (-0.000000  0.023344 -0.000000)
 25:    639.25   0.000000    0.00  0.000000  (-0.000001 -0.000029 -0.000000)
 26:    669.43   0.000000    0.00  0.000000  ( 0.000001 -0.000014  0.000000)
 27:    678.94   0.001837    9.28  0.000844  (-0.029057 -0.000000 -0.000009)
 28:    704.12   0.000000    0.00  0.000000  ( 0.000001  0.000082  0.000002)
 29:    743.58   0.000496    2.50  0.000208  (-0.014421  0.000000 -0.000064)
 30:    753.08   0.002184   11.04  0.000905  (-0.000000 -0.030084  0.000016)
 31:    753.84   0.014616   73.86  0.006051  ( 0.000040 -0.000001 -0.077786)
 32:    843.49   0.000000    0.00  0.000000  ( 0.000000 -0.000004  0.000000)
 33:    849.70   0.000000    0.00  0.000000  (-0.000001 -0.000010 -0.000001)
 34:    869.29   0.026432  133.58  0.009489  ( 0.097410  0.000000  0.000005)
 35:    874.54   0.000937    4.73  0.000334  (-0.000000  0.018283  0.000001)
 36:    878.99   0.007345   37.12  0.002608  ( 0.000013  0.000002 -0.051065)
 37:    921.58   0.000836    4.22  0.000283  (-0.000013  0.000002 -0.016823)
 38:    939.55   0.000000    0.00  0.000000  (-0.000001 -0.000037  0.000001)
 39:    957.65   0.004626   23.38  0.001507  (-0.000000 -0.038825  0.000001)
 40:   1049.97   0.001718    8.68  0.000511  (-0.022599  0.000000  0.000009)
 41:   1114.24   0.020482  103.51  0.005736  ( 0.075739  0.000000  0.000004)
 42:   1118.46   0.000938    4.74  0.000262  (-0.000001  0.016180 -0.000000)
 43:   1171.20   0.005000   25.27  0.001332  ( 0.000000 -0.036501  0.000001)
 44:   1175.83   0.000880    4.45  0.000233  ( 0.015279  0.000000 -0.000004)
 45:   1190.13   0.003146   15.90  0.000825  ( 0.000000 -0.028723  0.000000)
 46:   1233.68   0.014472   73.14  0.003661  ( 0.060504  0.000000 -0.000022)
 47:   1243.75   0.000689    3.48  0.000173  (-0.000000  0.013147 -0.000000)
 48:   1296.48   0.000564    2.85  0.000136  ( 0.000006 -0.011655  0.000000)
 49:   1297.88   0.113714  574.66  0.027341  ( 0.165352  0.000001 -0.000015)
 50:   1337.68   0.015410   77.88  0.003595  (-0.059958 -0.000000 -0.000000)
 51:   1366.14   0.000525    2.65  0.000120  ( 0.010947  0.000000  0.000002)
 52:   1397.78   0.001631    8.24  0.000364  (-0.000000 -0.019085  0.000000)
 53:   1488.39   0.001081    5.46  0.000227  (-0.000001 -0.015053  0.000000)
 54:   1494.75   0.144162  728.53  0.030097  (-0.173485 -0.000000 -0.000003)
 55:   1518.34   0.017222   87.03  0.003540  ( 0.059495  0.000000 -0.000024)
 56:   1607.43   0.000387    1.96  0.000075  ( 0.000001 -0.008669 -0.000000)
 57:   1609.51   0.010365   52.38  0.002010  (-0.044828 -0.000000  0.000003)
 58:   1650.40   0.000837    4.23  0.000158  ( 0.012583  0.000000 -0.000005)
 59:   1657.67   0.000002    0.01  0.000000  ( 0.000000  0.000541  0.000000)
 60:   3171.66   0.000161    0.82  0.000016  ( 0.000000  0.003984 -0.000000)
 61:   3179.88   0.001356    6.85  0.000133  ( 0.011537 -0.000000 -0.000004)
 62:   3187.21   0.000814    4.11  0.000080  ( 0.000001  0.008925 -0.000000)
 63:   3195.18   0.001603    8.10  0.000157  ( 0.012513 -0.000000 -0.000003)
 64:   3200.12   0.000461    2.33  0.000045  ( 0.000001  0.006704 -0.000000)
 65:   3200.98   0.000137    0.69  0.000013  ( 0.003657 -0.000001  0.000001)

--------------------------
THERMOCHEMISTRY AT 298.15K
--------------------------

Temperature         ...   298.15 K
Pressure            ...     1.00 atm
Total Mass          ...   253.08 AMU
Quasi RRHO          ...     True
Cut-Off Frequency   ...     1.00 cm^-1

Throughout the following assumptions are being made:
  (1) The electronic state is orbitally nondegenerate
  (2) There are no thermally accessible electronically excited states
  (3) Hindered rotations indicated by low frequency modes are not
      treated as such but are treated as vibrations and this may
      cause some error
  (4) All equations used are the standard statistical mechanics
      equations for an ideal gas
  (5) All vibrations are strictly harmonic

freq.      43.46  E(vib)   ...       0.53
freq.      79.82  E(vib)   ...       0.49
freq.     163.55  E(vib)   ...       0.39
freq.     164.82  E(vib)   ...       0.39
freq.     178.99  E(vib)   ...       0.37
freq.     198.97  E(vib)   ...       0.35
freq.     277.05  E(vib)   ...       0.28
freq.     292.38  E(vib)   ...       0.27
freq.     294.99  E(vib)   ...       0.27
freq.     302.59  E(vib)   ...       0.26
freq.     389.05  E(vib)   ...       0.20
freq.     424.85  E(vib)   ...       0.18
freq.     453.76  E(vib)   ...       0.16
freq.     461.28  E(vib)   ...       0.16
freq.     507.27  E(vib)   ...       0.14
freq.     530.37  E(vib)   ...       0.13
freq.     558.63  E(vib)   ...       0.12
freq.     585.41  E(vib)   ...       0.11
freq.     594.26  E(vib)   ...       0.10
freq.     639.25  E(vib)   ...       0.09
freq.     669.43  E(vib)   ...       0.08
freq.     678.94  E(vib)   ...       0.08
freq.     704.12  E(vib)   ...       0.07
freq.     743.58  E(vib)   ...       0.06
freq.     753.08  E(vib)   ...       0.06
freq.     753.84  E(vib)   ...       0.06
freq.     843.49  E(vib)   ...       0.04
freq.     849.70  E(vib)   ...       0.04
freq.     869.29  E(vib)   ...       0.04
freq.     874.54  E(vib)   ...       0.04
freq.     878.99  E(vib)   ...       0.04
freq.     921.58  E(vib)   ...       0.03
freq.     939.55  E(vib)   ...       0.03
freq.     957.65  E(vib)   ...       0.03
freq.    1049.97  E(vib)   ...       0.02
freq.    1114.24  E(vib)   ...       0.01
freq.    1118.46  E(vib)   ...       0.01
freq.    1171.20  E(vib)   ...       0.01
freq.    1175.83  E(vib)   ...       0.01
freq.    1190.13  E(vib)   ...       0.01
freq.    1233.68  E(vib)   ...       0.01
freq.    1243.75  E(vib)   ...       0.01
freq.    1296.48  E(vib)   ...       0.01
freq.    1297.88  E(vib)   ...       0.01
freq.    1337.68  E(vib)   ...       0.01
freq.    1366.14  E(vib)   ...       0.01
freq.    1397.78  E(vib)   ...       0.00
freq.    1488.39  E(vib)   ...       0.00
freq.    1494.75  E(vib)   ...       0.00
freq.    1518.34  E(vib)   ...       0.00
freq.    1607.43  E(vib)   ...       0.00
freq.    1609.51  E(vib)   ...       0.00
freq.    1650.40  E(vib)   ...       0.00
freq.    1657.67  E(vib)   ...       0.00
freq.    3171.66  E(vib)   ...       0.00
freq.    3179.88  E(vib)   ...       0.00
freq.    3187.21  E(vib)   ...       0.00
freq.    3195.18  E(vib)   ...       0.00
freq.    3200.12  E(vib)   ...       0.00
freq.    3200.98  E(vib)   ...       0.00

------------
INNER ENERGY
------------

The inner energy is: U= E(el) + E(ZPE) + E(vib) + E(rot) + E(trans)
    E(el)   - is the total energy from the electronic structure calculation
              = E(kin-el) + E(nuc-el) + E(el-el) + E(nuc-nuc)
    E(ZPE)  - the the zero temperature vibrational energy from the frequency calculation
    E(vib)  - the the finite temperature correction to E(ZPE) due to population
              of excited vibrational states
    E(rot)  - is the rotational thermal energy
    E(trans)- is the translational thermal energy

Summary of contributions to the inner energy U:
Electronic energy                ...  -1531.61412153 Eh
Zero point energy                ...      0.14747324 Eh      92.54 kcal/mol
Thermal vibrational correction   ...      0.00926351 Eh       5.81 kcal/mol
Thermal rotational correction    ...      0.00141627 Eh       0.89 kcal/mol
Thermal translational correction ...      0.00141627 Eh       0.89 kcal/mol
-----------------------------------------------------------------------
Total thermal energy                  -1531.45455224 Eh

Summary of corrections to the electronic energy:
(perhaps to be used in another calculation)
Total thermal correction                  0.01209605 Eh       7.59 kcal/mol
Non-thermal (ZPE) correction              0.14747324 Eh      92.54 kcal/mol
-----------------------------------------------------------------------
Total correction                          0.15956929 Eh     100.13 kcal/mol

--------
ENTHALPY
--------

The enthalpy is H = U + kB*T
                kB is Boltzmann's constant
Total thermal energy              ...  -1531.45455224 Eh
Thermal Enthalpy correction       ...      0.00094421 Eh       0.59 kcal/mol
-----------------------------------------------------------------------
Total Enthalpy                    ...  -1531.45360803 Eh

Note: Rotational entropy computed according to Herzberg
Infrared and Raman Spectra, Chapter V,1, Van Nostrand Reinhold, 1945
Point Group:  Cs, Symmetry Number:   1
Rotational constants in cm-1:     0.040553     0.007182     0.006102

Vibrational entropy computed according to the QRRHO of S. Grimme
Chem.Eur.J. 2012 18 9955 using a reference frequency of 100.0 cm-1

-------
ENTROPY
-------

The entropy contributions are T*S = T*(S(el)+S(vib)+S(rot)+S(trans))
     S(el)   - electronic entropy
     S(vib)  - vibrational entropy
     S(rot)  - rotational entropy
     S(trans)- translational entropy
The entropies will be listed as multiplied by the temperature to get
units of energy

Electronic entropy                ...      0.00000000 Eh      0.00 kcal/mol
Vibrational entropy               ...      0.01537746 Eh      9.65 kcal/mol
Rotational entropy                ...      0.01576152 Eh      9.89 kcal/mol
Translational entropy             ...      0.02018632 Eh     12.67 kcal/mol
-----------------------------------------------------------------------
Final entropy term                ...      0.05132531 Eh     32.21 kcal/mol

In case the symmetry of your molecule has not been determined correctly
or in case you have a reason to use a different symmetry number we print
out the resulting rotational entropy values for sn=1,12:

 non-linear molecules -----------------------------------
|  sn= 1 | S(rot)=       0.01576152 Eh      9.89 kcal/mol|
|  sn= 2 | S(rot)=       0.01510707 Eh      9.48 kcal/mol|
|  sn= 3 | S(rot)=       0.01472423 Eh      9.24 kcal/mol|
|  sn= 4 | S(rot)=       0.01445261 Eh      9.07 kcal/mol|
|  sn= 5 | S(rot)=       0.01424192 Eh      8.94 kcal/mol|

                             ****ORCA TERMINATED NORMALLY****
TOTAL RUN TIME: 0 days 0 hours 39 minutes 34 seconds 442 msec
