                         Program Version 6.0.0  -   RELEASE  -
|  1> ! r2SCAN-3c DEF2-TZVP FREQ
|  2> * xyzfile 0 1 vacuum_censo.xyz
|  3>
|  4>                          ****END OF INPUT****

CARTESIAN COORDINATES (ANGSTROEM)
---------------------------------
  C      4.950354    0.695306    0.001144
  C      4.950356   -0.695288    0.001496
  C      3.745682   -1.393251    0.000806
  C      2.547827   -0.696816   -0.000260
  C      2.547824    0.696826   -0.000524
  C      3.745678    1.393265    0.000160
  O      1.374893    1.429081   -0.001524
  C      0.210881    0.697911   -0.000922
  C     -0.986707    1.390968   -0.000520
  C     -2.194775    0.697339   -0.000127
  C     -2.194772   -0.697344   -0.000097
  C     -0.986702   -1.390970   -0.000388
  C      0.210883   -0.697910   -0.000788
  O      1.374899   -1.429075   -0.001116
  Cl    -3.679292   -1.603585    0.000332
  Cl    -3.679296    1.603574    0.000356
  H      5.885460    1.243780    0.001657
  H      5.885464   -1.243758    0.002316
  H      3.715086   -2.477251    0.001046
  H      3.715079    2.477265   -0.000106
  H     -0.973137    2.474013   -0.000559
  H     -0.973129   -2.474016   -0.000328

 Total Charge           Charge          ....    0
 Multiplicity           Mult            ....    1
 Number of Electrons    NEL             ....  128
 Basis Dimension        Dim             ....  544

ORBITAL ENERGIES
----------------

  NO   OCC          E(Eh)            E(eV)
   0   2.0000    -101.201759     -2753.8399
   1   2.0000    -101.201753     -2753.8397
   2   2.0000     -19.028271      -517.7856
   3   2.0000     -19.028258      -517.7852
   4   2.0000     -10.126648      -275.5601
   5   2.0000     -10.126234      -275.5488
   6   2.0000     -10.119316      -275.3606
   7   2.0000     -10.118893      -275.3491
   8   2.0000     -10.118338      -275.3340
   9   2.0000     -10.117920      -275.3226
  10   2.0000     -10.066801      -273.9316
  11   2.0000     -10.066788      -273.9312
  12   2.0000     -10.054512      -273.5972
  13   2.0000     -10.054501      -273.5969
  14   2.0000     -10.051190      -273.5068
  15   2.0000     -10.050752      -273.4949
  16   2.0000      -9.377543      -255.1759
  17   2.0000      -9.377538      -255.1758
  18   2.0000      -7.122720      -193.8191
  19   2.0000      -7.122719      -193.8190
  20   2.0000      -7.112448      -193.5395
  21   2.0000      -7.112447      -193.5395
  22   2.0000      -7.111823      -193.5226
  23   2.0000      -7.111823      -193.5225
  24   2.0000      -1.093739       -29.7621
  25   2.0000      -1.060702       -28.8632
  26   2.0000      -0.889653       -24.2087
  27   2.0000      -0.848451       -23.0875
  28   2.0000      -0.827435       -22.5156
  29   2.0000      -0.811488       -22.0817
  30   2.0000      -0.758442       -20.6383
  31   2.0000      -0.737281       -20.0624
  32   2.0000      -0.723129       -19.6774
  33   2.0000      -0.695221       -18.9179
  34   2.0000      -0.639198       -17.3935
  35   2.0000      -0.627186       -17.0666
  36   2.0000      -0.595964       -16.2170
  37   2.0000      -0.571817       -15.5599
  38   2.0000      -0.550338       -14.9755
  39   2.0000      -0.507880       -13.8201
  40   2.0000      -0.489632       -13.3236
  41   2.0000      -0.469877       -12.7860
  42   2.0000      -0.462984       -12.5984
  43   2.0000      -0.459523       -12.5043
  44   2.0000      -0.437308       -11.8998
  45   2.0000      -0.432809       -11.7773
  46   2.0000      -0.422999       -11.5104
  47   2.0000      -0.401823       -10.9342
  48   2.0000      -0.398706       -10.8494
  49   2.0000      -0.397290       -10.8108
  50   2.0000      -0.395288       -10.7563
  51   2.0000      -0.392656       -10.6847
  52   2.0000      -0.357047        -9.7157
  53   2.0000      -0.354172        -9.6375
  54   2.0000      -0.354141        -9.6367
  55   2.0000      -0.327800        -8.9199
  56   2.0000      -0.320008        -8.7079
  57   2.0000      -0.304908        -8.2970
  58   2.0000      -0.300717        -8.1829
  59   2.0000      -0.286349        -7.7920
  60   2.0000      -0.260370        -7.0850
  61   2.0000      -0.247372        -6.7313
  62   2.0000      -0.235754        -6.4152
  63   2.0000      -0.195246        -5.3129
  64   0.0000      -0.060952        -1.6586
  65   0.0000      -0.060792        -1.6542
  66   0.0000      -0.049012        -1.3337
  67   0.0000      -0.030710        -0.8357
  68   0.0000      -0.018965        -0.5161

MULLIKEN ATOMIC CHARGES
-----------------------
   0 C :   -0.088915
   1 C :   -0.089056
   2 C :   -0.243004
   3 C :    0.234876
   4 C :    0.235083
   5 C :   -0.243185
   6 O :   -0.244487
   7 C :    0.254558
   8 C :   -0.347401
   9 C :    0.158466
  10 C :    0.158643
  11 C :   -0.347595
  12 C :    0.254696
  13 O :   -0.244489
  14 Cl:   -0.083078
  15 Cl:   -0.083078
  16 H :    0.116023
  17 H :    0.116021
  18 H :    0.116207
  19 H :    0.116204
  20 H :    0.126764
  21 H :    0.126748
Sum of atomic charges:   -0.0000000

LOEWDIN ATOMIC CHARGES
----------------------
   0 C :   -0.142528
   1 C :   -0.142528
   2 C :   -0.107871
   3 C :   -0.200062
   4 C :   -0.200061
   5 C :   -0.107872
   6 O :    0.334552
   7 C :   -0.204037
   8 C :   -0.108279
   9 C :   -0.441632
  10 C :   -0.441631
  11 C :   -0.108280
  12 C :   -0.204036
  13 O :    0.334552
  14 Cl:    0.410547
  15 Cl:    0.410548
  16 H :    0.146206
  17 H :    0.146206
  18 H :    0.153351
  19 H :    0.153351
  20 H :    0.159751
  21 H :    0.159751

  Mayer bond orders larger than 0.100000
B(  0-C ,  1-C ) :   1.3938 B(  0-C ,  5-C ) :   1.3688 B(  0-C , 16-H ) :   0.9724
B(  1-C ,  2-C ) :   1.3688 B(  1-C , 17-H ) :   0.9725 B(  2-C ,  3-C ) :   1.3586
B(  2-C , 18-H ) :   0.9825 B(  3-C ,  4-C ) :   1.3687 B(  3-C , 13-O ) :   0.9754
B(  4-C ,  5-C ) :   1.3586 B(  4-C ,  6-O ) :   0.9753 B(  5-C , 19-H ) :   0.9825
B(  6-O ,  7-C ) :   0.9922 B(  7-C ,  8-C ) :   1.3566 B(  7-C , 12-C ) :   1.3571
B(  8-C ,  9-C ) :   1.3216 B(  8-C , 20-H ) :   0.9848 B(  9-C , 10-C ) :   1.2790
B(  9-C , 15-Cl) :   1.0413 B( 10-C , 11-C ) :   1.3216 B( 10-C , 14-Cl) :   1.0413
B( 11-C , 12-C ) :   1.3565 B( 11-C , 21-H ) :   0.9849 B( 12-C , 13-O ) :   0.9922

Dispersion correction           -0.010798464
FINAL SINGLE POINT ENERGY     -1531.614558062895

DIPOLE MOMENT
-------------

Method             : SCF
Type of density    : Electron Density
Multiplicity       :   1
Irrep              :   0
Energy             : -1531.6126151378882696 Eh
Relativity type    :
Basis              : AO
                                X                 Y                 Z
Electronic contribution:    -24.931085977      -0.000039783      -0.002597431
Nuclear contribution   :     26.114382635       0.000043462       0.002979752
                        -----------------------------------------
Total Dipole Moment    :      1.183296658       0.000003679       0.000382321
                        -----------------------------------------
Magnitude (a.u.)       :      1.183296720
Magnitude (Debye)      :      3.007701235

VIBRATIONAL FREQUENCIES
-----------------------

Scaling factor for frequencies =  1.000000000  (already applied!)

     0:       0.00 cm**-1
     1:       0.00 cm**-1
     2:       0.00 cm**-1
     3:       0.00 cm**-1
     4:       0.00 cm**-1
     5:       0.00 cm**-1
     6:      36.68 cm**-1
     7:      76.25 cm**-1
     8:     160.32 cm**-1
     9:     162.93 cm**-1
    10:     175.78 cm**-1
    11:     197.90 cm**-1
    12:     273.96 cm**-1
    13:     287.08 cm**-1
    14:     295.57 cm**-1
    15:     304.30 cm**-1
    16:     387.29 cm**-1
    17:     426.20 cm**-1
    18:     451.46 cm**-1
    19:     457.57 cm**-1
    20:     509.54 cm**-1
    21:     532.46 cm**-1
    22:     557.55 cm**-1
    23:     586.29 cm**-1
    24:     595.84 cm**-1
    25:     639.79 cm**-1
    26:     668.26 cm**-1
    27:     681.16 cm**-1
    28:     703.10 cm**-1
    29:     747.05 cm**-1
    30:     752.44 cm**-1
    31:     755.52 cm**-1
    32:     842.06 cm**-1
    33:     848.31 cm**-1
    34:     873.32 cm**-1
    35:     877.35 cm**-1
    36:     880.27 cm**-1
    37:     919.99 cm**-1
    38:     938.22 cm**-1
    39:     965.41 cm**-1
    40:    1052.08 cm**-1
    41:    1117.05 cm**-1
    42:    1123.81 cm**-1
    43:    1176.35 cm**-1
    44:    1182.74 cm**-1
    45:    1202.33 cm**-1
    46:    1243.96 cm**-1
    47:    1246.01 cm**-1
    48:    1298.83 cm**-1
    49:    1312.66 cm**-1
    50:    1334.46 cm**-1
    51:    1366.52 cm**-1
    52:    1397.53 cm**-1
    53:    1489.73 cm**-1
    54:    1499.90 cm**-1
    55:    1523.47 cm**-1
    56:    1606.91 cm**-1
    57:    1608.91 cm**-1
    58:    1649.68 cm**-1
    59:    1661.09 cm**-1
    60:    3174.26 cm**-1
    61:    3182.99 cm**-1
    62:    3190.43 cm**-1
    63:    3197.98 cm**-1
    64:    3204.66 cm**-1
    65:    3205.55 cm**-1

IR SPECTRUM
-----------

 Mode   freq       eps      Int      T**2         TX        TY        TZ
       cm**-1   L/(mol*cm) km/mol    a.u.
----------------------------------------------------------------------------
  6:     36.68   0.000039    0.20  0.000332  ( 0.000044 -0.000041  0.018215)
  7:     76.25   0.000000    0.00  0.000000  ( 0.000049 -0.000220 -0.000011)
  8:    160.32   0.000102    0.52  0.000198  ( 0.000082  0.000008  0.014086)
  9:    162.93   0.000029    0.14  0.000055  (-0.000000  0.007395 -0.000047)
 10:    175.78   0.000000    0.00  0.000000  ( 0.000021  0.000053  0.000016)
 11:    197.90   0.000012    0.06  0.000019  ( 0.004324  0.000000 -0.000007)
 12:    273.96   0.000000    0.00  0.000000  (-0.000002 -0.000031  0.000010)
 13:    287.08   0.000064    0.32  0.000069  (-0.000174 -0.000051 -0.008309)
 14:    295.57   0.000057    0.29  0.000060  (-0.000000  0.007776 -0.000006)
 15:    304.30   0.000425    2.15  0.000436  ( 0.020881  0.000000  0.000017)
 16:    387.29   0.000164    0.83  0.000132  (-0.000020  0.000039 -0.011498)
 17:    426.20   0.000551    2.79  0.000404  ( 0.000000 -0.020089 -0.000000)
 18:    451.46   0.000223    1.13  0.000154  (-0.000022 -0.000009 -0.012413)
 19:    457.57   0.001324    6.69  0.000903  ( 0.000014 -0.000027  0.030048)
 20:    509.54   0.000129    0.65  0.000079  ( 0.000000 -0.008891  0.000009)
 21:    532.46   0.001360    6.87  0.000797  ( 0.028229  0.000000 -0.000060)
 22:    557.55   0.000000    0.00  0.000000  ( 0.000000 -0.000006 -0.000031)
 23:    586.29   0.001021    5.16  0.000543  ( 0.023308 -0.000000  0.000022)
 24:    595.84   0.001009    5.10  0.000529  ( 0.000000 -0.022989 -0.000001)
 25:    639.79   0.000000    0.00  0.000000  ( 0.000004  0.000064 -0.000000)
 26:    668.26   0.000000    0.00  0.000000  ( 0.000011  0.000034 -0.000014)
 27:    681.16   0.001886    9.53  0.000864  ( 0.029394  0.000000 -0.000015)
 28:    703.10   0.000000    0.00  0.000000  ( 0.000041 -0.000133 -0.000020)
 29:    747.05   0.000319    1.61  0.000133  ( 0.011536  0.000001 -0.000256)
 30:    752.44   0.014582   73.69  0.006048  (-0.000092  0.000099 -0.077767)
 31:    755.52   0.002188   11.06  0.000904  ( 0.000000  0.030065  0.000094)
 32:    842.06   0.000000    0.00  0.000000  (-0.000002  0.000009  0.000008)
 33:    848.31   0.000000    0.00  0.000000  (-0.000008  0.000012 -0.000002)
 34:    873.32   0.023251  117.50  0.008308  (-0.091150  0.000000  0.000031)
 35:    877.35   0.007326   37.02  0.002606  (-0.000060 -0.000012 -0.051048)
 36:    880.27   0.000874    4.42  0.000310  ( 0.000003  0.017605 -0.000047)
 37:    919.99   0.000848    4.28  0.000287  (-0.000026 -0.000029  0.016956)
 38:    938.22   0.000000    0.00  0.000000  (-0.000017  0.000069 -0.000010)
 39:    965.41   0.004773   24.12  0.001543  ( 0.000000  0.039279  0.000003)
 40:   1052.08   0.001552    7.84  0.000460  ( 0.021453  0.000000  0.000019)
 41:   1117.05   0.020001  101.08  0.005588  ( 0.074750  0.000000 -0.000007)
 42:   1123.81   0.001303    6.58  0.000362  (-0.000001  0.019021 -0.000005)
 43:   1176.35   0.000556    2.81  0.000147  ( 0.012141  0.000000  0.000007)
 44:   1182.74   0.004971   25.12  0.001312  (-0.000001  0.036216 -0.000007)
 45:   1202.33   0.002457   12.42  0.000638  (-0.000001  0.025255 -0.000000)
 46:   1243.96   0.009831   49.68  0.002466  (-0.049662 -0.000000 -0.000041)
 47:   1246.01   0.001039    5.25  0.000260  ( 0.000003 -0.016129  0.000001)
 48:   1298.83   0.000573    2.90  0.000138  (-0.000003  0.011734 -0.000004)
 49:   1312.66   0.105799  534.67  0.025152  (-0.158594 -0.000001 -0.000031)
 50:   1334.46   0.022565  114.04  0.005277  ( 0.072642  0.000000  0.000005)
 51:   1366.52   0.000090    0.45  0.000021  ( 0.004532  0.000000 -0.000005)
 52:   1397.53   0.001768    8.93  0.000395  (-0.000000 -0.019867  0.000001)
 53:   1489.73   0.001089    5.50  0.000228  (-0.000001 -0.015102 -0.000000)
 54:   1499.90   0.153119  773.80  0.031857  ( 0.178486  0.000000 -0.000003)
 55:   1523.47   0.022893  115.69  0.004689  (-0.068479 -0.000000 -0.000048)
 56:   1606.91   0.011934   60.31  0.002318  ( 0.048141  0.000000  0.000005)
 57:   1608.91   0.000368    1.86  0.000071  ( 0.000002 -0.008446 -0.000005)
 58:   1649.68   0.001094    5.53  0.000207  ( 0.014386  0.000000  0.000010)
 59:   1661.09   0.000008    0.04  0.000001  (-0.000001 -0.001210  0.000001)
 60:   3174.26   0.000167    0.85  0.000016  ( 0.000000 -0.004056  0.000001)
 61:   3182.99   0.001465    7.40  0.000144  (-0.011984  0.000001 -0.000008)
 62:   3190.43   0.000866    4.38  0.000085  (-0.000001 -0.009205  0.000002)
 63:   3197.98   0.001511    7.64  0.000147  (-0.012144  0.000000 -0.000006)
 64:   3204.66   0.000386    1.95  0.000038  ( 0.000003 -0.006129  0.000000)
 65:   3205.55   0.000143    0.72  0.000014  (-0.003736 -0.000005  0.000001)

--------------------------
THERMOCHEMISTRY AT 298.15K
--------------------------

Temperature         ...   298.15 K
Pressure            ...     1.00 atm
Total Mass          ...   253.08 AMU
Quasi RRHO          ...     True
Cut-Off Frequency   ...     1.00 cm^-1

Throughout the following assumptions are being made:
  (1) The electronic state is orbitally nondegenerate
  (2) There are no thermally accessible electronically excited states
  (3) Hindered rotations indicated by low frequency modes are not
      treated as such but are treated as vibrations and this may
      cause some error
  (4) All equations used are the standard statistical mechanics
      equations for an ideal gas
  (5) All vibrations are strictly harmonic

freq.      36.68  E(vib)   ...       0.54
freq.      76.25  E(vib)   ...       0.49
freq.     160.32  E(vib)   ...       0.39
freq.     162.93  E(vib)   ...       0.39
freq.     175.78  E(vib)   ...       0.38
freq.     197.90  E(vib)   ...       0.35
freq.     273.96  E(vib)   ...       0.28
freq.     287.08  E(vib)   ...       0.27
freq.     295.57  E(vib)   ...       0.27
freq.     304.30  E(vib)   ...       0.26
freq.     387.29  E(vib)   ...       0.20
freq.     426.20  E(vib)   ...       0.18
freq.     451.46  E(vib)   ...       0.16
freq.     457.57  E(vib)   ...       0.16
freq.     509.54  E(vib)   ...       0.14
freq.     532.46  E(vib)   ...       0.13
freq.     557.55  E(vib)   ...       0.12
freq.     586.29  E(vib)   ...       0.11
freq.     595.84  E(vib)   ...       0.10
freq.     639.79  E(vib)   ...       0.09
freq.     668.26  E(vib)   ...       0.08
freq.     681.16  E(vib)   ...       0.08
freq.     703.10  E(vib)   ...       0.07
freq.     747.05  E(vib)   ...       0.06
freq.     752.44  E(vib)   ...       0.06
freq.     755.52  E(vib)   ...       0.06
freq.     842.06  E(vib)   ...       0.04
freq.     848.31  E(vib)   ...       0.04
freq.     873.32  E(vib)   ...       0.04
freq.     877.35  E(vib)   ...       0.04
freq.     880.27  E(vib)   ...       0.04
freq.     919.99  E(vib)   ...       0.03
freq.     938.22  E(vib)   ...       0.03
freq.     965.41  E(vib)   ...       0.03
freq.    1052.08  E(vib)   ...       0.02
freq.    1117.05  E(vib)   ...       0.01
freq.    1123.81  E(vib)   ...       0.01
freq.    1176.35  E(vib)   ...       0.01
freq.    1182.74  E(vib)   ...       0.01
freq.    1202.33  E(vib)   ...       0.01
freq.    1243.96  E(vib)   ...       0.01
freq.    1246.01  E(vib)   ...       0.01
freq.    1298.83  E(vib)   ...       0.01
freq.    1312.66  E(vib)   ...       0.01
freq.    1334.46  E(vib)   ...       0.01
freq.    1366.52  E(vib)   ...       0.01
freq.    1397.53  E(vib)   ...       0.00
freq.    1489.73  E(vib)   ...       0.00
freq.    1499.90  E(vib)   ...       0.00
freq.    1523.47  E(vib)   ...       0.00
freq.    1606.91  E(vib)   ...       0.00
freq.    1608.91  E(vib)   ...       0.00
freq.    1649.68  E(vib)   ...       0.00
freq.    1661.09  E(vib)   ...       0.00
freq.    3174.26  E(vib)   ...       0.00
freq.    3182.99  E(vib)   ...       0.00
freq.    3190.43  E(vib)   ...       0.00
freq.    3197.98  E(vib)   ...       0.00
freq.    3204.66  E(vib)   ...       0.00
freq.    3205.55  E(vib)   ...       0.00

------------
INNER ENERGY
------------

The inner energy is: U= E(el) + E(ZPE) + E(vib) + E(rot) + E(trans)
    E(el)   - is the total energy from the electronic structure calculation
              = E(kin-el) + E(nuc-el) + E(el-el) + E(nuc-nuc)
    E(ZPE)  - the the zero temperature vibrational energy from the frequency calculation
    E(vib)  - the the finite temperature correction to E(ZPE) due to population
              of excited vibrational states
    E(rot)  - is the rotational thermal energy
    E(trans)- is the translational thermal energy

Summary of contributions to the inner energy U:
Electronic energy                ...  -1531.61455806 Eh
Zero point energy                ...      0.14766427 Eh      92.66 kcal/mol
Thermal vibrational correction   ...      0.00930249 Eh       5.84 kcal/mol
Thermal rotational correction    ...      0.00141627 Eh       0.89 kcal/mol
Thermal translational correction ...      0.00141627 Eh       0.89 kcal/mol
-----------------------------------------------------------------------
Total thermal energy                  -1531.45475876 Eh

Summary of corrections to the electronic energy:
(perhaps to be used in another calculation)
Total thermal correction                  0.01213504 Eh       7.61 kcal/mol
Non-thermal (ZPE) correction              0.14766427 Eh      92.66 kcal/mol
-----------------------------------------------------------------------
Total correction                          0.15979930 Eh     100.28 kcal/mol

--------
ENTHALPY
--------

The enthalpy is H = U + kB*T
                kB is Boltzmann's constant
Total thermal energy              ...  -1531.45475876 Eh
Thermal Enthalpy correction       ...      0.00094421 Eh       0.59 kcal/mol
-----------------------------------------------------------------------
Total Enthalpy                    ...  -1531.45381455 Eh

Note: Only C1 symmetry has been detected, increase convergence thresholds
      if your molecule has a higher symmetry. Symmetry factor of 1.0 is
      used for the rotational entropy correction.

Note: Rotational entropy computed according to Herzberg
Infrared and Raman Spectra, Chapter V,1, Van Nostrand Reinhold, 1945
Point Group:  C1, Symmetry Number:   1
Rotational constants in cm-1:     0.040594     0.007199     0.006114

Vibrational entropy computed according to the QRRHO of S. Grimme
Chem.Eur.J. 2012 18 9955 using a reference frequency of 100.0 cm-1

-------
ENTROPY
-------

The entropy contributions are T*S = T*(S(el)+S(vib)+S(rot)+S(trans))
     S(el)   - electronic entropy
     S(vib)  - vibrational entropy
     S(rot)  - rotational entropy
     S(trans)- translational entropy
The entropies will be listed as multiplied by the temperature to get
units of energy

Electronic entropy                ...      0.00000000 Eh      0.00 kcal/mol
Vibrational entropy               ...      0.01551744 Eh      9.74 kcal/mol
Rotational entropy                ...      0.01575897 Eh      9.89 kcal/mol
Translational entropy             ...      0.02018632 Eh     12.67 kcal/mol
-----------------------------------------------------------------------
Final entropy term                ...      0.05146274 Eh     32.29 kcal/mol

In case the symmetry of your molecule has not been determined correctly
or in case you have a reason to use a different symmetry number we print
out the resulting rotational entropy values for sn=1,12:

 non-linear molecules -----------------------------------

                             ****ORCA TERMINATED NORMALLY****
TOTAL RUN TIME: 0 days 0 hours 39 minutes 42 seconds 735 msec
