                         Program Version 6.0.1  -  RELEASE   -
|  1> ! pbe def2-sv(p) def2/J RI DEFGRID1 loosescf d4 GCP(DFT/SV(P)) printgap
|  2> %output
|  3>     printlevel normal
|  4> end
|  5> * xyz 0 1
|  6> C 1.5481161573 -1.16488865 1.3598343906
|  7> C 2.9150209874 -1.3195765114 1.479852301
|  8> C 3.76931522 -0.5418014878 0.7122709754
|  9> C 3.2516705888 0.3963126278 -0.1796204358
| 10> C 1.8703672345 0.547378675 -0.2886828985
| 11> C 1.0069546615 -0.2325417897 0.4807076478
| 12> C -0.4567369603 -0.0709503294 0.3647353022
| 13> C -1.0523497993 1.1454360696 0.6741926657
| 14> C -2.4234891205 1.3094201884 0.5726082056
| 15> C -3.2298162735 0.2514995089 0.153090713
| 16> C -2.6410589069 -0.97243119 -0.1629625779
| 17> C -1.2603298091 -1.1313657945 -0.0550675624
| 18> Cl -0.552268924 -2.6375965 -0.4831592973
| 19> Cl -3.6198691906 -2.278043896 -0.6865702337
| 20> Cl -4.9265433312 0.447141831 0.0230650615
| 21> Cl -3.1339858104 2.8206984343 0.9649874628
| 22> Cl 1.2359001654 1.6826345358 -1.4148491535
| 23> Cl 4.3033920345 1.3559454189 -1.1379435154
| 24> Cl 5.4689624867 -0.7343119521 0.8571266075
| 25> H 0.8842651932 -1.7659213624 1.9604064994
| 26> H 3.328620737 -2.0419417365 2.1645960388
| 27> H -0.4418205728 1.9703468093 1.0041953259
| 28> *
| 29>
| 30>                          ****END OF INPUT****

CARTESIAN COORDINATES (ANGSTROEM)
---------------------------------
  C      1.548116   -1.164889    1.359834
  C      2.915021   -1.319577    1.479852
  C      3.769315   -0.541801    0.712271
  C      3.251671    0.396313   -0.179620
  C      1.870367    0.547379   -0.288683
  C      1.006955   -0.232542    0.480708
  C     -0.456737   -0.070950    0.364735
  C     -1.052350    1.145436    0.674193
  C     -2.423489    1.309420    0.572608
  C     -3.229816    0.251500    0.153091
  C     -2.641059   -0.972431   -0.162963
  C     -1.260330   -1.131366   -0.055068
  Cl    -0.552269   -2.637596   -0.483159
  Cl    -3.619869   -2.278044   -0.686570
  Cl    -4.926543    0.447142    0.023065
  Cl    -3.133986    2.820698    0.964987
  Cl     1.235900    1.682635   -1.414849
  Cl     4.303392    1.355945   -1.137944
  Cl     5.468962   -0.734312    0.857127
  H      0.884265   -1.765921    1.960406
  H      3.328621   -2.041942    2.164596
  H     -0.441821    1.970347    1.004195

 Total Charge           Charge          ....    0
 Multiplicity           Mult            ....    1
 Number of Electrons    NEL             ....  194
 Basis Dimension        Dim             ....  300

ORBITAL ENERGIES
----------------

  NO   OCC          E(Eh)            E(eV)
   0   2.0000    -100.662039     -2739.1533
   1   2.0000    -100.661965     -2739.1513
   2   2.0000    -100.661653     -2739.1428
   3   2.0000    -100.661477     -2739.1380
   4   2.0000    -100.659388     -2739.0812
   5   2.0000    -100.659177     -2739.0755
   6   2.0000    -100.658946     -2739.0692
   7   2.0000      -9.983151      -271.6554
   8   2.0000      -9.982915      -271.6489
   9   2.0000      -9.979413      -271.5536
  10   2.0000      -9.978984      -271.5420
  11   2.0000      -9.978014      -271.5156
  12   2.0000      -9.977430      -271.4997
  13   2.0000      -9.976425      -271.4723
  14   2.0000      -9.943558      -270.5780
  15   2.0000      -9.939776      -270.4751
  16   2.0000      -9.928292      -270.1626
  17   2.0000      -9.923459      -270.0311
  18   2.0000      -9.923193      -270.0238
  19   2.0000      -9.197870      -250.2868
  20   2.0000      -9.197627      -250.2801
  21   2.0000      -9.197507      -250.2769
  22   2.0000      -9.197069      -250.2650
  23   2.0000      -9.195108      -250.2116
  24   2.0000      -9.195073      -250.2107
  25   2.0000      -9.194799      -250.2032
  26   2.0000      -7.029595      -191.2850
  27   2.0000      -7.029232      -191.2751
  28   2.0000      -7.029177      -191.2736
  29   2.0000      -7.028629      -191.2587
  30   2.0000      -7.026836      -191.2099
  31   2.0000      -7.026649      -191.2048
  32   2.0000      -7.026350      -191.1967
  33   2.0000      -7.017945      -190.9680
  34   2.0000      -7.017699      -190.9613
  35   2.0000      -7.017580      -190.9581
  36   2.0000      -7.017186      -190.9473
  37   2.0000      -7.016743      -190.9353
  38   2.0000      -7.016652      -190.9328
  39   2.0000      -7.016418      -190.9264
  40   2.0000      -7.016095      -190.9177
  41   2.0000      -7.015168      -190.8924
  42   2.0000      -7.015077      -190.8900
  43   2.0000      -7.014884      -190.8847
  44   2.0000      -7.014183      -190.8656
  45   2.0000      -7.014040      -190.8617
  46   2.0000      -7.013884      -190.8575
  47   2.0000      -0.875242       -23.8165
  48   2.0000      -0.864795       -23.5323
  49   2.0000      -0.835236       -22.7279
  50   2.0000      -0.823552       -22.4100
  51   2.0000      -0.813351       -22.1324
  52   2.0000      -0.794622       -21.6228
  53   2.0000      -0.786470       -21.4009
  54   2.0000      -0.772881       -21.0312
  55   2.0000      -0.763403       -20.7733
  56   2.0000      -0.706736       -19.2313
  57   2.0000      -0.677842       -18.4450
  58   2.0000      -0.670191       -18.2368
  59   2.0000      -0.654443       -17.8083
  60   2.0000      -0.586165       -15.9504
  61   2.0000      -0.573375       -15.6023
  62   2.0000      -0.563945       -15.3457
  63   2.0000      -0.544804       -14.8249
  64   2.0000      -0.494986       -13.4692
  65   2.0000      -0.490531       -13.3480
  66   2.0000      -0.472793       -12.8654
  67   2.0000      -0.468958       -12.7610
  68   2.0000      -0.441625       -12.0172
  69   2.0000      -0.431698       -11.7471
  70   2.0000      -0.420777       -11.4499
  71   2.0000      -0.418373       -11.3845
  72   2.0000      -0.415880       -11.3167
  73   2.0000      -0.411635       -11.2012
  74   2.0000      -0.403114       -10.9693
  75   2.0000      -0.390216       -10.6183
  76   2.0000      -0.374736       -10.1971
  77   2.0000      -0.363248        -9.8845
  78   2.0000      -0.360146        -9.8001
  79   2.0000      -0.354179        -9.6377
  80   2.0000      -0.341295        -9.2871
  81   2.0000      -0.333135        -9.0651
  82   2.0000      -0.319058        -8.6820
  83   2.0000      -0.305557        -8.3146
  84   2.0000      -0.304032        -8.2731
  85   2.0000      -0.301543        -8.2054
  86   2.0000      -0.300854        -8.1867
  87   2.0000      -0.296005        -8.0547
  88   2.0000      -0.291157        -7.9228
  89   2.0000      -0.283744        -7.7211
  90   2.0000      -0.281430        -7.6581
  91   2.0000      -0.265251        -7.2178
  92   2.0000      -0.263600        -7.1729
  93   2.0000      -0.241920        -6.5830
  94   2.0000      -0.233392        -6.3509
  95   2.0000      -0.228781        -6.2255
  96   2.0000      -0.222136        -6.0446
  97   0.0000      -0.085405        -2.3240
  98   0.0000      -0.070708        -1.9241
  99   0.0000      -0.065407        -1.7798
 100   0.0000      -0.054060        -1.4710
 101   0.0000      -0.050177        -1.3654

MULLIKEN ATOMIC CHARGES
-----------------------
   0 C :   -0.094166
   1 C :   -0.097472
   2 C :    0.073676
   3 C :    0.033169
   4 C :    0.018977
   5 C :    0.041295
   6 C :    0.035919
   7 C :   -0.160470
   8 C :    0.080942
   9 C :    0.029915
  10 C :    0.002721
  11 C :    0.037785
  12 Cl:   -0.022588
  13 Cl:   -0.014659
  14 Cl:   -0.012806
  15 Cl:   -0.039037
  16 Cl:   -0.022895
  17 Cl:   -0.020112
  18 Cl:   -0.040174
  19 H :    0.061085
  20 H :    0.057884
  21 H :    0.051012
Sum of atomic charges:    0.0000000

LOEWDIN ATOMIC CHARGES
----------------------
   0 C :   -0.103824
   1 C :   -0.135470
   2 C :   -0.154010
   3 C :   -0.180930
   4 C :   -0.144518
   5 C :   -0.056260
   6 C :   -0.050864
   7 C :   -0.124079
   8 C :   -0.160297
   9 C :   -0.179886
  10 C :   -0.178168
  11 C :   -0.152308
  12 Cl:    0.179257
  13 Cl:    0.175975
  14 Cl:    0.177419
  15 Cl:    0.164482
  16 Cl:    0.178901
  17 Cl:    0.169899
  18 Cl:    0.163074
  19 H :    0.134609
  20 H :    0.138096
  21 H :    0.138903

  Mayer bond orders larger than 0.100000
B(  0-C ,  1-C ) :   1.3121 B(  0-C ,  5-C ) :   1.3521 B(  0-C , 19-H ) :   0.9660
B(  1-C ,  2-C ) :   1.3594 B(  1-C , 20-H ) :   0.9713 B(  2-C ,  3-C ) :   1.4060
B(  2-C , 18-Cl) :   1.0473 B(  3-C ,  4-C ) :   1.3895 B(  3-C , 17-Cl) :   1.1182
B(  4-C ,  5-C ) :   1.4277 B(  4-C , 16-Cl) :   1.1060 B(  5-C ,  6-C ) :   0.9463
B(  6-C ,  7-C ) :   1.3098 B(  6-C , 11-C ) :   1.4114 B(  7-C ,  8-C ) :   1.3286
B(  7-C , 21-H ) :   0.9764 B(  8-C ,  9-C ) :   1.3907 B(  8-C , 15-Cl) :   1.0376
B(  9-C , 10-C ) :   1.4152 B(  9-C , 14-Cl) :   1.1216 B( 10-C , 11-C ) :   1.3859
B( 10-C , 13-Cl) :   1.1204 B( 11-C , 12-Cl) :   1.1054

Dispersion correction           -0.049704869
FINAL SINGLE POINT ENERGY     -3677.235973152749

DIPOLE MOMENT
-------------

Method             : SCF
Type of density    : Electron Density
Multiplicity       :   1
Irrep              :   0
Energy             : -3677.2541737322394511 Eh
Relativity type    :
Basis              : AO
                                X                 Y                 Z
Electronic contribution:     -5.056497857       2.381929481      -6.840164070
Nuclear contribution   :      5.181346530      -2.605033573       7.331884856
                        -----------------------------------------
Total Dipole Moment    :      0.124848673      -0.223104092       0.491720787
                        -----------------------------------------
Magnitude (a.u.)       :      0.554212918
Magnitude (Debye)      :      1.408697288

Rotational constants in cm-1:             0.012893             0.003709             0.003186
Rotational constants in MHz :           386.533059           111.183234            95.516674

                             ****ORCA TERMINATED NORMALLY****
TOTAL RUN TIME: 0 days 0 hours 0 minutes 21 seconds 417 msec
