                         Program Version 6.0.1  -  RELEASE   -
|  1> ! pbe def2-sv(p) def2/J RI DEFGRID1 loosescf d4 GCP(DFT/SV(P)) printgap
|  2> %output
|  3>     printlevel normal
|  4> end
|  5> * xyz 0 1
|  6> C -2.0034170979 -0.6116295231 -0.7109452519
|  7> C -1.1935358318 -0.1001547165 0.5011186647
|  8> H -1.8618054923 -0.0656792537 1.3696116204
|  9> C -0.6350023977 1.3203679844 0.2780881964
| 10> H -1.379398273 1.887506657 -0.2963457245
| 11> C 0.6957554676 1.3047190076 -0.5052688962
| 12> H 1.1545962906 2.2985866373 -0.3957669502
| 13> C 1.6655589554 0.2786876349 0.1012171057
| 14> H 2.5449392643 0.1981394198 -0.5566051584
| 15> C 0.991056082 -1.1037216254 0.1731142067
| 16> H 1.6116022386 -1.7920192578 0.7668422151
| 17> O -0.2056168333 -1.0429712235 0.9036606972
| 18> O 0.8636235173 -1.6829458854 -1.0810335773
| 19> O 2.0272957836 0.7463014514 1.3792208572
| 20> O 0.524994329 0.9794568929 -1.8695498619
| 21> O -0.4792952949 2.0160353934 1.4826336755
| 22> O -2.3487380834 -1.9577398053 -0.5610654786
| 23> H -1.440415981 -0.4603252431 -1.6436116907
| 24> H -2.9390251117 -0.0506617342 -0.7758505245
| 25> H 0.6263276399 -0.9992915236 -1.7267831452
| 26> H 2.5616304673 0.0782364788 1.8234144273
| 27> H 0.0364462149 1.6877291666 -2.3029722769
| 28> H 0.27778028 1.6342332222 1.9522878319
| 29> H -1.545581629 -2.4340658338 -0.3055070048
| 30> *
| 31>
| 32>                          ****END OF INPUT****

CARTESIAN COORDINATES (ANGSTROEM)
---------------------------------
  C     -2.003417   -0.611630   -0.710945
  C     -1.193536   -0.100155    0.501119
  H     -1.861805   -0.065679    1.369612
  C     -0.635002    1.320368    0.278088
  H     -1.379398    1.887507   -0.296346
  C      0.695755    1.304719   -0.505269
  H      1.154596    2.298587   -0.395767
  C      1.665559    0.278688    0.101217
  H      2.544939    0.198139   -0.556605
  C      0.991056   -1.103722    0.173114
  H      1.611602   -1.792019    0.766842
  O     -0.205617   -1.042971    0.903661
  O      0.863624   -1.682946   -1.081034
  O      2.027296    0.746301    1.379221
  O      0.524994    0.979457   -1.869550
  O     -0.479295    2.016035    1.482634
  O     -2.348738   -1.957740   -0.561065
  H     -1.440416   -0.460325   -1.643612
  H     -2.939025   -0.050662   -0.775851
  H      0.626328   -0.999292   -1.726783
  H      2.561630    0.078236    1.823414
  H      0.036446    1.687729   -2.302972
  H      0.277780    1.634233    1.952288
  H     -1.545582   -2.434066   -0.305507

 Total Charge           Charge          ....    0
 Multiplicity           Mult            ....    1
 Number of Electrons    NEL             ....   96
 Basis Dimension        Dim             ....  192

ORBITAL ENERGIES
----------------

  NO   OCC          E(Eh)            E(eV)
   0   2.0000     -18.794331      -511.4198
   1   2.0000     -18.788002      -511.2475
   2   2.0000     -18.771337      -510.7941
   3   2.0000     -18.763143      -510.5711
   4   2.0000     -18.742962      -510.0219
   5   2.0000     -18.729698      -509.6610
   6   2.0000      -9.994522      -271.9648
   7   2.0000      -9.964913      -271.1591
   8   2.0000      -9.963530      -271.1214
   9   2.0000      -9.950315      -270.7618
  10   2.0000      -9.940345      -270.4905
  11   2.0000      -9.925853      -270.0962
  12   2.0000      -0.991790       -26.9880
  13   2.0000      -0.965110       -26.2620
  14   2.0000      -0.958794       -26.0901
  15   2.0000      -0.930166       -25.3111
  16   2.0000      -0.918499       -24.9936
  17   2.0000      -0.904869       -24.6227
  18   2.0000      -0.713313       -19.4102
  19   2.0000      -0.698173       -18.9983
  20   2.0000      -0.616872       -16.7859
  21   2.0000      -0.607334       -16.5264
  22   2.0000      -0.569874       -15.5070
  23   2.0000      -0.540140       -14.6979
  24   2.0000      -0.522153       -14.2085
  25   2.0000      -0.499745       -13.5987
  26   2.0000      -0.477057       -12.9814
  27   2.0000      -0.460623       -12.5342
  28   2.0000      -0.454443       -12.3660
  29   2.0000      -0.435786       -11.8583
  30   2.0000      -0.418884       -11.3984
  31   2.0000      -0.410507       -11.1705
  32   2.0000      -0.392128       -10.6703
  33   2.0000      -0.386158       -10.5079
  34   2.0000      -0.370122       -10.0715
  35   2.0000      -0.347938        -9.4679
  36   2.0000      -0.347024        -9.4430
  37   2.0000      -0.340347        -9.2613
  38   2.0000      -0.318085        -8.6555
  39   2.0000      -0.299566        -8.1516
  40   2.0000      -0.283301        -7.7090
  41   2.0000      -0.272058        -7.4031
  42   2.0000      -0.263499        -7.1702
  43   2.0000      -0.254844        -6.9347
  44   2.0000      -0.242946        -6.6109
  45   2.0000      -0.236930        -6.4472
  46   2.0000      -0.214885        -5.8473
  47   2.0000      -0.196183        -5.3384
  48   0.0000      -0.010657        -0.2900
  49   0.0000       0.008198         0.2231
  50   0.0000       0.048962         1.3323
  51   0.0000       0.058303         1.5865
  52   0.0000       0.066817         1.8182

MULLIKEN ATOMIC CHARGES
-----------------------
   0 C :    0.029173
   1 C :    0.027595
   2 H :    0.082488
   3 C :    0.070856
   4 H :    0.060331
   5 C :    0.004911
   6 H :    0.090899
   7 C :    0.016006
   8 H :    0.090300
   9 C :    0.184153
  10 H :    0.061426
  11 O :   -0.313603
  12 O :   -0.404596
  13 O :   -0.417927
  14 O :   -0.416552
  15 O :   -0.423831
  16 O :   -0.434731
  17 H :    0.049020
  18 H :    0.082395
  19 H :    0.322969
  20 H :    0.315163
  21 H :    0.320917
  22 H :    0.304241
  23 H :    0.298396
Sum of atomic charges:   -0.0000000

LOEWDIN ATOMIC CHARGES
----------------------
   0 C :   -0.147704
   1 C :   -0.076326
   2 H :    0.123905
   3 C :   -0.074474
   4 H :    0.111964
   5 C :   -0.071805
   6 H :    0.113823
   7 C :   -0.085614
   8 H :    0.112618
   9 C :   -0.015582
  10 H :    0.102611
  11 O :   -0.142705
  12 O :   -0.304144
  13 O :   -0.302805
  14 O :   -0.307241
  15 O :   -0.317236
  16 O :   -0.335266
  17 H :    0.082567
  18 H :    0.114267
  19 H :    0.277374
  20 H :    0.295164
  21 H :    0.298674
  22 H :    0.274480
  23 H :    0.273456

  Mayer bond orders larger than 0.100000
B(  0-C ,  1-C ) :   1.0350 B(  0-C , 16-O ) :   1.0892 B(  0-C , 17-H ) :   0.8935
B(  0-C , 18-H ) :   0.9124 B(  1-C ,  2-H ) :   0.8918 B(  1-C ,  3-C ) :   0.9737
B(  1-C , 11-O ) :   1.0028 B(  3-C ,  4-H ) :   0.8949 B(  3-C ,  5-C ) :   0.9666
B(  3-C , 15-O ) :   1.0618 B(  5-C ,  6-H ) :   0.9012 B(  5-C ,  7-C ) :   1.0103
B(  5-C , 14-O ) :   1.0276 B(  7-C ,  8-H ) :   0.8950 B(  7-C ,  9-C ) :   0.9824
B(  7-C , 13-O ) :   1.0242 B(  9-C , 10-H ) :   0.9080 B(  9-C , 11-O ) :   1.0476
B(  9-C , 12-O ) :   1.1359 B( 12-O , 19-H ) :   0.7968 B( 13-O , 20-H ) :   0.8393
B( 14-O , 21-H ) :   0.8354 B( 15-O , 22-H ) :   0.8163 B( 16-O , 23-H ) :   0.8297

Dispersion correction           -0.026302107
FINAL SINGLE POINT ENERGY      -685.699082758547

DIPOLE MOMENT
-------------

Method             : SCF
Type of density    : Electron Density
Multiplicity       :   1
Irrep              :   0
Energy             :  -685.8333863645949577 Eh
Relativity type    :
Basis              : AO
                                X                 Y                 Z
Electronic contribution:      1.451820560      -1.085909449       1.640790632
Nuclear contribution   :     -0.325421035       1.845864650      -1.958221490
                        -----------------------------------------
Total Dipole Moment    :      1.126399525       0.759955201      -0.317430858
                        -----------------------------------------
Magnitude (a.u.)       :      1.395374554
Magnitude (Debye)      :      3.546760250

Rotational constants in cm-1:             0.041667             0.028879             0.025419
Rotational constants in MHz :          1249.145813           865.776336           762.051889

                             ****ORCA TERMINATED NORMALLY****
TOTAL RUN TIME: 0 days 0 hours 2 minutes 3 seconds 313 msec
