                         Program Version 6.0.1  -  RELEASE   -
|  1> ! pbe def2-sv(p) def2/J RI DEFGRID1 loosescf d4 GCP(DFT/SV(P)) printgap
|  2> %output
|  3>     printlevel normal
|  4> end
|  5> * xyz 0 1
|  6> C -2.7927826023 -0.3918543171 -3.17545e-05
|  7> O -1.3868727294 -0.646545033 4.07937e-05
|  8> C -0.6004923024 0.406272815 0.0001689924
|  9> O -0.9206770994 1.5561877887 1.68536e-05
| 10> C 0.8838569598 -0.0703080886 3.30947e-05
| 11> F 1.7277790291 0.9570620994 0.0006693327
| 12> F 1.1505894545 -0.8176503393 1.0773485546
| 13> F 1.150677371 -0.8163665254 -1.0781765112
| 14> H -3.2714864736 -1.3667353153 -0.0162706011
| 15> H -3.0673882875 0.1906285746 -0.8805430207
| 16> H -3.0721710735 0.1627214664 0.89685868
| 17> *
| 18>
| 19>                          ****END OF INPUT****

CARTESIAN COORDINATES (ANGSTROEM)
---------------------------------
  C     -2.792783   -0.391854   -0.000032
  O     -1.386873   -0.646545    0.000041
  C     -0.600492    0.406273    0.000169
  O     -0.920677    1.556188    0.000017
  C      0.883857   -0.070308    0.000033
  F      1.727779    0.957062    0.000669
  F      1.150589   -0.817650    1.077349
  F      1.150677   -0.816367   -1.078177
  H     -3.271486   -1.366735   -0.016271
  H     -3.067388    0.190629   -0.880543
  H     -3.072171    0.162721    0.896859

 Total Charge           Charge          ....    0
 Multiplicity           Mult            ....    1
 Number of Electrons    NEL             ....   64
 Basis Dimension        Dim             ....  118

ORBITAL ENERGIES
----------------

  NO   OCC          E(Eh)            E(eV)
   0   2.0000     -24.298017      -661.1827
   1   2.0000     -24.296963      -661.1540
   2   2.0000     -24.296852      -661.1509
   3   2.0000     -18.834680      -512.5177
   4   2.0000     -18.774568      -510.8820
   5   2.0000     -10.134218      -275.7661
   6   2.0000     -10.039212      -273.1809
   7   2.0000      -9.964209      -271.1399
   8   2.0000      -1.203300       -32.7434
   9   2.0000      -1.110695       -30.2235
  10   2.0000      -1.108865       -30.1738
  11   2.0000      -1.043856       -28.4048
  12   2.0000      -0.955981       -26.0136
  13   2.0000      -0.713085       -19.4040
  14   2.0000      -0.640091       -17.4178
  15   2.0000      -0.568632       -15.4733
  16   2.0000      -0.536896       -14.6097
  17   2.0000      -0.536599       -14.6016
  18   2.0000      -0.520974       -14.1764
  19   2.0000      -0.462273       -12.5791
  20   2.0000      -0.442170       -12.0321
  21   2.0000      -0.419890       -11.4258
  22   2.0000      -0.406862       -11.0713
  23   2.0000      -0.406109       -11.0508
  24   2.0000      -0.386477       -10.5166
  25   2.0000      -0.371600       -10.1118
  26   2.0000      -0.363583        -9.8936
  27   2.0000      -0.360945        -9.8218
  28   2.0000      -0.346151        -9.4192
  29   2.0000      -0.329299        -8.9607
  30   2.0000      -0.291765        -7.9393
  31   2.0000      -0.255528        -6.9533
  32   0.0000      -0.061682        -1.6784
  33   0.0000       0.040231         1.0947
  34   0.0000       0.055849         1.5197
  35   0.0000       0.085048         2.3143
  36   0.0000       0.095702         2.6042

MULLIKEN ATOMIC CHARGES
-----------------------
   0 C :   -0.118065
   1 O :   -0.229722
   2 C :    0.050914
   3 O :   -0.157535
   4 C :    0.433023
   5 F :   -0.114784
   6 F :   -0.131590
   7 F :   -0.131630
   8 H :    0.136630
   9 H :    0.131418
  10 H :    0.131342
Sum of atomic charges:   -0.0000000

LOEWDIN ATOMIC CHARGES
----------------------
   0 C :   -0.198669
   1 O :   -0.045099
   2 C :   -0.022044
   3 O :   -0.109804
   4 C :    0.086097
   5 F :   -0.019906
   6 F :   -0.035890
   7 F :   -0.035913
   8 H :    0.128753
   9 H :    0.126237
  10 H :    0.126239

  Mayer bond orders larger than 0.100000
B(  0-C ,  1-O ) :   0.9238 B(  0-C ,  8-H ) :   0.9580 B(  0-C ,  9-H ) :   0.9502
B(  0-C , 10-H ) :   0.9509 B(  1-O ,  2-C ) :   1.2325 B(  1-O ,  3-O ) :   0.1136
B(  2-C ,  3-O ) :   2.0963 B(  2-C ,  4-C ) :   0.8297 B(  4-C ,  5-F ) :   1.2006
B(  4-C ,  6-F ) :   1.1731 B(  4-C ,  7-F ) :   1.1730

Dispersion correction           -0.007872032
FINAL SINGLE POINT ENERGY      -565.037873406142

DIPOLE MOMENT
-------------

Method             : SCF
Type of density    : Electron Density
Multiplicity       :   1
Irrep              :   0
Energy             :  -565.0982609546499589 Eh
Relativity type    :
Basis              : AO
                                X                 Y                 Z
Electronic contribution:     11.555264612      -0.160289906       0.000088577
Nuclear contribution   :    -12.596394552      -0.310059633       0.000190095
                        -----------------------------------------
Total Dipole Moment    :     -1.041129939      -0.470349540       0.000278673
                        -----------------------------------------
Magnitude (a.u.)       :      1.142444886
Magnitude (Debye)      :      2.903864126

Rotational constants in cm-1:             0.120621             0.050432             0.044065
Rotational constants in MHz :          3616.126281          1511.926778          1321.033990

                             ****ORCA TERMINATED NORMALLY****
TOTAL RUN TIME: 0 days 0 hours 0 minutes 5 seconds 824 msec
