                         Program Version 6.0.1  -  RELEASE   -
|  1> ! pbe def2-sv(p) def2/J RI DEFGRID1 loosescf d4 GCP(DFT/SV(P)) printgap
|  2> %output
|  3>     printlevel normal
|  4> end
|  5> * xyz 0 1
|  6> C -2.5676124196 -0.7218527863 -0.2884405917
|  7> C -1.1941946337 -0.2872160525 0.2418636054
|  8> H -1.2242388306 -0.2389497098 1.3424286371
|  9> C -0.742431977 1.0774124793 -0.3036814289
| 10> H -0.7523169787 1.043367179 -1.405007424
| 11> C 0.6918166675 1.345869835 0.1682352572
| 12> H 0.6766023468 1.4504222134 1.2653706643
| 13> C 1.6154627299 0.1812209116 -0.2059268886
| 14> H 1.6663419627 0.1213124347 -1.3079669577
| 15> C 1.0263667918 -1.1381625275 0.3282343447
| 16> H 1.0213050625 -1.1133304722 1.4284011053
| 17> O -0.2912005895 -1.29334038 -0.1701962241
| 18> O 1.7483193845 -2.248250133 -0.0280901607
| 19> O 2.8914487098 0.3610835227 0.3359943587
| 20> O 1.2187550333 2.5119667666 -0.4162158582
| 21> O -1.5242364318 2.1511133537 0.1655906927
| 22> O -2.9419498004 -1.9627577987 0.2318054557
| 23> H -2.521961262 -0.7567600317 -1.387694361
| 24> H -3.3410391987 -0.0143072016 0.0204689377
| 25> H 1.8313446356 -2.2822751826 -0.9895412992
| 26> H 3.1632429388 1.2657668155 0.1328998564
| 27> H 0.5770258107 3.2184932675 -0.2749061889
| 28> H -2.436133278 2.0388221694 -0.1213239194
| 29> H -2.1898186072 -2.5593555271 0.1212626592
| 30> *
| 31>
| 32>                          ****END OF INPUT****

CARTESIAN COORDINATES (ANGSTROEM)
---------------------------------
  C     -2.567612   -0.721853   -0.288441
  C     -1.194195   -0.287216    0.241864
  H     -1.224239   -0.238950    1.342429
  C     -0.742432    1.077412   -0.303681
  H     -0.752317    1.043367   -1.405007
  C      0.691817    1.345870    0.168235
  H      0.676602    1.450422    1.265371
  C      1.615463    0.181221   -0.205927
  H      1.666342    0.121312   -1.307967
  C      1.026367   -1.138163    0.328234
  H      1.021305   -1.113330    1.428401
  O     -0.291201   -1.293340   -0.170196
  O      1.748319   -2.248250   -0.028090
  O      2.891449    0.361084    0.335994
  O      1.218755    2.511967   -0.416216
  O     -1.524236    2.151113    0.165591
  O     -2.941950   -1.962758    0.231805
  H     -2.521961   -0.756760   -1.387694
  H     -3.341039   -0.014307    0.020469
  H      1.831345   -2.282275   -0.989541
  H      3.163243    1.265767    0.132900
  H      0.577026    3.218493   -0.274906
  H     -2.436133    2.038822   -0.121324
  H     -2.189819   -2.559356    0.121263

 Total Charge           Charge          ....    0
 Multiplicity           Mult            ....    1
 Number of Electrons    NEL             ....   96
 Basis Dimension        Dim             ....  192

ORBITAL ENERGIES
----------------

  NO   OCC          E(Eh)            E(eV)
   0   2.0000     -18.783256      -511.1184
   1   2.0000     -18.775773      -510.9148
   2   2.0000     -18.762839      -510.5628
   3   2.0000     -18.762162      -510.5444
   4   2.0000     -18.751132      -510.2442
   5   2.0000     -18.748722      -510.1787
   6   2.0000      -9.991762      -271.8897
   7   2.0000      -9.953481      -270.8480
   8   2.0000      -9.951507      -270.7943
   9   2.0000      -9.949140      -270.7299
  10   2.0000      -9.945912      -270.6420
  11   2.0000      -9.943952      -270.5887
  12   2.0000      -0.991918       -26.9915
  13   2.0000      -0.959696       -26.1147
  14   2.0000      -0.944200       -25.6930
  15   2.0000      -0.934696       -25.4344
  16   2.0000      -0.922828       -25.1114
  17   2.0000      -0.917372       -24.9630
  18   2.0000      -0.712725       -19.3942
  19   2.0000      -0.696236       -18.9455
  20   2.0000      -0.626515       -17.0483
  21   2.0000      -0.589850       -16.0506
  22   2.0000      -0.567949       -15.4547
  23   2.0000      -0.544456       -14.8154
  24   2.0000      -0.509418       -13.8620
  25   2.0000      -0.504856       -13.7378
  26   2.0000      -0.478653       -13.0248
  27   2.0000      -0.462405       -12.5827
  28   2.0000      -0.451210       -12.2780
  29   2.0000      -0.439148       -11.9498
  30   2.0000      -0.418253       -11.3812
  31   2.0000      -0.414822       -11.2879
  32   2.0000      -0.402879       -10.9629
  33   2.0000      -0.385628       -10.4935
  34   2.0000      -0.367774       -10.0076
  35   2.0000      -0.351181        -9.5561
  36   2.0000      -0.338503        -9.2111
  37   2.0000      -0.319848        -8.7035
  38   2.0000      -0.315006        -8.5718
  39   2.0000      -0.305093        -8.3020
  40   2.0000      -0.291189        -7.9237
  41   2.0000      -0.277865        -7.5611
  42   2.0000      -0.257474        -7.0062
  43   2.0000      -0.246690        -6.7128
  44   2.0000      -0.237615        -6.4658
  45   2.0000      -0.226533        -6.1643
  46   2.0000      -0.222824        -6.0633
  47   2.0000      -0.216912        -5.9025
  48   0.0000       0.000084         0.0023
  49   0.0000       0.025181         0.6852
  50   0.0000       0.030433         0.8281
  51   0.0000       0.040636         1.1058
  52   0.0000       0.054459         1.4819

MULLIKEN ATOMIC CHARGES
-----------------------
   0 C :    0.092042
   1 C :   -0.029941
   2 H :    0.063274
   3 C :    0.044243
   4 H :    0.054857
   5 C :    0.044064
   6 H :    0.061209
   7 C :    0.041813
   8 H :    0.041085
   9 C :    0.205620
  10 H :    0.059882
  11 O :   -0.322021
  12 O :   -0.357814
  13 O :   -0.404475
  14 O :   -0.423511
  15 O :   -0.418931
  16 O :   -0.428701
  17 H :    0.069238
  18 H :    0.069709
  19 H :    0.302514
  20 H :    0.310125
  21 H :    0.311966
  22 H :    0.310319
  23 H :    0.303435
Sum of atomic charges:   -0.0000000

LOEWDIN ATOMIC CHARGES
----------------------
   0 C :   -0.128391
   1 C :   -0.083559
   2 H :    0.108150
   3 C :   -0.081223
   4 H :    0.103047
   5 C :   -0.078318
   6 H :    0.107506
   7 C :   -0.087481
   8 H :    0.098307
   9 C :    0.007893
  10 H :    0.104311
  11 O :   -0.159880
  12 O :   -0.272134
  13 O :   -0.312109
  14 O :   -0.324093
  15 O :   -0.318229
  16 O :   -0.329938
  17 H :    0.098841
  18 H :    0.107698
  19 H :    0.288840
  20 H :    0.289056
  21 H :    0.290215
  22 H :    0.288966
  23 H :    0.282527

  Mayer bond orders larger than 0.100000
B(  0-C ,  1-C ) :   1.0463 B(  0-C , 16-O ) :   1.0984 B(  0-C , 17-H ) :   0.9008
B(  0-C , 18-H ) :   0.9120 B(  1-C ,  2-H ) :   0.8668 B(  1-C ,  3-C ) :   0.9897
B(  1-C , 11-O ) :   0.9754 B(  3-C ,  4-H ) :   0.8692 B(  3-C ,  5-C ) :   1.0087
B(  3-C , 15-O ) :   1.0600 B(  5-C ,  6-H ) :   0.8754 B(  5-C ,  7-C ) :   1.0242
B(  5-C , 14-O ) :   1.0764 B(  7-C ,  8-H ) :   0.8562 B(  7-C ,  9-C ) :   0.9957
B(  7-C , 13-O ) :   1.0961 B(  9-C , 10-H ) :   0.8792 B(  9-C , 11-O ) :   0.9748
B(  9-C , 12-O ) :   1.1783 B( 12-O , 19-H ) :   0.8437 B( 13-O , 20-H ) :   0.8364
B( 14-O , 21-H ) :   0.8352 B( 15-O , 22-H ) :   0.8405 B( 16-O , 23-H ) :   0.8368

Dispersion correction           -0.023700723
FINAL SINGLE POINT ENERGY      -685.700936404113

DIPOLE MOMENT
-------------

Method             : SCF
Type of density    : Electron Density
Multiplicity       :   1
Irrep              :   0
Energy             :  -685.8313952280817603 Eh
Relativity type    :
Basis              : AO
                                X                 Y                 Z
Electronic contribution:      2.823804942      -1.167960636       0.368851069
Nuclear contribution   :     -3.295095065       2.031723195      -1.101159299
                        -----------------------------------------
Total Dipole Moment    :     -0.471290124       0.863762559      -0.732308231
                        -----------------------------------------
Magnitude (a.u.)       :      1.226570619
Magnitude (Debye)      :      3.117694746

Rotational constants in cm-1:             0.038854             0.026514             0.016464
Rotational constants in MHz :          1164.808521           794.877018           493.572489

                             ****ORCA TERMINATED NORMALLY****
TOTAL RUN TIME: 0 days 0 hours 0 minutes 20 seconds 766 msec
