                         Program Version 6.0.1  -  RELEASE   -
|  1> ! r2scan-3c def2/J RI DEFGRID2 scfconv6 printgap
|  2> %output
|  3>     printlevel normal
|  4> end
|  5> * xyz 0 1
|  6> C 1.328898776 1.2337382227 0.211220931
|  7> C 0.4943314556 0.1169697951 -0.418734329
|  8> C 0.9119189081 -1.2612657271 0.0820713971
|  9> C -0.9698856017 0.3719263288 -0.1690289577
| 10> O -1.7657324189 -0.427886387 0.2323360629
| 11> H 2.3808151658 1.090847087 -0.0228285325
| 12> H 1.2136126333 1.2254553192 1.2927950557
| 13> H 1.0209153448 2.207552407 -0.1631412315
| 14> H 0.6219910592 0.1640538277 -1.5088084996
| 15> H 0.807848128 -1.3128287942 1.1632052024
| 16> H 1.9463643502 -1.4668229391 -0.1809969156
| 17> H 0.2769438428 -2.0271121716 -0.3556568671
| 18> H -1.275655016 1.4130580341 -0.4035015608
| 19> *
| 20>
| 21>                          ****END OF INPUT****

CARTESIAN COORDINATES (ANGSTROEM)
---------------------------------
  C      1.328899    1.233738    0.211221
  C      0.494331    0.116970   -0.418734
  C      0.911919   -1.261266    0.082071
  C     -0.969886    0.371926   -0.169029
  O     -1.765732   -0.427886    0.232336
  H      2.380815    1.090847   -0.022829
  H      1.213613    1.225455    1.292795
  H      1.020915    2.207552   -0.163141
  H      0.621991    0.164054   -1.508808
  H      0.807848   -1.312829    1.163205
  H      1.946364   -1.466823   -0.180997
  H      0.276944   -2.027112   -0.355657
  H     -1.275655    1.413058   -0.403502

 Total Charge           Charge          ....    0
 Multiplicity           Mult            ....    1
 Number of Electrons    NEL             ....   40
 Basis Dimension        Dim             ....  140

ORBITAL ENERGIES
----------------

  NO   OCC          E(Eh)            E(eV)
   0   2.0000     -18.953327      -515.7463
   1   2.0000     -10.117836      -275.3203
   2   2.0000     -10.052817      -273.5511
   3   2.0000     -10.037175      -273.1254
   4   2.0000     -10.023133      -272.7433
   5   2.0000      -1.020826       -27.7781
   6   2.0000      -0.781424       -21.2636
   7   2.0000      -0.664858       -18.0917
   8   2.0000      -0.619822       -16.8662
   9   2.0000      -0.519857       -14.1460
  10   2.0000      -0.463322       -12.6076
  11   2.0000      -0.429166       -11.6782
  12   2.0000      -0.420759       -11.4494
  13   2.0000      -0.379835       -10.3358
  14   2.0000      -0.365549        -9.9471
  15   2.0000      -0.358569        -9.7572
  16   2.0000      -0.344852        -9.3839
  17   2.0000      -0.320236        -8.7141
  18   2.0000      -0.318360        -8.6630
  19   2.0000      -0.222310        -6.0494
  20   0.0000      -0.057352        -1.5606
  21   0.0000       0.085397         2.3238
  22   0.0000       0.111911         3.0453
  23   0.0000       0.120006         3.2655
  24   0.0000       0.130230         3.5437

MULLIKEN ATOMIC CHARGES
-----------------------
   0 C :   -0.471891
   1 C :    0.039591
   2 C :   -0.499102
   3 C :    0.100492
   4 O :   -0.337787
   5 H :    0.154296
   6 H :    0.153308
   7 H :    0.147179
   8 H :    0.150066
   9 H :    0.154580
  10 H :    0.144781
  11 H :    0.163330
  12 H :    0.101157
Sum of atomic charges:   -0.0000000

LOEWDIN ATOMIC CHARGES
----------------------
   0 C :   -0.402677
   1 C :   -0.242087
   2 C :   -0.401137
   3 C :    0.204205
   4 O :   -0.443314
   5 H :    0.158965
   6 H :    0.158789
   7 H :    0.155998
   8 H :    0.177270
   9 H :    0.161545
  10 H :    0.152931
  11 H :    0.166770
  12 H :    0.152744

  Mayer bond orders larger than 0.100000
B(  0-C ,  1-C ) :   0.8929 B(  0-C ,  5-H ) :   0.9677 B(  0-C ,  6-H ) :   0.9776
B(  0-C ,  7-H ) :   0.9679 B(  1-C ,  2-C ) :   0.9158 B(  1-C ,  3-C ) :   0.8954
B(  1-C ,  4-O ) :  -0.1069 B(  1-C ,  8-H ) :   0.9115 B(  2-C ,  9-H ) :   0.9793
B(  2-C , 10-H ) :   0.9736 B(  2-C , 11-H ) :   0.9657 B(  3-C ,  4-O ) :   1.9482
B(  3-C , 12-H ) :   0.9693

Dispersion correction           -0.002784377
FINAL SINGLE POINT ENERGY      -232.394366815024

DIPOLE MOMENT
-------------

Method             : SCF
Type of density    : Electron Density
Multiplicity       :   1
Irrep              :   0
Energy             :  -232.3977183000975231 Eh
Relativity type    :
Basis              : AO
                                X                 Y                 Z
Electronic contribution:     -5.649687010      -0.670296778      -0.174274541
Nuclear contribution   :      6.534252824       1.207831030      -0.164423402
                        -----------------------------------------
Total Dipole Moment    :      0.884565813       0.537534252      -0.338697943
                        -----------------------------------------
Magnitude (a.u.)       :      1.089089549
Magnitude (Debye)      :      2.768245638

Rotational constants in cm-1:             0.257052             0.136351             0.099136
Rotational constants in MHz :          7706.236012          4087.701736          2972.025784

                             ****ORCA TERMINATED NORMALLY****
TOTAL RUN TIME: 0 days 0 hours 0 minutes 18 seconds 792 msec
