                         Program Version 6.0.0  -   RELEASE  -
|  1> ! r2SCAN-3c DEF2-TZVP FREQ
|  2> * xyzfile 0 1 censo.xyz
|  3>
|  4>                          ****END OF INPUT****

CARTESIAN COORDINATES (ANGSTROEM)
---------------------------------
  C     -2.744352   -0.257145   -0.007945
  C     -2.356830    1.097751    0.017012
  C     -1.023163    1.438882    0.025548
  C     -0.013692    0.445890    0.006215
  C     -0.407309   -0.932567   -0.004212
  C     -1.789578   -1.245637   -0.015703
  C      0.575699   -1.951617    0.000793
  C      1.908461   -1.611161    0.012910
  C      2.313323   -0.266315    0.010668
  C      1.384739    0.765096    0.005284
  N      1.805470    2.085763    0.064077
  H     -3.798283   -0.516554   -0.016403
  H     -3.113391    1.875550    0.033268
  H     -0.756792    2.489834    0.056501
  H     -2.081183   -2.292182   -0.028128
  H      0.260767   -2.990431   -0.005509
  H      2.668301   -2.386882    0.015036
  H      3.371906   -0.021840    0.008858
  H      2.772061    2.216926   -0.198657
  H      1.203347    2.761100   -0.382849

 Total Charge           Charge          ....    0
 Multiplicity           Mult            ....    1
 Number of Electrons    NEL             ....   76
 Basis Dimension        Dim             ....  395

ORBITAL ENERGIES
----------------

  NO   OCC          E(Eh)            E(eV)
   0   2.0000     -14.173031      -385.6678
   1   2.0000     -10.078152      -274.2405
   2   2.0000     -10.043875      -273.3077
   3   2.0000     -10.043264      -273.2911
   4   2.0000     -10.038831      -273.1705
   5   2.0000     -10.035646      -273.0838
   6   2.0000     -10.035163      -273.0707
   7   2.0000     -10.034451      -273.0513
   8   2.0000     -10.032926      -273.0098
   9   2.0000     -10.027352      -272.8581
  10   2.0000     -10.022984      -272.7393
  11   2.0000      -0.894564       -24.3423
  12   2.0000      -0.827319       -22.5125
  13   2.0000      -0.780030       -21.2257
  14   2.0000      -0.727379       -19.7930
  15   2.0000      -0.706609       -19.2278
  16   2.0000      -0.676706       -18.4141
  17   2.0000      -0.592114       -16.1122
  18   2.0000      -0.584378       -15.9017
  19   2.0000      -0.558061       -15.1856
  20   2.0000      -0.501120       -13.6362
  21   2.0000      -0.490522       -13.3478
  22   2.0000      -0.467580       -12.7235
  23   2.0000      -0.448148       -12.1947
  24   2.0000      -0.432038       -11.7563
  25   2.0000      -0.401125       -10.9152
  26   2.0000      -0.394735       -10.7413
  27   2.0000      -0.378244       -10.2925
  28   2.0000      -0.373596       -10.1661
  29   2.0000      -0.363954        -9.9037
  30   2.0000      -0.342533        -9.3208
  31   2.0000      -0.322746        -8.7824
  32   2.0000      -0.305426        -8.3111
  33   2.0000      -0.302741        -8.2380
  34   2.0000      -0.288924        -7.8620
  35   2.0000      -0.238234        -6.4827
  36   2.0000      -0.228141        -6.2080
  37   2.0000      -0.177671        -4.8347
  38   0.0000      -0.060720        -1.6523
  39   0.0000      -0.035900        -0.9769
  40   0.0000       0.009583         0.2608
  41   0.0000       0.034583         0.9410
  42   0.0000       0.063831         1.7369

MULLIKEN ATOMIC CHARGES
-----------------------
   0 C :   -0.111880
   1 C :   -0.096855
   2 C :   -0.252039
   3 C :    0.060149
   4 C :    0.194820
   5 C :   -0.170715
   6 C :   -0.294627
   7 C :   -0.037716
   8 C :   -0.284782
   9 C :    0.300599
  10 N :   -0.426420
  11 H :    0.107067
  12 H :    0.106888
  13 H :    0.076761
  14 H :    0.098359
  15 H :    0.092100
  16 H :    0.104418
  17 H :    0.081416
  18 H :    0.224883
  19 H :    0.227574
Sum of atomic charges:    0.0000000

LOEWDIN ATOMIC CHARGES
----------------------
   0 C :   -0.143935
   1 C :   -0.145932
   2 C :   -0.111674
   3 C :   -0.073368
   4 C :   -0.093912
   5 C :   -0.099359
   6 C :   -0.129060
   7 C :   -0.146807
   8 C :   -0.144974
   9 C :   -0.206118
  10 N :   -0.031011
  11 H :    0.142747
  12 H :    0.142329
  13 H :    0.140163
  14 H :    0.146554
  15 H :    0.143620
  16 H :    0.143556
  17 H :    0.139923
  18 H :    0.166110
  19 H :    0.161150

  Mayer bond orders larger than 0.100000
B(  0-C ,  1-C ) :   1.2703 B(  0-C ,  5-C ) :   1.5110 B(  0-C , 11-H ) :   0.9708
B(  1-C ,  2-C ) :   1.5537 B(  1-C , 12-H ) :   0.9689 B(  2-C ,  3-C ) :   1.1664
B(  2-C , 13-H ) :   0.9762 B(  3-C ,  4-C ) :   1.2179 B(  3-C ,  9-C ) :   1.1757
B(  4-C ,  5-C ) :   1.2124 B(  4-C ,  6-C ) :   1.1880 B(  5-C , 14-H ) :   0.9826
B(  6-C ,  7-C ) :   1.5061 B(  6-C , 15-H ) :   0.9964 B(  7-C ,  8-C ) :   1.3027
B(  7-C , 16-H ) :   0.9705 B(  8-C ,  9-C ) :   1.4252 B(  8-C , 17-H ) :   0.9809
B(  9-C , 10-N ) :   1.0821 B( 10-N , 18-H ) :   0.9229 B( 10-N , 19-H ) :   0.9127

Dispersion correction           -0.007963825
FINAL SINGLE POINT ENERGY      -441.168402885420

DIPOLE MOMENT
-------------

Method             : SCF
Type of density    : Electron Density
Multiplicity       :   1
Irrep              :   0
Energy             :  -441.1672760394519628 Eh
Relativity type    :
Basis              : AO
                                X                 Y                 Z
Electronic contribution:     -0.242061875      -0.563375067       0.182616216
Nuclear contribution   :      0.506230689       1.069116979      -0.543509340
                        -----------------------------------------
Total Dipole Moment    :      0.264168814       0.505741912      -0.360893124
                        -----------------------------------------
Magnitude (a.u.)       :      0.675132499
Magnitude (Debye)      :      1.716050434

VIBRATIONAL FREQUENCIES
-----------------------

Scaling factor for frequencies =  1.000000000  (already applied!)

     0:       0.00 cm**-1
     1:       0.00 cm**-1
     2:       0.00 cm**-1
     3:       0.00 cm**-1
     4:       0.00 cm**-1
     5:       0.00 cm**-1
     6:     126.31 cm**-1
     7:     174.89 cm**-1
     8:     253.99 cm**-1
     9:     300.86 cm**-1
    10:     368.75 cm**-1
    11:     425.45 cm**-1
    12:     465.27 cm**-1
    13:     475.24 cm**-1
    14:     488.81 cm**-1
    15:     524.40 cm**-1
    16:     568.77 cm**-1
    17:     588.69 cm**-1
    18:     623.61 cm**-1
    19:     659.34 cm**-1
    20:     724.37 cm**-1
    21:     728.42 cm**-1
    22:     775.10 cm**-1
    23:     797.75 cm**-1
    24:     809.05 cm**-1
    25:     848.52 cm**-1
    26:     869.22 cm**-1
    27:     896.74 cm**-1
    28:     925.83 cm**-1
    29:     938.23 cm**-1
    30:     960.72 cm**-1
    31:    1038.38 cm**-1
    32:    1052.70 cm**-1
    33:    1113.63 cm**-1
    34:    1148.76 cm**-1
    35:    1166.72 cm**-1
    36:    1189.66 cm**-1
    37:    1202.73 cm**-1
    38:    1246.45 cm**-1
    39:    1277.03 cm**-1
    40:    1323.94 cm**-1
    41:    1387.11 cm**-1
    42:    1397.28 cm**-1
    43:    1437.54 cm**-1
    44:    1483.23 cm**-1
    45:    1489.20 cm**-1
    46:    1548.89 cm**-1
    47:    1609.52 cm**-1
    48:    1620.94 cm**-1
    49:    1649.07 cm**-1
    50:    1667.65 cm**-1
    51:    3148.88 cm**-1
    52:    3152.34 cm**-1
    53:    3160.66 cm**-1
    54:    3161.98 cm**-1
    55:    3172.40 cm**-1
    56:    3175.84 cm**-1
    57:    3183.73 cm**-1
    58:    3536.01 cm**-1
    59:    3637.35 cm**-1

IR SPECTRUM
-----------

 Mode   freq       eps      Int      T**2         TX        TY        TZ
       cm**-1   L/(mol*cm) km/mol    a.u.
----------------------------------------------------------------------------
  6:    126.31   0.000195    0.99  0.000483  (-0.001757  0.016723  0.014147)
  7:    174.89   0.000530    2.68  0.000945  ( 0.009047  0.001783  0.029323)
  8:    253.99   0.001268    6.41  0.001557  ( 0.009031  0.010565  0.036937)
  9:    300.86   0.000084    0.43  0.000088  (-0.004681  0.007556 -0.002918)
 10:    368.75   0.004397   22.22  0.003721  ( 0.042616 -0.043506 -0.003502)
 11:    425.45   0.003190   16.12  0.002340  (-0.003206  0.019970  0.043944)
 12:    465.27   0.000653    3.30  0.000438  ( 0.015002  0.014589 -0.000594)
 13:    475.24   0.000048    0.24  0.000032  ( 0.002343  0.005103  0.000526)
 14:    488.81   0.000448    2.26  0.000286  ( 0.000829 -0.014430 -0.008775)
 15:    524.40   0.000217    1.10  0.000129  ( 0.000018 -0.009812 -0.005756)
 16:    568.77   0.006244   31.55  0.003426  (-0.023129 -0.052339 -0.012303)
 17:    588.69   0.000239    1.21  0.000127  ( 0.004830 -0.008278 -0.005917)
 18:    623.61   0.036266  183.27  0.018148  (-0.047155 -0.103692 -0.071918)
 19:    659.34   0.016539   83.58  0.007828  ( 0.027386  0.065418  0.052897)
 20:    724.37   0.000470    2.37  0.000202  ( 0.007241 -0.006595 -0.010314)
 21:    728.42   0.000465    2.35  0.000199  (-0.002254 -0.012424 -0.006311)
 22:    775.10   0.022434  113.37  0.009032  (-0.003303 -0.000211 -0.094979)
 23:    797.75   0.000936    4.73  0.000366  ( 0.006348  0.010665  0.014557)
 24:    809.05   0.000264    1.33  0.000102  ( 0.006580  0.001120 -0.007562)
 25:    848.52   0.001277    6.45  0.000470  (-0.006906 -0.011969 -0.016691)
 26:    869.22   0.000620    3.13  0.000223  (-0.000803  0.003795  0.014411)
 27:    896.74   0.000292    1.48  0.000102  (-0.007430 -0.002839  0.006193)
 28:    925.83   0.000105    0.53  0.000035  ( 0.000967 -0.002586  0.005280)
 29:    938.23   0.000002    0.01  0.000001  ( 0.000574  0.000232  0.000490)
 30:    960.72   0.000044    0.22  0.000014  ( 0.000350 -0.000815 -0.003670)
 31:   1038.38   0.001882    9.51  0.000566  ( 0.023764 -0.000529  0.000822)
 32:   1052.70   0.000404    2.04  0.000120  (-0.009020  0.006189  0.000472)
 33:   1113.63   0.001644    8.31  0.000461  ( 0.002391 -0.021289  0.001367)
 34:   1148.76   0.001342    6.78  0.000365  ( 0.015425  0.010823 -0.003088)
 35:   1166.72   0.000310    1.57  0.000083  ( 0.003319 -0.008472 -0.000220)
 36:   1189.66   0.000301    1.52  0.000079  (-0.005765 -0.006756  0.000231)
 37:   1202.73   0.000479    2.42  0.000124  (-0.006645 -0.008916 -0.000740)
 38:   1246.45   0.000222    1.12  0.000056  (-0.004600 -0.005780  0.000988)
 39:   1277.03   0.000625    3.16  0.000153  ( 0.005152  0.011221 -0.000555)
 40:   1323.94   0.006632   33.51  0.001563  (-0.014200 -0.036889 -0.000830)
 41:   1387.11   0.000450    2.27  0.000101  (-0.009217  0.004012  0.000415)
 42:   1397.28   0.003444   17.41  0.000769  (-0.027395 -0.004299 -0.000538)
 43:   1437.54   0.007675   38.79  0.001666  ( 0.022906  0.033783  0.000439)
 44:   1483.23   0.002481   12.54  0.000522  ( 0.016208  0.015997 -0.001866)
 45:   1489.20   0.004375   22.11  0.000917  (-0.014512 -0.026575 -0.000214)
 46:   1548.89   0.004546   22.98  0.000916  ( 0.002338  0.030172  0.000447)
 47:   1609.52   0.006867   34.70  0.001331  ( 0.013466  0.033676  0.003991)
 48:   1620.94   0.001882    9.51  0.000362  ( 0.006214 -0.017703 -0.003228)
 49:   1649.07   0.001031    5.21  0.000195  ( 0.012993 -0.004579 -0.002289)
 50:   1667.65   0.025295  127.83  0.004733  (-0.026952 -0.060406  0.018922)
 51:   3148.88   0.002417   12.21  0.000240  ( 0.009222  0.012429 -0.000121)
 52:   3152.34   0.000369    1.87  0.000037  (-0.000762  0.005997 -0.000071)
 53:   3160.66   0.002334   11.79  0.000230  (-0.014445 -0.004664  0.000035)
 54:   3161.98   0.000623    3.15  0.000061  (-0.001902 -0.007596 -0.000423)
 55:   3172.40   0.005611   28.36  0.000552  ( 0.015499  0.017657  0.000031)
 56:   3175.84   0.004850   24.51  0.000477  ( 0.011745 -0.018403  0.000020)
 57:   3183.73   0.003254   16.44  0.000319  (-0.014203  0.010825 -0.000091)
 58:   3536.01   0.002351   11.88  0.000207  (-0.006709 -0.011683  0.005096)
 59:   3637.35   0.002759   13.94  0.000237  (-0.015090  0.002685 -0.001322)

--------------------------
THERMOCHEMISTRY AT 298.15K
--------------------------

Temperature         ...   298.15 K
Pressure            ...     1.00 atm
Total Mass          ...   143.19 AMU
Quasi RRHO          ...     True
Cut-Off Frequency   ...     1.00 cm^-1

Throughout the following assumptions are being made:
  (1) The electronic state is orbitally nondegenerate
  (2) There are no thermally accessible electronically excited states
  (3) Hindered rotations indicated by low frequency modes are not
      treated as such but are treated as vibrations and this may
      cause some error
  (4) All equations used are the standard statistical mechanics
      equations for an ideal gas
  (5) All vibrations are strictly harmonic

freq.     126.31  E(vib)   ...       0.43
freq.     174.89  E(vib)   ...       0.38
freq.     253.99  E(vib)   ...       0.30
freq.     300.86  E(vib)   ...       0.26
freq.     368.75  E(vib)   ...       0.21
freq.     425.45  E(vib)   ...       0.18
freq.     465.27  E(vib)   ...       0.16
freq.     475.24  E(vib)   ...       0.15
freq.     488.81  E(vib)   ...       0.15
freq.     524.40  E(vib)   ...       0.13
freq.     568.77  E(vib)   ...       0.11
freq.     588.69  E(vib)   ...       0.10
freq.     623.61  E(vib)   ...       0.09
freq.     659.34  E(vib)   ...       0.08
freq.     724.37  E(vib)   ...       0.06
freq.     728.42  E(vib)   ...       0.06
freq.     775.10  E(vib)   ...       0.05
freq.     797.75  E(vib)   ...       0.05
freq.     809.05  E(vib)   ...       0.05
freq.     848.52  E(vib)   ...       0.04
freq.     869.22  E(vib)   ...       0.04
freq.     896.74  E(vib)   ...       0.03
freq.     925.83  E(vib)   ...       0.03
freq.     938.23  E(vib)   ...       0.03
freq.     960.72  E(vib)   ...       0.03
freq.    1038.38  E(vib)   ...       0.02
freq.    1052.70  E(vib)   ...       0.02
freq.    1113.63  E(vib)   ...       0.01
freq.    1148.76  E(vib)   ...       0.01
freq.    1166.72  E(vib)   ...       0.01
freq.    1189.66  E(vib)   ...       0.01
freq.    1202.73  E(vib)   ...       0.01
freq.    1246.45  E(vib)   ...       0.01
freq.    1277.03  E(vib)   ...       0.01
freq.    1323.94  E(vib)   ...       0.01
freq.    1387.11  E(vib)   ...       0.00
freq.    1397.28  E(vib)   ...       0.00
freq.    1437.54  E(vib)   ...       0.00
freq.    1483.23  E(vib)   ...       0.00
freq.    1489.20  E(vib)   ...       0.00
freq.    1548.89  E(vib)   ...       0.00
freq.    1609.52  E(vib)   ...       0.00
freq.    1620.94  E(vib)   ...       0.00
freq.    1649.07  E(vib)   ...       0.00
freq.    1667.65  E(vib)   ...       0.00
freq.    3148.88  E(vib)   ...       0.00
freq.    3152.34  E(vib)   ...       0.00
freq.    3160.66  E(vib)   ...       0.00
freq.    3161.98  E(vib)   ...       0.00
freq.    3172.40  E(vib)   ...       0.00
freq.    3175.84  E(vib)   ...       0.00
freq.    3183.73  E(vib)   ...       0.00
freq.    3536.01  E(vib)   ...       0.00
freq.    3637.35  E(vib)   ...       0.00

------------
INNER ENERGY
------------

The inner energy is: U= E(el) + E(ZPE) + E(vib) + E(rot) + E(trans)
    E(el)   - is the total energy from the electronic structure calculation
              = E(kin-el) + E(nuc-el) + E(el-el) + E(nuc-nuc)
    E(ZPE)  - the the zero temperature vibrational energy from the frequency calculation
    E(vib)  - the the finite temperature correction to E(ZPE) due to population
              of excited vibrational states
    E(rot)  - is the rotational thermal energy
    E(trans)- is the translational thermal energy

Summary of contributions to the inner energy U:
Electronic energy                ...   -441.16840289 Eh
Zero point energy                ...      0.16334001 Eh     102.50 kcal/mol
Thermal vibrational correction   ...      0.00537640 Eh       3.37 kcal/mol
Thermal rotational correction    ...      0.00141627 Eh       0.89 kcal/mol
Thermal translational correction ...      0.00141627 Eh       0.89 kcal/mol
-----------------------------------------------------------------------
Total thermal energy                   -440.99685393 Eh

Summary of corrections to the electronic energy:
(perhaps to be used in another calculation)
Total thermal correction                  0.00820894 Eh       5.15 kcal/mol
Non-thermal (ZPE) correction              0.16334001 Eh     102.50 kcal/mol
-----------------------------------------------------------------------
Total correction                          0.17154896 Eh     107.65 kcal/mol

--------
ENTHALPY
--------

The enthalpy is H = U + kB*T
                kB is Boltzmann's constant
Total thermal energy              ...   -440.99685393 Eh
Thermal Enthalpy correction       ...      0.00094421 Eh       0.59 kcal/mol
-----------------------------------------------------------------------
Total Enthalpy                    ...   -440.99590972 Eh

Note: Only C1 symmetry has been detected, increase convergence thresholds
      if your molecule has a higher symmetry. Symmetry factor of 1.0 is
      used for the rotational entropy correction.

Note: Rotational entropy computed according to Herzberg
Infrared and Raman Spectra, Chapter V,1, Van Nostrand Reinhold, 1945
Point Group:  C1, Symmetry Number:   1
Rotational constants in cm-1:     0.064746     0.037601     0.023804

Vibrational entropy computed according to the QRRHO of S. Grimme
Chem.Eur.J. 2012 18 9955 using a reference frequency of 100.0 cm-1

-------
ENTROPY
-------

The entropy contributions are T*S = T*(S(el)+S(vib)+S(rot)+S(trans))
     S(el)   - electronic entropy
     S(vib)  - vibrational entropy
     S(rot)  - rotational entropy
     S(trans)- translational entropy
The entropies will be listed as multiplied by the temperature to get
units of energy

Electronic entropy                ...      0.00000000 Eh      0.00 kcal/mol
Vibrational entropy               ...      0.00830802 Eh      5.21 kcal/mol
Rotational entropy                ...      0.01411649 Eh      8.86 kcal/mol
Translational entropy             ...      0.01937968 Eh     12.16 kcal/mol
-----------------------------------------------------------------------
Final entropy term                ...      0.04180418 Eh     26.23 kcal/mol

In case the symmetry of your molecule has not been determined correctly
or in case you have a reason to use a different symmetry number we print
out the resulting rotational entropy values for sn=1,12:

 non-linear molecules -----------------------------------
|  sn= 1 | S(rot)=       0.01411649 Eh      8.86 kcal/mol|
|  sn= 2 | S(rot)=       0.01346203 Eh      8.45 kcal/mol|
|  sn= 3 | S(rot)=       0.01307920 Eh      8.21 kcal/mol|
|  sn= 4 | S(rot)=       0.01280758 Eh      8.04 kcal/mol|
|  sn= 5 | S(rot)=       0.01259689 Eh      7.90 kcal/mol|
|  sn= 6 | S(rot)=       0.01242474 Eh      7.80 kcal/mol|

                             ****ORCA TERMINATED NORMALLY****
TOTAL RUN TIME: 0 days 0 hours 25 minutes 26 seconds 894 msec
