                         Program Version 6.0.0  -   RELEASE  -
|  1> ! r2SCAN-3c DEF2-TZVP FREQ
|  2> * xyzfile 0 1 vacuum_censo.xyz
|  3>
|  4>                          ****END OF INPUT****

CARTESIAN COORDINATES (ANGSTROEM)
---------------------------------
  C     -2.741994   -0.255849   -0.018610
  C     -2.355113    1.097539    0.029681
  C     -1.022276    1.436953    0.045227
  C     -0.013717    0.444769    0.008180
  C     -0.406366   -0.931921   -0.011645
  C     -1.787409   -1.243083   -0.032351
  C      0.578777   -1.947445    0.000185
  C      1.909191   -1.608583    0.027499
  C      2.311816   -0.262800    0.019575
  C      1.381786    0.762147   -0.000345
  N      1.792093    2.095490    0.034583
  H     -3.795749   -0.515146   -0.033561
  H     -3.111982    1.874360    0.065446
  H     -0.752212    2.485271    0.117464
  H     -2.079975   -2.289092   -0.054592
  H      0.266459   -2.986767   -0.009911
  H      2.668782   -2.383866    0.040520
  H      3.371223   -0.020783    0.021645
  H      1.209346    2.732413   -0.486590
  H      2.764054    2.222545   -0.203834

 Total Charge           Charge          ....    0
 Multiplicity           Mult            ....    1
 Number of Electrons    NEL             ....   76
 Basis Dimension        Dim             ....  395

ORBITAL ENERGIES
----------------

  NO   OCC          E(Eh)            E(eV)
   0   2.0000     -14.171594      -385.6287
   1   2.0000     -10.077402      -274.2201
   2   2.0000     -10.043356      -273.2936
   3   2.0000     -10.043040      -273.2850
   4   2.0000     -10.038035      -273.1488
   5   2.0000     -10.035497      -273.0798
   6   2.0000     -10.035078      -273.0684
   7   2.0000     -10.034399      -273.0499
   8   2.0000     -10.033082      -273.0140
   9   2.0000     -10.027859      -272.8719
  10   2.0000     -10.023480      -272.7528
  11   2.0000      -0.892831       -24.2952
  12   2.0000      -0.828033       -22.5319
  13   2.0000      -0.781073       -21.2541
  14   2.0000      -0.727744       -19.8029
  15   2.0000      -0.707353       -19.2481
  16   2.0000      -0.677269       -18.4294
  17   2.0000      -0.592473       -16.1220
  18   2.0000      -0.584551       -15.9064
  19   2.0000      -0.557774       -15.1778
  20   2.0000      -0.499591       -13.5946
  21   2.0000      -0.489685       -13.3250
  22   2.0000      -0.467931       -12.7331
  23   2.0000      -0.448305       -12.1990
  24   2.0000      -0.431113       -11.7312
  25   2.0000      -0.401566       -10.9272
  26   2.0000      -0.394383       -10.7317
  27   2.0000      -0.379440       -10.3251
  28   2.0000      -0.373606       -10.1663
  29   2.0000      -0.364327        -9.9139
  30   2.0000      -0.342583        -9.3222
  31   2.0000      -0.322075        -8.7641
  32   2.0000      -0.305457        -8.3119
  33   2.0000      -0.303480        -8.2581
  34   2.0000      -0.288634        -7.8541
  35   2.0000      -0.238350        -6.4858
  36   2.0000      -0.228677        -6.2226
  37   2.0000      -0.179111        -4.8739
  38   0.0000      -0.061172        -1.6646
  39   0.0000      -0.036167        -0.9841
  40   0.0000       0.009572         0.2605
  41   0.0000       0.036064         0.9814
  42   0.0000       0.063997         1.7414

MULLIKEN ATOMIC CHARGES
-----------------------
   0 C :   -0.109375
   1 C :   -0.097037
   2 C :   -0.251741
   3 C :    0.040332
   4 C :    0.195121
   5 C :   -0.172124
   6 C :   -0.292350
   7 C :   -0.037849
   8 C :   -0.282003
   9 C :    0.307277
  10 N :   -0.430194
  11 H :    0.107118
  12 H :    0.107051
  13 H :    0.088042
  14 H :    0.098159
  15 H :    0.092076
  16 H :    0.104821
  17 H :    0.082066
  18 H :    0.228827
  19 H :    0.221781
Sum of atomic charges:    0.0000000

LOEWDIN ATOMIC CHARGES
----------------------
   0 C :   -0.143705
   1 C :   -0.145493
   2 C :   -0.111021
   3 C :   -0.074125
   4 C :   -0.094269
   5 C :   -0.099357
   6 C :   -0.127639
   7 C :   -0.146335
   8 C :   -0.144212
   9 C :   -0.203638
  10 N :   -0.037340
  11 H :    0.142863
  12 H :    0.142538
  13 H :    0.141986
  14 H :    0.146652
  15 H :    0.143913
  16 H :    0.143644
  17 H :    0.140440
  18 H :    0.161230
  19 H :    0.163866

  Mayer bond orders larger than 0.100000
B(  0-C ,  1-C ) :   1.2721 B(  0-C ,  5-C ) :   1.5123 B(  0-C , 11-H ) :   0.9714
B(  1-C ,  2-C ) :   1.5530 B(  1-C , 12-H ) :   0.9691 B(  2-C ,  3-C ) :   1.1838
B(  2-C , 13-H ) :   0.9652 B(  3-C ,  4-C ) :   1.2200 B(  3-C ,  9-C ) :   1.1825
B(  4-C ,  5-C ) :   1.2128 B(  4-C ,  6-C ) :   1.1860 B(  5-C , 14-H ) :   0.9826
B(  6-C ,  7-C ) :   1.5120 B(  6-C , 15-H ) :   0.9956 B(  7-C ,  8-C ) :   1.2988
B(  7-C , 16-H ) :   0.9705 B(  8-C ,  9-C ) :   1.4399 B(  8-C , 17-H ) :   0.9801
B(  9-C , 10-N ) :   1.0577 B( 10-N , 18-H ) :   0.9132 B( 10-N , 19-H ) :   0.9246

Dispersion correction           -0.007970480
FINAL SINGLE POINT ENERGY      -441.168551353602

DIPOLE MOMENT
-------------

Method             : SCF
Type of density    : Electron Density
Multiplicity       :   1
Irrep              :   0
Energy             :  -441.1674041918691955 Eh
Relativity type    :
Basis              : AO
                                X                 Y                 Z
Electronic contribution:     -0.259147451      -0.589774021       0.178496493
Nuclear contribution   :      0.523580872       1.040497055      -0.553656394
                        -----------------------------------------
Total Dipole Moment    :      0.264433421       0.450723033      -0.375159901
                        -----------------------------------------
Magnitude (a.u.)       :      0.643289389
Magnitude (Debye)      :      1.635111684

VIBRATIONAL FREQUENCIES
-----------------------

Scaling factor for frequencies =  1.000000000  (already applied!)

     0:       0.00 cm**-1
     1:       0.00 cm**-1
     2:       0.00 cm**-1
     3:       0.00 cm**-1
     4:       0.00 cm**-1
     5:       0.00 cm**-1
     6:     129.60 cm**-1
     7:     171.18 cm**-1
     8:     254.18 cm**-1
     9:     294.33 cm**-1
    10:     347.69 cm**-1
    11:     422.94 cm**-1
    12:     463.42 cm**-1
    13:     474.23 cm**-1
    14:     489.70 cm**-1
    15:     524.87 cm**-1
    16:     570.54 cm**-1
    17:     588.20 cm**-1
    18:     632.90 cm**-1
    19:     670.87 cm**-1
    20:     725.89 cm**-1
    21:     731.31 cm**-1
    22:     777.51 cm**-1
    23:     799.55 cm**-1
    24:     810.71 cm**-1
    25:     852.49 cm**-1
    26:     873.77 cm**-1
    27:     897.06 cm**-1
    28:     934.04 cm**-1
    29:     939.77 cm**-1
    30:     962.60 cm**-1
    31:    1040.09 cm**-1
    32:    1055.07 cm**-1
    33:    1113.92 cm**-1
    34:    1147.14 cm**-1
    35:    1168.65 cm**-1
    36:    1189.94 cm**-1
    37:    1202.84 cm**-1
    38:    1248.44 cm**-1
    39:    1276.94 cm**-1
    40:    1318.01 cm**-1
    41:    1391.82 cm**-1
    42:    1405.67 cm**-1
    43:    1436.54 cm**-1
    44:    1484.47 cm**-1
    45:    1491.09 cm**-1
    46:    1551.00 cm**-1
    47:    1613.48 cm**-1
    48:    1627.71 cm**-1
    49:    1654.97 cm**-1
    50:    1664.93 cm**-1
    51:    3148.21 cm**-1
    52:    3152.97 cm**-1
    53:    3161.55 cm**-1
    54:    3162.57 cm**-1
    55:    3172.47 cm**-1
    56:    3178.42 cm**-1
    57:    3183.64 cm**-1
    58:    3549.04 cm**-1
    59:    3647.32 cm**-1

IR SPECTRUM
-----------

 Mode   freq       eps      Int      T**2         TX        TY        TZ
       cm**-1   L/(mol*cm) km/mol    a.u.
----------------------------------------------------------------------------
  6:    129.60   0.000131    0.66  0.000316  (-0.003676  0.013483  0.010986)
  7:    171.18   0.000588    2.97  0.001072  ( 0.011980  0.000919  0.030463)
  8:    254.18   0.001268    6.41  0.001557  (-0.009274 -0.011089 -0.036709)
  9:    294.33   0.000472    2.38  0.000500  (-0.016479  0.014102 -0.005455)
 10:    347.69   0.004581   23.15  0.004111  ( 0.045851 -0.044472 -0.005586)
 11:    422.94   0.002885   14.58  0.002128  (-0.002838 -0.018557 -0.042142)
 12:    463.42   0.000580    2.93  0.000391  ( 0.013499  0.014096 -0.003155)
 13:    474.23   0.000020    0.10  0.000013  (-0.002183 -0.002916 -0.000126)
 14:    489.70   0.000508    2.57  0.000324  (-0.000905  0.014732  0.010300)
 15:    524.87   0.000277    1.40  0.000165  (-0.000528 -0.010691 -0.007069)
 16:    570.54   0.004083   20.63  0.002233  ( 0.017295  0.043885  0.002849)
 17:    588.20   0.000255    1.29  0.000135  (-0.005070  0.009316  0.004759)
 18:    632.90   0.023162  117.05  0.011420  ( 0.036784  0.087144  0.049733)
 19:    670.87   0.029503  149.10  0.013724  (-0.036262 -0.091787 -0.063118)
 20:    725.89   0.000567    2.86  0.000244  ( 0.006234 -0.008223 -0.011711)
 21:    731.31   0.002109   10.66  0.000900  (-0.003420 -0.024911 -0.016367)
 22:    777.51   0.021598  109.15  0.008669  ( 0.002029 -0.002477  0.093050)
 23:    799.55   0.001625    8.21  0.000634  (-0.007645 -0.010741 -0.021453)
 24:    810.71   0.000329    1.66  0.000127  (-0.005610  0.001905  0.009566)
 25:    852.49   0.001605    8.11  0.000588  (-0.008242 -0.014940 -0.017216)
 26:    873.77   0.000541    2.73  0.000193  ( 0.001094 -0.005788 -0.012588)
 27:    897.06   0.000339    1.71  0.000118  (-0.007229 -0.000782  0.008058)
 28:    934.04   0.000132    0.67  0.000044  (-0.000134 -0.004577  0.004816)
 29:    939.77   0.000037    0.19  0.000012  (-0.000738  0.001665 -0.003002)
 30:    962.60   0.000043    0.22  0.000014  (-0.000540  0.001711  0.003264)
 31:   1040.09   0.001955    9.88  0.000586  ( 0.024207  0.000457  0.000485)
 32:   1055.07   0.000376    1.90  0.000111  (-0.009018  0.005477  0.000089)
 33:   1113.92   0.001736    8.77  0.000486  (-0.002360  0.021822 -0.002110)
 34:   1147.14   0.001184    5.98  0.000322  ( 0.014065  0.010572 -0.003530)
 35:   1168.65   0.000228    1.15  0.000061  ( 0.002955 -0.007195 -0.000628)
 36:   1189.94   0.000297    1.50  0.000078  ( 0.005791  0.006663 -0.000281)
 37:   1202.84   0.000287    1.45  0.000075  ( 0.005408  0.006589  0.001364)
 38:   1248.44   0.000259    1.31  0.000065  (-0.004979 -0.006198  0.001202)
 39:   1276.94   0.000902    4.56  0.000220  (-0.006667 -0.013225  0.001044)
 40:   1318.01   0.006727   34.00  0.001593  (-0.014266 -0.037272 -0.000105)
 41:   1391.82   0.000214    1.08  0.000048  ( 0.006264 -0.002965 -0.000061)
 42:   1405.67   0.002994   15.13  0.000665  (-0.025686 -0.002192 -0.000249)
 43:   1436.54   0.007944   40.15  0.001726  (-0.023868 -0.033997  0.000432)
 44:   1484.47   0.002337   11.81  0.000491  (-0.015155 -0.015927  0.002818)
 45:   1491.09   0.003626   18.32  0.000759  (-0.012937 -0.024314  0.000501)
 46:   1551.00   0.004541   22.95  0.000914  (-0.001538 -0.030185  0.000387)
 47:   1613.48   0.006003   30.34  0.001161  (-0.011763 -0.031712 -0.004121)
 48:   1627.71   0.001384    7.00  0.000265  ( 0.006230 -0.014478 -0.004118)
 49:   1654.97   0.001900    9.60  0.000358  (-0.017234 -0.005360  0.005696)
 50:   1664.93   0.021747  109.90  0.004076  ( 0.022558  0.056185 -0.020258)
 51:   3148.21   0.002915   14.73  0.000289  (-0.011819 -0.012214  0.000230)
 52:   3152.97   0.000419    2.12  0.000041  ( 0.000095 -0.006436  0.000081)
 53:   3161.55   0.000657    3.32  0.000065  ( 0.007504 -0.002893 -0.000411)
 54:   3162.57   0.001584    8.00  0.000156  ( 0.010128  0.007313  0.000479)
 55:   3172.47   0.005324   26.91  0.000524  (-0.013245 -0.018659 -0.000338)
 56:   3178.42   0.005068   25.61  0.000498  (-0.012552  0.018439 -0.000083)
 57:   3183.64   0.003058   15.46  0.000300  ( 0.015341 -0.008027 -0.000014)
 58:   3549.04   0.001837    9.28  0.000161  ( 0.005365  0.010270 -0.005218)
 59:   3647.32   0.002525   12.76  0.000216  (-0.014481  0.001510 -0.002002)

--------------------------
THERMOCHEMISTRY AT 298.15K
--------------------------

Temperature         ...   298.15 K
Pressure            ...     1.00 atm
Total Mass          ...   143.19 AMU
Quasi RRHO          ...     True
Cut-Off Frequency   ...     1.00 cm^-1

Throughout the following assumptions are being made:
  (1) The electronic state is orbitally nondegenerate
  (2) There are no thermally accessible electronically excited states
  (3) Hindered rotations indicated by low frequency modes are not
      treated as such but are treated as vibrations and this may
      cause some error
  (4) All equations used are the standard statistical mechanics
      equations for an ideal gas
  (5) All vibrations are strictly harmonic

freq.     129.60  E(vib)   ...       0.43
freq.     171.18  E(vib)   ...       0.38
freq.     254.18  E(vib)   ...       0.30
freq.     294.33  E(vib)   ...       0.27
freq.     347.69  E(vib)   ...       0.23
freq.     422.94  E(vib)   ...       0.18
freq.     463.42  E(vib)   ...       0.16
freq.     474.23  E(vib)   ...       0.15
freq.     489.70  E(vib)   ...       0.15
freq.     524.87  E(vib)   ...       0.13
freq.     570.54  E(vib)   ...       0.11
freq.     588.20  E(vib)   ...       0.10
freq.     632.90  E(vib)   ...       0.09
freq.     670.87  E(vib)   ...       0.08
freq.     725.89  E(vib)   ...       0.06
freq.     731.31  E(vib)   ...       0.06
freq.     777.51  E(vib)   ...       0.05
freq.     799.55  E(vib)   ...       0.05
freq.     810.71  E(vib)   ...       0.05
freq.     852.49  E(vib)   ...       0.04
freq.     873.77  E(vib)   ...       0.04
freq.     897.06  E(vib)   ...       0.03
freq.     934.04  E(vib)   ...       0.03
freq.     939.77  E(vib)   ...       0.03
freq.     962.60  E(vib)   ...       0.03
freq.    1040.09  E(vib)   ...       0.02
freq.    1055.07  E(vib)   ...       0.02
freq.    1113.92  E(vib)   ...       0.01
freq.    1147.14  E(vib)   ...       0.01
freq.    1168.65  E(vib)   ...       0.01
freq.    1189.94  E(vib)   ...       0.01
freq.    1202.84  E(vib)   ...       0.01
freq.    1248.44  E(vib)   ...       0.01
freq.    1276.94  E(vib)   ...       0.01
freq.    1318.01  E(vib)   ...       0.01
freq.    1391.82  E(vib)   ...       0.00
freq.    1405.67  E(vib)   ...       0.00
freq.    1436.54  E(vib)   ...       0.00
freq.    1484.47  E(vib)   ...       0.00
freq.    1491.09  E(vib)   ...       0.00
freq.    1551.00  E(vib)   ...       0.00
freq.    1613.48  E(vib)   ...       0.00
freq.    1627.71  E(vib)   ...       0.00
freq.    1654.97  E(vib)   ...       0.00
freq.    1664.93  E(vib)   ...       0.00
freq.    3148.21  E(vib)   ...       0.00
freq.    3152.97  E(vib)   ...       0.00
freq.    3161.55  E(vib)   ...       0.00
freq.    3162.57  E(vib)   ...       0.00
freq.    3172.47  E(vib)   ...       0.00
freq.    3178.42  E(vib)   ...       0.00
freq.    3183.64  E(vib)   ...       0.00
freq.    3549.04  E(vib)   ...       0.00
freq.    3647.32  E(vib)   ...       0.00

------------
INNER ENERGY
------------

The inner energy is: U= E(el) + E(ZPE) + E(vib) + E(rot) + E(trans)
    E(el)   - is the total energy from the electronic structure calculation
              = E(kin-el) + E(nuc-el) + E(el-el) + E(nuc-nuc)
    E(ZPE)  - the the zero temperature vibrational energy from the frequency calculation
    E(vib)  - the the finite temperature correction to E(ZPE) due to population
              of excited vibrational states
    E(rot)  - is the rotational thermal energy
    E(trans)- is the translational thermal energy

Summary of contributions to the inner energy U:
Electronic energy                ...   -441.16855135 Eh
Zero point energy                ...      0.16352295 Eh     102.61 kcal/mol
Thermal vibrational correction   ...      0.00539173 Eh       3.38 kcal/mol
Thermal rotational correction    ...      0.00141627 Eh       0.89 kcal/mol
Thermal translational correction ...      0.00141627 Eh       0.89 kcal/mol
-----------------------------------------------------------------------
Total thermal energy                   -440.99680413 Eh

Summary of corrections to the electronic energy:
(perhaps to be used in another calculation)
Total thermal correction                  0.00822427 Eh       5.16 kcal/mol
Non-thermal (ZPE) correction              0.16352295 Eh     102.61 kcal/mol
-----------------------------------------------------------------------
Total correction                          0.17174722 Eh     107.77 kcal/mol

--------
ENTHALPY
--------

The enthalpy is H = U + kB*T
                kB is Boltzmann's constant
Total thermal energy              ...   -440.99680413 Eh
Thermal Enthalpy correction       ...      0.00094421 Eh       0.59 kcal/mol
-----------------------------------------------------------------------
Total Enthalpy                    ...   -440.99585992 Eh

Note: Only C1 symmetry has been detected, increase convergence thresholds
      if your molecule has a higher symmetry. Symmetry factor of 1.0 is
      used for the rotational entropy correction.

Note: Rotational entropy computed according to Herzberg
Infrared and Raman Spectra, Chapter V,1, Van Nostrand Reinhold, 1945
Point Group:  C1, Symmetry Number:   1
Rotational constants in cm-1:     0.064765     0.037693     0.023852

Vibrational entropy computed according to the QRRHO of S. Grimme
Chem.Eur.J. 2012 18 9955 using a reference frequency of 100.0 cm-1

-------
ENTROPY
-------

The entropy contributions are T*S = T*(S(el)+S(vib)+S(rot)+S(trans))
     S(el)   - electronic entropy
     S(vib)  - vibrational entropy
     S(rot)  - rotational entropy
     S(trans)- translational entropy
The entropies will be listed as multiplied by the temperature to get
units of energy

Electronic entropy                ...      0.00000000 Eh      0.00 kcal/mol
Vibrational entropy               ...      0.00834926 Eh      5.24 kcal/mol
Rotational entropy                ...      0.01411424 Eh      8.86 kcal/mol
Translational entropy             ...      0.01937968 Eh     12.16 kcal/mol
-----------------------------------------------------------------------
Final entropy term                ...      0.04184318 Eh     26.26 kcal/mol

In case the symmetry of your molecule has not been determined correctly
or in case you have a reason to use a different symmetry number we print
out the resulting rotational entropy values for sn=1,12:

 non-linear molecules -----------------------------------
|  sn= 1 | S(rot)=       0.01411424 Eh      8.86 kcal/mol|
|  sn= 2 | S(rot)=       0.01345978 Eh      8.45 kcal/mol|
|  sn= 3 | S(rot)=       0.01307695 Eh      8.21 kcal/mol|
|  sn= 4 | S(rot)=       0.01280533 Eh      8.04 kcal/mol|
|  sn= 5 | S(rot)=       0.01259464 Eh      7.90 kcal/mol|
|  sn= 6 | S(rot)=       0.01242249 Eh      7.80 kcal/mol|

                             ****ORCA TERMINATED NORMALLY****
TOTAL RUN TIME: 0 days 0 hours 25 minutes 57 seconds 635 msec
