                         Program Version 6.0.0  -   RELEASE  -
|  1> ! r2SCAN-3c DEF2-TZVP FREQ
|  2> * xyzfile 0 1 censo.xyz
|  3>
|  4>                          ****END OF INPUT****

CARTESIAN COORDINATES (ANGSTROEM)
---------------------------------
  C     -2.125155   -1.266284   -0.144919
  C     -1.525366    0.000047    0.415241
  C     -2.124662    1.266703   -0.144716
  I      0.678540   -0.000374   -0.008330
  H     -2.046977   -1.297011   -1.235509
  H     -1.661099   -2.162588    0.272161
  H     -3.191113   -1.279287    0.119434
  H     -1.521110   -0.000047    1.505326
  H     -3.190747    1.279813    0.119112
  H     -2.045952    1.297838   -1.235256
  H     -1.660617    2.162749    0.272928

 Total Charge           Charge          ....    0
 Multiplicity           Mult            ....    1
 Number of Electrons    NEL             ....   50
 Basis Dimension        Dim             ....  185

ORBITAL ENERGIES
----------------

  NO   OCC          E(Eh)            E(eV)
   0   2.0000     -10.098387      -274.7911
   1   2.0000     -10.042017      -273.2572
   2   2.0000     -10.042015      -273.2571
   3   2.0000      -6.763404      -184.0416
   4   2.0000      -4.784526      -130.1936
   5   2.0000      -4.772652      -129.8705
   6   2.0000      -4.772586      -129.8687
   7   2.0000      -1.834971       -49.9321
   8   2.0000      -1.832526       -49.8656
   9   2.0000      -1.832506       -49.8650
  10   2.0000      -1.822623       -49.5961
  11   2.0000      -1.822601       -49.5955
  12   2.0000      -0.783479       -21.3195
  13   2.0000      -0.674213       -18.3463
  14   2.0000      -0.641882       -17.4665
  15   2.0000      -0.552830       -15.0433
  16   2.0000      -0.445162       -12.1135
  17   2.0000      -0.423158       -11.5147
  18   2.0000      -0.397947       -10.8287
  19   2.0000      -0.373514       -10.1638
  20   2.0000      -0.340487        -9.2651
  21   2.0000      -0.339145        -9.2286
  22   2.0000      -0.289118        -7.8673
  23   2.0000      -0.229996        -6.2585
  24   2.0000      -0.229375        -6.2416
  25   0.0000      -0.063031        -1.7152
  26   0.0000       0.039726         1.0810
  27   0.0000       0.079596         2.1659
  28   0.0000       0.085488         2.3263
  29   0.0000       0.096941         2.6379

MULLIKEN ATOMIC CHARGES
-----------------------
   0 C :   -0.306782
   1 C :   -0.035431
   2 C :   -0.306790
   3 I :   -0.176078
   4 H :    0.118597
   5 H :    0.130927
   6 H :    0.107219
   7 H :    0.111590
   8 H :    0.107218
   9 H :    0.118616
  10 H :    0.130915
Sum of atomic charges:   -0.0000000

LOEWDIN ATOMIC CHARGES
----------------------
   0 C :   -0.314888
   1 C :   -0.430442
   2 C :   -0.314887
   3 I :    0.159802
   4 H :    0.126234
   5 H :    0.125813
   6 H :    0.128625
   7 H :    0.139069
   8 H :    0.128627
   9 H :    0.126233
  10 H :    0.125814

  Mayer bond orders larger than 0.100000
B(  0-C ,  1-C ) :   0.9911 B(  0-C ,  4-H ) :   0.9681 B(  0-C ,  5-H ) :   0.9702
B(  0-C ,  6-H ) :   0.9470 B(  1-C ,  2-C ) :   0.9911 B(  1-C ,  3-I ) :   0.9813
B(  1-C ,  7-H ) :   0.9544 B(  2-C ,  8-H ) :   0.9470 B(  2-C ,  9-H ) :   0.9681
B(  2-C , 10-H ) :   0.9702

Dispersion correction           -0.002590229
FINAL SINGLE POINT ENERGY      -416.329233423914

DIPOLE MOMENT
-------------

Method             : SCF
Type of density    : Electron Density
Multiplicity       :   1
Irrep              :   0
Energy             :  -416.3316365038065214 Eh
Relativity type    :
Basis              : AO
                                X                 Y                 Z
Electronic contribution:     62.095279909      -0.012659214      -0.412990578
Nuclear contribution   :    -63.093874477       0.012841841       0.537919751
                        -----------------------------------------
Total Dipole Moment    :     -0.998594568       0.000182627       0.124929173
                        -----------------------------------------
Magnitude (a.u.)       :      1.006378876
Magnitude (Debye)      :      2.558011815

VIBRATIONAL FREQUENCIES
-----------------------

Scaling factor for frequencies =  1.000000000  (already applied!)

     0:       0.00 cm**-1
     1:       0.00 cm**-1
     2:       0.00 cm**-1
     3:       0.00 cm**-1
     4:       0.00 cm**-1
     5:       0.00 cm**-1
     6:     241.65 cm**-1
     7:     252.95 cm**-1
     8:     269.16 cm**-1
     9:     298.78 cm**-1
    10:     401.98 cm**-1
    11:     466.88 cm**-1
    12:     887.57 cm**-1
    13:     942.26 cm**-1
    14:     950.89 cm**-1
    15:    1024.63 cm**-1
    16:    1141.91 cm**-1
    17:    1161.56 cm**-1
    18:    1219.47 cm**-1
    19:    1351.44 cm**-1
    20:    1394.65 cm**-1
    21:    1409.76 cm**-1
    22:    1467.41 cm**-1
    23:    1475.56 cm**-1
    24:    1481.62 cm**-1
    25:    1497.96 cm**-1
    26:    2992.52 cm**-1
    27:    2997.44 cm**-1
    28:    3072.60 cm**-1
    29:    3073.48 cm**-1
    30:    3099.49 cm**-1
    31:    3113.39 cm**-1
    32:    3123.99 cm**-1

IR SPECTRUM
-----------

 Mode   freq       eps      Int      T**2         TX        TY        TZ
       cm**-1   L/(mol*cm) km/mol    a.u.
----------------------------------------------------------------------------
  6:    241.65   0.000883    4.46  0.001140  (-0.033595 -0.000002  0.003346)
  7:    252.95   0.000036    0.18  0.000044  (-0.000030  0.006638  0.000001)
  8:    269.16   0.000001    0.00  0.000001  (-0.000019  0.000961  0.000007)
  9:    298.78   0.000107    0.54  0.000112  (-0.009837  0.000003 -0.003903)
 10:    401.98   0.000482    2.44  0.000374  (-0.019050  0.000004  0.003374)
 11:    466.88   0.003473   17.55  0.002321  (-0.048074  0.000009 -0.003191)
 12:    887.57   0.002494   12.60  0.000877  ( 0.029123 -0.000001 -0.005346)
 13:    942.26   0.000245    1.24  0.000081  ( 0.000004  0.009008  0.000002)
 14:    950.89   0.000231    1.17  0.000076  (-0.000000  0.008703 -0.000000)
 15:   1024.63   0.000909    4.60  0.000277  (-0.016445  0.000000 -0.002560)
 16:   1141.91   0.000182    0.92  0.000050  (-0.000018  0.007047 -0.000002)
 17:   1161.56   0.019492   98.50  0.005237  ( 0.072292 -0.000013 -0.003252)
 18:   1219.47   0.005360   27.09  0.001372  ( 0.036168 -0.000007 -0.007968)
 19:   1351.44   0.000211    1.07  0.000049  (-0.000000  0.006983  0.000003)
 20:   1394.65   0.002583   13.06  0.000578  (-0.000003 -0.024043  0.000001)
 21:   1409.76   0.000924    4.67  0.000205  ( 0.001681 -0.000001  0.014206)
 22:   1467.41   0.000735    3.71  0.000156  ( 0.000006  0.012502  0.000010)
 23:   1475.56   0.000037    0.19  0.000008  ( 0.000001  0.002804 -0.000006)
 24:   1481.62   0.002640   13.34  0.000556  ( 0.001045 -0.000007  0.023556)
 25:   1497.96   0.001292    6.53  0.000269  (-0.009112 -0.000003  0.013639)
 26:   2992.52   0.002152   10.87  0.000224  ( 0.000034  0.014979  0.000002)
 27:   2997.44   0.009105   46.02  0.000948  ( 0.030674 -0.000021  0.002662)
 28:   3072.60   0.002872   14.51  0.000292  ( 0.012985 -0.000053 -0.011095)
 29:   3073.48   0.000599    3.03  0.000061  ( 0.000092  0.007801 -0.000070)
 30:   3099.49   0.001057    5.34  0.000106  (-0.010154 -0.000000  0.001831)
 31:   3113.39   0.001714    8.66  0.000172  (-0.000000  0.013106 -0.000004)
 32:   3123.99   0.003635   18.37  0.000363  (-0.002715 -0.000004 -0.018861)

--------------------------
THERMOCHEMISTRY AT 298.15K
--------------------------

Temperature         ...   298.15 K
Pressure            ...     1.00 atm
Total Mass          ...   169.99 AMU
Quasi RRHO          ...     True
Cut-Off Frequency   ...     1.00 cm^-1

Throughout the following assumptions are being made:
  (1) The electronic state is orbitally nondegenerate
  (2) There are no thermally accessible electronically excited states
  (3) Hindered rotations indicated by low frequency modes are not
      treated as such but are treated as vibrations and this may
      cause some error
  (4) All equations used are the standard statistical mechanics
      equations for an ideal gas
  (5) All vibrations are strictly harmonic

freq.     241.65  E(vib)   ...       0.31
freq.     252.95  E(vib)   ...       0.30
freq.     269.16  E(vib)   ...       0.29
freq.     298.78  E(vib)   ...       0.26
freq.     401.98  E(vib)   ...       0.19
freq.     466.88  E(vib)   ...       0.16
freq.     887.57  E(vib)   ...       0.04
freq.     942.26  E(vib)   ...       0.03
freq.     950.89  E(vib)   ...       0.03
freq.    1024.63  E(vib)   ...       0.02
freq.    1141.91  E(vib)   ...       0.01
freq.    1161.56  E(vib)   ...       0.01
freq.    1219.47  E(vib)   ...       0.01
freq.    1351.44  E(vib)   ...       0.01
freq.    1394.65  E(vib)   ...       0.00
freq.    1409.76  E(vib)   ...       0.00
freq.    1467.41  E(vib)   ...       0.00
freq.    1475.56  E(vib)   ...       0.00
freq.    1481.62  E(vib)   ...       0.00
freq.    1497.96  E(vib)   ...       0.00
freq.    2992.52  E(vib)   ...       0.00
freq.    2997.44  E(vib)   ...       0.00
freq.    3072.60  E(vib)   ...       0.00
freq.    3073.48  E(vib)   ...       0.00
freq.    3099.49  E(vib)   ...       0.00
freq.    3113.39  E(vib)   ...       0.00
freq.    3123.99  E(vib)   ...       0.00

------------
INNER ENERGY
------------

The inner energy is: U= E(el) + E(ZPE) + E(vib) + E(rot) + E(trans)
    E(el)   - is the total energy from the electronic structure calculation
              = E(kin-el) + E(nuc-el) + E(el-el) + E(nuc-nuc)
    E(ZPE)  - the the zero temperature vibrational energy from the frequency calculation
    E(vib)  - the the finite temperature correction to E(ZPE) due to population
              of excited vibrational states
    E(rot)  - is the rotational thermal energy
    E(trans)- is the translational thermal energy

Summary of contributions to the inner energy U:
Electronic energy                ...   -416.32923342 Eh
Zero point energy                ...      0.09297430 Eh      58.34 kcal/mol
Thermal vibrational correction   ...      0.00270177 Eh       1.70 kcal/mol
Thermal rotational correction    ...      0.00141627 Eh       0.89 kcal/mol
Thermal translational correction ...      0.00141627 Eh       0.89 kcal/mol
-----------------------------------------------------------------------
Total thermal energy                   -416.23072481 Eh

Summary of corrections to the electronic energy:
(perhaps to be used in another calculation)
Total thermal correction                  0.00553431 Eh       3.47 kcal/mol
Non-thermal (ZPE) correction              0.09297430 Eh      58.34 kcal/mol
-----------------------------------------------------------------------
Total correction                          0.09850861 Eh      61.81 kcal/mol

--------
ENTHALPY
--------

The enthalpy is H = U + kB*T
                kB is Boltzmann's constant
Total thermal energy              ...   -416.23072481 Eh
Thermal Enthalpy correction       ...      0.00094421 Eh       0.59 kcal/mol
-----------------------------------------------------------------------
Total Enthalpy                    ...   -416.22978060 Eh

Note: Only C1 symmetry has been detected, increase convergence thresholds
      if your molecule has a higher symmetry. Symmetry factor of 1.0 is
      used for the rotational entropy correction.

Note: Rotational entropy computed according to Herzberg
Infrared and Raman Spectra, Chapter V,1, Van Nostrand Reinhold, 1945
Point Group:  C1, Symmetry Number:   1
Rotational constants in cm-1:     0.268532     0.070295     0.058871

Vibrational entropy computed according to the QRRHO of S. Grimme
Chem.Eur.J. 2012 18 9955 using a reference frequency of 100.0 cm-1

-------
ENTROPY
-------

The entropy contributions are T*S = T*(S(el)+S(vib)+S(rot)+S(trans))
     S(el)   - electronic entropy
     S(vib)  - vibrational entropy
     S(rot)  - rotational entropy
     S(trans)- translational entropy
The entropies will be listed as multiplied by the temperature to get
units of energy

Electronic entropy                ...      0.00000000 Eh      0.00 kcal/mol
Vibrational entropy               ...      0.00425852 Eh      2.67 kcal/mol
Rotational entropy                ...      0.01272209 Eh      7.98 kcal/mol
Translational entropy             ...      0.01962266 Eh     12.31 kcal/mol
-----------------------------------------------------------------------
Final entropy term                ...      0.03660327 Eh     22.97 kcal/mol

In case the symmetry of your molecule has not been determined correctly
or in case you have a reason to use a different symmetry number we print
out the resulting rotational entropy values for sn=1,12:

 non-linear molecules -----------------------------------
|  sn= 1 | S(rot)=       0.01272209 Eh      7.98 kcal/mol|
|  sn= 2 | S(rot)=       0.01206763 Eh      7.57 kcal/mol|
|  sn= 3 | S(rot)=       0.01168480 Eh      7.33 kcal/mol|
|  sn= 4 | S(rot)=       0.01141317 Eh      7.16 kcal/mol|
|  sn= 5 | S(rot)=       0.01120249 Eh      7.03 kcal/mol|
|  sn= 6 | S(rot)=       0.01103034 Eh      6.92 kcal/mol|
|  sn= 7 | S(rot)=       0.01088479 Eh      6.83 kcal/mol|
|  sn= 8 | S(rot)=       0.01075872 Eh      6.75 kcal/mol|
|  sn= 9 | S(rot)=       0.01064751 Eh      6.68 kcal/mol|
|  sn=10 | S(rot)=       0.01054803 Eh      6.62 kcal/mol|
|  sn=11 | S(rot)=       0.01045804 Eh      6.56 kcal/mol|
|  sn=12 | S(rot)=       0.01037588 Eh      6.51 kcal/mol|
 linear molecules ---------------------------------------
|  Dinfh | S(rot)=       0.00800010 Eh      5.02 kcal/mol|
|  Cinfv | S(rot)=       0.00865456 Eh      5.43 kcal/mol|
 --------------------------------------------------------

-------------------
GIBBS FREE ENERGY
-------------------

The Gibbs free energy is G = H - T*S

Total enthalpy                    ...   -416.22978060 Eh
Total entropy correction          ...     -0.03660327 Eh    -22.97 kcal/mol
-----------------------------------------------------------------------
Final Gibbs free energy         ...   -416.26638387 Eh

For completeness - the Gibbs free energy minus the electronic energy
G-E(el)                           ...      0.06284955 Eh     39.44 kcal/mol

                             ****ORCA TERMINATED NORMALLY****
TOTAL RUN TIME: 0 days 0 hours 4 minutes 33 seconds 117 msec
