                         Program Version 6.0.0  -   RELEASE  -
|  1> ! r2SCAN-3c DEF2-TZVP FREQ
|  2> * xyzfile 0 1 vacuum_censo.xyz
|  3>
|  4>                          ****END OF INPUT****

CARTESIAN COORDINATES (ANGSTROEM)
---------------------------------
  C     -2.113602   -1.267662   -0.143093
  C     -1.503516    0.000002    0.415722
  C     -2.113604    1.267652   -0.143123
  I      0.675272   -0.000015   -0.006803
  H     -1.645816   -2.163565    0.269763
  H     -3.181411   -1.286436    0.113161
  H     -2.024918   -1.299140   -1.232659
  H     -1.516815    0.000017    1.506773
  H     -2.025096    1.299012   -1.232708
  H     -1.645695    2.163567    0.269566
  H     -3.181370    1.286523    0.113306

 Total Charge           Charge          ....    0
 Multiplicity           Mult            ....    1
 Number of Electrons    NEL             ....   50
 Basis Dimension        Dim             ....  185

ORBITAL ENERGIES
----------------

  NO   OCC          E(Eh)            E(eV)
   0   2.0000     -10.097160      -274.7577
   1   2.0000     -10.041203      -273.2350
   2   2.0000     -10.041200      -273.2349
   3   2.0000      -6.764848      -184.0809
   4   2.0000      -4.785998      -130.2336
   5   2.0000      -4.774097      -129.9098
   6   2.0000      -4.774028      -129.9079
   7   2.0000      -1.836500       -49.9737
   8   2.0000      -1.834039       -49.9067
   9   2.0000      -1.834028       -49.9064
  10   2.0000      -1.824065       -49.6353
  11   2.0000      -1.824042       -49.6347
  12   2.0000      -0.782436       -21.2912
  13   2.0000      -0.672930       -18.3113
  14   2.0000      -0.643811       -17.5190
  15   2.0000      -0.552124       -15.0240
  16   2.0000      -0.443908       -12.0794
  17   2.0000      -0.422144       -11.4871
  18   2.0000      -0.397091       -10.8054
  19   2.0000      -0.372833       -10.1453
  20   2.0000      -0.338629        -9.2146
  21   2.0000      -0.337429        -9.1819
  22   2.0000      -0.292318        -7.9544
  23   2.0000      -0.230821        -6.2810
  24   2.0000      -0.230252        -6.2655
  25   0.0000      -0.059811        -1.6275
  26   0.0000       0.040382         1.0989
  27   0.0000       0.080417         2.1883
  28   0.0000       0.085728         2.3328
  29   0.0000       0.097616         2.6563

MULLIKEN ATOMIC CHARGES
-----------------------
   0 C :   -0.310153
   1 C :   -0.037306
   2 C :   -0.310150
   3 I :   -0.162224
   4 H :    0.130051
   5 H :    0.107779
   6 H :    0.117685
   7 H :    0.108806
   8 H :    0.117678
   9 H :    0.130054
  10 H :    0.107780
Sum of atomic charges:    0.0000000

LOEWDIN ATOMIC CHARGES
----------------------
   0 C :   -0.315768
   1 C :   -0.444380
   2 C :   -0.315767
   3 I :    0.181126
   4 H :    0.125009
   5 H :    0.127419
   6 H :    0.125573
   7 H :    0.138785
   8 H :    0.125574
   9 H :    0.125009
  10 H :    0.127419

  Mayer bond orders larger than 0.100000
B(  0-C ,  1-C ) :   0.9884 B(  0-C ,  4-H ) :   0.9707 B(  0-C ,  5-H ) :   0.9485
B(  0-C ,  6-H ) :   0.9686 B(  1-C ,  2-C ) :   0.9884 B(  1-C ,  3-I ) :   0.9908
B(  1-C ,  7-H ) :   0.9547 B(  2-C ,  8-H ) :   0.9686 B(  2-C ,  9-H ) :   0.9707
B(  2-C , 10-H ) :   0.9485

Dispersion correction           -0.002593493
FINAL SINGLE POINT ENERGY      -416.329545673797

DIPOLE MOMENT
-------------

Method             : SCF
Type of density    : Electron Density
Multiplicity       :   1
Irrep              :   0
Energy             :  -416.3319669441953010 Eh
Relativity type    :
Basis              : AO
                                X                 Y                 Z
Electronic contribution:     61.728984004      -0.000267179      -0.384327339
Nuclear contribution   :    -62.682184255       0.000275566       0.505922993
                        -----------------------------------------
Total Dipole Moment    :     -0.953200251       0.000008386       0.121595655
                        -----------------------------------------
Magnitude (a.u.)       :      0.960924670
Magnitude (Debye)      :      2.442476405

VIBRATIONAL FREQUENCIES
-----------------------

Scaling factor for frequencies =  1.000000000  (already applied!)

     0:       0.00 cm**-1
     1:       0.00 cm**-1
     2:       0.00 cm**-1
     3:       0.00 cm**-1
     4:       0.00 cm**-1
     5:       0.00 cm**-1
     6:     247.81 cm**-1
     7:     256.09 cm**-1
     8:     267.58 cm**-1
     9:     295.79 cm**-1
    10:     401.12 cm**-1
    11:     483.00 cm**-1
    12:     882.56 cm**-1
    13:     939.55 cm**-1
    14:     949.52 cm**-1
    15:    1029.53 cm**-1
    16:    1135.32 cm**-1
    17:    1164.07 cm**-1
    18:    1223.63 cm**-1
    19:    1348.34 cm**-1
    20:    1393.20 cm**-1
    21:    1409.54 cm**-1
    22:    1467.73 cm**-1
    23:    1476.40 cm**-1
    24:    1481.78 cm**-1
    25:    1498.27 cm**-1
    26:    2994.24 cm**-1
    27:    2998.98 cm**-1
    28:    3073.00 cm**-1
    29:    3076.41 cm**-1
    30:    3094.12 cm**-1
    31:    3114.27 cm**-1
    32:    3121.22 cm**-1

IR SPECTRUM
-----------

 Mode   freq       eps      Int      T**2         TX        TY        TZ
       cm**-1   L/(mol*cm) km/mol    a.u.
----------------------------------------------------------------------------
  6:    247.81   0.000611    3.09  0.000770  ( 0.027541 -0.000006 -0.003398)
  7:    256.09   0.000028    0.14  0.000034  (-0.000023 -0.005790  0.000003)
  8:    267.58   0.000000    0.00  0.000000  (-0.000005  0.000387  0.000002)
  9:    295.79   0.000093    0.47  0.000098  ( 0.009471  0.000000  0.002951)
 10:    401.12   0.000344    1.74  0.000268  (-0.015945  0.000000  0.003661)
 11:    483.00   0.003136   15.85  0.002026  (-0.044847  0.000000 -0.003890)
 12:    882.56   0.002179   11.01  0.000770  (-0.027233  0.000002  0.005356)
 13:    939.55   0.000207    1.05  0.000069  (-0.000000  0.008296 -0.000001)
 14:    949.52   0.000234    1.18  0.000077  ( 0.000000  0.008778  0.000000)
 15:   1029.53   0.000992    5.01  0.000301  ( 0.017160 -0.000001  0.002483)
 16:   1135.32   0.000176    0.89  0.000048  (-0.000002 -0.006959 -0.000001)
 17:   1164.07   0.015704   79.36  0.004210  (-0.064842  0.000000  0.002335)
 18:   1223.63   0.007328   37.03  0.001869  (-0.042330  0.000000  0.008774)
 19:   1348.34   0.000233    1.18  0.000054  (-0.000001  0.007348 -0.000000)
 20:   1393.20   0.002428   12.27  0.000544  ( 0.000000  0.023320  0.000000)
 21:   1409.54   0.000980    4.95  0.000217  (-0.001938 -0.000001 -0.014600)
 22:   1467.73   0.000760    3.84  0.000162  (-0.000001  0.012711 -0.000003)
 23:   1476.40   0.000050    0.25  0.000010  (-0.000000  0.003239  0.000000)
 24:   1481.78   0.002716   13.73  0.000572  (-0.001384 -0.000002 -0.023877)
 25:   1498.27   0.001255    6.34  0.000261  (-0.009317  0.000001  0.013210)
 26:   2994.24   0.002316   11.70  0.000241  (-0.000011  0.015535 -0.000001)
 27:   2998.98   0.008986   45.41  0.000935  ( 0.030427  0.000006  0.003046)
 28:   3073.00   0.001995   10.08  0.000203  (-0.010666 -0.000004  0.009425)
 29:   3076.41   0.000553    2.79  0.000056  (-0.000008  0.007488  0.000004)
 30:   3094.12   0.002170   10.96  0.000219  (-0.012364  0.000001  0.008121)
 31:   3114.27   0.001924    9.73  0.000193  ( 0.000002  0.013887  0.000001)
 32:   3121.22   0.003812   19.27  0.000381  ( 0.004286 -0.000002  0.019047)

--------------------------
THERMOCHEMISTRY AT 298.15K
--------------------------

Temperature         ...   298.15 K
Pressure            ...     1.00 atm
Total Mass          ...   169.99 AMU
Quasi RRHO          ...     True
Cut-Off Frequency   ...     1.00 cm^-1

Throughout the following assumptions are being made:
  (1) The electronic state is orbitally nondegenerate
  (2) There are no thermally accessible electronically excited states
  (3) Hindered rotations indicated by low frequency modes are not
      treated as such but are treated as vibrations and this may
      cause some error
  (4) All equations used are the standard statistical mechanics
      equations for an ideal gas
  (5) All vibrations are strictly harmonic

freq.     247.81  E(vib)   ...       0.31
freq.     256.09  E(vib)   ...       0.30
freq.     267.58  E(vib)   ...       0.29
freq.     295.79  E(vib)   ...       0.27
freq.     401.12  E(vib)   ...       0.19
freq.     483.00  E(vib)   ...       0.15
freq.     882.56  E(vib)   ...       0.04
freq.     939.55  E(vib)   ...       0.03
freq.     949.52  E(vib)   ...       0.03
freq.    1029.53  E(vib)   ...       0.02
freq.    1135.32  E(vib)   ...       0.01
freq.    1164.07  E(vib)   ...       0.01
freq.    1223.63  E(vib)   ...       0.01
freq.    1348.34  E(vib)   ...       0.01
freq.    1393.20  E(vib)   ...       0.00
freq.    1409.54  E(vib)   ...       0.00
freq.    1467.73  E(vib)   ...       0.00
freq.    1476.40  E(vib)   ...       0.00
freq.    1481.78  E(vib)   ...       0.00
freq.    1498.27  E(vib)   ...       0.00
freq.    2994.24  E(vib)   ...       0.00
freq.    2998.98  E(vib)   ...       0.00
freq.    3073.00  E(vib)   ...       0.00
freq.    3076.41  E(vib)   ...       0.00
freq.    3094.12  E(vib)   ...       0.00
freq.    3114.27  E(vib)   ...       0.00
freq.    3121.22  E(vib)   ...       0.00

------------
INNER ENERGY
------------

The inner energy is: U= E(el) + E(ZPE) + E(vib) + E(rot) + E(trans)
    E(el)   - is the total energy from the electronic structure calculation
              = E(kin-el) + E(nuc-el) + E(el-el) + E(nuc-nuc)
    E(ZPE)  - the the zero temperature vibrational energy from the frequency calculation
    E(vib)  - the the finite temperature correction to E(ZPE) due to population
              of excited vibrational states
    E(rot)  - is the rotational thermal energy
    E(trans)- is the translational thermal energy

Summary of contributions to the inner energy U:
Electronic energy                ...   -416.32954567 Eh
Zero point energy                ...      0.09300184 Eh      58.36 kcal/mol
Thermal vibrational correction   ...      0.00268395 Eh       1.68 kcal/mol
Thermal rotational correction    ...      0.00141627 Eh       0.89 kcal/mol
Thermal translational correction ...      0.00141627 Eh       0.89 kcal/mol
-----------------------------------------------------------------------
Total thermal energy                   -416.23102734 Eh

Summary of corrections to the electronic energy:
(perhaps to be used in another calculation)
Total thermal correction                  0.00551650 Eh       3.46 kcal/mol
Non-thermal (ZPE) correction              0.09300184 Eh      58.36 kcal/mol
-----------------------------------------------------------------------
Total correction                          0.09851833 Eh      61.82 kcal/mol

--------
ENTHALPY
--------

The enthalpy is H = U + kB*T
                kB is Boltzmann's constant
Total thermal energy              ...   -416.23102734 Eh
Thermal Enthalpy correction       ...      0.00094421 Eh       0.59 kcal/mol
-----------------------------------------------------------------------
Total Enthalpy                    ...   -416.23008313 Eh

Note: Only C1 symmetry has been detected, increase convergence thresholds
      if your molecule has a higher symmetry. Symmetry factor of 1.0 is
      used for the rotational entropy correction.

Note: Rotational entropy computed according to Herzberg
Infrared and Raman Spectra, Chapter V,1, Van Nostrand Reinhold, 1945
Point Group:  C1, Symmetry Number:   1
Rotational constants in cm-1:     0.268118     0.071170     0.059453

Vibrational entropy computed according to the QRRHO of S. Grimme
Chem.Eur.J. 2012 18 9955 using a reference frequency of 100.0 cm-1

-------
ENTROPY
-------

The entropy contributions are T*S = T*(S(el)+S(vib)+S(rot)+S(trans))
     S(el)   - electronic entropy
     S(vib)  - vibrational entropy
     S(rot)  - rotational entropy
     S(trans)- translational entropy
The entropies will be listed as multiplied by the temperature to get
units of energy

Electronic entropy                ...      0.00000000 Eh      0.00 kcal/mol
Vibrational entropy               ...      0.00422209 Eh      2.65 kcal/mol
Rotational entropy                ...      0.01271233 Eh      7.98 kcal/mol
Translational entropy             ...      0.01962266 Eh     12.31 kcal/mol
-----------------------------------------------------------------------
Final entropy term                ...      0.03655709 Eh     22.94 kcal/mol

In case the symmetry of your molecule has not been determined correctly
or in case you have a reason to use a different symmetry number we print
out the resulting rotational entropy values for sn=1,12:

 non-linear molecules -----------------------------------
|  sn= 1 | S(rot)=       0.01271233 Eh      7.98 kcal/mol|
|  sn= 2 | S(rot)=       0.01205788 Eh      7.57 kcal/mol|
|  sn= 3 | S(rot)=       0.01167504 Eh      7.33 kcal/mol|
|  sn= 4 | S(rot)=       0.01140342 Eh      7.16 kcal/mol|
|  sn= 5 | S(rot)=       0.01119273 Eh      7.02 kcal/mol|
|  sn= 6 | S(rot)=       0.01102059 Eh      6.92 kcal/mol|
|  sn= 7 | S(rot)=       0.01087504 Eh      6.82 kcal/mol|
|  sn= 8 | S(rot)=       0.01074896 Eh      6.75 kcal/mol|
|  sn= 9 | S(rot)=       0.01063775 Eh      6.68 kcal/mol|
|  sn=10 | S(rot)=       0.01053828 Eh      6.61 kcal/mol|
|  sn=11 | S(rot)=       0.01044829 Eh      6.56 kcal/mol|
|  sn=12 | S(rot)=       0.01036613 Eh      6.50 kcal/mol|
 linear molecules ---------------------------------------
|  Dinfh | S(rot)=       0.00799082 Eh      5.01 kcal/mol|
|  Cinfv | S(rot)=       0.00864528 Eh      5.42 kcal/mol|
 --------------------------------------------------------

-------------------
GIBBS FREE ENERGY
-------------------

The Gibbs free energy is G = H - T*S

Total enthalpy                    ...   -416.23008313 Eh
Total entropy correction          ...     -0.03655709 Eh    -22.94 kcal/mol
-----------------------------------------------------------------------
Final Gibbs free energy         ...   -416.26664022 Eh

For completeness - the Gibbs free energy minus the electronic energy
G-E(el)                           ...      0.06290545 Eh     39.47 kcal/mol

                             ****ORCA TERMINATED NORMALLY****
TOTAL RUN TIME: 0 days 0 hours 4 minutes 34 seconds 633 msec
