                         Program Version 6.0.1  -  RELEASE   -
|  1> ! pbe def2-sv(p) def2/J RI DEFGRID1 loosescf d4 GCP(DFT/SV(P)) printgap
|  2> %output
|  3>     printlevel normal
|  4> end
|  5> * xyz 0 1
|  6> C -2.4348535999 -0.8656071628 0.0990823244
|  7> C -1.0421385955 -0.4970173869 0.6244657871
|  8> H -0.96707275 -0.7501466719 1.6950727665
|  9> C -0.7556582043 1.0173110384 0.4576723321
| 10> H -1.6270566413 1.4973100025 0.0009401729
| 11> C 0.4470623577 1.2112959826 -0.4891958056
| 12> H 0.7248948507 2.2806230505 -0.4732229757
| 13> C 1.6368859877 0.3856622489 0.0331169446
| 14> H 2.4567769987 0.4042342886 -0.7011765582
| 15> C 1.2142620595 -1.0898851364 0.1970241925
| 16> H 1.4085214359 -1.3780203426 1.2529738134
| 17> O -0.1345194778 -1.3047170282 -0.1076361267
| 18> O 1.9656122787 -1.8539965462 -0.6815818275
| 19> O 2.0829291672 0.8515179996 1.2871611527
| 20> O 0.0609273223 0.8283631864 -1.7831448612
| 21> O -0.5538280802 1.6590905063 1.684493572
| 22> O -2.6914161488 -0.3157016017 -1.1614769534
| 23> H -3.1990794198 -0.4800677558 0.7782461333
| 24> H -2.5026633042 -1.9630007993 0.0650319546
| 25> H 1.5291345932 -2.7091525009 -0.7804472575
| 26> H 2.4802022379 1.7240613858 1.179888151
| 27> H 0.8409186334 0.5964458664 -2.3000899322
| 28> H 0.2779804527 1.3356056516 2.0651520255
| 29> H -1.8703042662 -0.3355287359 -1.6727638966
| 30> *
| 31>
| 32>                          ****END OF INPUT****

CARTESIAN COORDINATES (ANGSTROEM)
---------------------------------
  C     -2.434854   -0.865607    0.099082
  C     -1.042139   -0.497017    0.624466
  H     -0.967073   -0.750147    1.695073
  C     -0.755658    1.017311    0.457672
  H     -1.627057    1.497310    0.000940
  C      0.447062    1.211296   -0.489196
  H      0.724895    2.280623   -0.473223
  C      1.636886    0.385662    0.033117
  H      2.456777    0.404234   -0.701177
  C      1.214262   -1.089885    0.197024
  H      1.408521   -1.378020    1.252974
  O     -0.134519   -1.304717   -0.107636
  O      1.965612   -1.853997   -0.681582
  O      2.082929    0.851518    1.287161
  O      0.060927    0.828363   -1.783145
  O     -0.553828    1.659091    1.684494
  O     -2.691416   -0.315702   -1.161477
  H     -3.199079   -0.480068    0.778246
  H     -2.502663   -1.963001    0.065032
  H      1.529135   -2.709153   -0.780447
  H      2.480202    1.724061    1.179888
  H      0.840919    0.596446   -2.300090
  H      0.277980    1.335606    2.065152
  H     -1.870304   -0.335529   -1.672764

 Total Charge           Charge          ....    0
 Multiplicity           Mult            ....    1
 Number of Electrons    NEL             ....   96
 Basis Dimension        Dim             ....  192

ORBITAL ENERGIES
----------------

  NO   OCC          E(Eh)            E(eV)
   0   2.0000     -18.789491      -511.2880
   1   2.0000     -18.774329      -510.8755
   2   2.0000     -18.771133      -510.7885
   3   2.0000     -18.769080      -510.7326
   4   2.0000     -18.741398      -509.9794
   5   2.0000     -18.732714      -509.7431
   6   2.0000      -9.997019      -272.0327
   7   2.0000      -9.960230      -271.0316
   8   2.0000      -9.953069      -270.8368
   9   2.0000      -9.943031      -270.5636
  10   2.0000      -9.938678      -270.4452
  11   2.0000      -9.925905      -270.0976
  12   2.0000      -0.995916       -27.1003
  13   2.0000      -0.964006       -26.2319
  14   2.0000      -0.948010       -25.7967
  15   2.0000      -0.929770       -25.3003
  16   2.0000      -0.919121       -25.0105
  17   2.0000      -0.908868       -24.7315
  18   2.0000      -0.703146       -19.1336
  19   2.0000      -0.693691       -18.8763
  20   2.0000      -0.629980       -17.1426
  21   2.0000      -0.585566       -15.9341
  22   2.0000      -0.569442       -15.4953
  23   2.0000      -0.526504       -14.3269
  24   2.0000      -0.519593       -14.1389
  25   2.0000      -0.499475       -13.5914
  26   2.0000      -0.482939       -13.1414
  27   2.0000      -0.467243       -12.7143
  28   2.0000      -0.449713       -12.2373
  29   2.0000      -0.434043       -11.8109
  30   2.0000      -0.422613       -11.4999
  31   2.0000      -0.396732       -10.7956
  32   2.0000      -0.392544       -10.6817
  33   2.0000      -0.371139       -10.0992
  34   2.0000      -0.357226        -9.7206
  35   2.0000      -0.350850        -9.5471
  36   2.0000      -0.349152        -9.5009
  37   2.0000      -0.324229        -8.8227
  38   2.0000      -0.317128        -8.6295
  39   2.0000      -0.305195        -8.3048
  40   2.0000      -0.296345        -8.0640
  41   2.0000      -0.266045        -7.2394
  42   2.0000      -0.255734        -6.9589
  43   2.0000      -0.250682        -6.8214
  44   2.0000      -0.248500        -6.7620
  45   2.0000      -0.219862        -5.9828
  46   2.0000      -0.207985        -5.6596
  47   2.0000      -0.203119        -5.5272
  48   0.0000      -0.000284        -0.0077
  49   0.0000       0.011056         0.3009
  50   0.0000       0.037509         1.0207
  51   0.0000       0.051298         1.3959
  52   0.0000       0.066894         1.8203

MULLIKEN ATOMIC CHARGES
-----------------------
   0 C :    0.086558
   1 C :   -0.025181
   2 H :    0.056632
   3 C :    0.054109
   4 H :    0.096648
   5 C :    0.038190
   6 H :    0.065875
   7 C :   -0.052199
   8 H :    0.082878
   9 C :    0.237139
  10 H :    0.053844
  11 O :   -0.304646
  12 O :   -0.391621
  13 O :   -0.411421
  14 O :   -0.403302
  15 O :   -0.426039
  16 O :   -0.441355
  17 H :    0.091624
  18 H :    0.073161
  19 H :    0.305455
  20 H :    0.314013
  21 H :    0.305786
  22 H :    0.289603
  23 H :    0.304249
Sum of atomic charges:   -0.0000000

LOEWDIN ATOMIC CHARGES
----------------------
   0 C :   -0.119041
   1 C :   -0.079185
   2 H :    0.105712
   3 C :   -0.072044
   4 H :    0.126046
   5 C :   -0.082040
   6 H :    0.098693
   7 C :   -0.094321
   8 H :    0.108585
   9 C :    0.010601
  10 H :    0.084853
  11 O :   -0.153987
  12 O :   -0.301216
  13 O :   -0.299335
  14 O :   -0.302962
  15 O :   -0.317865
  16 O :   -0.335254
  17 H :    0.115541
  18 H :    0.098788
  19 H :    0.288918
  20 H :    0.294366
  21 H :    0.287026
  22 H :    0.264004
  23 H :    0.274120

  Mayer bond orders larger than 0.100000
B(  0-C ,  1-C ) :   1.0570 B(  0-C , 16-O ) :   1.0874 B(  0-C , 17-H ) :   0.9228
B(  0-C , 18-H ) :   0.9089 B(  1-C ,  2-H ) :   0.8747 B(  1-C ,  3-C ) :   0.9634
B(  1-C , 11-O ) :   0.9895 B(  3-C ,  4-H ) :   0.8863 B(  3-C ,  5-C ) :   0.9828
B(  3-C , 15-O ) :   1.0630 B(  5-C ,  6-H ) :   0.8986 B(  5-C ,  7-C ) :   1.0099
B(  5-C , 14-O ) :   1.0435 B(  7-C ,  8-H ) :   0.8977 B(  7-C ,  9-C ) :   0.9504
B(  7-C , 13-O ) :   1.0316 B(  9-C , 10-H ) :   0.8953 B(  9-C , 11-O ) :   1.0562
B(  9-C , 12-O ) :   1.1575 B( 12-O , 19-H ) :   0.8408 B( 13-O , 20-H ) :   0.8367
B( 13-O , 22-H ) :   0.1066 B( 14-O , 21-H ) :   0.8358 B( 15-O , 22-H ) :   0.8127
B( 16-O , 23-H ) :   0.8160

Dispersion correction           -0.025552287
FINAL SINGLE POINT ENERGY      -685.690422011494

DIPOLE MOMENT
-------------

Method             : SCF
Type of density    : Electron Density
Multiplicity       :   1
Irrep              :   0
Energy             :  -685.8235750268004267 Eh
Relativity type    :
Basis              : AO
                                X                 Y                 Z
Electronic contribution:      1.847359578      -0.369971146      -1.064648330
Nuclear contribution   :     -0.409252815       0.206608208       1.029706304
                        -----------------------------------------
Total Dipole Moment    :      1.438106763      -0.163362938      -0.034942026
                        -----------------------------------------
Magnitude (a.u.)       :      1.447777420
Magnitude (Debye)      :      3.679957750

Rotational constants in cm-1:             0.040935             0.028844             0.023560
Rotational constants in MHz :          1227.205868           864.721398           706.321074

                             ****ORCA TERMINATED NORMALLY****
TOTAL RUN TIME: 0 days 0 hours 0 minutes 8 seconds 542 msec
