                         Program Version 6.0.1  -  RELEASE   -
|  1> ! pbe def2-sv(p) def2/J RI DEFGRID1 loosescf d4 GCP(DFT/SV(P)) printgap
|  2> %output
|  3>     printlevel normal
|  4> end
|  5> * xyz 0 1
|  6> C -1.808704196 -1.0490365868 -0.6643633005
|  7> C -1.0369213057 -0.4446847173 0.5291206204
|  8> H -1.6929161306 -0.4987116932 1.4068525737
|  9> C -0.6803223555 1.0363802674 0.3216837122
| 10> H -1.502850694 1.5193675877 -0.2307313227
| 11> C 0.6185567161 1.240647605 -0.4964802999
| 12> H 0.9164502041 2.2952871787 -0.3939386979
| 13> C 1.7342306042 0.3626650818 0.0940528344
| 14> H 2.6178865637 0.4102873272 -0.5507974692
| 15> C 1.2511670607 -1.1000437216 0.1537362142
| 16> H 1.992765764 -1.6915806677 0.7126216823
| 17> O 0.0790689422 -1.2437648928 0.8997342721
| 18> O 1.123448097 -1.5771500309 -1.1627548553
| 19> O 2.1307754057 0.798846447 1.3607836546
| 20> O 0.4195838755 1.0148173203 -1.8648716155
| 21> O -0.5597276346 1.6089806805 1.6079932791
| 22> O -3.1552950356 -0.6550716328 -0.6807326401
| 23> H -1.82311294 -2.1348521951 -0.5387975723
| 24> H -1.3197148522 -0.8029235861 -1.6142557129
| 25> H 0.8477895065 -2.5012092387 -1.1379368693
| 26> H 1.3523438688 0.7789080014 1.9411393377
| 27> H 0.6381924226 0.0901670702 -2.0544865497
| 28> H -0.3448463186 2.5456340078 1.5241107543
| 29> H -3.2124686395 0.2890620512 -0.8642068299
| 30> *
| 31>
| 32>                          ****END OF INPUT****

CARTESIAN COORDINATES (ANGSTROEM)
---------------------------------
  C     -1.808704   -1.049037   -0.664363
  C     -1.036921   -0.444685    0.529121
  H     -1.692916   -0.498712    1.406853
  C     -0.680322    1.036380    0.321684
  H     -1.502851    1.519368   -0.230731
  C      0.618557    1.240648   -0.496480
  H      0.916450    2.295287   -0.393939
  C      1.734231    0.362665    0.094053
  H      2.617887    0.410287   -0.550797
  C      1.251167   -1.100044    0.153736
  H      1.992766   -1.691581    0.712622
  O      0.079069   -1.243765    0.899734
  O      1.123448   -1.577150   -1.162755
  O      2.130775    0.798846    1.360784
  O      0.419584    1.014817   -1.864872
  O     -0.559728    1.608981    1.607993
  O     -3.155295   -0.655072   -0.680733
  H     -1.823113   -2.134852   -0.538798
  H     -1.319715   -0.802924   -1.614256
  H      0.847790   -2.501209   -1.137937
  H      1.352344    0.778908    1.941139
  H      0.638192    0.090167   -2.054487
  H     -0.344846    2.545634    1.524111
  H     -3.212469    0.289062   -0.864207

 Total Charge           Charge          ....    0
 Multiplicity           Mult            ....    1
 Number of Electrons    NEL             ....   96
 Basis Dimension        Dim             ....  192

ORBITAL ENERGIES
----------------

  NO   OCC          E(Eh)            E(eV)
   0   2.0000     -18.790786      -511.3233
   1   2.0000     -18.779050      -511.0039
   2   2.0000     -18.775921      -510.9188
   3   2.0000     -18.752921      -510.2929
   4   2.0000     -18.751573      -510.2562
   5   2.0000     -18.749014      -510.1866
   6   2.0000      -9.995448      -271.9900
   7   2.0000      -9.956508      -270.9303
   8   2.0000      -9.949435      -270.7379
   9   2.0000      -9.948982      -270.7256
  10   2.0000      -9.947332      -270.6807
  11   2.0000      -9.935505      -270.3588
  12   2.0000      -0.998661       -27.1750
  13   2.0000      -0.956138       -26.0178
  14   2.0000      -0.935384       -25.4531
  15   2.0000      -0.932082       -25.3632
  16   2.0000      -0.929912       -25.3042
  17   2.0000      -0.922301       -25.0971
  18   2.0000      -0.709666       -19.3110
  19   2.0000      -0.692715       -18.8497
  20   2.0000      -0.627800       -17.0833
  21   2.0000      -0.597560       -16.2604
  22   2.0000      -0.585706       -15.9379
  23   2.0000      -0.532880       -14.5004
  24   2.0000      -0.512460       -13.9448
  25   2.0000      -0.499409       -13.5896
  26   2.0000      -0.480679       -13.0800
  27   2.0000      -0.459202       -12.4955
  28   2.0000      -0.446673       -12.1546
  29   2.0000      -0.441938       -12.0257
  30   2.0000      -0.425780       -11.5861
  31   2.0000      -0.405000       -11.0206
  32   2.0000      -0.396421       -10.7872
  33   2.0000      -0.374884       -10.2011
  34   2.0000      -0.368283       -10.0215
  35   2.0000      -0.364400        -9.9158
  36   2.0000      -0.339976        -9.2512
  37   2.0000      -0.333490        -9.0747
  38   2.0000      -0.318976        -8.6798
  39   2.0000      -0.297587        -8.0977
  40   2.0000      -0.283895        -7.7252
  41   2.0000      -0.275494        -7.4966
  42   2.0000      -0.267090        -7.2679
  43   2.0000      -0.259215        -7.0536
  44   2.0000      -0.252585        -6.8732
  45   2.0000      -0.226635        -6.1671
  46   2.0000      -0.215758        -5.8711
  47   2.0000      -0.206338        -5.6147
  48   0.0000       0.006200         0.1687
  49   0.0000       0.009860         0.2683
  50   0.0000       0.019669         0.5352
  51   0.0000       0.050184         1.3656
  52   0.0000       0.062108         1.6901

MULLIKEN ATOMIC CHARGES
-----------------------
   0 C :    0.021652
   1 C :    0.055473
   2 H :    0.089846
   3 C :    0.010354
   4 H :    0.054598
   5 C :    0.041240
   6 H :    0.065476
   7 C :    0.032768
   8 H :    0.090925
   9 C :    0.169214
  10 H :    0.080351
  11 O :   -0.304473
  12 O :   -0.413822
  13 O :   -0.423979
  14 O :   -0.419335
  15 O :   -0.412039
  16 O :   -0.428076
  17 H :    0.080142
  18 H :    0.068344
  19 H :    0.315740
  20 H :    0.298497
  21 H :    0.319262
  22 H :    0.307161
  23 H :    0.300681
Sum of atomic charges:   -0.0000000

LOEWDIN ATOMIC CHARGES
----------------------
   0 C :   -0.144935
   1 C :   -0.068745
   2 H :    0.127043
   3 C :   -0.078634
   4 H :    0.097330
   5 C :   -0.078185
   6 H :    0.107288
   7 C :   -0.083975
   8 H :    0.123379
   9 C :   -0.010841
  10 H :    0.105713
  11 O :   -0.133918
  12 O :   -0.311611
  13 O :   -0.311702
  14 O :   -0.318444
  15 O :   -0.306778
  16 O :   -0.327735
  17 H :    0.111936
  18 H :    0.095647
  19 H :    0.293089
  20 H :    0.270581
  21 H :    0.274305
  22 H :    0.288841
  23 H :    0.280348

  Mayer bond orders larger than 0.100000
B(  0-C ,  1-C ) :   1.0366 B(  0-C , 16-O ) :   1.0670 B(  0-C , 17-H ) :   0.9131
B(  0-C , 18-H ) :   0.9035 B(  1-C ,  2-H ) :   0.8899 B(  1-C ,  3-C ) :   0.9920
B(  1-C , 11-O ) :   0.9815 B(  3-C ,  4-H ) :   0.8843 B(  3-C ,  5-C ) :   0.9523
B(  3-C , 15-O ) :   1.0214 B(  5-C ,  6-H ) :   0.9029 B(  5-C ,  7-C ) :   0.9845
B(  5-C , 14-O ) :   1.0885 B(  7-C ,  8-H ) :   0.8934 B(  7-C ,  9-C ) :   0.9936
B(  7-C , 13-O ) :   1.0668 B(  9-C , 10-H ) :   0.9057 B(  9-C , 11-O ) :   1.0767
B(  9-C , 12-O ) :   1.0593 B( 12-O , 19-H ) :   0.8286 B( 13-O , 20-H ) :   0.8102
B( 14-O , 21-H ) :   0.7958 B( 15-O , 22-H ) :   0.8380 B( 16-O , 23-H ) :   0.8474

Dispersion correction           -0.026054474
FINAL SINGLE POINT ENERGY      -685.698381357341

DIPOLE MOMENT
-------------

Method             : SCF
Type of density    : Electron Density
Multiplicity       :   1
Irrep              :   0
Energy             :  -685.8321853182519590 Eh
Relativity type    :
Basis              : AO
                                X                 Y                 Z
Electronic contribution:      1.418175909      -0.248803260       1.498234906
Nuclear contribution   :     -1.435290988       0.280131524      -1.686733935
                        -----------------------------------------
Total Dipole Moment    :     -0.017115079       0.031328264      -0.188499029
                        -----------------------------------------
Magnitude (a.u.)       :      0.191849602
Magnitude (Debye)      :      0.487642936

Rotational constants in cm-1:             0.041141             0.028338             0.024562
Rotational constants in MHz :          1233.369992           849.550683           736.343725

                             ****ORCA TERMINATED NORMALLY****
TOTAL RUN TIME: 0 days 0 hours 26 minutes 12 seconds 475 msec
