                         Program Version 6.0.1  -  RELEASE   -
|  1> ! pbe def2-sv(p) def2/J RI DEFGRID1 loosescf d4 GCP(DFT/SV(P)) printgap
|  2> %output
|  3>     printlevel normal
|  4> end
|  5> * xyz 0 1
|  6> C -1.845114157 -1.0162104057 -0.7954425829
|  7> C -1.3030687646 -0.1739931629 0.3798279014
|  8> H -2.0964370951 -0.0583701703 1.1274035086
|  9> C -0.8255690593 1.2205146852 -0.0878824081
| 10> H -0.9810213088 1.3153642734 -1.1758227541
| 11> C 0.6745416863 1.3705737057 0.1907232571
| 12> H 0.8202701178 1.4459582639 1.278934951
| 13> C 1.3994441267 0.1293406281 -0.3321772101
| 14> H 1.1454199785 0.0035963403 -1.3987084313
| 15> C 0.9081500171 -1.0963983353 0.4647412996
| 16> H 1.6307975757 -1.2888287693 1.2727529997
| 17> O -0.2991998414 -0.867582359 1.109168899
| 18> O 0.787604227 -2.2358105773 -0.3552889803
| 19> O 2.788718091 0.2304142451 -0.1806412418
| 20> O 1.2167504057 2.495770728 -0.4547634055
| 21> O -1.4690476741 2.2857823132 0.5747684363
| 22> O -2.1698696888 -2.3117268653 -0.3960413518
| 23> H -1.1024471766 -1.0328784112 -1.6059926123
| 24> H -2.7656889076 -0.560739355 -1.1701455722
| 25> H 1.6595799323 -2.4691312569 -0.6899828842
| 26> H 3.0348076511 1.1312041921 -0.4308354329
| 27> H 0.6810007617 3.256997017 -0.2030603077
| 28> H -2.4228019033 2.1973873287 0.4754814337
| 29> H -1.3580919378 -2.7107738816 -0.0502800317
| 30> *
| 31>
| 32>                          ****END OF INPUT****

CARTESIAN COORDINATES (ANGSTROEM)
---------------------------------
  C     -1.845114   -1.016210   -0.795443
  C     -1.303069   -0.173993    0.379828
  H     -2.096437   -0.058370    1.127404
  C     -0.825569    1.220515   -0.087882
  H     -0.981021    1.315364   -1.175823
  C      0.674542    1.370574    0.190723
  H      0.820270    1.445958    1.278935
  C      1.399444    0.129341   -0.332177
  H      1.145420    0.003596   -1.398708
  C      0.908150   -1.096398    0.464741
  H      1.630798   -1.288829    1.272753
  O     -0.299200   -0.867582    1.109169
  O      0.787604   -2.235811   -0.355289
  O      2.788718    0.230414   -0.180641
  O      1.216750    2.495771   -0.454763
  O     -1.469048    2.285782    0.574768
  O     -2.169870   -2.311727   -0.396041
  H     -1.102447   -1.032878   -1.605993
  H     -2.765689   -0.560739   -1.170146
  H      1.659580   -2.469131   -0.689983
  H      3.034808    1.131204   -0.430835
  H      0.681001    3.256997   -0.203060
  H     -2.422802    2.197387    0.475481
  H     -1.358092   -2.710774   -0.050280

 Total Charge           Charge          ....    0
 Multiplicity           Mult            ....    1
 Number of Electrons    NEL             ....   96
 Basis Dimension        Dim             ....  192

ORBITAL ENERGIES
----------------

  NO   OCC          E(Eh)            E(eV)
   0   2.0000     -18.777911      -510.9729
   1   2.0000     -18.770376      -510.7679
   2   2.0000     -18.766881      -510.6728
   3   2.0000     -18.764557      -510.6096
   4   2.0000     -18.755885      -510.3736
   5   2.0000     -18.732982      -509.7504
   6   2.0000      -9.993389      -271.9339
   7   2.0000      -9.951318      -270.7891
   8   2.0000      -9.948244      -270.7055
   9   2.0000      -9.947354      -270.6813
  10   2.0000      -9.946358      -270.6542
  11   2.0000      -9.930071      -270.2110
  12   2.0000      -0.991397       -26.9773
  13   2.0000      -0.956385       -26.0246
  14   2.0000      -0.942261       -25.6402
  15   2.0000      -0.926406       -25.2088
  16   2.0000      -0.923252       -25.1230
  17   2.0000      -0.911302       -24.7978
  18   2.0000      -0.713774       -19.4228
  19   2.0000      -0.694695       -18.9036
  20   2.0000      -0.622257       -16.9325
  21   2.0000      -0.591806       -16.1039
  22   2.0000      -0.567055       -15.4304
  23   2.0000      -0.523003       -14.2316
  24   2.0000      -0.511465       -13.9177
  25   2.0000      -0.498430       -13.5630
  26   2.0000      -0.485297       -13.2056
  27   2.0000      -0.458454       -12.4752
  28   2.0000      -0.441871       -12.0239
  29   2.0000      -0.433823       -11.8049
  30   2.0000      -0.417918       -11.3721
  31   2.0000      -0.404547       -11.0083
  32   2.0000      -0.398201       -10.8356
  33   2.0000      -0.386775       -10.5247
  34   2.0000      -0.372244       -10.1293
  35   2.0000      -0.360325        -9.8050
  36   2.0000      -0.323841        -8.8121
  37   2.0000      -0.320243        -8.7143
  38   2.0000      -0.316340        -8.6081
  39   2.0000      -0.295963        -8.0536
  40   2.0000      -0.288833        -7.8595
  41   2.0000      -0.273567        -7.4441
  42   2.0000      -0.263115        -7.1597
  43   2.0000      -0.236835        -6.4446
  44   2.0000      -0.233803        -6.3621
  45   2.0000      -0.229027        -6.2321
  46   2.0000      -0.224997        -6.1225
  47   2.0000      -0.201665        -5.4876
  48   0.0000       0.008703         0.2368
  49   0.0000       0.026137         0.7112
  50   0.0000       0.031368         0.8536
  51   0.0000       0.043567         1.1855
  52   0.0000       0.053629         1.4593

MULLIKEN ATOMIC CHARGES
-----------------------
   0 C :    0.032963
   1 C :    0.015314
   2 H :    0.065051
   3 C :    0.041076
   4 H :    0.059047
   5 C :    0.047336
   6 H :    0.072042
   7 C :    0.006648
   8 H :    0.057994
   9 C :    0.233568
  10 H :    0.075299
  11 O :   -0.297053
  12 O :   -0.419069
  13 O :   -0.420134
  14 O :   -0.427528
  15 O :   -0.418236
  16 O :   -0.437079
  17 H :    0.081360
  18 H :    0.079908
  19 H :    0.313060
  20 H :    0.312533
  21 H :    0.313602
  22 H :    0.306946
  23 H :    0.305351
Sum of atomic charges:   -0.0000000

LOEWDIN ATOMIC CHARGES
----------------------
   0 C :   -0.144574
   1 C :   -0.076074
   2 H :    0.118397
   3 C :   -0.078929
   4 H :    0.102858
   5 C :   -0.074699
   6 H :    0.112941
   7 C :   -0.089517
   8 H :    0.101429
   9 C :    0.010570
  10 H :    0.107973
  11 O :   -0.118576
  12 O :   -0.323037
  13 O :   -0.320600
  14 O :   -0.322703
  15 O :   -0.323649
  16 O :   -0.331306
  17 H :    0.095623
  18 H :    0.111892
  19 H :    0.297605
  20 H :    0.288587
  21 H :    0.293182
  22 H :    0.288627
  23 H :    0.273980

  Mayer bond orders larger than 0.100000
B(  0-C ,  1-C ) :   1.0207 B(  0-C , 16-O ) :   1.0947 B(  0-C , 17-H ) :   0.9000
B(  0-C , 18-H ) :   0.9145 B(  1-C ,  2-H ) :   0.8880 B(  1-C ,  3-C ) :   0.9665
B(  1-C , 11-O ) :   1.0320 B(  3-C ,  4-H ) :   0.8823 B(  3-C ,  5-C ) :   1.0265
B(  3-C , 15-O ) :   1.0652 B(  5-C ,  6-H ) :   0.8697 B(  5-C ,  7-C ) :   1.0288
B(  5-C , 14-O ) :   1.0689 B(  7-C ,  8-H ) :   0.8678 B(  7-C ,  9-C ) :   0.9900
B(  7-C , 13-O ) :   1.0897 B(  9-C , 10-H ) :   0.8910 B(  9-C , 11-O ) :   1.0868
B(  9-C , 12-O ) :   1.0266 B( 12-O , 19-H ) :   0.8377 B( 13-O , 20-H ) :   0.8309
B( 14-O , 21-H ) :   0.8365 B( 15-O , 22-H ) :   0.8468 B( 16-O , 23-H ) :   0.8255

Dispersion correction           -0.024920383
FINAL SINGLE POINT ENERGY      -685.692497249698

DIPOLE MOMENT
-------------

Method             : SCF
Type of density    : Electron Density
Multiplicity       :   1
Irrep              :   0
Energy             :  -685.8242015248761163 Eh
Relativity type    :
Basis              : AO
                                X                 Y                 Z
Electronic contribution:      1.767057468      -0.336393253       2.065227644
Nuclear contribution   :     -1.633459109       1.147775575      -2.406933660
                        -----------------------------------------
Total Dipole Moment    :      0.133598359       0.811382322      -0.341706016
                        -----------------------------------------
Magnitude (a.u.)       :      0.890478969
Magnitude (Debye)      :      2.263417663

Rotational constants in cm-1:             0.040012             0.029031             0.019036
Rotational constants in MHz :          1199.537986           870.333357           570.696887

                             ****ORCA TERMINATED NORMALLY****
TOTAL RUN TIME: 0 days 0 hours 0 minutes 7 seconds 983 msec
