                         Program Version 6.0.1  -  RELEASE   -
|  1> ! r2scan-3c def2/J RI DEFGRID2 scfconv6 printgap
|  2> %output
|  3>     printlevel normal
|  4> end
|  5> * xyz 0 1
|  6> C 1.7402443948 0.2750407332 1.6972662406
|  7> C 3.1151021325 0.2164967525 1.8183564486
|  8> C 3.908621971 0.0602387678 0.6912564167
|  9> C 3.3107719316 -0.0344092609 -0.5638066934
| 10> C 1.9318859095 0.0164688021 -0.6817648853
| 11> C 1.1347349725 0.1662762354 0.4479465151
| 12> C -0.333491406 0.2322618726 0.3326579545
| 13> C -1.017178134 1.292048282 0.9192402918
| 14> C -2.394955093 1.3910184087 0.8306778665
| 15> C -3.1271413164 0.4177646714 0.1522247304
| 16> C -2.4553591887 -0.6579299014 -0.4275115322
| 17> C -1.0669320318 -0.7490758677 -0.3382188951
| 18> Cl -0.282767588 -2.11979301 -1.0177582006
| 19> Cl -3.3473852119 -1.8716865461 -1.2463136705
| 20> Cl -4.8327921332 0.5319523354 0.0345926682
| 21> Cl -3.2057545172 2.7177212009 1.5581781438
| 22> Cl 4.277884915 -0.212721365 -1.9762672643
| 23> Cl 5.6198049655 -0.0116838173 0.8486901536
| 24> H 1.1282495711 0.3853110614 2.5787977026
| 25> H 3.5839325968 0.2900885869 2.7866670367
| 26> H 1.4853764745 -0.0432658212 -1.661138906
| 27> H -0.4631174952 2.0584144512 1.4371293593
| 28> *
| 29>
| 30>                          ****END OF INPUT****

CARTESIAN COORDINATES (ANGSTROEM)
---------------------------------
  C      1.740244    0.275041    1.697266
  C      3.115102    0.216497    1.818356
  C      3.908622    0.060239    0.691256
  C      3.310772   -0.034409   -0.563807
  C      1.931886    0.016469   -0.681765
  C      1.134735    0.166276    0.447947
  C     -0.333491    0.232262    0.332658
  C     -1.017178    1.292048    0.919240
  C     -2.394955    1.391018    0.830678
  C     -3.127141    0.417765    0.152225
  C     -2.455359   -0.657930   -0.427512
  C     -1.066932   -0.749076   -0.338219
  Cl    -0.282768   -2.119793   -1.017758
  Cl    -3.347385   -1.871687   -1.246314
  Cl    -4.832792    0.531952    0.034593
  Cl    -3.205755    2.717721    1.558178
  Cl     4.277885   -0.212721   -1.976267
  Cl     5.619805   -0.011684    0.848690
  H      1.128250    0.385311    2.578798
  H      3.583933    0.290089    2.786667
  H      1.485376   -0.043266   -1.661139
  H     -0.463117    2.058414    1.437129

 Total Charge           Charge          ....    0
 Multiplicity           Mult            ....    1
 Number of Electrons    NEL             ....  178
 Basis Dimension        Dim             ....  410

ORBITAL ENERGIES
----------------

  NO   OCC          E(Eh)            E(eV)
   0   2.0000    -101.245187     -2755.0216
   1   2.0000    -101.244837     -2755.0121
   2   2.0000    -101.244111     -2754.9923
   3   2.0000    -101.243384     -2754.9725
   4   2.0000    -101.236386     -2754.7821
   5   2.0000    -101.235492     -2754.7578
   6   2.0000     -10.139983      -275.9230
   7   2.0000     -10.138574      -275.8846
   8   2.0000     -10.135173      -275.7921
   9   2.0000     -10.134559      -275.7754
  10   2.0000     -10.124719      -275.5076
  11   2.0000     -10.124294      -275.4960
  12   2.0000     -10.093886      -274.6686
  13   2.0000     -10.081736      -274.3380
  14   2.0000     -10.080003      -274.2908
  15   2.0000     -10.071299      -274.0540
  16   2.0000     -10.070825      -274.0411
  17   2.0000     -10.068033      -273.9651
  18   2.0000      -9.400971      -255.8134
  19   2.0000      -9.400671      -255.8053
  20   2.0000      -9.400006      -255.7872
  21   2.0000      -9.399408      -255.7709
  22   2.0000      -9.392307      -255.5777
  23   2.0000      -9.391403      -255.5531
  24   2.0000      -7.147654      -194.4975
  25   2.0000      -7.147340      -194.4890
  26   2.0000      -7.146506      -194.4663
  27   2.0000      -7.145939      -194.4509
  28   2.0000      -7.138717      -194.2544
  29   2.0000      -7.137834      -194.2303
  30   2.0000      -7.137298      -194.2158
  31   2.0000      -7.137017      -194.2081
  32   2.0000      -7.136269      -194.1878
  33   2.0000      -7.136209      -194.1861
  34   2.0000      -7.135892      -194.1775
  35   2.0000      -7.135753      -194.1737
  36   2.0000      -7.135488      -194.1665
  37   2.0000      -7.134726      -194.1458
  38   2.0000      -7.128634      -193.9800
  39   2.0000      -7.127812      -193.9576
  40   2.0000      -7.127699      -193.9545
  41   2.0000      -7.126924      -193.9335
  42   2.0000      -0.930308       -25.3150
  43   2.0000      -0.903015       -24.5723
  44   2.0000      -0.884571       -24.0704
  45   2.0000      -0.865253       -23.5447
  46   2.0000      -0.839367       -22.8403
  47   2.0000      -0.835957       -22.7475
  48   2.0000      -0.829038       -22.5593
  49   2.0000      -0.809186       -22.0191
  50   2.0000      -0.754593       -20.5335
  51   2.0000      -0.734486       -19.9864
  52   2.0000      -0.716045       -19.4846
  53   2.0000      -0.700464       -19.0606
  54   2.0000      -0.625069       -17.0090
  55   2.0000      -0.617568       -16.8049
  56   2.0000      -0.598436       -16.2843
  57   2.0000      -0.574082       -15.6216
  58   2.0000      -0.521974       -14.2036
  59   2.0000      -0.514610       -14.0033
  60   2.0000      -0.495876       -13.4935
  61   2.0000      -0.478323       -13.0158
  62   2.0000      -0.469752       -12.7826
  63   2.0000      -0.454507       -12.3678
  64   2.0000      -0.443328       -12.0636
  65   2.0000      -0.436666       -11.8823
  66   2.0000      -0.436195       -11.8695
  67   2.0000      -0.426879       -11.6160
  68   2.0000      -0.411947       -11.2096
  69   2.0000      -0.406950       -11.0737
  70   2.0000      -0.394328       -10.7302
  71   2.0000      -0.378711       -10.3052
  72   2.0000      -0.370702       -10.0873
  73   2.0000      -0.366546        -9.9742
  74   2.0000      -0.354902        -9.6574
  75   2.0000      -0.336911        -9.1678
  76   2.0000      -0.332593        -9.0503
  77   2.0000      -0.327162        -8.9025
  78   2.0000      -0.324205        -8.8221
  79   2.0000      -0.319372        -8.6905
  80   2.0000      -0.310364        -8.4454
  81   2.0000      -0.307253        -8.3608
  82   2.0000      -0.304359        -8.2820
  83   2.0000      -0.289547        -7.8790
  84   2.0000      -0.285235        -7.7616
  85   2.0000      -0.261819        -7.1244
  86   2.0000      -0.251761        -6.8508
  87   2.0000      -0.245470        -6.6796
  88   2.0000      -0.233540        -6.3549
  89   0.0000      -0.089909        -2.4466
  90   0.0000      -0.076505        -2.0818
  91   0.0000      -0.065623        -1.7857
  92   0.0000      -0.057564        -1.5664
  93   0.0000      -0.048584        -1.3220

MULLIKEN ATOMIC CHARGES
-----------------------
   0 C :   -0.176302
   1 C :   -0.230308
   2 C :    0.148485
   3 C :    0.068001
   4 C :   -0.225796
   5 C :    0.150036
   6 C :    0.178156
   7 C :   -0.328512
   8 C :    0.119014
   9 C :    0.076337
  10 C :    0.035004
  11 C :   -0.012739
  12 Cl:   -0.061245
  13 Cl:   -0.061135
  14 Cl:   -0.060457
  15 Cl:   -0.089642
  16 Cl:   -0.101373
  17 Cl:   -0.100665
  18 H :    0.159530
  19 H :    0.164081
  20 H :    0.175369
  21 H :    0.174162
Sum of atomic charges:   -0.0000000

LOEWDIN ATOMIC CHARGES
----------------------
   0 C :   -0.136203
   1 C :   -0.156301
   2 C :   -0.181728
   3 C :   -0.180158
   4 C :   -0.144101
   5 C :   -0.075573
   6 C :   -0.069855
   7 C :   -0.143274
   8 C :   -0.180349
   9 C :   -0.196961
  10 C :   -0.190002
  11 C :   -0.164764
  12 Cl:    0.197191
  13 Cl:    0.189799
  14 Cl:    0.189428
  15 Cl:    0.172788
  16 Cl:    0.162677
  17 Cl:    0.162956
  18 H :    0.180521
  19 H :    0.182841
  20 H :    0.189337
  21 H :    0.191732

  Mayer bond orders larger than 0.100000
B(  0-C ,  1-C ) :   1.3943 B(  0-C ,  5-C ) :   1.3722 B(  0-C , 18-H ) :   0.9432
B(  1-C ,  2-C ) :   1.3424 B(  1-C , 19-H ) :   0.9453 B(  2-C ,  3-C ) :   1.2798
B(  2-C , 17-Cl) :   1.0503 B(  3-C ,  4-C ) :   1.3549 B(  3-C , 16-Cl) :   1.0672
B(  4-C ,  5-C ) :   1.3694 B(  4-C , 20-H ) :   0.9243 B(  5-C ,  6-C ) :   0.7671
B(  6-C ,  7-C ) :   1.3636 B(  6-C , 11-C ) :   1.2531 B(  7-C ,  8-C ) :   1.3160
B(  7-C , 21-H ) :   0.9255 B(  8-C ,  9-C ) :   1.2137 B(  8-C , 15-Cl) :   1.0794
B(  9-C , 10-C ) :   1.0953 B(  9-C , 14-Cl) :   1.2497 B( 10-C , 11-C ) :   1.0988
B( 10-C , 13-Cl) :   1.2722 B( 11-C , 12-Cl) :   1.2909

Dispersion correction           -0.014338333
FINAL SINGLE POINT ENERGY     -3220.642080417623

DIPOLE MOMENT
-------------

Method             : SCF
Type of density    : Electron Density
Multiplicity       :   1
Irrep              :   0
Energy             : -3220.6399688508927284 Eh
Relativity type    :
Basis              : AO
                                X                 Y                 Z
Electronic contribution:     -7.787239991      -3.554789612      -6.680779244
Nuclear contribution   :      7.756986512       3.821068019       7.238065810
                        -----------------------------------------
Total Dipole Moment    :     -0.030253479       0.266278407       0.557286567
                        -----------------------------------------
Magnitude (a.u.)       :      0.618375113
Magnitude (Debye)      :      1.571784625

Rotational constants in cm-1:             0.015567             0.003857             0.003288
Rotational constants in MHz :           466.686167           115.640045            98.563236

                             ****ORCA TERMINATED NORMALLY****
TOTAL RUN TIME: 0 days 0 hours 0 minutes 55 seconds 400 msec
