                         Program Version 6.0.1  -  RELEASE   -
|  1> ! r2scan-3c def2/J RI DEFGRID2 scfconv6 printgap
|  2> %output
|  3>     printlevel normal
|  4> end
|  5> * xyz 0 1
|  6> C -1.265637519 1.2549772695 0.7262593467
|  7> C -0.5221630231 0.3127254189 0.0302155997
|  8> C -1.1732394818 -0.7512408547 -0.5930163142
|  9> C -2.5587943253 -0.8749966463 -0.507388113
| 10> C -3.2998154495 0.0707917653 0.2012749708
| 11> C -2.6432426407 1.1378075902 0.8144815436
| 12> Cl -3.5450335928 2.3106142872 1.6818103272
| 13> Cl -5.002109223 -0.0804648345 0.3088803295
| 14> Cl -3.3540781917 -2.1841102487 -1.2732267413
| 15> Cl -0.2699683116 -1.8997988939 -1.4929091823
| 16> C 0.9487445897 0.4404306718 -0.0615803914
| 17> C 1.5351899759 1.4426628729 -0.8328535348
| 18> C 2.9118036244 1.5562718187 -0.9394415293
| 19> C 3.7256355327 0.659699444 -0.2647683947
| 20> C 3.1688877797 -0.3491667367 0.5222334679
| 21> C 1.7816714752 -0.4484899761 0.6166990716
| 22> Cl 1.0836571962 -1.6664761635 1.6011651961
| 23> Cl 4.1739432131 -1.4523669007 1.3642830981
| 24> Cl 5.4283384964 0.7956001783 -0.3971783737
| 25> Cl 0.5279356513 2.5434075271 -1.6856743046
| 26> H -0.7675028285 2.0816220909 1.2067177157
| 27> H 3.349598623 2.3327120821 -1.5450680163
| 28> *
| 29>
| 30>                          ****END OF INPUT****

CARTESIAN COORDINATES (ANGSTROEM)
---------------------------------
  C     -1.265638    1.254977    0.726259
  C     -0.522163    0.312725    0.030216
  C     -1.173239   -0.751241   -0.593016
  C     -2.558794   -0.874997   -0.507388
  C     -3.299815    0.070792    0.201275
  C     -2.643243    1.137808    0.814482
  Cl    -3.545034    2.310614    1.681810
  Cl    -5.002109   -0.080465    0.308880
  Cl    -3.354078   -2.184110   -1.273227
  Cl    -0.269968   -1.899799   -1.492909
  C      0.948745    0.440431   -0.061580
  C      1.535190    1.442663   -0.832854
  C      2.911804    1.556272   -0.939442
  C      3.725636    0.659699   -0.264768
  C      3.168888   -0.349167    0.522233
  C      1.781671   -0.448490    0.616699
  Cl     1.083657   -1.666476    1.601165
  Cl     4.173943   -1.452367    1.364283
  Cl     5.428338    0.795600   -0.397178
  Cl     0.527936    2.543408   -1.685674
  H     -0.767503    2.081622    1.206718
  H      3.349599    2.332712   -1.545068

 Total Charge           Charge          ....    0
 Multiplicity           Mult            ....    1
 Number of Electrons    NEL             ....  210
 Basis Dimension        Dim             ....  454

ORBITAL ENERGIES
----------------

  NO   OCC          E(Eh)            E(eV)
   0   2.0000    -101.247738     -2755.0910
   1   2.0000    -101.247408     -2755.0820
   2   2.0000    -101.246864     -2755.0672
   3   2.0000    -101.245730     -2755.0364
   4   2.0000    -101.244874     -2755.0131
   5   2.0000    -101.244608     -2755.0059
   6   2.0000    -101.243621     -2754.9790
   7   2.0000    -101.243133     -2754.9657
   8   2.0000     -10.141956      -275.9767
   9   2.0000     -10.140976      -275.9500
  10   2.0000     -10.139442      -275.9082
  11   2.0000     -10.138872      -275.8927
  12   2.0000     -10.138443      -275.8811
  13   2.0000     -10.137478      -275.8548
  14   2.0000     -10.135145      -275.7913
  15   2.0000     -10.134006      -275.7603
  16   2.0000     -10.099191      -274.8130
  17   2.0000     -10.096170      -274.7308
  18   2.0000     -10.084048      -274.4009
  19   2.0000     -10.081028      -274.3187
  20   2.0000      -9.403661      -255.8866
  21   2.0000      -9.403387      -255.8792
  22   2.0000      -9.402785      -255.8628
  23   2.0000      -9.401511      -255.8281
  24   2.0000      -9.400687      -255.8057
  25   2.0000      -9.400436      -255.7989
  26   2.0000      -9.399537      -255.7744
  27   2.0000      -9.399051      -255.7612
  28   2.0000      -7.150187      -194.5665
  29   2.0000      -7.149779      -194.5554
  30   2.0000      -7.149353      -194.5438
  31   2.0000      -7.148187      -194.5120
  32   2.0000      -7.147359      -194.4895
  33   2.0000      -7.147111      -194.4828
  34   2.0000      -7.146081      -194.4547
  35   2.0000      -7.145556      -194.4405
  36   2.0000      -7.139944      -194.2878
  37   2.0000      -7.139675      -194.2804
  38   2.0000      -7.139091      -194.2645
  39   2.0000      -7.139086      -194.2644
  40   2.0000      -7.138937      -194.2604
  41   2.0000      -7.138134      -194.2385
  42   2.0000      -7.137812      -194.2297
  43   2.0000      -7.137025      -194.2083
  44   2.0000      -7.136776      -194.2015
  45   2.0000      -7.136764      -194.2012
  46   2.0000      -7.135917      -194.1782
  47   2.0000      -7.135797      -194.1749
  48   2.0000      -7.135672      -194.1715
  49   2.0000      -7.135308      -194.1616
  50   2.0000      -7.134951      -194.1519
  51   2.0000      -7.134526      -194.1403
  52   2.0000      -0.935666       -25.4608
  53   2.0000      -0.925802       -25.1923
  54   2.0000      -0.888197       -24.1691
  55   2.0000      -0.882463       -24.0130
  56   2.0000      -0.876063       -23.8389
  57   2.0000      -0.859695       -23.3935
  58   2.0000      -0.839211       -22.8361
  59   2.0000      -0.830810       -22.6075
  60   2.0000      -0.815882       -22.2013
  61   2.0000      -0.803140       -21.8545
  62   2.0000      -0.759596       -20.6697
  63   2.0000      -0.723222       -19.6799
  64   2.0000      -0.716571       -19.4989
  65   2.0000      -0.702281       -19.1100
  66   2.0000      -0.630007       -17.1434
  67   2.0000      -0.612170       -16.6580
  68   2.0000      -0.601145       -16.3580
  69   2.0000      -0.582049       -15.8384
  70   2.0000      -0.525180       -14.2909
  71   2.0000      -0.521001       -14.1771
  72   2.0000      -0.510603       -13.8942
  73   2.0000      -0.499534       -13.5930
  74   2.0000      -0.473746       -12.8913
  75   2.0000      -0.461098       -12.5471
  76   2.0000      -0.446199       -12.1417
  77   2.0000      -0.444832       -12.1045
  78   2.0000      -0.443816       -12.0768
  79   2.0000      -0.436520       -11.8783
  80   2.0000      -0.434962       -11.8359
  81   2.0000      -0.418520       -11.3885
  82   2.0000      -0.401174       -10.9165
  83   2.0000      -0.396678       -10.7941
  84   2.0000      -0.389469       -10.5980
  85   2.0000      -0.381512       -10.3815
  86   2.0000      -0.374131       -10.1806
  87   2.0000      -0.367421        -9.9980
  88   2.0000      -0.354748        -9.6532
  89   2.0000      -0.334525        -9.1029
  90   2.0000      -0.328659        -8.9433
  91   2.0000      -0.326312        -8.8794
  92   2.0000      -0.323788        -8.8107
  93   2.0000      -0.318738        -8.6733
  94   2.0000      -0.315931        -8.5969
  95   2.0000      -0.315275        -8.5791
  96   2.0000      -0.304287        -8.2801
  97   2.0000      -0.303061        -8.2467
  98   2.0000      -0.302391        -8.2285
  99   2.0000      -0.290002        -7.8914
 100   2.0000      -0.285026        -7.7560
 101   2.0000      -0.259188        -7.0529
 102   2.0000      -0.249859        -6.7990
 103   2.0000      -0.244274        -6.6470
 104   2.0000      -0.240393        -6.5414
 105   0.0000      -0.090515        -2.4631
 106   0.0000      -0.079818        -2.1720
 107   0.0000      -0.073310        -1.9949
 108   0.0000      -0.067487        -1.8364
 109   0.0000      -0.062608        -1.7036

MULLIKEN ATOMIC CHARGES
-----------------------
   0 C :   -0.270100
   1 C :    0.103844
   2 C :    0.066646
   3 C :    0.017409
   4 C :    0.073331
   5 C :    0.105692
   6 Cl:   -0.087161
   7 Cl:   -0.059716
   8 Cl:   -0.059302
   9 Cl:   -0.062081
  10 C :    0.088475
  11 C :    0.176252
  12 C :   -0.427585
  13 C :    0.191186
  14 C :   -0.012198
  15 C :    0.082940
  16 Cl:   -0.056220
  17 Cl:   -0.060937
  18 Cl:   -0.079720
  19 Cl:   -0.085472
  20 H :    0.175976
  21 H :    0.178740
Sum of atomic charges:   -0.0000000

LOEWDIN ATOMIC CHARGES
----------------------
   0 C :   -0.137639
   1 C :   -0.096609
   2 C :   -0.168879
   3 C :   -0.190346
   4 C :   -0.193394
   5 C :   -0.180545
   6 Cl:    0.175202
   7 Cl:    0.191301
   8 Cl:    0.192198
   9 Cl:    0.203343
  10 C :   -0.105666
  11 C :   -0.142885
  12 C :   -0.172878
  13 C :   -0.173143
  14 C :   -0.200819
  15 C :   -0.157648
  16 Cl:    0.212074
  17 Cl:    0.188134
  18 Cl:    0.181998
  19 Cl:    0.190676
  20 H :    0.192928
  21 H :    0.192598

  Mayer bond orders larger than 0.100000
B(  0-C ,  1-C ) :   1.3765 B(  0-C ,  5-C ) :   1.3242 B(  0-C , 20-H ) :   0.9198
B(  1-C ,  2-C ) :   1.2742 B(  1-C ,  9-Cl) :  -0.1111 B(  1-C , 10-C ) :   0.7600
B(  1-C , 11-C ) :  -0.1051 B(  2-C ,  3-C ) :   1.0778 B(  2-C ,  9-Cl) :   1.2700
B(  2-C , 10-C ) :  -0.1073 B(  3-C ,  4-C ) :   1.0981 B(  3-C ,  8-Cl) :   1.2853
B(  4-C ,  5-C ) :   1.2214 B(  4-C ,  7-Cl) :   1.2497 B(  5-C ,  6-Cl) :   1.0825
B( 10-C , 11-C ) :   1.3400 B( 10-C , 15-C ) :   1.2185 B( 11-C , 12-C ) :   1.3063
B( 11-C , 19-Cl) :   1.0251 B( 12-C , 13-C ) :   1.3066 B( 12-C , 19-Cl) :   0.1068
B( 12-C , 21-H ) :   0.9198 B( 13-C , 14-C ) :   1.2224 B( 13-C , 18-Cl) :   1.0787
B( 14-C , 15-C ) :   1.0842 B( 14-C , 17-Cl) :   1.2590 B( 15-C , 16-Cl) :   1.2450

Dispersion correction           -0.017212461
FINAL SINGLE POINT ENERGY     -4139.794490831422

DIPOLE MOMENT
-------------

Method             : SCF
Type of density    : Electron Density
Multiplicity       :   1
Irrep              :   0
Energy             : -4139.7918956259918559 Eh
Relativity type    :
Basis              : AO
                                X                 Y                 Z
Electronic contribution:     -3.354382010      -5.876453394       0.420073577
Nuclear contribution   :      3.707381706       6.334056757      -0.461250966
                        -----------------------------------------
Total Dipole Moment    :      0.352999696       0.457603363      -0.041177389
                        -----------------------------------------
Magnitude (a.u.)       :      0.579400725
Magnitude (Debye)      :      1.472719604

Rotational constants in cm-1:             0.010564             0.003501             0.003182
Rotational constants in MHz :           316.715697           104.945750            95.403555

                             ****ORCA TERMINATED NORMALLY****
TOTAL RUN TIME: 0 days 0 hours 1 minutes 22 seconds 254 msec
