                         Program Version 6.0.1  -  RELEASE   -
|  1> ! pbe def2-sv(p) def2/J RI DEFGRID1 loosescf d4 GCP(DFT/SV(P)) printgap
|  2> %output
|  3>     printlevel normal
|  4> end
|  5> * xyz 0 1
|  6> C -1.9439734502 -0.0578206631 0.000737152
|  7> C -0.6905581166 0.7929084193 -0.00093529
|  8> N 0.5399913125 -0.0309097571 -0.0001225712
|  9> O 0.4263567698 -1.2296464358 -0.000345872
| 10> O 1.5851514298 0.5748833987 0.0006344236
| 11> H -1.9737588994 -0.6963756309 -0.8782726064
| 12> H -1.9736199003 -0.6931820953 0.8820665975
| 13> H -2.8210610615 0.5828859528 -0.0003416727
| 14> H -0.6352394681 1.4363951018 0.880968281
| 15> H -0.6358701876 1.4335968335 -0.8849365227
| 16> *
| 17>
| 18>                          ****END OF INPUT****

CARTESIAN COORDINATES (ANGSTROEM)
---------------------------------
  C     -1.943973   -0.057821    0.000737
  C     -0.690558    0.792908   -0.000935
  N      0.539991   -0.030910   -0.000123
  O      0.426357   -1.229646   -0.000346
  O      1.585151    0.574883    0.000634
  H     -1.973759   -0.696376   -0.878273
  H     -1.973620   -0.693182    0.882067
  H     -2.821061    0.582886   -0.000342
  H     -0.635239    1.436395    0.880968
  H     -0.635870    1.433597   -0.884937

 Total Charge           Charge          ....    0
 Multiplicity           Mult            ....    1
 Number of Electrons    NEL             ....   40
 Basis Dimension        Dim             ....   80

ORBITAL ENERGIES
----------------

  NO   OCC          E(Eh)            E(eV)
   0   2.0000     -18.784158      -511.1429
   1   2.0000     -18.772831      -510.8347
   2   2.0000     -14.209206      -386.6522
   3   2.0000      -9.949398      -270.7369
   4   2.0000      -9.900743      -269.4129
   5   2.0000      -1.138886       -30.9907
   6   2.0000      -0.970394       -26.4058
   7   2.0000      -0.758233       -20.6326
   8   2.0000      -0.636227       -17.3126
   9   2.0000      -0.526578       -14.3289
  10   2.0000      -0.508657       -13.8413
  11   2.0000      -0.482203       -13.1214
  12   2.0000      -0.448612       -12.2073
  13   2.0000      -0.412796       -11.2328
  14   2.0000      -0.381234       -10.3739
  15   2.0000      -0.356744        -9.7075
  16   2.0000      -0.336599        -9.1593
  17   2.0000      -0.274315        -7.4645
  18   2.0000      -0.254333        -6.9207
  19   2.0000      -0.235451        -6.4069
  20   0.0000      -0.092187        -2.5085
  21   0.0000       0.029971         0.8156
  22   0.0000       0.073367         1.9964
  23   0.0000       0.078450         2.1347
  24   0.0000       0.091854         2.4995

MULLIKEN ATOMIC CHARGES
-----------------------
   0 C :   -0.283229
   1 C :   -0.119425
   2 N :    0.190633
   3 O :   -0.209780
   4 O :   -0.219639
   5 H :    0.125798
   6 H :    0.125753
   7 H :    0.115596
   8 H :    0.137111
   9 H :    0.137182
Sum of atomic charges:   -0.0000000

LOEWDIN ATOMIC CHARGES
----------------------
   0 C :   -0.356314
   1 C :   -0.196085
   2 N :    0.231891
   3 O :   -0.174914
   4 O :   -0.186880
   5 H :    0.132310
   6 H :    0.132292
   7 H :    0.131706
   8 H :    0.142974
   9 H :    0.143021

  Mayer bond orders larger than 0.100000
B(  0-C ,  1-C ) :   1.1595 B(  0-C ,  5-H ) :   0.9461 B(  0-C ,  6-H ) :   0.9462
B(  0-C ,  7-H ) :   0.9332 B(  1-C ,  2-N ) :   0.8816 B(  1-C ,  8-H ) :   0.9184
B(  1-C ,  9-H ) :   0.9184 B(  2-N ,  3-O ) :   1.5798 B(  2-N ,  4-O ) :   1.5462
B(  3-O ,  4-O ) :   0.3127

Dispersion correction           -0.005793011
FINAL SINGLE POINT ENERGY      -283.757174843747

DIPOLE MOMENT
-------------

Method             : SCF
Type of density    : Electron Density
Multiplicity       :   1
Irrep              :   0
Energy             :  -283.7974674951411771 Eh
Relativity type    :
Basis              : AO
                                X                 Y                 Z
Electronic contribution:      6.393493771      -1.306251705      -0.000263155
Nuclear contribution   :     -7.509702345       1.925875725      -0.000480422
                        -----------------------------------------
Total Dipole Moment    :     -1.116208575       0.619624021      -0.000743577
                        -----------------------------------------
Magnitude (a.u.)       :      1.276658162
Magnitude (Debye)      :      3.245007162

Rotational constants in cm-1:             0.369006             0.142699             0.106998
Rotational constants in MHz :         11062.522032          4278.013381          3207.718942

                             ****ORCA TERMINATED NORMALLY****
TOTAL RUN TIME: 0 days 0 hours 0 minutes 8 seconds 789 msec
