                         Program Version 6.0.1  -  RELEASE   -
|  1> ! r2scan-3c def2/J RI DEFGRID2 scfconv6 printgap
|  2> %output
|  3>     printlevel normal
|  4> end
|  5> * xyz 0 1
|  6> C -2.651698681 -0.5739884846 0.7701485294
|  7> C -1.8472050054 -0.6294286832 -0.5321480478
|  8> C -0.3797008284 -0.3927190699 -0.2817135636
|  9> C 0.4966316829 -1.465499896 -0.193855664
| 10> C 1.8430851281 -1.2807929464 0.06033592
| 11> C 2.3369936467 0.0010856513 0.2316551465
| 12> C 1.4849107543 1.0840356545 0.1508464848
| 13> C 0.1296367064 0.896221116 -0.0990864424
| 14> O -0.6517281964 2.0114786488 -0.1568418822
| 15> H -2.5320025523 0.3853349582 1.2701728197
| 16> H -2.3088086141 -1.3502035378 1.4503606836
| 17> H -3.7099239556 -0.7306142008 0.5715981135
| 18> H -2.2429659671 0.1025162354 -1.2451828825
| 19> H -1.9741239207 -1.6146453093 -0.9845324481
| 20> H 0.1099850712 -2.4656505709 -0.3306153012
| 21> H 2.5030545893 -2.1327398084 0.1226970703
| 22> H 3.3866714438 0.1588928803 0.4287770026
| 23> H 1.8437754111 2.0927824983 0.2817096126
| 24> H -1.5645194537 1.7608556386 -0.3406373656
| 25> *
| 26>
| 27>                          ****END OF INPUT****

CARTESIAN COORDINATES (ANGSTROEM)
---------------------------------
  C     -2.651699   -0.573988    0.770149
  C     -1.847205   -0.629429   -0.532148
  C     -0.379701   -0.392719   -0.281714
  C      0.496632   -1.465500   -0.193856
  C      1.843085   -1.280793    0.060336
  C      2.336994    0.001086    0.231655
  C      1.484911    1.084036    0.150846
  C      0.129637    0.896221   -0.099086
  O     -0.651728    2.011479   -0.156842
  H     -2.532003    0.385335    1.270173
  H     -2.308809   -1.350204    1.450361
  H     -3.709924   -0.730614    0.571598
  H     -2.242966    0.102516   -1.245183
  H     -1.974124   -1.614645   -0.984532
  H      0.109985   -2.465651   -0.330615
  H      2.503055   -2.132740    0.122697
  H      3.386671    0.158893    0.428777
  H      1.843775    2.092782    0.281710
  H     -1.564519    1.760856   -0.340637

 Total Charge           Charge          ....    0
 Multiplicity           Mult            ....    1
 Number of Electrons    NEL             ....   66
 Basis Dimension        Dim             ....  226

ORBITAL ENERGIES
----------------

  NO   OCC          E(Eh)            E(eV)
   0   2.0000     -18.984312      -516.5894
   1   2.0000     -10.092590      -274.6333
   2   2.0000     -10.048249      -273.4268
   3   2.0000     -10.039971      -273.2015
   4   2.0000     -10.031897      -272.9818
   5   2.0000     -10.031510      -272.9713
   6   2.0000     -10.030899      -272.9546
   7   2.0000     -10.026602      -272.8377
   8   2.0000     -10.024153      -272.7711
   9   2.0000      -1.029291       -28.0084
  10   2.0000      -0.823950       -22.4208
  11   2.0000      -0.763916       -20.7872
  12   2.0000      -0.709255       -19.2998
  13   2.0000      -0.694813       -18.9068
  14   2.0000      -0.613361       -16.6904
  15   2.0000      -0.573432       -15.6039
  16   2.0000      -0.567926       -15.4540
  17   2.0000      -0.508839       -13.8462
  18   2.0000      -0.466775       -12.7016
  19   2.0000      -0.440890       -11.9972
  20   2.0000      -0.416682       -11.3385
  21   2.0000      -0.408421       -11.1137
  22   2.0000      -0.396000       -10.7757
  23   2.0000      -0.384491       -10.4625
  24   2.0000      -0.361751        -9.8437
  25   2.0000      -0.355272        -9.6674
  26   2.0000      -0.347852        -9.4655
  27   2.0000      -0.331913        -9.0318
  28   2.0000      -0.314917        -8.5693
  29   2.0000      -0.308210        -8.3868
  30   2.0000      -0.299440        -8.1482
  31   2.0000      -0.229685        -6.2500
  32   2.0000      -0.202090        -5.4991
  33   0.0000      -0.028381        -0.7723
  34   0.0000      -0.014071        -0.3829
  35   0.0000       0.042801         1.1647
  36   0.0000       0.084580         2.3015
  37   0.0000       0.105333         2.8663

MULLIKEN ATOMIC CHARGES
-----------------------
   0 C :   -0.442694
   1 C :   -0.349536
   2 C :    0.022208
   3 C :   -0.201105
   4 C :   -0.190578
   5 C :   -0.122224
   6 C :   -0.294502
   7 C :    0.338212
   8 O :   -0.410776
   9 H :    0.144551
  10 H :    0.154416
  11 H :    0.152281
  12 H :    0.137113
  13 H :    0.156579
  14 H :    0.146337
  15 H :    0.144726
  16 H :    0.147262
  17 H :    0.156235
  18 H :    0.311495
Sum of atomic charges:   -0.0000000

LOEWDIN ATOMIC CHARGES
----------------------
   0 C :   -0.406795
   1 C :   -0.288095
   2 C :   -0.097851
   3 C :   -0.153578
   4 C :   -0.187823
   5 C :   -0.159093
   6 C :   -0.140077
   7 C :    0.188790
   8 O :   -0.500170
   9 H :    0.151698
  10 H :    0.158360
  11 H :    0.150842
  12 H :    0.154493
  13 H :    0.166823
  14 H :    0.168395
  15 H :    0.166214
  16 H :    0.167576
  17 H :    0.179532
  18 H :    0.280759

  Mayer bond orders larger than 0.100000
B(  0-C ,  1-C ) :   0.9308 B(  0-C ,  9-H ) :   0.9746 B(  0-C , 10-H ) :   0.9739
B(  0-C , 11-H ) :   0.9745 B(  1-C ,  2-C ) :   0.7989 B(  1-C , 12-H ) :   0.9974
B(  1-C , 13-H ) :   0.9716 B(  2-C ,  3-C ) :   1.3508 B(  2-C ,  7-C ) :   1.4314
B(  3-C ,  4-C ) :   1.4557 B(  3-C , 14-H ) :   0.9346 B(  4-C ,  5-C ) :   1.4205
B(  4-C , 15-H ) :   0.9443 B(  5-C ,  6-C ) :   1.3930 B(  5-C , 16-H ) :   0.9472
B(  6-C ,  7-C ) :   1.3947 B(  6-C , 17-H ) :   0.9466 B(  7-C ,  8-O ) :   0.9518
B(  8-O , 18-H ) :   0.8672

Dispersion correction           -0.006284339
FINAL SINGLE POINT ENERGY      -386.001342959378

DIPOLE MOMENT
-------------

Method             : SCF
Type of density    : Electron Density
Multiplicity       :   1
Irrep              :   0
Energy             :  -386.0020649333092706 Eh
Relativity type    :
Basis              : AO
                                X                 Y                 Z
Electronic contribution:      5.518542853       3.172550705      -1.217370034
Nuclear contribution   :     -6.097302240      -3.529105811       1.146319943
                        -----------------------------------------
Total Dipole Moment    :     -0.578759387      -0.356555106      -0.071050091
                        -----------------------------------------
Magnitude (a.u.)       :      0.683477934
Magnitude (Debye)      :      1.737262846

Rotational constants in cm-1:             0.089422             0.048300             0.033951
Rotational constants in MHz :          2680.794086          1447.994275          1017.815004

                             ****ORCA TERMINATED NORMALLY****
TOTAL RUN TIME: 0 days 0 hours 0 minutes 25 seconds 110 msec
