                         Program Version 6.0.1  -  RELEASE   -
|  1> ! pbe def2-sv(p) def2/J RI DEFGRID1 loosescf d4 GCP(DFT/SV(P)) printgap
|  2> %output
|  3>     printlevel normal
|  4> end
|  5> * xyz 0 1
|  6> C 0.7858251788 -1.2302352392 -0.0877194232
|  7> C -0.7496380964 -1.1609682269 -0.3166170287
|  8> N -1.3460119974 -0.0145379294 0.3464711944
|  9> C -0.7778865846 1.2285923441 -0.1549389684
| 10> C 0.7692712349 1.1570867742 -0.2820553916
| 11> N 1.3204517826 0.0196598502 0.4335441135
| 12> H 1.2984744831 -1.4347093452 -1.0327627444
| 13> H 1.0416987706 -2.024608872 0.6159443224
| 14> H -0.9724470232 -1.0614298702 -1.3822274502
| 15> H -1.2394223406 -2.0641484802 0.0520130908
| 16> H -1.189561533 -0.0884971198 1.3486620495
| 17> H -1.227378826 1.4204021696 -1.1341232139
| 18> H -1.078977567 2.0320709605 0.5198151766
| 19> H 1.0612758937 1.0437944842 -1.3294533769
| 20> H 1.2342386258 2.0652063111 0.1060569929
| 21> H 1.0987392418 0.1065737287 1.4222880395
| 22> *
| 23>
| 24>                          ****END OF INPUT****

CARTESIAN COORDINATES (ANGSTROEM)
---------------------------------
  C      0.785825   -1.230235   -0.087719
  C     -0.749638   -1.160968   -0.316617
  N     -1.346012   -0.014538    0.346471
  C     -0.777887    1.228592   -0.154939
  C      0.769271    1.157087   -0.282055
  N      1.320452    0.019660    0.433544
  H      1.298474   -1.434709   -1.032763
  H      1.041699   -2.024609    0.615944
  H     -0.972447   -1.061430   -1.382227
  H     -1.239422   -2.064148    0.052013
  H     -1.189562   -0.088497    1.348662
  H     -1.227379    1.420402   -1.134123
  H     -1.078978    2.032071    0.519815
  H      1.061276    1.043794   -1.329453
  H      1.234239    2.065206    0.106057
  H      1.098739    0.106574    1.422288

 Total Charge           Charge          ....    0
 Multiplicity           Mult            ....    1
 Number of Electrons    NEL             ....   48
 Basis Dimension        Dim             ....  104

ORBITAL ENERGIES
----------------

  NO   OCC          E(Eh)            E(eV)
   0   2.0000     -13.971328      -380.1792
   1   2.0000     -13.971148      -380.1743
   2   2.0000      -9.903996      -269.5014
   3   2.0000      -9.903950      -269.5002
   4   2.0000      -9.903506      -269.4881
   5   2.0000      -9.903503      -269.4880
   6   2.0000      -0.850223       -23.1357
   7   2.0000      -0.786547       -21.4030
   8   2.0000      -0.676109       -18.3979
   9   2.0000      -0.598002       -16.2725
  10   2.0000      -0.568669       -15.4743
  11   2.0000      -0.506260       -13.7760
  12   2.0000      -0.473611       -12.8876
  13   2.0000      -0.417002       -11.3472
  14   2.0000      -0.407724       -11.0947
  15   2.0000      -0.397873       -10.8267
  16   2.0000      -0.361269        -9.8306
  17   2.0000      -0.354458        -9.6453
  18   2.0000      -0.334667        -9.1068
  19   2.0000      -0.332221        -9.0402
  20   2.0000      -0.287783        -7.8310
  21   2.0000      -0.286577        -7.7982
  22   2.0000      -0.199610        -5.4317
  23   2.0000      -0.158228        -4.3056
  24   0.0000       0.013776         0.3749
  25   0.0000       0.047238         1.2854
  26   0.0000       0.070061         1.9065
  27   0.0000       0.072857         1.9825
  28   0.0000       0.090631         2.4662

MULLIKEN ATOMIC CHARGES
-----------------------
   0 C :   -0.088901
   1 C :   -0.088492
   2 N :   -0.334124
   3 C :   -0.088065
   4 C :   -0.089146
   5 N :   -0.334052
   6 H :    0.079182
   7 H :    0.083037
   8 H :    0.078059
   9 H :    0.088037
  10 H :    0.183131
  11 H :    0.078953
  12 H :    0.082926
  13 H :    0.078255
  14 H :    0.088023
  15 H :    0.183177
Sum of atomic charges:   -0.0000000

LOEWDIN ATOMIC CHARGES
----------------------
   0 C :   -0.194360
   1 C :   -0.194345
   2 N :   -0.253940
   3 C :   -0.194286
   4 C :   -0.194393
   5 N :   -0.253965
   6 H :    0.109611
   7 H :    0.111571
   8 H :    0.110903
   9 H :    0.113765
  10 H :    0.196816
  11 H :    0.109569
  12 H :    0.111540
  13 H :    0.110914
  14 H :    0.113766
  15 H :    0.196832

  Mayer bond orders larger than 0.100000
B(  0-C ,  1-C ) :   1.0360 B(  0-C ,  5-N ) :   1.1269 B(  0-C ,  6-H ) :   0.9208
B(  0-C ,  7-H ) :   0.9340 B(  1-C ,  2-N ) :   1.1263 B(  1-C ,  8-H ) :   0.9191
B(  1-C ,  9-H ) :   0.9328 B(  2-N ,  3-C ) :   1.1271 B(  2-N , 10-H ) :   0.8758
B(  3-C ,  4-C ) :   1.0358 B(  3-C , 11-H ) :   0.9208 B(  3-C , 12-H ) :   0.9340
B(  4-C ,  5-N ) :   1.1263 B(  4-C , 13-H ) :   0.9192 B(  4-C , 14-H ) :   0.9328
B(  5-N , 15-H ) :   0.8758

Dispersion correction           -0.013058510
FINAL SINGLE POINT ENERGY      -267.278880483280

DIPOLE MOMENT
-------------

Method             : SCF
Type of density    : Electron Density
Multiplicity       :   1
Irrep              :   0
Energy             :  -267.3442633900576197 Eh
Relativity type    :
Basis              : AO
                                X                 Y                 Z
Electronic contribution:     -0.035133164       0.006941926       1.075849533
Nuclear contribution   :      0.024852556      -0.004987427      -0.759197247
                        -----------------------------------------
Total Dipole Moment    :     -0.010280608       0.001954499       0.316652286
                        -----------------------------------------
Magnitude (a.u.)       :      0.316825159
Magnitude (Debye)      :      0.805305555

Rotational constants in cm-1:             0.156954             0.151951             0.091836
Rotational constants in MHz :          4705.359375          4555.376671          2753.162650

                             ****ORCA TERMINATED NORMALLY****
TOTAL RUN TIME: 0 days 0 hours 0 minutes 15 seconds 718 msec
