                         Program Version 6.0.1  -  RELEASE   -
|  1> ! r2scan-3c def2/J RI DEFGRID2 scfconv6 printgap
|  2> %output
|  3>     printlevel normal
|  4> end
|  5> * xyz 0 1
|  6> C -2.9784307934 0.604925813 0.7687236467
|  7> C -2.2722870639 0.3444674295 -0.5633741695
|  8> C -0.8520685027 -0.0861022077 -0.329465418
|  9> C -0.5392187496 -1.4252874096 -0.1404679074
| 10> C 0.7651528161 -1.8101140967 0.1177896537
| 11> C 1.7738085768 -0.8699596131 0.1931644577
| 12> C 1.4710543852 0.474596981 0.006863715
| 13> C 0.1619497144 0.8579731449 -0.251690423
| 14> O 2.4848380408 1.3813843998 0.0847339692
| 15> H -2.9783596302 -0.2959979436 1.3778755287
| 16> H -4.0082552645 0.9118745123 0.6009288687
| 17> H -2.4672672385 1.3899610171 1.3216154727
| 18> H -2.2913586254 1.255316726 -1.1653366873
| 19> H -2.8087385691 -0.4350205865 -1.1077300185
| 20> H -1.3202899331 -2.1689587817 -0.198979992
| 21> H 0.9995827086 -2.8545194852 0.2610037526
| 22> H 2.7952823698 -1.151563586 0.391979295
| 23> H -0.0685282328 1.906612054 -0.3970936254
| 24> H 2.1387331815 2.2694440412 -0.0643521956
| 25> *
| 26>
| 27>                          ****END OF INPUT****

CARTESIAN COORDINATES (ANGSTROEM)
---------------------------------
  C     -2.978431    0.604926    0.768724
  C     -2.272287    0.344467   -0.563374
  C     -0.852069   -0.086102   -0.329465
  C     -0.539219   -1.425287   -0.140468
  C      0.765153   -1.810114    0.117790
  C      1.773809   -0.869960    0.193164
  C      1.471054    0.474597    0.006864
  C      0.161950    0.857973   -0.251690
  O      2.484838    1.381384    0.084734
  H     -2.978360   -0.295998    1.377876
  H     -4.008255    0.911875    0.600929
  H     -2.467267    1.389961    1.321615
  H     -2.291359    1.255317   -1.165337
  H     -2.808739   -0.435021   -1.107730
  H     -1.320290   -2.168959   -0.198980
  H      0.999583   -2.854519    0.261004
  H      2.795282   -1.151564    0.391979
  H     -0.068528    1.906612   -0.397094
  H      2.138733    2.269444   -0.064352

 Total Charge           Charge          ....    0
 Multiplicity           Mult            ....    1
 Number of Electrons    NEL             ....   66
 Basis Dimension        Dim             ....  226

ORBITAL ENERGIES
----------------

  NO   OCC          E(Eh)            E(eV)
   0   2.0000     -18.984112      -516.5839
   1   2.0000     -10.094699      -274.6907
   2   2.0000     -10.042065      -273.2585
   3   2.0000     -10.035419      -273.0776
   4   2.0000     -10.033482      -273.0249
   5   2.0000     -10.030643      -272.9477
   6   2.0000     -10.025725      -272.8138
   7   2.0000     -10.022696      -272.7314
   8   2.0000     -10.022656      -272.7303
   9   2.0000      -1.028751       -27.9937
  10   2.0000      -0.825698       -22.4684
  11   2.0000      -0.757050       -20.6004
  12   2.0000      -0.708679       -19.2841
  13   2.0000      -0.693069       -18.8594
  14   2.0000      -0.607055       -16.5188
  15   2.0000      -0.588803       -16.0221
  16   2.0000      -0.547304       -14.8929
  17   2.0000      -0.508354       -13.8330
  18   2.0000      -0.468832       -12.7576
  19   2.0000      -0.442629       -12.0445
  20   2.0000      -0.412903       -11.2357
  21   2.0000      -0.402228       -10.9452
  22   2.0000      -0.395066       -10.7503
  23   2.0000      -0.381918       -10.3925
  24   2.0000      -0.361578        -9.8390
  25   2.0000      -0.354839        -9.6557
  26   2.0000      -0.339501        -9.2383
  27   2.0000      -0.331003        -9.0070
  28   2.0000      -0.309863        -8.4318
  29   2.0000      -0.302759        -8.2385
  30   2.0000      -0.296919        -8.0796
  31   2.0000      -0.229606        -6.2479
  32   2.0000      -0.202992        -5.5237
  33   0.0000      -0.029681        -0.8077
  34   0.0000      -0.013914        -0.3786
  35   0.0000       0.057612         1.5677
  36   0.0000       0.075010         2.0411
  37   0.0000       0.097513         2.6535

MULLIKEN ATOMIC CHARGES
-----------------------
   0 C :   -0.461345
   1 C :   -0.316160
   2 C :    0.253296
   3 C :   -0.266147
   4 C :   -0.122613
   5 C :   -0.299169
   6 C :    0.431116
   7 C :   -0.443903
   8 O :   -0.410593
   9 H :    0.152174
  10 H :    0.147121
  11 H :    0.148221
  12 H :    0.143880
  13 H :    0.148960
  14 H :    0.147546
  15 H :    0.145848
  16 H :    0.156865
  17 H :    0.136628
  18 H :    0.308274
Sum of atomic charges:   -0.0000000

LOEWDIN ATOMIC CHARGES
----------------------
   0 C :   -0.405467
   1 C :   -0.287206
   2 C :   -0.081095
   3 C :   -0.190239
   4 C :   -0.147195
   5 C :   -0.153321
   6 C :    0.185753
   7 C :   -0.171522
   8 O :   -0.495172
   9 H :    0.154851
  10 H :    0.149007
  11 H :    0.153211
  12 H :    0.159986
  13 H :    0.162277
  14 H :    0.168496
  15 H :    0.167954
  16 H :    0.179169
  17 H :    0.169743
  18 H :    0.280771

  Mayer bond orders larger than 0.100000
B(  0-C ,  1-C ) :   0.9250 B(  0-C ,  9-H ) :   0.9787 B(  0-C , 10-H ) :   0.9719
B(  0-C , 11-H ) :   0.9788 B(  1-C ,  2-C ) :   0.7665 B(  1-C , 12-H ) :   0.9946
B(  1-C , 13-H ) :   0.9910 B(  2-C ,  3-C ) :   1.3988 B(  2-C ,  7-C ) :   1.4265
B(  3-C ,  4-C ) :   1.4366 B(  3-C , 14-H ) :   0.9447 B(  4-C ,  5-C ) :   1.4104
B(  4-C , 15-H ) :   0.9500 B(  5-C ,  6-C ) :   1.4374 B(  5-C , 16-H ) :   0.9423
B(  6-C ,  7-C ) :   1.3684 B(  6-C ,  8-O ) :   0.9175 B(  7-C , 17-H ) :   0.9190
B(  8-O , 18-H ) :   0.8857

Dispersion correction           -0.006122314
FINAL SINGLE POINT ENERGY      -386.001877892185

DIPOLE MOMENT
-------------

Method             : SCF
Type of density    : Electron Density
Multiplicity       :   1
Irrep              :   0
Energy             :  -386.0024587656497488 Eh
Relativity type    :
Basis              : AO
                                X                 Y                 Z
Electronic contribution:      8.874004587      -0.385548234      -1.039085776
Nuclear contribution   :     -9.353492222       0.796476559       0.958103801
                        -----------------------------------------
Total Dipole Moment    :     -0.479487635       0.410928326      -0.080981974
                        -----------------------------------------
Magnitude (a.u.)       :      0.636654193
Magnitude (Debye)      :      1.618246354

Rotational constants in cm-1:             0.099391             0.039067             0.030151
Rotational constants in MHz :          2979.681667          1171.209470           903.900624

                             ****ORCA TERMINATED NORMALLY****
TOTAL RUN TIME: 0 days 0 hours 0 minutes 23 seconds 952 msec
