                         Program Version 6.0.1  -  RELEASE   -
|  1> ! r2scan-3c def2/J RI DEFGRID2 scfconv6 printgap
|  2> %output
|  3>     printlevel normal
|  4> end
|  5> * xyz 0 1
|  6> C 1.9273486281 -0.088601032 0.0077512031
|  7> C 0.6858138243 0.3527986722 -0.0476581146
|  8> C -0.5319653756 -0.517526107 0.0520239675
|  9> O -1.6803794298 0.2995454979 -0.0193937982
| 10> H 2.7684600328 0.5771800038 -0.0714150984
| 11> H 2.1546296127 -1.1348785448 0.1337962811
| 12> H 0.4611526088 1.4017559623 -0.1728013645
| 13> H -0.513509172 -1.0760289961 1.0013670867
| 14> H -0.5306620313 -1.2532328019 -0.7681443992
| 15> H -2.467063254 -0.2509004197 0.0406573372
| 16> *
| 17>
| 18>                          ****END OF INPUT****

CARTESIAN COORDINATES (ANGSTROEM)
---------------------------------
  C      1.927349   -0.088601    0.007751
  C      0.685814    0.352799   -0.047658
  C     -0.531965   -0.517526    0.052024
  O     -1.680379    0.299545   -0.019394
  H      2.768460    0.577180   -0.071415
  H      2.154630   -1.134879    0.133796
  H      0.461153    1.401756   -0.172801
  H     -0.513509   -1.076029    1.001367
  H     -0.530662   -1.253233   -0.768144
  H     -2.467063   -0.250900    0.040657

 Total Charge           Charge          ....    0
 Multiplicity           Mult            ....    1
 Number of Electrons    NEL             ....   32
 Basis Dimension        Dim             ....  111

ORBITAL ENERGIES
----------------

  NO   OCC          E(Eh)            E(eV)
   0   2.0000     -18.953109      -515.7403
   1   2.0000     -10.084468      -274.4123
   2   2.0000     -10.035383      -273.0766
   3   2.0000     -10.022681      -272.7310
   4   2.0000      -0.992165       -26.9982
   5   2.0000      -0.753729       -20.5100
   6   2.0000      -0.644522       -17.5383
   7   2.0000      -0.531866       -14.4728
   8   2.0000      -0.487247       -13.2587
   9   2.0000      -0.426187       -11.5971
  10   2.0000      -0.423175       -11.5152
  11   2.0000      -0.383206       -10.4276
  12   2.0000      -0.339208        -9.2303
  13   2.0000      -0.301135        -8.1943
  14   2.0000      -0.260726        -7.0947
  15   2.0000      -0.226534        -6.1643
  16   0.0000      -0.020540        -0.5589
  17   0.0000       0.055923         1.5217
  18   0.0000       0.104605         2.8465
  19   0.0000       0.140628         3.8267
  20   0.0000       0.151601         4.1253

MULLIKEN ATOMIC CHARGES
-----------------------
   0 C :   -0.353136
   1 C :   -0.085613
   2 C :   -0.140046
   3 O :   -0.439646
   4 H :    0.144458
   5 H :    0.138108
   6 H :    0.172223
   7 H :    0.135494
   8 H :    0.135440
   9 H :    0.292717
Sum of atomic charges:    0.0000000

LOEWDIN ATOMIC CHARGES
----------------------
   0 C :   -0.313443
   1 C :   -0.162491
   2 C :    0.014011
   3 O :   -0.625368
   4 H :    0.159809
   5 H :    0.155747
   6 H :    0.178233
   7 H :    0.164172
   8 H :    0.164288
   9 H :    0.265043

  Mayer bond orders larger than 0.100000
B(  0-C ,  1-C ) :   1.8976 B(  0-C ,  4-H ) :   0.9511 B(  0-C ,  5-H ) :   0.9811
B(  1-C ,  2-C ) :   0.9528 B(  1-C ,  6-H ) :   0.9452 B(  2-C ,  3-O ) :   0.9177
B(  2-C ,  7-H ) :   0.9684 B(  2-C ,  8-H ) :   0.9665 B(  3-O ,  9-H ) :   0.9013

Dispersion correction           -0.001687511
FINAL SINGLE POINT ENERGY      -193.063567371397

DIPOLE MOMENT
-------------

Method             : SCF
Type of density    : Electron Density
Multiplicity       :   1
Irrep              :   0
Energy             :  -193.0667696174081129 Eh
Relativity type    :
Basis              : AO
                                X                 Y                 Z
Electronic contribution:     -1.886772518       1.023567385      -0.095247591
Nuclear contribution   :      1.732276595      -1.624313995       0.153065007
                        -----------------------------------------
Total Dipole Moment    :     -0.154495923      -0.600746610       0.057817416
                        -----------------------------------------
Magnitude (a.u.)       :      0.622983413
Magnitude (Debye)      :      1.583497994

Rotational constants in cm-1:             1.174816             0.140726             0.128738
Rotational constants in MHz :         35220.109944          4218.862075          3859.459056

                             ****ORCA TERMINATED NORMALLY****
TOTAL RUN TIME: 0 days 0 hours 0 minutes 22 seconds 744 msec
