                         Program Version 6.0.1  -  RELEASE   -
|  1> ! pbe def2-sv(p) def2/J RI DEFGRID1 loosescf d4 GCP(DFT/SV(P)) printgap
|  2> %output
|  3>     printlevel normal
|  4> end
|  5> * xyz 0 1
|  6> C 2.1570686931 2.8876215538 0.9110945051
|  7> C 2.2187068645 1.7261871239 -0.0770114291
|  8> C 2.9195774402 0.4793733629 0.5208896538
|  9> C 1.8871524832 -0.5936174309 0.3514224878
| 10> C 1.9249302978 -1.9407581635 0.6329056237
| 11> C 0.7957198017 -2.7060654363 0.3707249578
| 12> C -0.3416455338 -2.1264836 -0.1621177824
| 13> C -0.3920033933 -0.7622777929 -0.4439710928
| 14> C 0.7404286412 0.0009963743 -0.1764061985
| 15> O 0.8608824501 1.3272704859 -0.3745197305
| 16> O -1.4936774615 -0.1828175389 -1.0459614086
| 17> C -2.7170896321 -0.1806100688 -0.4572152179
| 18> O -3.6884382014 0.1253107013 -1.0945214959
| 19> N -2.7413687083 -0.5267506343 0.8532512893
| 20> C -3.9650342973 -0.5261869432 1.6152812485
| 21> C 2.8706801516 2.1588545755 -1.3897253102
| 22> H 1.6618339413 2.5753248101 1.827886378
| 23> H 3.1607400867 3.2309310254 1.1470742422
| 24> H 1.5926743045 3.7088657725 0.4777296166
| 25> H 3.8407311717 0.2450732018 -0.0137109476
| 26> H 3.1681617484 0.6262254576 1.5743512936
| 27> H 2.8145263828 -2.3921201225 1.0439971799
| 28> H 0.8044899297 -3.7649262923 0.5762617277
| 29> H -1.2118524855 -2.7279095402 -0.378863361
| 30> H -1.8749902773 -0.6898914477 1.3422035636
| 31> H -4.1294512016 -1.5044704976 2.0708396752
| 32> H -4.7776258767 -0.305010496 0.9256643393
| 33> H -3.9390963861 0.2351919065 2.3976209862
| 34> H 3.8877874857 2.4981011824 -1.2119293008
| 35> H 2.2976906859 2.9677631699 -1.8350793897
| 36> H 2.8876190484 1.3248224708 -2.0879229858
| 37> *
| 38>
| 39>                          ****END OF INPUT****

CARTESIAN COORDINATES (ANGSTROEM)
---------------------------------
  C      2.157069    2.887622    0.911095
  C      2.218707    1.726187   -0.077011
  C      2.919577    0.479373    0.520890
  C      1.887152   -0.593617    0.351422
  C      1.924930   -1.940758    0.632906
  C      0.795720   -2.706065    0.370725
  C     -0.341646   -2.126484   -0.162118
  C     -0.392003   -0.762278   -0.443971
  C      0.740429    0.000996   -0.176406
  O      0.860882    1.327270   -0.374520
  O     -1.493677   -0.182818   -1.045961
  C     -2.717090   -0.180610   -0.457215
  O     -3.688438    0.125311   -1.094521
  N     -2.741369   -0.526751    0.853251
  C     -3.965034   -0.526187    1.615281
  C      2.870680    2.158855   -1.389725
  H      1.661834    2.575325    1.827886
  H      3.160740    3.230931    1.147074
  H      1.592674    3.708866    0.477730
  H      3.840731    0.245073   -0.013711
  H      3.168162    0.626225    1.574351
  H      2.814526   -2.392120    1.043997
  H      0.804490   -3.764926    0.576262
  H     -1.211852   -2.727910   -0.378863
  H     -1.874990   -0.689891    1.342204
  H     -4.129451   -1.504470    2.070840
  H     -4.777626   -0.305010    0.925664
  H     -3.939096    0.235192    2.397621
  H      3.887787    2.498101   -1.211929
  H      2.297691    2.967763   -1.835079
  H      2.887619    1.324822   -2.087923

 Total Charge           Charge          ....    0
 Multiplicity           Mult            ....    1
 Number of Electrons    NEL             ....  118
 Basis Dimension        Dim             ....  254

ORBITAL ENERGIES
----------------

  NO   OCC          E(Eh)            E(eV)
   0   2.0000     -18.798108      -511.5225
   1   2.0000     -18.790794      -511.3235
   2   2.0000     -18.705686      -509.0076
   3   2.0000     -14.017737      -381.4420
   4   2.0000     -10.019211      -272.6366
   5   2.0000      -9.969838      -271.2931
   6   2.0000      -9.957523      -270.9580
   7   2.0000      -9.953737      -270.8549
   8   2.0000      -9.916846      -269.8511
   9   2.0000      -9.907544      -269.5980
  10   2.0000      -9.907478      -269.5962
  11   2.0000      -9.901948      -269.4457
  12   2.0000      -9.901838      -269.4427
  13   2.0000      -9.898410      -269.3494
  14   2.0000      -9.889250      -269.1002
  15   2.0000      -9.887079      -269.0411
  16   2.0000      -1.007763       -27.4226
  17   2.0000      -0.986040       -26.8315
  18   2.0000      -0.914515       -24.8852
  19   2.0000      -0.835418       -22.7329
  20   2.0000      -0.784032       -21.3346
  21   2.0000      -0.744634       -20.2625
  22   2.0000      -0.701621       -19.0921
  23   2.0000      -0.678100       -18.4520
  24   2.0000      -0.639170       -17.3927
  25   2.0000      -0.632916       -17.2225
  26   2.0000      -0.625483       -17.0203
  27   2.0000      -0.580732       -15.8025
  28   2.0000      -0.561470       -15.2784
  29   2.0000      -0.530741       -14.4422
  30   2.0000      -0.523467       -14.2443
  31   2.0000      -0.510762       -13.8985
  32   2.0000      -0.466357       -12.6902
  33   2.0000      -0.446323       -12.1451
  34   2.0000      -0.438799       -11.9403
  35   2.0000      -0.435142       -11.8408
  36   2.0000      -0.429876       -11.6975
  37   2.0000      -0.414181       -11.2704
  38   2.0000      -0.399684       -10.8760
  39   2.0000      -0.381862       -10.3910
  40   2.0000      -0.378499       -10.2995
  41   2.0000      -0.371109       -10.0984
  42   2.0000      -0.367780       -10.0078
  43   2.0000      -0.362255        -9.8575
  44   2.0000      -0.361849        -9.8464
  45   2.0000      -0.348781        -9.4908
  46   2.0000      -0.345176        -9.3927
  47   2.0000      -0.340000        -9.2519
  48   2.0000      -0.330068        -8.9816
  49   2.0000      -0.328030        -8.9261
  50   2.0000      -0.320132        -8.7112
  51   2.0000      -0.310567        -8.4509
  52   2.0000      -0.293227        -7.9791
  53   2.0000      -0.286248        -7.7892
  54   2.0000      -0.262691        -7.1482
  55   2.0000      -0.224504        -6.1091
  56   2.0000      -0.217635        -5.9222
  57   2.0000      -0.210114        -5.7175
  58   2.0000      -0.192596        -5.2408
  59   0.0000      -0.045621        -1.2414
  60   0.0000      -0.027504        -0.7484
  61   0.0000       0.022789         0.6201
  62   0.0000       0.030154         0.8205
  63   0.0000       0.040660         1.1064

MULLIKEN ATOMIC CHARGES
-----------------------
   0 C :   -0.201345
   1 C :   -0.092369
   2 C :   -0.004594
   3 C :   -0.049492
   4 C :   -0.149187
   5 C :   -0.046539
   6 C :   -0.148024
   7 C :    0.044874
   8 C :    0.202180
   9 O :   -0.235677
  10 O :   -0.200469
  11 C :    0.199958
  12 O :   -0.194050
  13 N :   -0.335530
  14 C :   -0.179870
  15 C :   -0.194105
  16 H :    0.103199
  17 H :    0.105520
  18 H :    0.113380
  19 H :    0.094786
  20 H :    0.092604
  21 H :    0.034783
  22 H :    0.053132
  23 H :    0.051822
  24 H :    0.246254
  25 H :    0.110252
  26 H :    0.139771
  27 H :    0.112378
  28 H :    0.103197
  29 H :    0.114145
  30 H :    0.109015
Sum of atomic charges:    0.0000000

LOEWDIN ATOMIC CHARGES
----------------------
   0 C :   -0.326632
   1 C :    0.015540
   2 C :   -0.199429
   3 C :   -0.067500
   4 C :   -0.127551
   5 C :   -0.140811
   6 C :   -0.143619
   7 C :   -0.014032
   8 C :    0.019953
   9 O :   -0.060755
  10 O :   -0.036171
  11 C :    0.028717
  12 O :   -0.180959
  13 N :   -0.194248
  14 C :   -0.258685
  15 C :   -0.326961
  16 H :    0.122634
  17 H :    0.126178
  18 H :    0.128100
  19 H :    0.133739
  20 H :    0.131405
  21 H :    0.125329
  22 H :    0.125651
  23 H :    0.134672
  24 H :    0.236889
  25 H :    0.115407
  26 H :    0.138393
  27 H :    0.115666
  28 H :    0.124530
  29 H :    0.128208
  30 H :    0.126340

  Mayer bond orders larger than 0.100000
B(  0-C ,  1-C ) :   1.1035 B(  0-C , 16-H ) :   0.9380 B(  0-C , 17-H ) :   0.9410
B(  0-C , 18-H ) :   0.9408 B(  1-C ,  2-C ) :   1.0549 B(  1-C ,  9-O ) :   0.9374
B(  1-C , 15-C ) :   1.0992 B(  2-C ,  3-C ) :   1.0666 B(  2-C , 19-H ) :   0.8807
B(  2-C , 20-H ) :   0.8784 B(  3-C ,  4-C ) :   1.3870 B(  3-C ,  6-C ) :   0.1016
B(  3-C ,  8-C ) :   1.3302 B(  4-C ,  5-C ) :   1.2989 B(  4-C , 21-H ) :   0.9854
B(  5-C ,  6-C ) :   1.3349 B(  5-C , 22-H ) :   0.9645 B(  6-C ,  7-C ) :   1.3626
B(  6-C , 23-H ) :   0.9713 B(  7-C ,  8-C ) :   1.3359 B(  7-C , 10-O ) :   1.0631
B(  8-C ,  9-O ) :   1.1726 B( 10-O , 11-C ) :   1.0542 B( 11-C , 12-O ) :   2.0987
B( 11-C , 13-N ) :   1.1821 B( 13-N , 14-C ) :   1.0298 B( 13-N , 24-H ) :   0.8384
B( 14-C , 25-H ) :   0.9576 B( 14-C , 26-H ) :   0.9347 B( 14-C , 27-H ) :   0.9591
B( 15-C , 28-H ) :   0.9397 B( 15-C , 29-H ) :   0.9394 B( 15-C , 30-H ) :   0.9371

Dispersion correction           -0.036239748
FINAL SINGLE POINT ENERGY      -745.169967408573

DIPOLE MOMENT
-------------

Method             : SCF
Type of density    : Electron Density
Multiplicity       :   1
Irrep              :   0
Energy             :  -745.2715457594806594 Eh
Relativity type    :
Basis              : AO
                                X                 Y                 Z
Electronic contribution:     -7.855872794      -5.898445897      -5.785710777
Nuclear contribution   :      9.474547652       5.671182165       7.337802080
                        -----------------------------------------
Total Dipole Moment    :      1.618674858      -0.227263731       1.552091303
                        -----------------------------------------
Magnitude (a.u.)       :      2.254050690
Magnitude (Debye)      :      5.729341535

Rotational constants in cm-1:             0.028666             0.011683             0.009768
Rotational constants in MHz :           859.396861           350.243155           292.849649

                             ****ORCA TERMINATED NORMALLY****
TOTAL RUN TIME: 0 days 0 hours 0 minutes 25 seconds 565 msec
