                         Program Version 6.0.0  -   RELEASE  -
|  1> ! r2SCAN-3c DEF2-TZVP FREQ
|  2> * xyzfile 0 1 censo.xyz
|  3>
|  4>                          ****END OF INPUT****

CARTESIAN COORDINATES (ANGSTROEM)
---------------------------------
  C     -0.695695   -1.214101   -0.000008
  C      0.695699   -1.214102   -0.000005
  C      1.371385    0.000000    0.000000
  C      0.695701    1.214104    0.000000
  C     -0.695692    1.214106   -0.000003
  C     -1.371378    0.000003   -0.000006
  Cl    -3.130318    0.000005   -0.000010
  Cl     3.130324   -0.000001    0.000007
  H     -1.237259   -2.153058   -0.000011
  H      1.237261   -2.153061   -0.000005
  H      1.237265    2.153061    0.000003
  H     -1.237255    2.153064   -0.000003

 Total Charge           Charge          ....    0
 Multiplicity           Mult            ....    1
 Number of Electrons    NEL             ....   74
 Basis Dimension        Dim             ....  284

ORBITAL ENERGIES
----------------

  NO   OCC          E(Eh)            E(eV)
   0   2.0000    -101.198369     -2753.7476
   1   2.0000    -101.198366     -2753.7475
   2   2.0000     -10.114796      -275.2376
   3   2.0000     -10.114785      -275.2373
   4   2.0000     -10.066709      -273.9291
   5   2.0000     -10.066686      -273.9285
   6   2.0000     -10.066262      -273.9169
   7   2.0000     -10.066262      -273.9169
   8   2.0000      -9.374416      -255.0908
   9   2.0000      -9.374413      -255.0907
  10   2.0000      -7.119379      -193.7281
  11   2.0000      -7.119378      -193.7281
  12   2.0000      -7.109334      -193.4548
  13   2.0000      -7.109333      -193.4548
  14   2.0000      -7.108873      -193.4423
  15   2.0000      -7.108871      -193.4422
  16   2.0000      -0.878246       -23.8983
  17   2.0000      -0.842761       -22.9327
  18   2.0000      -0.791628       -21.5413
  19   2.0000      -0.747461       -20.3394
  20   2.0000      -0.696202       -18.9446
  21   2.0000      -0.610636       -16.6163
  22   2.0000      -0.579412       -15.7666
  23   2.0000      -0.500820       -13.6280
  24   2.0000      -0.464883       -12.6501
  25   2.0000      -0.452743       -12.3198
  26   2.0000      -0.421583       -11.4719
  27   2.0000      -0.417540       -11.3618
  28   2.0000      -0.395034       -10.7494
  29   2.0000      -0.358674        -9.7600
  30   2.0000      -0.356398        -9.6981
  31   2.0000      -0.347559        -9.4576
  32   2.0000      -0.297489        -8.0951
  33   2.0000      -0.296570        -8.0701
  34   2.0000      -0.291520        -7.9327
  35   2.0000      -0.266269        -7.2456
  36   2.0000      -0.231477        -6.2988
  37   0.0000      -0.063193        -1.7196
  38   0.0000      -0.057480        -1.5641
  39   0.0000      -0.017991        -0.4896
  40   0.0000       0.003134         0.0853
  41   0.0000       0.082050         2.2327

MULLIKEN ATOMIC CHARGES
-----------------------
   0 C :   -0.159344
   1 C :   -0.159323
   2 C :    0.170037
   3 C :   -0.159334
   4 C :   -0.159332
   5 C :    0.170044
   6 Cl:   -0.114429
   7 Cl:   -0.114428
   8 H :    0.131526
   9 H :    0.131527
  10 H :    0.131528
  11 H :    0.131527
Sum of atomic charges:    0.0000000

LOEWDIN ATOMIC CHARGES
----------------------
   0 C :   -0.133797
   1 C :   -0.133797
   2 C :   -0.412238
   3 C :   -0.133797
   4 C :   -0.133797
   5 C :   -0.412238
   6 Cl:    0.375022
   7 Cl:    0.375022
   8 H :    0.152405
   9 H :    0.152405
  10 H :    0.152405
  11 H :    0.152405

  Mayer bond orders larger than 0.100000
B(  0-C ,  1-C ) :   1.3652 B(  0-C ,  5-C ) :   1.3528 B(  0-C ,  8-H ) :   0.9672
B(  1-C ,  2-C ) :   1.3528 B(  1-C ,  9-H ) :   0.9672 B(  2-C ,  3-C ) :   1.3528
B(  2-C ,  7-Cl) :   0.9659 B(  3-C ,  4-C ) :   1.3652 B(  3-C , 10-H ) :   0.9672
B(  4-C ,  5-C ) :   1.3528 B(  4-C , 11-H ) :   0.9672 B(  5-C ,  6-Cl) :   0.9659

Dispersion correction           -0.004671680
FINAL SINGLE POINT ENERGY     -1151.370895882884

DIPOLE MOMENT
-------------

Method             : SCF
Type of density    : Electron Density
Multiplicity       :   1
Irrep              :   0
Energy             : -1151.3711149660284718 Eh
Relativity type    :
Basis              : AO
                                X                 Y                 Z
Electronic contribution:      0.000000415       0.000000428       0.000006361
Nuclear contribution   :     -0.000000100      -0.000000433      -0.000006984
                        -----------------------------------------
Total Dipole Moment    :      0.000000316      -0.000000006      -0.000000623
                        -----------------------------------------
Magnitude (a.u.)       :      0.000000699
Magnitude (Debye)      :      0.000001776

VIBRATIONAL FREQUENCIES
-----------------------

Scaling factor for frequencies =  1.000000000  (already applied!)

     0:       0.00 cm**-1
     1:       0.00 cm**-1
     2:       0.00 cm**-1
     3:       0.00 cm**-1
     4:       0.00 cm**-1
     5:       0.00 cm**-1
     6:     109.72 cm**-1
     7:     226.88 cm**-1
     8:     300.18 cm**-1
     9:     323.66 cm**-1
    10:     359.88 cm**-1
    11:     420.17 cm**-1
    12:     496.49 cm**-1
    13:     526.71 cm**-1
    14:     640.99 cm**-1
    15:     716.14 cm**-1
    16:     746.03 cm**-1
    17:     821.96 cm**-1
    18:     830.23 cm**-1
    19:     950.71 cm**-1
    20:     955.90 cm**-1
    21:    1030.10 cm**-1
    22:    1083.75 cm**-1
    23:    1084.00 cm**-1
    24:    1126.53 cm**-1
    25:    1196.70 cm**-1
    26:    1311.52 cm**-1
    27:    1329.61 cm**-1
    28:    1415.19 cm**-1
    29:    1496.26 cm**-1
    30:    1598.79 cm**-1
    31:    1611.03 cm**-1
    32:    3185.95 cm**-1
    33:    3186.83 cm**-1
    34:    3198.61 cm**-1
    35:    3200.18 cm**-1

IR SPECTRUM
-----------

 Mode   freq       eps      Int      T**2         TX        TY        TZ
       cm**-1   L/(mol*cm) km/mol    a.u.
----------------------------------------------------------------------------
  6:    109.72   0.000101    0.51  0.000288  (-0.000000 -0.000000  0.016967)
  7:    226.88   0.000178    0.90  0.000244  (-0.000000 -0.015629 -0.000000)
  8:    300.18   0.000000    0.00  0.000000  (-0.000000  0.000000 -0.000000)
  9:    323.66   0.000000    0.00  0.000000  ( 0.000000 -0.000000 -0.000000)
 10:    359.88   0.000000    0.00  0.000000  (-0.000000 -0.000000 -0.000000)
 11:    420.17   0.000000    0.00  0.000000  ( 0.000000  0.000000  0.000000)
 12:    496.49   0.003486   17.62  0.002191  (-0.000000  0.000001  0.046812)
 13:    526.71   0.009305   47.02  0.005513  (-0.074249  0.000000 -0.000000)
 14:    640.99   0.000000    0.00  0.000000  ( 0.000000 -0.000000  0.000000)
 15:    716.14   0.000000    0.00  0.000000  (-0.000000 -0.000000  0.000000)
 16:    746.03   0.000000    0.00  0.000000  ( 0.000000  0.000000  0.000000)
 17:    821.96   0.000000    0.00  0.000000  (-0.000000  0.000000 -0.000002)
 18:    830.23   0.010636   53.75  0.003998  ( 0.000000  0.000000  0.063228)
 19:    950.71   0.000000    0.00  0.000000  ( 0.000000 -0.000000  0.000000)
 20:    955.90   0.000000    0.00  0.000000  (-0.000000 -0.000000  0.000000)
 21:   1030.10   0.012873   65.06  0.003900  (-0.062449  0.000000 -0.000000)
 22:   1083.75   0.000000    0.00  0.000000  (-0.000055  0.000000  0.000000)
 23:   1084.00   0.020577  103.99  0.005924  (-0.076965 -0.000000 -0.000000)
 24:   1126.53   0.001430    7.23  0.000396  (-0.000000  0.019903  0.000000)
 25:   1196.70   0.000000    0.00  0.000000  (-0.000000  0.000000 -0.000000)
 26:   1311.52   0.000000    0.00  0.000000  (-0.000000  0.000000 -0.000000)
 27:   1329.61   0.000028    0.14  0.000007  (-0.000000  0.002579  0.000000)
 28:   1415.19   0.000996    5.03  0.000220  ( 0.000000 -0.014820 -0.000000)
 29:   1496.26   0.020108  101.62  0.004194  ( 0.064759 -0.000000  0.000000)
 30:   1598.79   0.000000    0.00  0.000000  (-0.000000  0.000000 -0.000000)
 31:   1611.03   0.000000    0.00  0.000000  (-0.000000 -0.000000 -0.000000)
 32:   3185.95   0.000169    0.86  0.000017  ( 0.004073 -0.000000  0.000000)
 33:   3186.83   0.000000    0.00  0.000000  ( 0.000002 -0.000000  0.000000)
 34:   3198.61   0.000140    0.71  0.000014  (-0.000000 -0.003691 -0.000000)
 35:   3200.18   0.000000    0.00  0.000000  (-0.000000 -0.000001  0.000000)

--------------------------
THERMOCHEMISTRY AT 298.15K
--------------------------

Temperature         ...   298.15 K
Pressure            ...     1.00 atm
Total Mass          ...   147.00 AMU
Quasi RRHO          ...     True
Cut-Off Frequency   ...     1.00 cm^-1

Throughout the following assumptions are being made:
  (1) The electronic state is orbitally nondegenerate
  (2) There are no thermally accessible electronically excited states
  (3) Hindered rotations indicated by low frequency modes are not
      treated as such but are treated as vibrations and this may
      cause some error
  (4) All equations used are the standard statistical mechanics
      equations for an ideal gas
  (5) All vibrations are strictly harmonic

freq.     109.72  E(vib)   ...       0.45
freq.     226.88  E(vib)   ...       0.33
freq.     300.18  E(vib)   ...       0.26
freq.     323.66  E(vib)   ...       0.25
freq.     359.88  E(vib)   ...       0.22
freq.     420.17  E(vib)   ...       0.18
freq.     496.49  E(vib)   ...       0.14
freq.     526.71  E(vib)   ...       0.13
freq.     640.99  E(vib)   ...       0.09
freq.     716.14  E(vib)   ...       0.07
freq.     746.03  E(vib)   ...       0.06
freq.     821.96  E(vib)   ...       0.05
freq.     830.23  E(vib)   ...       0.04
freq.     950.71  E(vib)   ...       0.03
freq.     955.90  E(vib)   ...       0.03
freq.    1030.10  E(vib)   ...       0.02
freq.    1083.75  E(vib)   ...       0.02
freq.    1084.00  E(vib)   ...       0.02
freq.    1126.53  E(vib)   ...       0.01
freq.    1196.70  E(vib)   ...       0.01
freq.    1311.52  E(vib)   ...       0.01
freq.    1329.61  E(vib)   ...       0.01
freq.    1415.19  E(vib)   ...       0.00
freq.    1496.26  E(vib)   ...       0.00
freq.    1598.79  E(vib)   ...       0.00
freq.    1611.03  E(vib)   ...       0.00
freq.    3185.95  E(vib)   ...       0.00
freq.    3186.83  E(vib)   ...       0.00
freq.    3198.61  E(vib)   ...       0.00
freq.    3200.18  E(vib)   ...       0.00

------------
INNER ENERGY
------------

The inner energy is: U= E(el) + E(ZPE) + E(vib) + E(rot) + E(trans)
    E(el)   - is the total energy from the electronic structure calculation
              = E(kin-el) + E(nuc-el) + E(el-el) + E(nuc-nuc)
    E(ZPE)  - the the zero temperature vibrational energy from the frequency calculation
    E(vib)  - the the finite temperature correction to E(ZPE) due to population
              of excited vibrational states
    E(rot)  - is the rotational thermal energy
    E(trans)- is the translational thermal energy

Summary of contributions to the inner energy U:
Electronic energy                ...  -1151.37089588 Eh
Zero point energy                ...      0.08083095 Eh      50.72 kcal/mol
Thermal vibrational correction   ...      0.00385554 Eh       2.42 kcal/mol
Thermal rotational correction    ...      0.00141627 Eh       0.89 kcal/mol
Thermal translational correction ...      0.00141627 Eh       0.89 kcal/mol
-----------------------------------------------------------------------
Total thermal energy                  -1151.28337685 Eh

Summary of corrections to the electronic energy:
(perhaps to be used in another calculation)
Total thermal correction                  0.00668808 Eh       4.20 kcal/mol
Non-thermal (ZPE) correction              0.08083095 Eh      50.72 kcal/mol
-----------------------------------------------------------------------
Total correction                          0.08751903 Eh      54.92 kcal/mol

--------
ENTHALPY
--------

The enthalpy is H = U + kB*T
                kB is Boltzmann's constant
Total thermal energy              ...  -1151.28337685 Eh
Thermal Enthalpy correction       ...      0.00094421 Eh       0.59 kcal/mol
-----------------------------------------------------------------------
Total Enthalpy                    ...  -1151.28243264 Eh

Note: Rotational entropy computed according to Herzberg
Infrared and Raman Spectra, Chapter V,1, Van Nostrand Reinhold, 1945
Point Group:  D2h, Symmetry Number:   4
Rotational constants in cm-1:     0.188332     0.021910     0.019627

Vibrational entropy computed according to the QRRHO of S. Grimme
Chem.Eur.J. 2012 18 9955 using a reference frequency of 100.0 cm-1

-------
ENTROPY
-------

The entropy contributions are T*S = T*(S(el)+S(vib)+S(rot)+S(trans))
     S(el)   - electronic entropy
     S(vib)  - vibrational entropy
     S(rot)  - rotational entropy
     S(trans)- translational entropy
The entropies will be listed as multiplied by the temperature to get
units of energy

Electronic entropy                ...      0.00000000 Eh      0.00 kcal/mol
Vibrational entropy               ...      0.00613310 Eh      3.85 kcal/mol
Rotational entropy                ...      0.01264957 Eh      7.94 kcal/mol
Translational entropy             ...      0.01941692 Eh     12.18 kcal/mol
-----------------------------------------------------------------------
Final entropy term                ...      0.03819959 Eh     23.97 kcal/mol

In case the symmetry of your molecule has not been determined correctly
or in case you have a reason to use a different symmetry number we print
out the resulting rotational entropy values for sn=1,12:

 non-linear molecules -----------------------------------
|  sn= 1 | S(rot)=       0.01395848 Eh      8.76 kcal/mol|
|  sn= 2 | S(rot)=       0.01330402 Eh      8.35 kcal/mol|
|  sn= 3 | S(rot)=       0.01292119 Eh      8.11 kcal/mol|
|  sn= 4 | S(rot)=       0.01264957 Eh      7.94 kcal/mol|
|  sn= 5 | S(rot)=       0.01243888 Eh      7.81 kcal/mol|
|  sn= 6 | S(rot)=       0.01226674 Eh      7.70 kcal/mol|
|  sn= 7 | S(rot)=       0.01212119 Eh      7.61 kcal/mol|
|  sn= 8 | S(rot)=       0.01199511 Eh      7.53 kcal/mol|
|  sn= 9 | S(rot)=       0.01188390 Eh      7.46 kcal/mol|
|  sn=10 | S(rot)=       0.01178442 Eh      7.39 kcal/mol|
|  sn=11 | S(rot)=       0.01169443 Eh      7.34 kcal/mol|
|  sn=12 | S(rot)=       0.01161228 Eh      7.29 kcal/mol|
 linear molecules ---------------------------------------
|  Dinfh | S(rot)=       0.00903725 Eh      5.67 kcal/mol|
|  Cinfv | S(rot)=       0.00969171 Eh      6.08 kcal/mol|
 --------------------------------------------------------

-------------------
GIBBS FREE ENERGY
-------------------

The Gibbs free energy is G = H - T*S

Total enthalpy                    ...  -1151.28243264 Eh
Total entropy correction          ...     -0.03819959 Eh    -23.97 kcal/mol
-----------------------------------------------------------------------
Final Gibbs free energy         ...  -1151.32063223 Eh

For completeness - the Gibbs free energy minus the electronic energy
G-E(el)                           ...      0.05026366 Eh     31.54 kcal/mol

                             ****ORCA TERMINATED NORMALLY****
TOTAL RUN TIME: 0 days 0 hours 7 minutes 42 seconds 720 msec
