                         Program Version 6.0.0  -   RELEASE  -
|  1> ! r2SCAN-3c DEF2-TZVP FREQ
|  2> * xyzfile 0 1 vacuum_censo.xyz
|  3>
|  4>                          ****END OF INPUT****

CARTESIAN COORDINATES (ANGSTROEM)
---------------------------------
  C     -0.695287   -1.211109    0.000060
  C      0.695234   -1.211153    0.000061
  C      1.377388   -0.000018    0.000061
  C      0.695279    1.211142    0.000055
  C     -0.695243    1.211147    0.000053
  C     -1.377362    0.000031    0.000059
  Cl    -3.128512    0.000065    0.000056
  Cl     3.128561   -0.000051    0.000065
  H     -1.242286   -2.146499    0.000057
  H      1.242216   -2.146571    0.000060
  H      1.242293    2.146541    0.000049
  H     -1.242210    2.146556    0.000045

 Total Charge           Charge          ....    0
 Multiplicity           Mult            ....    1
 Number of Electrons    NEL             ....   74
 Basis Dimension        Dim             ....  284

ORBITAL ENERGIES
----------------

  NO   OCC          E(Eh)            E(eV)
   0   2.0000    -101.199150     -2753.7689
   1   2.0000    -101.199145     -2753.7687
   2   2.0000     -10.113891      -275.2130
   3   2.0000     -10.113876      -275.2125
   4   2.0000     -10.065877      -273.9064
   5   2.0000     -10.065853      -273.9058
   6   2.0000     -10.065426      -273.8942
   7   2.0000     -10.065425      -273.8941
   8   2.0000      -9.375270      -255.1141
   9   2.0000      -9.375267      -255.1140
  10   2.0000      -7.120223      -193.7511
  11   2.0000      -7.120222      -193.7511
  12   2.0000      -7.110187      -193.4780
  13   2.0000      -7.110186      -193.4780
  14   2.0000      -7.109714      -193.4651
  15   2.0000      -7.109712      -193.4651
  16   2.0000      -0.878664       -23.9097
  17   2.0000      -0.844744       -22.9866
  18   2.0000      -0.792560       -21.5666
  19   2.0000      -0.746330       -20.3087
  20   2.0000      -0.696243       -18.9457
  21   2.0000      -0.610365       -16.6089
  22   2.0000      -0.578457       -15.7406
  23   2.0000      -0.501141       -13.6367
  24   2.0000      -0.464550       -12.6411
  25   2.0000      -0.452619       -12.3164
  26   2.0000      -0.420227       -11.4350
  27   2.0000      -0.418631       -11.3915
  28   2.0000      -0.395070       -10.7504
  29   2.0000      -0.360358        -9.8058
  30   2.0000      -0.354669        -9.6510
  31   2.0000      -0.348750        -9.4900
  32   2.0000      -0.297998        -8.1089
  33   2.0000      -0.296814        -8.0767
  34   2.0000      -0.292138        -7.9495
  35   2.0000      -0.265488        -7.2243
  36   2.0000      -0.230972        -6.2851
  37   0.0000      -0.062345        -1.6965
  38   0.0000      -0.057245        -1.5577
  39   0.0000      -0.016171        -0.4400
  40   0.0000       0.005189         0.1412
  41   0.0000       0.083275         2.2660

MULLIKEN ATOMIC CHARGES
-----------------------
   0 C :   -0.160636
   1 C :   -0.160632
   2 C :    0.170712
   3 C :   -0.160633
   4 C :   -0.160631
   5 C :    0.170734
   6 Cl:   -0.109771
   7 Cl:   -0.109773
   8 H :    0.130155
   9 H :    0.130159
  10 H :    0.130159
  11 H :    0.130156
Sum of atomic charges:    0.0000000

LOEWDIN ATOMIC CHARGES
----------------------
   0 C :   -0.134131
   1 C :   -0.134125
   2 C :   -0.419687
   3 C :   -0.134125
   4 C :   -0.134131
   5 C :   -0.419716
   6 Cl:    0.383937
   7 Cl:    0.383909
   8 H :    0.152017
   9 H :    0.152017
  10 H :    0.152018
  11 H :    0.152017

  Mayer bond orders larger than 0.100000
B(  0-C ,  1-C ) :   1.3668 B(  0-C ,  5-C ) :   1.3520 B(  0-C ,  8-H ) :   0.9680
B(  1-C ,  2-C ) :   1.3520 B(  1-C ,  9-H ) :   0.9680 B(  2-C ,  3-C ) :   1.3521
B(  2-C ,  7-Cl) :   0.9718 B(  3-C ,  4-C ) :   1.3669 B(  3-C , 10-H ) :   0.9680
B(  4-C ,  5-C ) :   1.3521 B(  4-C , 11-H ) :   0.9680 B(  5-C ,  6-Cl) :   0.9717

Dispersion correction           -0.004673836
FINAL SINGLE POINT ENERGY     -1151.371193443114

DIPOLE MOMENT
-------------

Method             : SCF
Type of density    : Electron Density
Multiplicity       :   1
Irrep              :   0
Energy             : -1151.3714430903148696 Eh
Relativity type    :
Basis              : AO
                                X                 Y                 Z
Electronic contribution:      0.000046666      -0.000000856       0.000022423
Nuclear contribution   :     -0.000068908       0.000000663      -0.000028075
                        -----------------------------------------
Total Dipole Moment    :     -0.000022242      -0.000000193      -0.000005652
                        -----------------------------------------
Magnitude (a.u.)       :      0.000022950
Magnitude (Debye)      :      0.000058334

VIBRATIONAL FREQUENCIES
-----------------------

Scaling factor for frequencies =  1.000000000  (already applied!)

     0:       0.00 cm**-1
     1:       0.00 cm**-1
     2:       0.00 cm**-1
     3:       0.00 cm**-1
     4:       0.00 cm**-1
     5:       0.00 cm**-1
     6:     107.08 cm**-1
     7:     225.94 cm**-1
     8:     300.12 cm**-1
     9:     325.99 cm**-1
    10:     360.32 cm**-1
    11:     419.32 cm**-1
    12:     492.09 cm**-1
    13:     533.98 cm**-1
    14:     641.70 cm**-1
    15:     716.00 cm**-1
    16:     750.76 cm**-1
    17:     821.74 cm**-1
    18:     831.05 cm**-1
    19:     950.44 cm**-1
    20:     955.77 cm**-1
    21:    1033.10 cm**-1
    22:    1089.15 cm**-1
    23:    1090.43 cm**-1
    24:    1125.35 cm**-1
    25:    1197.55 cm**-1
    26:    1313.12 cm**-1
    27:    1328.18 cm**-1
    28:    1417.63 cm**-1
    29:    1498.13 cm**-1
    30:    1603.57 cm**-1
    31:    1607.53 cm**-1
    32:    3188.48 cm**-1
    33:    3189.34 cm**-1
    34:    3201.10 cm**-1
    35:    3202.77 cm**-1

IR SPECTRUM
-----------

 Mode   freq       eps      Int      T**2         TX        TY        TZ
       cm**-1   L/(mol*cm) km/mol    a.u.
----------------------------------------------------------------------------
  6:    107.08   0.000091    0.46  0.000266  ( 0.000000 -0.000000 -0.016297)
  7:    225.94   0.000164    0.83  0.000227  ( 0.000000  0.015071 -0.000000)
  8:    300.12   0.000000    0.00  0.000000  ( 0.000000 -0.000000  0.000001)
  9:    325.99   0.000000    0.00  0.000000  ( 0.000006  0.000000  0.000000)
 10:    360.32   0.000000    0.00  0.000000  (-0.000000  0.000000 -0.000000)
 11:    419.32   0.000000    0.00  0.000000  ( 0.000000 -0.000000 -0.000000)
 12:    492.09   0.003569   18.04  0.002264  ( 0.000000  0.000001 -0.047577)
 13:    533.98   0.008748   44.21  0.005112  ( 0.071500 -0.000001  0.000000)
 14:    641.70   0.000000    0.00  0.000000  (-0.000000  0.000001 -0.000000)
 15:    716.00   0.000000    0.00  0.000000  ( 0.000000  0.000000  0.000004)
 16:    750.76   0.000000    0.00  0.000000  (-0.000006 -0.000000  0.000000)
 17:    821.74   0.000000    0.00  0.000000  ( 0.000000  0.000001  0.000007)
 18:    831.05   0.010445   52.78  0.003922  (-0.000000  0.000000 -0.062626)
 19:    950.44   0.000000    0.00  0.000000  (-0.000001  0.000000  0.000012)
 20:    955.77   0.000000    0.00  0.000000  ( 0.000000 -0.000000  0.000000)
 21:   1033.10   0.011286   57.03  0.003409  ( 0.058386 -0.000001  0.000000)
 22:   1089.15   0.000008    0.04  0.000002  (-0.001556  0.000000 -0.000000)
 23:   1090.43   0.021470  108.50  0.006144  ( 0.078386 -0.000001  0.000000)
 24:   1125.35   0.001514    7.65  0.000420  (-0.000000  0.020490 -0.000000)
 25:   1197.55   0.000000    0.00  0.000000  (-0.000003  0.000000  0.000000)
 26:   1313.12   0.000000    0.00  0.000000  (-0.000000  0.000003 -0.000000)
 27:   1328.18   0.000013    0.07  0.000003  ( 0.000000  0.001740 -0.000000)
 28:   1417.63   0.001039    5.25  0.000229  (-0.000000 -0.015126  0.000000)
 29:   1498.13   0.020361  102.90  0.004241  (-0.065125  0.000001 -0.000000)
 30:   1603.57   0.000000    0.00  0.000000  (-0.000013 -0.000000  0.000000)
 31:   1607.53   0.000000    0.00  0.000000  (-0.000000  0.000001 -0.000000)
 32:   3188.48   0.000209    1.05  0.000020  (-0.004520  0.000000  0.000000)
 33:   3189.34   0.000000    0.00  0.000000  ( 0.000012 -0.000026 -0.000000)
 34:   3201.10   0.000222    1.12  0.000022  ( 0.000000  0.004649 -0.000000)
 35:   3202.77   0.000000    0.00  0.000000  (-0.000021 -0.000007  0.000000)

--------------------------
THERMOCHEMISTRY AT 298.15K
--------------------------

Temperature         ...   298.15 K
Pressure            ...     1.00 atm
Total Mass          ...   147.00 AMU
Quasi RRHO          ...     True
Cut-Off Frequency   ...     1.00 cm^-1

Throughout the following assumptions are being made:
  (1) The electronic state is orbitally nondegenerate
  (2) There are no thermally accessible electronically excited states
  (3) Hindered rotations indicated by low frequency modes are not
      treated as such but are treated as vibrations and this may
      cause some error
  (4) All equations used are the standard statistical mechanics
      equations for an ideal gas
  (5) All vibrations are strictly harmonic

freq.     107.08  E(vib)   ...       0.45
freq.     225.94  E(vib)   ...       0.33
freq.     300.12  E(vib)   ...       0.26
freq.     325.99  E(vib)   ...       0.24
freq.     360.32  E(vib)   ...       0.22
freq.     419.32  E(vib)   ...       0.18
freq.     492.09  E(vib)   ...       0.14
freq.     533.98  E(vib)   ...       0.13
freq.     641.70  E(vib)   ...       0.09
freq.     716.00  E(vib)   ...       0.07
freq.     750.76  E(vib)   ...       0.06
freq.     821.74  E(vib)   ...       0.05
freq.     831.05  E(vib)   ...       0.04
freq.     950.44  E(vib)   ...       0.03
freq.     955.77  E(vib)   ...       0.03
freq.    1033.10  E(vib)   ...       0.02
freq.    1089.15  E(vib)   ...       0.02
freq.    1090.43  E(vib)   ...       0.02
freq.    1125.35  E(vib)   ...       0.01
freq.    1197.55  E(vib)   ...       0.01
freq.    1313.12  E(vib)   ...       0.01
freq.    1328.18  E(vib)   ...       0.01
freq.    1417.63  E(vib)   ...       0.00
freq.    1498.13  E(vib)   ...       0.00
freq.    1603.57  E(vib)   ...       0.00
freq.    1607.53  E(vib)   ...       0.00
freq.    3188.48  E(vib)   ...       0.00
freq.    3189.34  E(vib)   ...       0.00
freq.    3201.10  E(vib)   ...       0.00
freq.    3202.77  E(vib)   ...       0.00

------------
INNER ENERGY
------------

The inner energy is: U= E(el) + E(ZPE) + E(vib) + E(rot) + E(trans)
    E(el)   - is the total energy from the electronic structure calculation
              = E(kin-el) + E(nuc-el) + E(el-el) + E(nuc-nuc)
    E(ZPE)  - the the zero temperature vibrational energy from the frequency calculation
    E(vib)  - the the finite temperature correction to E(ZPE) due to population
              of excited vibrational states
    E(rot)  - is the rotational thermal energy
    E(trans)- is the translational thermal energy

Summary of contributions to the inner energy U:
Electronic energy                ...  -1151.37119344 Eh
Zero point energy                ...      0.08091537 Eh      50.78 kcal/mol
Thermal vibrational correction   ...      0.00385422 Eh       2.42 kcal/mol
Thermal rotational correction    ...      0.00141627 Eh       0.89 kcal/mol
Thermal translational correction ...      0.00141627 Eh       0.89 kcal/mol
-----------------------------------------------------------------------
Total thermal energy                  -1151.28359131 Eh

Summary of corrections to the electronic energy:
(perhaps to be used in another calculation)
Total thermal correction                  0.00668676 Eh       4.20 kcal/mol
Non-thermal (ZPE) correction              0.08091537 Eh      50.78 kcal/mol
-----------------------------------------------------------------------
Total correction                          0.08760213 Eh      54.97 kcal/mol

--------
ENTHALPY
--------

The enthalpy is H = U + kB*T
                kB is Boltzmann's constant
Total thermal energy              ...  -1151.28359131 Eh
Thermal Enthalpy correction       ...      0.00094421 Eh       0.59 kcal/mol
-----------------------------------------------------------------------
Total Enthalpy                    ...  -1151.28264710 Eh

Note: Rotational entropy computed according to Herzberg
Infrared and Raman Spectra, Chapter V,1, Van Nostrand Reinhold, 1945
Point Group:  D2h, Symmetry Number:   4
Rotational constants in cm-1:     0.189302     0.021921     0.019646

Vibrational entropy computed according to the QRRHO of S. Grimme
Chem.Eur.J. 2012 18 9955 using a reference frequency of 100.0 cm-1

-------
ENTROPY
-------

The entropy contributions are T*S = T*(S(el)+S(vib)+S(rot)+S(trans))
     S(el)   - electronic entropy
     S(vib)  - vibrational entropy
     S(rot)  - rotational entropy
     S(trans)- translational entropy
The entropies will be listed as multiplied by the temperature to get
units of energy

Electronic entropy                ...      0.00000000 Eh      0.00 kcal/mol
Vibrational entropy               ...      0.00613642 Eh      3.85 kcal/mol
Rotational entropy                ...      0.01264645 Eh      7.94 kcal/mol
Translational entropy             ...      0.01941692 Eh     12.18 kcal/mol
-----------------------------------------------------------------------
Final entropy term                ...      0.03819979 Eh     23.97 kcal/mol

In case the symmetry of your molecule has not been determined correctly
or in case you have a reason to use a different symmetry number we print
out the resulting rotational entropy values for sn=1,12:

 non-linear molecules -----------------------------------
|  sn= 1 | S(rot)=       0.01395537 Eh      8.76 kcal/mol|
|  sn= 2 | S(rot)=       0.01330091 Eh      8.35 kcal/mol|
|  sn= 3 | S(rot)=       0.01291808 Eh      8.11 kcal/mol|
|  sn= 4 | S(rot)=       0.01264645 Eh      7.94 kcal/mol|
|  sn= 5 | S(rot)=       0.01243577 Eh      7.80 kcal/mol|
|  sn= 6 | S(rot)=       0.01226362 Eh      7.70 kcal/mol|
|  sn= 7 | S(rot)=       0.01211808 Eh      7.60 kcal/mol|
|  sn= 8 | S(rot)=       0.01199200 Eh      7.53 kcal/mol|
|  sn= 9 | S(rot)=       0.01188079 Eh      7.46 kcal/mol|
|  sn=10 | S(rot)=       0.01178131 Eh      7.39 kcal/mol|
|  sn=11 | S(rot)=       0.01169132 Eh      7.34 kcal/mol|
|  sn=12 | S(rot)=       0.01160917 Eh      7.28 kcal/mol|
 linear molecules ---------------------------------------
|  Dinfh | S(rot)=       0.00903634 Eh      5.67 kcal/mol|
|  Cinfv | S(rot)=       0.00969079 Eh      6.08 kcal/mol|
 --------------------------------------------------------

-------------------
GIBBS FREE ENERGY
-------------------

The Gibbs free energy is G = H - T*S

Total enthalpy                    ...  -1151.28264710 Eh
Total entropy correction          ...     -0.03819979 Eh    -23.97 kcal/mol
-----------------------------------------------------------------------
Final Gibbs free energy         ...  -1151.32084690 Eh

For completeness - the Gibbs free energy minus the electronic energy
G-E(el)                           ...      0.05034655 Eh     31.59 kcal/mol

                             ****ORCA TERMINATED NORMALLY****
TOTAL RUN TIME: 0 days 0 hours 7 minutes 44 seconds 979 msec
