                         Program Version 6.0.1  -  RELEASE   -
|  1> ! r2scan-3c def2/J RI DEFGRID2 scfconv6 printgap
|  2> %output
|  3>     printlevel normal
|  4> end
|  5> * xyz 0 1
|  6> C 2.4905820081 1.1842277503 -0.0028897797
|  7> C 1.718018373 -0.1091434918 0.000170688
|  8> O 2.2661181863 -1.1863558342 0.0026672528
|  9> C 0.227946697 -0.0055150245 0.0001585607
| 10> C -0.4680973004 1.2019071707 0.0016092345
| 11> C -1.8542296251 1.162577505 0.0014932113
| 12> N -2.55580939 0.0429225322 -0.0002312811
| 13> C -1.8986564134 -1.1042580131 -0.0015714429
| 14> C -0.5163348882 -1.1856015179 -0.0013458105
| 15> H 3.5554490013 0.9664353847 -0.0042592891
| 16> H 2.2434454894 1.7689776518 0.8808527027
| 17> H 2.2403779962 1.7667877166 -0.8871593006
| 18> H 0.0410646691 2.1520550516 0.0028913821
| 19> H -2.4349726533 2.0759520132 0.0020788712
| 20> H -2.512644414 -1.9950849393 -0.0029147102
| 21> H -0.0029588599 -2.1346071328 -0.0023089517
| 22> *
| 23>
| 24>                          ****END OF INPUT****

CARTESIAN COORDINATES (ANGSTROEM)
---------------------------------
  C      2.490582    1.184228   -0.002890
  C      1.718018   -0.109143    0.000171
  O      2.266118   -1.186356    0.002667
  C      0.227947   -0.005515    0.000159
  C     -0.468097    1.201907    0.001609
  C     -1.854230    1.162578    0.001493
  N     -2.555809    0.042923   -0.000231
  C     -1.898656   -1.104258   -0.001571
  C     -0.516335   -1.185602   -0.001346
  H      3.555449    0.966435   -0.004259
  H      2.243445    1.768978    0.880853
  H      2.240378    1.766788   -0.887159
  H      0.041065    2.152055    0.002891
  H     -2.434973    2.075952    0.002079
  H     -2.512644   -1.995085   -0.002915
  H     -0.002959   -2.134607   -0.002309

 Total Charge           Charge          ....    0
 Multiplicity           Mult            ....    1
 Number of Electrons    NEL             ....   64
 Basis Dimension        Dim             ....  216

ORBITAL ENERGIES
----------------

  NO   OCC          E(Eh)            E(eV)
   0   2.0000     -18.952263      -515.7173
   1   2.0000     -14.168695      -385.5498
   2   2.0000     -10.135994      -275.8144
   3   2.0000     -10.080828      -274.3133
   4   2.0000     -10.078539      -274.2510
   5   2.0000     -10.071833      -274.0685
   6   2.0000     -10.063904      -273.8527
   7   2.0000     -10.056280      -273.6453
   8   2.0000     -10.046042      -273.3667
   9   2.0000      -1.023778       -27.8584
  10   2.0000      -0.929866       -25.3029
  11   2.0000      -0.800945       -21.7948
  12   2.0000      -0.747693       -20.3458
  13   2.0000      -0.725537       -19.7429
  14   2.0000      -0.631580       -17.1862
  15   2.0000      -0.615401       -16.7459
  16   2.0000      -0.544037       -14.8040
  17   2.0000      -0.486072       -13.2267
  18   2.0000      -0.472624       -12.8607
  19   2.0000      -0.446721       -12.1559
  20   2.0000      -0.434521       -11.8239
  21   2.0000      -0.421625       -11.4730
  22   2.0000      -0.411390       -11.1945
  23   2.0000      -0.404824       -11.0158
  24   2.0000      -0.390532       -10.6269
  25   2.0000      -0.366979        -9.9860
  26   2.0000      -0.352409        -9.5895
  27   2.0000      -0.342167        -9.3108
  28   2.0000      -0.284045        -7.7293
  29   2.0000      -0.262182        -7.1343
  30   2.0000      -0.240679        -6.5492
  31   2.0000      -0.230275        -6.2661
  32   0.0000      -0.107831        -2.9342
  33   0.0000      -0.054364        -1.4793
  34   0.0000      -0.009128        -0.2484
  35   0.0000       0.065638         1.7861
  36   0.0000       0.098132         2.6703

MULLIKEN ATOMIC CHARGES
-----------------------
   0 C :   -0.557814
   1 C :    0.262635
   2 O :   -0.333798
   3 C :    0.117786
   4 C :   -0.106429
   5 C :   -0.135439
   6 N :   -0.157970
   7 C :   -0.128406
   8 C :   -0.098356
   9 H :    0.184495
  10 H :    0.172247
  11 H :    0.172441
  12 H :    0.151370
  13 H :    0.135090
  14 H :    0.136200
  15 H :    0.185948
Sum of atomic charges:    0.0000000

LOEWDIN ATOMIC CHARGES
----------------------
   0 C :   -0.381924
   1 C :    0.242252
   2 O :   -0.450304
   3 C :   -0.046982
   4 C :   -0.122464
   5 C :    0.084063
   6 N :   -0.599877
   7 C :    0.086487
   8 C :   -0.083207
   9 H :    0.177812
  10 H :    0.175378
  11 H :    0.175330
  12 H :    0.175911
  13 H :    0.186835
  14 H :    0.187589
  15 H :    0.193102

  Mayer bond orders larger than 0.100000
B(  0-C ,  1-C ) :   0.8883 B(  0-C ,  9-H ) :   0.9783 B(  0-C , 10-H ) :   0.9568
B(  0-C , 11-H ) :   0.9575 B(  1-C ,  2-O ) :   1.9323 B(  1-C ,  3-C ) :   0.8832
B(  2-O ,  3-C ) :  -0.1085 B(  3-C ,  4-C ) :   1.3487 B(  3-C ,  8-C ) :   1.3432
B(  4-C ,  5-C ) :   1.3349 B(  4-C , 12-H ) :   0.9216 B(  5-C ,  6-N ) :   1.4807
B(  5-C , 13-H ) :   0.9967 B(  6-N ,  7-C ) :   1.4362 B(  7-C ,  8-C ) :   1.3092
B(  7-C , 14-H ) :   0.9975 B(  8-C , 15-H ) :   0.9541

Dispersion correction           -0.005277425
FINAL SINGLE POINT ENERGY      -400.831440277752

DIPOLE MOMENT
-------------

Method             : SCF
Type of density    : Electron Density
Multiplicity       :   1
Irrep              :   0
Energy             :  -400.8335997976404315 Eh
Relativity type    :
Basis              : AO
                                X                 Y                 Z
Electronic contribution:     -2.740753476      -3.378813133       0.007889149
Nuclear contribution   :      2.955782482       4.298734842      -0.010112114
                        -----------------------------------------
Total Dipole Moment    :      0.215029006       0.919921709      -0.002222965
                        -----------------------------------------
Magnitude (a.u.)       :      0.944721316
Magnitude (Debye)      :      2.401290753

Rotational constants in cm-1:             0.128605             0.040971             0.031253
Rotational constants in MHz :          3855.477287          1228.269298           936.953562

                             ****ORCA TERMINATED NORMALLY****
TOTAL RUN TIME: 0 days 0 hours 0 minutes 19 seconds 958 msec
