                         Program Version 6.0.1  -  RELEASE   -
|  1> ! r2scan-3c def2/J RI DEFGRID2 scfconv6 printgap
|  2> %output
|  3>     printlevel normal
|  4> end
|  5> * xyz 0 1
|  6> C 2.3663975427 -0.6158282014 0.1331687192
|  7> C 0.9312279771 -0.2217757321 0.4473066103
|  8> H 0.6989297214 -0.5081106069 1.4867698301
|  9> C 0.6393305847 1.2795639758 0.243281622
| 10> C -0.7316938072 1.3123627299 -0.4468942886
| 11> C -1.1427236406 -0.1712380604 -0.5351358655
| 12> H -1.57027369 -0.4234160806 -1.5116100293
| 13> O 0.0586111609 -0.9083735454 -0.4325888846
| 14> C -2.142980354 -0.552763662 0.559305313
| 15> H 3.0496593703 -0.0954681392 0.7992401923
| 16> H 2.4895533011 -1.6877255067 0.2607708979
| 17> H 2.6016086176 -0.3616501201 -0.8971053245
| 18> H 0.6343707887 1.8097297543 1.1938939613
| 19> H 1.4048290292 1.7239301777 -0.3918358657
| 20> H -1.4644598976 1.8851351376 0.1183631815
| 21> H -0.6534213912 1.7444622591 -1.4434499343
| 22> H -2.3005452012 -1.6283663195 0.5518606346
| 23> H -3.0931613467 -0.055225471 0.3830203088
| 24> H -1.768870415 -0.26196601 1.5379538838
| 25> *
| 26>
| 27>                          ****END OF INPUT****

CARTESIAN COORDINATES (ANGSTROEM)
---------------------------------
  C      2.366398   -0.615828    0.133169
  C      0.931228   -0.221776    0.447307
  H      0.698930   -0.508111    1.486770
  C      0.639331    1.279564    0.243282
  C     -0.731694    1.312363   -0.446894
  C     -1.142724   -0.171238   -0.535136
  H     -1.570274   -0.423416   -1.511610
  O      0.058611   -0.908374   -0.432589
  C     -2.142980   -0.552764    0.559305
  H      3.049659   -0.095468    0.799240
  H      2.489553   -1.687726    0.260771
  H      2.601609   -0.361650   -0.897105
  H      0.634371    1.809730    1.193894
  H      1.404829    1.723930   -0.391836
  H     -1.464460    1.885135    0.118363
  H     -0.653421    1.744462   -1.443450
  H     -2.300545   -1.628366    0.551861
  H     -3.093161   -0.055225    0.383020
  H     -1.768870   -0.261966    1.537954

 Total Charge           Charge          ....    0
 Multiplicity           Mult            ....    1
 Number of Electrons    NEL             ....   56
 Basis Dimension        Dim             ....  198

ORBITAL ENERGIES
----------------

  NO   OCC          E(Eh)            E(eV)
   0   2.0000     -18.941639      -515.4282
   1   2.0000     -10.076201      -274.1874
   2   2.0000     -10.076146      -274.1859
   3   2.0000     -10.026957      -272.8474
   4   2.0000     -10.026807      -272.8433
   5   2.0000     -10.015786      -272.5434
   6   2.0000     -10.015410      -272.5332
   7   2.0000      -1.000635       -27.2287
   8   2.0000      -0.748097       -20.3568
   9   2.0000      -0.743691       -20.2369
  10   2.0000      -0.676595       -18.4111
  11   2.0000      -0.614818       -16.7301
  12   2.0000      -0.555205       -15.1079
  13   2.0000      -0.523656       -14.2494
  14   2.0000      -0.459943       -12.5157
  15   2.0000      -0.452697       -12.3185
  16   2.0000      -0.419044       -11.4028
  17   2.0000      -0.387655       -10.5486
  18   2.0000      -0.380466       -10.3530
  19   2.0000      -0.369529       -10.0554
  20   2.0000      -0.359771        -9.7899
  21   2.0000      -0.343205        -9.3391
  22   2.0000      -0.333776        -9.0825
  23   2.0000      -0.311292        -8.4707
  24   2.0000      -0.294777        -8.0213
  25   2.0000      -0.286974        -7.8089
  26   2.0000      -0.278301        -7.5729
  27   2.0000      -0.214141        -5.8271
  28   0.0000       0.067595         1.8394
  29   0.0000       0.100177         2.7259
  30   0.0000       0.103486         2.8160
  31   0.0000       0.115871         3.1530
  32   0.0000       0.128720         3.5027

MULLIKEN ATOMIC CHARGES
-----------------------
   0 C :   -0.502249
   1 C :    0.050370
   2 H :    0.137700
   3 C :   -0.344549
   4 C :   -0.330839
   5 C :    0.037820
   6 H :    0.143359
   7 O :   -0.231603
   8 C :   -0.477230
   9 H :    0.142980
  10 H :    0.153524
  11 H :    0.152684
  12 H :    0.154942
  13 H :    0.159458
  14 H :    0.157544
  15 H :    0.153414
  16 H :    0.156067
  17 H :    0.144137
  18 H :    0.142473
Sum of atomic charges:   -0.0000000

LOEWDIN ATOMIC CHARGES
----------------------
   0 C :   -0.382893
   1 C :    0.064758
   2 H :    0.162484
   3 C :   -0.267474
   4 C :   -0.265978
   5 C :    0.061065
   6 H :    0.177594
   7 O :   -0.752187
   8 C :   -0.395206
   9 H :    0.157348
  10 H :    0.160856
  11 H :    0.159630
  12 H :    0.161289
  13 H :    0.162832
  14 H :    0.162148
  15 H :    0.161659
  16 H :    0.161151
  17 H :    0.155913
  18 H :    0.155013

  Mayer bond orders larger than 0.100000
B(  0-C ,  1-C ) :   0.9514 B(  0-C ,  9-H ) :   0.9720 B(  0-C , 10-H ) :   0.9705
B(  0-C , 11-H ) :   0.9888 B(  1-C ,  2-H ) :   0.9150 B(  1-C ,  3-C ) :   0.9095
B(  1-C ,  7-O ) :   0.8219 B(  3-C ,  4-C ) :   0.9226 B(  3-C , 12-H ) :   0.9708
B(  3-C , 13-H ) :   0.9788 B(  4-C ,  5-C ) :   0.9177 B(  4-C , 14-H ) :   0.9982
B(  4-C , 15-H ) :   0.9483 B(  5-C ,  6-H ) :   0.9235 B(  5-C ,  7-O ) :   0.9146
B(  5-C ,  8-C ) :   0.9439 B(  8-C , 16-H ) :   0.9744 B(  8-C , 17-H ) :   0.9697
B(  8-C , 18-H ) :   0.9755

Dispersion correction           -0.005070803
FINAL SINGLE POINT ENERGY      -310.994605948650

DIPOLE MOMENT
-------------

Method             : SCF
Type of density    : Electron Density
Multiplicity       :   1
Irrep              :   0
Energy             :  -310.9997057719326676 Eh
Relativity type    :
Basis              : AO
                                X                 Y                 Z
Electronic contribution:     -0.117697308      -1.493955569      -1.729316343
Nuclear contribution   :      0.027343433       1.995445236       1.952351364
                        -----------------------------------------
Total Dipole Moment    :     -0.090353875       0.501489667       0.223035021
                        -----------------------------------------
Magnitude (a.u.)       :      0.556237656
Magnitude (Debye)      :      1.413843761

Rotational constants in cm-1:             0.153677             0.071104             0.057950
Rotational constants in MHz :          4607.134365          2131.635079          1737.308837

                             ****ORCA TERMINATED NORMALLY****
TOTAL RUN TIME: 0 days 0 hours 0 minutes 30 seconds 20 msec
