                         Program Version 6.0.0  -   RELEASE  -
|  1> ! M062X DEF2-TZVP FREQ
|  2> * xyzfile 0 1 censo.xyz
|  3>
|  4>                          ****END OF INPUT****

CARTESIAN COORDINATES (ANGSTROEM)
---------------------------------
  C      2.202719    0.493308    0.122189
  C      1.230316   -0.587863   -0.333154
  C     -0.109273   -0.579171    0.376335
  H      0.027384   -0.548981    1.460754
  C     -1.018832   -1.715618   -0.029473
  Cl    -0.994910    1.031613    0.011302
  H      2.356133    0.449455    1.205820
  H      1.835098    1.492351   -0.128845
  H      3.175203    0.362095   -0.361274
  H      1.662684   -1.577007   -0.128758
  H      1.065963   -0.534788   -1.416061
  H     -0.533902   -2.660678    0.240657
  H     -1.980674   -1.666144    0.486428
  H     -1.192209   -1.714129   -1.109678

 Total Charge           Charge          ....    0
 Multiplicity           Mult            ....    1
 Number of Electrons    NEL             ....   50
 Basis Dimension        Dim             ....  215

ORBITAL ENERGIES
----------------

  NO   OCC          E(Eh)            E(eV)
   0   2.0000    -102.618364     -2792.3876
   1   2.0000     -10.605733      -288.5967
   2   2.0000     -10.546765      -286.9921
   3   2.0000     -10.540342      -286.8173
   4   2.0000     -10.528723      -286.5011
   5   2.0000      -9.780277      -266.1349
   6   2.0000      -7.502002      -204.1399
   7   2.0000      -7.497396      -204.0145
   8   2.0000      -7.497266      -204.0110
   9   2.0000      -0.955095       -25.9895
  10   2.0000      -0.866308       -23.5734
  11   2.0000      -0.829820       -22.5805
  12   2.0000      -0.730819       -19.8866
  13   2.0000      -0.662051       -18.0153
  14   2.0000      -0.552121       -15.0240
  15   2.0000      -0.518454       -14.1078
  16   2.0000      -0.510846       -13.9008
  17   2.0000      -0.493334       -13.4243
  18   2.0000      -0.451380       -12.2827
  19   2.0000      -0.429029       -11.6745
  20   2.0000      -0.418710       -11.3937
  21   2.0000      -0.411767       -11.2048
  22   2.0000      -0.397913       -10.8278
  23   2.0000      -0.353005        -9.6058
  24   2.0000      -0.352300        -9.5866
  25   0.0000       0.055747         1.5169
  26   0.0000       0.065954         1.7947
  27   0.0000       0.088880         2.4185
  28   0.0000       0.100269         2.7285
  29   0.0000       0.124006         3.3744

MULLIKEN ATOMIC CHARGES
-----------------------
   0 C :   -0.420704
   1 C :   -0.248204
   2 C :   -0.044097
   3 H :    0.151450
   4 C :   -0.409070
   5 Cl:   -0.187652
   6 H :    0.134034
   7 H :    0.156012
   8 H :    0.141533
   9 H :    0.131086
  10 H :    0.148212
  11 H :    0.138957
  12 H :    0.157868
  13 H :    0.150576
Sum of atomic charges:   -0.0000000

LOEWDIN ATOMIC CHARGES
----------------------
   0 C :   -0.318864
   1 C :   -0.308285
   2 C :   -0.448652
   3 H :    0.141872
   4 C :   -0.316805
   5 Cl:    0.210911
   6 H :    0.121760
   7 H :    0.122527
   8 H :    0.122228
   9 H :    0.146414
  10 H :    0.142834
  11 H :    0.129093
  12 H :    0.126901
  13 H :    0.128066

  Mayer bond orders larger than 0.100000
B(  0-C ,  1-C ) :   0.9558 B(  0-C ,  6-H ) :   0.9716 B(  0-C ,  7-H ) :   0.9686
B(  0-C ,  8-H ) :   0.9771 B(  1-C ,  2-C ) :   0.9569 B(  1-C ,  9-H ) :   0.9566
B(  1-C , 10-H ) :   0.9605 B(  2-C ,  3-H ) :   0.9614 B(  2-C ,  4-C ) :   0.9675
B(  2-C ,  5-Cl) :   1.0219 B(  4-C , 11-H ) :   0.9591 B(  4-C , 12-H ) :   0.9746
B(  4-C , 13-H ) :   0.9628

FINAL SINGLE POINT ENERGY      -618.026438252135

DIPOLE MOMENT
-------------

Method             : SCF
Type of density    : Electron Density
Multiplicity       :   1
Irrep              :   0
Energy             :  -618.0264382521348807 Eh
Relativity type    :
Basis              : AO
                                X                 Y                 Z
Electronic contribution:     -6.960550023       6.680798428       0.072450757
Nuclear contribution   :      7.440411316      -7.496348839       0.043262037
                        -----------------------------------------
Total Dipole Moment    :      0.479861293      -0.815550411       0.115712794
                        -----------------------------------------
Magnitude (a.u.)       :      0.953298896
Magnitude (Debye)      :      2.423093227

VIBRATIONAL FREQUENCIES
-----------------------

Scaling factor for frequencies =  1.000000000  (already applied!)

     0:       0.00 cm**-1
     1:       0.00 cm**-1
     2:       0.00 cm**-1
     3:       0.00 cm**-1
     4:       0.00 cm**-1
     5:       0.00 cm**-1
     6:     150.51 cm**-1
     7:     232.73 cm**-1
     8:     286.43 cm**-1
     9:     301.23 cm**-1
    10:     330.50 cm**-1
    11:     390.42 cm**-1
    12:     467.53 cm**-1
    13:     564.91 cm**-1
    14:     811.83 cm**-1
    15:     868.98 cm**-1
    16:     985.95 cm**-1
    17:    1023.44 cm**-1
    18:    1052.58 cm**-1
    19:    1099.30 cm**-1
    20:    1145.63 cm**-1
    21:    1191.32 cm**-1
    22:    1258.96 cm**-1
    23:    1320.84 cm**-1
    24:    1337.87 cm**-1
    25:    1410.04 cm**-1
    26:    1423.53 cm**-1
    27:    1425.45 cm**-1
    28:    1478.98 cm**-1
    29:    1493.22 cm**-1
    30:    1500.42 cm**-1
    31:    1502.64 cm**-1
    32:    1513.14 cm**-1
    33:    3019.77 cm**-1
    34:    3033.71 cm**-1
    35:    3034.67 cm**-1
    36:    3064.56 cm**-1
    37:    3087.25 cm**-1
    38:    3106.13 cm**-1
    39:    3107.75 cm**-1
    40:    3116.66 cm**-1
    41:    3131.72 cm**-1

IR SPECTRUM
-----------

 Mode   freq       eps      Int      T**2         TX        TY        TZ
       cm**-1   L/(mol*cm) km/mol    a.u.
----------------------------------------------------------------------------
  6:    150.51   0.000081    0.41  0.000167  ( 0.012587  0.003006  0.000121)
  7:    232.73   0.000163    0.83  0.000219  ( 0.014738 -0.001212  0.000523)
  8:    286.43   0.000051    0.26  0.000055  ( 0.006250 -0.002898 -0.002819)
  9:    301.23   0.000116    0.58  0.000120  ( 0.002459  0.010649  0.000696)
 10:    330.50   0.000339    1.71  0.000320  ( 0.001254  0.017828 -0.000724)
 11:    390.42   0.000980    4.95  0.000783  (-0.017976  0.021377  0.001771)
 12:    467.53   0.000323    1.63  0.000216  (-0.001473  0.014600 -0.000639)
 13:    564.91   0.006572   33.21  0.003631  ( 0.028412 -0.053016  0.003572)
 14:    811.83   0.002247   11.35  0.000864  (-0.018718  0.021225 -0.007921)
 15:    868.98   0.001476    7.46  0.000530  ( 0.013383 -0.018624 -0.001997)
 16:    985.95   0.001232    6.23  0.000390  ( 0.002645  0.015884 -0.011434)
 17:   1023.44   0.001755    8.87  0.000535  (-0.017644  0.013975  0.005332)
 18:   1052.58   0.000291    1.47  0.000086  (-0.003447  0.008631 -0.000192)
 19:   1099.30   0.000473    2.39  0.000134  (-0.004598  0.010641  0.000006)
 20:   1145.63   0.000444    2.24  0.000121  ( 0.007132  0.007988 -0.002483)
 21:   1191.32   0.002106   10.64  0.000552  ( 0.015326 -0.017769  0.001050)
 22:   1258.96   0.003787   19.14  0.000939  ( 0.015880 -0.025563  0.005743)
 23:   1320.84   0.002040   10.31  0.000482  (-0.007770  0.020527 -0.000402)
 24:   1337.87   0.000911    4.60  0.000213  ( 0.009616 -0.010935  0.000708)
 25:   1410.04   0.000113    0.57  0.000025  ( 0.001279  0.002245 -0.004273)
 26:   1423.53   0.001813    9.16  0.000397  ( 0.012412  0.014632  0.005413)
 27:   1425.45   0.000878    4.44  0.000192  (-0.010127 -0.007157 -0.006192)
 28:   1478.98   0.000260    1.31  0.000055  ( 0.002994  0.004268  0.005252)
 29:   1493.22   0.001728    8.73  0.000361  (-0.009046  0.002513  0.016519)
 30:   1500.42   0.000120    0.61  0.000025  ( 0.000226 -0.004992 -0.000123)
 31:   1502.64   0.002492   12.59  0.000517  ( 0.008526 -0.014368  0.015438)
 32:   1513.14   0.001564    7.90  0.000323  ( 0.009978  0.000089 -0.014932)
 33:   3019.77   0.002896   14.64  0.000299  ( 0.002471 -0.016292 -0.005271)
 34:   3033.71   0.002243   11.34  0.000231  ( 0.002890 -0.014914 -0.000016)
 35:   3034.67   0.004910   24.81  0.000505  ( 0.015221  0.014669  0.007619)
 36:   3064.56   0.000444    2.24  0.000045  ( 0.003785 -0.001958  0.005203)
 37:   3087.25   0.000758    3.83  0.000077  (-0.004516  0.000475 -0.007484)
 38:   3106.13   0.002596   13.12  0.000261  ( 0.014228 -0.004670 -0.006044)
 39:   3107.75   0.004342   21.94  0.000436  (-0.000983  0.006357 -0.019866)
 40:   3116.66   0.003128   15.81  0.000313  ( 0.011374 -0.011871  0.006550)
 41:   3131.72   0.001907    9.64  0.000190  ( 0.007059  0.001018 -0.011797)

--------------------------
THERMOCHEMISTRY AT 298.15K
--------------------------

Temperature         ...   298.15 K
Pressure            ...     1.00 atm
Total Mass          ...    92.57 AMU
Quasi RRHO          ...     True
Cut-Off Frequency   ...     1.00 cm^-1

Throughout the following assumptions are being made:
  (1) The electronic state is orbitally nondegenerate
  (2) There are no thermally accessible electronically excited states
  (3) Hindered rotations indicated by low frequency modes are not
      treated as such but are treated as vibrations and this may
      cause some error
  (4) All equations used are the standard statistical mechanics
      equations for an ideal gas
  (5) All vibrations are strictly harmonic

freq.     150.51  E(vib)   ...       0.40
freq.     232.73  E(vib)   ...       0.32
freq.     286.43  E(vib)   ...       0.27
freq.     301.23  E(vib)   ...       0.26
freq.     330.50  E(vib)   ...       0.24
freq.     390.42  E(vib)   ...       0.20
freq.     467.53  E(vib)   ...       0.16
freq.     564.91  E(vib)   ...       0.11
freq.     811.83  E(vib)   ...       0.05
freq.     868.98  E(vib)   ...       0.04
freq.     985.95  E(vib)   ...       0.02
freq.    1023.44  E(vib)   ...       0.02
freq.    1052.58  E(vib)   ...       0.02
freq.    1099.30  E(vib)   ...       0.02
freq.    1145.63  E(vib)   ...       0.01
freq.    1191.32  E(vib)   ...       0.01
freq.    1258.96  E(vib)   ...       0.01
freq.    1320.84  E(vib)   ...       0.01
freq.    1337.87  E(vib)   ...       0.01
freq.    1410.04  E(vib)   ...       0.00
freq.    1423.53  E(vib)   ...       0.00
freq.    1425.45  E(vib)   ...       0.00
freq.    1478.98  E(vib)   ...       0.00
freq.    1493.22  E(vib)   ...       0.00
freq.    1500.42  E(vib)   ...       0.00
freq.    1502.64  E(vib)   ...       0.00
freq.    1513.14  E(vib)   ...       0.00
freq.    3019.77  E(vib)   ...       0.00
freq.    3033.71  E(vib)   ...       0.00
freq.    3034.67  E(vib)   ...       0.00
freq.    3064.56  E(vib)   ...       0.00
freq.    3087.25  E(vib)   ...       0.00
freq.    3106.13  E(vib)   ...       0.00
freq.    3107.75  E(vib)   ...       0.00
freq.    3116.66  E(vib)   ...       0.00
freq.    3131.72  E(vib)   ...       0.00

------------
INNER ENERGY
------------

The inner energy is: U= E(el) + E(ZPE) + E(vib) + E(rot) + E(trans)
    E(el)   - is the total energy from the electronic structure calculation
              = E(kin-el) + E(nuc-el) + E(el-el) + E(nuc-nuc)
    E(ZPE)  - the the zero temperature vibrational energy from the frequency calculation
    E(vib)  - the the finite temperature correction to E(ZPE) due to population
              of excited vibrational states
    E(rot)  - is the rotational thermal energy
    E(trans)- is the translational thermal energy

Summary of contributions to the inner energy U:
Electronic energy                ...   -618.02643825 Eh
Zero point energy                ...      0.12363750 Eh      77.58 kcal/mol
Thermal vibrational correction   ...      0.00352166 Eh       2.21 kcal/mol
Thermal rotational correction    ...      0.00141627 Eh       0.89 kcal/mol
Thermal translational correction ...      0.00141627 Eh       0.89 kcal/mol
-----------------------------------------------------------------------
Total thermal energy                   -617.89644656 Eh

Summary of corrections to the electronic energy:
(perhaps to be used in another calculation)
Total thermal correction                  0.00635420 Eh       3.99 kcal/mol
Non-thermal (ZPE) correction              0.12363750 Eh      77.58 kcal/mol
-----------------------------------------------------------------------
Total correction                          0.12999170 Eh      81.57 kcal/mol

--------
ENTHALPY
--------

The enthalpy is H = U + kB*T
                kB is Boltzmann's constant
Total thermal energy              ...   -617.89644656 Eh
Thermal Enthalpy correction       ...      0.00094421 Eh       0.59 kcal/mol
-----------------------------------------------------------------------
Total Enthalpy                    ...   -617.89550235 Eh

Note: Only C1 symmetry has been detected, increase convergence thresholds
      if your molecule has a higher symmetry. Symmetry factor of 1.0 is
      used for the rotational entropy correction.

Note: Rotational entropy computed according to Herzberg
Infrared and Raman Spectra, Chapter V,1, Van Nostrand Reinhold, 1945
Point Group:  C1, Symmetry Number:   1
Rotational constants in cm-1:     0.148972     0.103152     0.065918

Vibrational entropy computed according to the QRRHO of S. Grimme
Chem.Eur.J. 2012 18 9955 using a reference frequency of 100.0 cm-1

-------
ENTROPY
-------

The entropy contributions are T*S = T*(S(el)+S(vib)+S(rot)+S(trans))
     S(el)   - electronic entropy
     S(vib)  - vibrational entropy
     S(rot)  - rotational entropy
     S(trans)- translational entropy
The entropies will be listed as multiplied by the temperature to get
units of energy

Electronic entropy                ...      0.00000000 Eh      0.00 kcal/mol
Vibrational entropy               ...      0.00565060 Eh      3.55 kcal/mol
Rotational entropy                ...      0.01276582 Eh      8.01 kcal/mol
Translational entropy             ...      0.01876188 Eh     11.77 kcal/mol
-----------------------------------------------------------------------
Final entropy term                ...      0.03717830 Eh     23.33 kcal/mol

In case the symmetry of your molecule has not been determined correctly
or in case you have a reason to use a different symmetry number we print
out the resulting rotational entropy values for sn=1,12:

 non-linear molecules -----------------------------------
|  sn= 1 | S(rot)=       0.01276582 Eh      8.01 kcal/mol|
|  sn= 2 | S(rot)=       0.01211136 Eh      7.60 kcal/mol|
|  sn= 3 | S(rot)=       0.01172853 Eh      7.36 kcal/mol|
|  sn= 4 | S(rot)=       0.01145691 Eh      7.19 kcal/mol|
|  sn= 5 | S(rot)=       0.01124622 Eh      7.06 kcal/mol|
|  sn= 6 | S(rot)=       0.01107407 Eh      6.95 kcal/mol|
|  sn= 7 | S(rot)=       0.01092853 Eh      6.86 kcal/mol|
|  sn= 8 | S(rot)=       0.01080245 Eh      6.78 kcal/mol|
|  sn= 9 | S(rot)=       0.01069124 Eh      6.71 kcal/mol|
|  sn=10 | S(rot)=       0.01059176 Eh      6.65 kcal/mol|
|  sn=11 | S(rot)=       0.01050177 Eh      6.59 kcal/mol|
|  sn=12 | S(rot)=       0.01041962 Eh      6.54 kcal/mol|
 linear molecules ---------------------------------------
|  Dinfh | S(rot)=       0.00789336 Eh      4.95 kcal/mol|
|  Cinfv | S(rot)=       0.00854781 Eh      5.36 kcal/mol|
 --------------------------------------------------------

-------------------
GIBBS FREE ENERGY
-------------------

The Gibbs free energy is G = H - T*S

                             ****ORCA TERMINATED NORMALLY****
TOTAL RUN TIME: 0 days 0 hours 12 minutes 16 seconds 81 msec
