                         Program Version 6.0.0  -   RELEASE  -
|  1> ! M062X DEF2-TZVP FREQ
|  2> * xyzfile 0 1 vacuum_censo.xyz
|  3>
|  4>                          ****END OF INPUT****

CARTESIAN COORDINATES (ANGSTROEM)
---------------------------------
  C      2.209036    0.456653    0.128504
  C      1.216869   -0.604520   -0.333785
  C     -0.131318   -0.558040    0.367059
  H      0.005112   -0.520724    1.452693
  C     -1.048375   -1.700069   -0.021619
  Cl    -0.981543    1.035883   -0.030158
  H      3.164958    0.341899   -0.389831
  H      2.397830    0.374525    1.204068
  H      1.830706    1.461784   -0.073128
  H      1.630704   -1.604341   -0.140699
  H      1.054245   -0.535705   -1.415876
  H     -1.211238   -1.713952   -1.102883
  H     -0.584778   -2.649055    0.271532
  H     -2.016973   -1.620045    0.475935

 Total Charge           Charge          ....    0
 Multiplicity           Mult            ....    1
 Number of Electrons    NEL             ....   50
 Basis Dimension        Dim             ....  215

ORBITAL ENERGIES
----------------

  NO   OCC          E(Eh)            E(eV)
   0   2.0000    -102.620244     -2792.4388
   1   2.0000     -10.604101      -288.5523
   2   2.0000     -10.545985      -286.9708
   3   2.0000     -10.539554      -286.7958
   4   2.0000     -10.528075      -286.4835
   5   2.0000      -9.782362      -266.1916
   6   2.0000      -7.504106      -204.1971
   7   2.0000      -7.499470      -204.0710
   8   2.0000      -7.499348      -204.0676
   9   2.0000      -0.958031       -26.0694
  10   2.0000      -0.866689       -23.5838
  11   2.0000      -0.828655       -22.5489
  12   2.0000      -0.729711       -19.8564
  13   2.0000      -0.661640       -18.0041
  14   2.0000      -0.551918       -15.0184
  15   2.0000      -0.518149       -14.0996
  16   2.0000      -0.510678       -13.8963
  17   2.0000      -0.492585       -13.4039
  18   2.0000      -0.451132       -12.2759
  19   2.0000      -0.430081       -11.7031
  20   2.0000      -0.418401       -11.3853
  21   2.0000      -0.410497       -11.1702
  22   2.0000      -0.400266       -10.8918
  23   2.0000      -0.353592        -9.6217
  24   2.0000      -0.352847        -9.6015
  25   0.0000       0.059467         1.6182
  26   0.0000       0.068524         1.8646
  27   0.0000       0.089356         2.4315
  28   0.0000       0.101039         2.7494
  29   0.0000       0.124923         3.3993

MULLIKEN ATOMIC CHARGES
-----------------------
   0 C :   -0.421929
   1 C :   -0.250337
   2 C :   -0.046069
   3 H :    0.149534
   4 C :   -0.410118
   5 Cl:   -0.176301
   6 H :    0.141687
   7 H :    0.134180
   8 H :    0.154597
   9 H :    0.131095
  10 H :    0.147764
  11 H :    0.149601
  12 H :    0.139402
  13 H :    0.156895
Sum of atomic charges:   -0.0000000

LOEWDIN ATOMIC CHARGES
----------------------
   0 C :   -0.319258
   1 C :   -0.308137
   2 C :   -0.466784
   3 H :    0.141672
   4 C :   -0.317067
   5 Cl:    0.235375
   6 H :    0.122095
   7 H :    0.121183
   8 H :    0.122009
   9 H :    0.145100
  10 H :    0.142232
  11 H :    0.127460
  12 H :    0.128078
  13 H :    0.126040

  Mayer bond orders larger than 0.100000
B(  0-C ,  1-C ) :   0.9562 B(  0-C ,  6-H ) :   0.9776 B(  0-C ,  7-H ) :   0.9719
B(  0-C ,  8-H ) :   0.9685 B(  1-C ,  2-C ) :   0.9524 B(  1-C ,  9-H ) :   0.9579
B(  1-C , 10-H ) :   0.9610 B(  2-C ,  3-H ) :   0.9624 B(  2-C ,  4-C ) :   0.9637
B(  2-C ,  5-Cl) :   1.0342 B(  4-C , 11-H ) :   0.9626 B(  4-C , 12-H ) :   0.9605
B(  4-C , 13-H ) :   0.9750

FINAL SINGLE POINT ENERGY      -618.027234398315

DIPOLE MOMENT
-------------

Method             : SCF
Type of density    : Electron Density
Multiplicity       :   1
Irrep              :   0
Energy             :  -618.0272343983150449 Eh
Relativity type    :
Basis              : AO
                                X                 Y                 Z
Electronic contribution:     -6.869730186       6.774227666      -0.106584655
Nuclear contribution   :      7.315297414      -7.556724368       0.235950244
                        -----------------------------------------
Total Dipole Moment    :      0.445567228      -0.782496702       0.129365590
                        -----------------------------------------
Magnitude (a.u.)       :      0.909706930
Magnitude (Debye)      :      2.312291256

VIBRATIONAL FREQUENCIES
-----------------------

Scaling factor for frequencies =  1.000000000  (already applied!)

     0:       0.00 cm**-1
     1:       0.00 cm**-1
     2:       0.00 cm**-1
     3:       0.00 cm**-1
     4:       0.00 cm**-1
     5:       0.00 cm**-1
     6:     149.67 cm**-1
     7:     234.45 cm**-1
     8:     274.64 cm**-1
     9:     299.48 cm**-1
    10:     334.88 cm**-1
    11:     395.73 cm**-1
    12:     466.70 cm**-1
    13:     595.62 cm**-1
    14:     813.13 cm**-1
    15:     866.77 cm**-1
    16:     984.78 cm**-1
    17:    1022.55 cm**-1
    18:    1049.04 cm**-1
    19:    1102.77 cm**-1
    20:    1142.04 cm**-1
    21:    1189.10 cm**-1
    22:    1266.56 cm**-1
    23:    1323.72 cm**-1
    24:    1337.98 cm**-1
    25:    1406.79 cm**-1
    26:    1420.82 cm**-1
    27:    1422.71 cm**-1
    28:    1480.32 cm**-1
    29:    1493.30 cm**-1
    30:    1500.77 cm**-1
    31:    1502.95 cm**-1
    32:    1512.64 cm**-1
    33:    3018.07 cm**-1
    34:    3035.44 cm**-1
    35:    3038.96 cm**-1
    36:    3060.96 cm**-1
    37:    3077.23 cm**-1
    38:    3108.94 cm**-1
    39:    3110.17 cm**-1
    40:    3125.59 cm**-1
    41:    3134.65 cm**-1

IR SPECTRUM
-----------

 Mode   freq       eps      Int      T**2         TX        TY        TZ
       cm**-1   L/(mol*cm) km/mol    a.u.
----------------------------------------------------------------------------
  6:    149.67   0.000078    0.40  0.000163  (-0.012415 -0.003026 -0.000442)
  7:    234.45   0.000148    0.75  0.000197  (-0.014000  0.000947 -0.000261)
  8:    274.64   0.000032    0.16  0.000036  ( 0.005255 -0.001387 -0.002575)
  9:    299.48   0.000080    0.41  0.000084  (-0.002940 -0.008631 -0.000823)
 10:    334.88   0.000260    1.31  0.000242  ( 0.002523  0.015332 -0.000946)
 11:    395.73   0.000676    3.42  0.000533  ( 0.014899 -0.017574 -0.001521)
 12:    466.70   0.000273    1.38  0.000182  ( 0.001019 -0.013451  0.000663)
 13:    595.62   0.005742   29.02  0.003008  ( 0.024779 -0.048784  0.003808)
 14:    813.13   0.002126   10.75  0.000816  ( 0.017625 -0.020859  0.008389)
 15:    866.77   0.001602    8.10  0.000577  ( 0.013770 -0.019638 -0.001289)
 16:    984.78   0.001201    6.07  0.000381  (-0.003202 -0.015244  0.011750)
 17:   1022.55   0.001751    8.85  0.000534  ( 0.017704 -0.014027 -0.004913)
 18:   1049.04   0.000283    1.43  0.000084  ( 0.003244 -0.008576  0.000285)
 19:   1102.77   0.000560    2.83  0.000158  ( 0.005262 -0.011434  0.000098)
 20:   1142.04   0.000413    2.09  0.000113  (-0.007689 -0.006917  0.002435)
 21:   1189.10   0.001620    8.19  0.000425  (-0.013233  0.015771 -0.001176)
 22:   1266.56   0.003318   16.77  0.000818  (-0.014734  0.023675 -0.006324)
 23:   1323.72   0.002206   11.15  0.000520  (-0.008193  0.021242 -0.001338)
 24:   1337.98   0.001060    5.36  0.000247  ( 0.009769 -0.012241  0.001377)
 25:   1406.79   0.000145    0.73  0.000032  ( 0.002160  0.003683 -0.003740)
 26:   1420.82   0.001251    6.32  0.000275  ( 0.009800  0.012465  0.004840)
 27:   1422.71   0.001370    6.92  0.000300  ( 0.012342  0.009878  0.007106)
 28:   1480.32   0.000255    1.29  0.000054  (-0.003405 -0.003963 -0.005142)
 29:   1493.30   0.001865    9.42  0.000390  ( 0.008536 -0.002473 -0.017627)
 30:   1500.77   0.000095    0.48  0.000020  (-0.001905 -0.003768 -0.001385)
 31:   1502.95   0.002444   12.35  0.000508  ( 0.007735 -0.015381  0.014531)
 32:   1512.64   0.001454    7.35  0.000300  (-0.009934  0.000825  0.014162)
 33:   3018.07   0.003213   16.23  0.000332  ( 0.002636 -0.017211 -0.005386)
 34:   3035.44   0.003152   15.93  0.000324  (-0.001564 -0.017869 -0.001509)
 35:   3038.96   0.003961   20.02  0.000407  ( 0.015818  0.009796  0.007783)
 36:   3060.96   0.000061    0.31  0.000006  ( 0.002015 -0.000632  0.001307)
 37:   3077.23   0.001955    9.88  0.000198  (-0.006975  0.002614 -0.011950)
 38:   3108.94   0.002167   10.95  0.000217  ( 0.013355 -0.004502 -0.004343)
 39:   3110.17   0.004810   24.31  0.000483  (-0.000241  0.006839 -0.020876)
 40:   3125.59   0.002611   13.19  0.000261  (-0.010544  0.011437 -0.004321)
 41:   3134.65   0.001925    9.73  0.000192  (-0.008252 -0.000127  0.011113)

--------------------------
THERMOCHEMISTRY AT 298.15K
--------------------------

Temperature         ...   298.15 K
Pressure            ...     1.00 atm
Total Mass          ...    92.57 AMU
Quasi RRHO          ...     True
Cut-Off Frequency   ...     1.00 cm^-1

Throughout the following assumptions are being made:
  (1) The electronic state is orbitally nondegenerate
  (2) There are no thermally accessible electronically excited states
  (3) Hindered rotations indicated by low frequency modes are not
      treated as such but are treated as vibrations and this may
      cause some error
  (4) All equations used are the standard statistical mechanics
      equations for an ideal gas
  (5) All vibrations are strictly harmonic

freq.     149.67  E(vib)   ...       0.40
freq.     234.45  E(vib)   ...       0.32
freq.     274.64  E(vib)   ...       0.28
freq.     299.48  E(vib)   ...       0.26
freq.     334.88  E(vib)   ...       0.24
freq.     395.73  E(vib)   ...       0.20
freq.     466.70  E(vib)   ...       0.16
freq.     595.62  E(vib)   ...       0.10
freq.     813.13  E(vib)   ...       0.05
freq.     866.77  E(vib)   ...       0.04
freq.     984.78  E(vib)   ...       0.02
freq.    1022.55  E(vib)   ...       0.02
freq.    1049.04  E(vib)   ...       0.02
freq.    1102.77  E(vib)   ...       0.02
freq.    1142.04  E(vib)   ...       0.01
freq.    1189.10  E(vib)   ...       0.01
freq.    1266.56  E(vib)   ...       0.01
freq.    1323.72  E(vib)   ...       0.01
freq.    1337.98  E(vib)   ...       0.01
freq.    1406.79  E(vib)   ...       0.00
freq.    1420.82  E(vib)   ...       0.00
freq.    1422.71  E(vib)   ...       0.00
freq.    1480.32  E(vib)   ...       0.00
freq.    1493.30  E(vib)   ...       0.00
freq.    1500.77  E(vib)   ...       0.00
freq.    1502.95  E(vib)   ...       0.00
freq.    1512.64  E(vib)   ...       0.00
freq.    3018.07  E(vib)   ...       0.00
freq.    3035.44  E(vib)   ...       0.00
freq.    3038.96  E(vib)   ...       0.00
freq.    3060.96  E(vib)   ...       0.00
freq.    3077.23  E(vib)   ...       0.00
freq.    3108.94  E(vib)   ...       0.00
freq.    3110.17  E(vib)   ...       0.00
freq.    3125.59  E(vib)   ...       0.00
freq.    3134.65  E(vib)   ...       0.00

------------
INNER ENERGY
------------

The inner energy is: U= E(el) + E(ZPE) + E(vib) + E(rot) + E(trans)
    E(el)   - is the total energy from the electronic structure calculation
              = E(kin-el) + E(nuc-el) + E(el-el) + E(nuc-nuc)
    E(ZPE)  - the the zero temperature vibrational energy from the frequency calculation
    E(vib)  - the the finite temperature correction to E(ZPE) due to population
              of excited vibrational states
    E(rot)  - is the rotational thermal energy
    E(trans)- is the translational thermal energy

Summary of contributions to the inner energy U:
Electronic energy                ...   -618.02723440 Eh
Zero point energy                ...      0.12370431 Eh      77.63 kcal/mol
Thermal vibrational correction   ...      0.00351130 Eh       2.20 kcal/mol
Thermal rotational correction    ...      0.00141627 Eh       0.89 kcal/mol
Thermal translational correction ...      0.00141627 Eh       0.89 kcal/mol
-----------------------------------------------------------------------
Total thermal energy                   -617.89718624 Eh

Summary of corrections to the electronic energy:
(perhaps to be used in another calculation)
Total thermal correction                  0.00634384 Eh       3.98 kcal/mol
Non-thermal (ZPE) correction              0.12370431 Eh      77.63 kcal/mol
-----------------------------------------------------------------------
Total correction                          0.13004815 Eh      81.61 kcal/mol

--------
ENTHALPY
--------

The enthalpy is H = U + kB*T
                kB is Boltzmann's constant
Total thermal energy              ...   -617.89718624 Eh
Thermal Enthalpy correction       ...      0.00094421 Eh       0.59 kcal/mol
-----------------------------------------------------------------------
Total Enthalpy                    ...   -617.89624203 Eh

Note: Only C1 symmetry has been detected, increase convergence thresholds
      if your molecule has a higher symmetry. Symmetry factor of 1.0 is
      used for the rotational entropy correction.

Note: Rotational entropy computed according to Herzberg
Infrared and Raman Spectra, Chapter V,1, Van Nostrand Reinhold, 1945
Point Group:  C1, Symmetry Number:   1
Rotational constants in cm-1:     0.150460     0.103101     0.066220

Vibrational entropy computed according to the QRRHO of S. Grimme
Chem.Eur.J. 2012 18 9955 using a reference frequency of 100.0 cm-1

-------
ENTROPY
-------

The entropy contributions are T*S = T*(S(el)+S(vib)+S(rot)+S(trans))
     S(el)   - electronic entropy
     S(vib)  - vibrational entropy
     S(rot)  - rotational entropy
     S(trans)- translational entropy
The entropies will be listed as multiplied by the temperature to get
units of energy

Electronic entropy                ...      0.00000000 Eh      0.00 kcal/mol
Vibrational entropy               ...      0.00564284 Eh      3.54 kcal/mol
Rotational entropy                ...      0.01275921 Eh      8.01 kcal/mol
Translational entropy             ...      0.01876188 Eh     11.77 kcal/mol
-----------------------------------------------------------------------
Final entropy term                ...      0.03716393 Eh     23.32 kcal/mol

In case the symmetry of your molecule has not been determined correctly
or in case you have a reason to use a different symmetry number we print
out the resulting rotational entropy values for sn=1,12:

 non-linear molecules -----------------------------------
|  sn= 1 | S(rot)=       0.01275921 Eh      8.01 kcal/mol|
|  sn= 2 | S(rot)=       0.01210475 Eh      7.60 kcal/mol|
|  sn= 3 | S(rot)=       0.01172192 Eh      7.36 kcal/mol|
|  sn= 4 | S(rot)=       0.01145029 Eh      7.19 kcal/mol|
|  sn= 5 | S(rot)=       0.01123961 Eh      7.05 kcal/mol|
|  sn= 6 | S(rot)=       0.01106746 Eh      6.94 kcal/mol|
|  sn= 7 | S(rot)=       0.01092192 Eh      6.85 kcal/mol|
|  sn= 8 | S(rot)=       0.01079584 Eh      6.77 kcal/mol|
|  sn= 9 | S(rot)=       0.01068463 Eh      6.70 kcal/mol|
|  sn=10 | S(rot)=       0.01058515 Eh      6.64 kcal/mol|
|  sn=11 | S(rot)=       0.01049516 Eh      6.59 kcal/mol|
|  sn=12 | S(rot)=       0.01041300 Eh      6.53 kcal/mol|
 linear molecules ---------------------------------------
|  Dinfh | S(rot)=       0.00788904 Eh      4.95 kcal/mol|
|  Cinfv | S(rot)=       0.00854349 Eh      5.36 kcal/mol|
 --------------------------------------------------------

-------------------
GIBBS FREE ENERGY
-------------------

The Gibbs free energy is G = H - T*S

                             ****ORCA TERMINATED NORMALLY****
TOTAL RUN TIME: 0 days 0 hours 12 minutes 33 seconds 561 msec
