                         Program Version 6.0.1  -  RELEASE   -
|  1> ! pbe def2-sv(p) def2/J RI DEFGRID1 loosescf d4 GCP(DFT/SV(P)) printgap
|  2> %output
|  3>     printlevel normal
|  4> end
|  5> * xyz 0 1
|  6> C 3.7202694583 -0.0954138401 0.238450972
|  7> C 2.2431864377 -0.1291595139 0.0320071007
|  8> C 1.4823223864 0.9688691384 0.0272990876
|  9> C 0.0535578468 0.9666300934 -0.3015563955
| 10> O -0.4860768301 1.9776755105 -0.7016883021
| 11> C -0.6655403035 -0.3768427763 -0.2441130731
| 12> H -0.8033392386 -0.6327597562 -1.3038087866
| 13> C 0.2044765372 -1.4568014729 0.4017692921
| 14> C 1.6106632204 -1.4690966731 -0.185597406
| 15> C -2.0704172748 -0.3707620125 0.4248085623
| 16> C -2.5972639679 1.0060239276 0.8189353198
| 17> C -3.0817973163 -1.069038778 -0.4842966579
| 18> H 4.2243696911 -0.5896362579 -0.5917009401
| 19> H 3.9811723174 -0.6361583295 1.1484116509
| 20> H 4.0863421176 0.9243369216 0.319126863
| 21> H 1.9189645749 1.9502617868 0.1513296138
| 22> H 0.2785845956 -1.2623605267 1.4750602191
| 23> H -0.2694336519 -2.4315663508 0.2678174719
| 24> H 2.213241019 -2.2531847837 0.2771568483
| 25> H 1.5639100348 -1.6794643775 -1.2593259445
| 26> H -1.9857882253 -0.9583742458 1.3470726124
| 27> H -2.7045547792 1.647190861 -0.0504543714
| 28> H -1.9254482643 1.4943602897 1.5210435908
| 29> H -3.56980149 0.8958715235 1.2951240129
| 30> H -3.2313590173 -0.4921615853 -1.3944192699
| 31> H -4.0410534925 -1.1655034221 0.0194416077
| 32> H -2.7385253934 -2.0657750142 -0.7552560478
| 33> *
| 34>
| 35>                          ****END OF INPUT****

CARTESIAN COORDINATES (ANGSTROEM)
---------------------------------
  C      3.720269   -0.095414    0.238451
  C      2.243186   -0.129160    0.032007
  C      1.482322    0.968869    0.027299
  C      0.053558    0.966630   -0.301556
  O     -0.486077    1.977676   -0.701688
  C     -0.665540   -0.376843   -0.244113
  H     -0.803339   -0.632760   -1.303809
  C      0.204477   -1.456801    0.401769
  C      1.610663   -1.469097   -0.185597
  C     -2.070417   -0.370762    0.424809
  C     -2.597264    1.006024    0.818935
  C     -3.081797   -1.069039   -0.484297
  H      4.224370   -0.589636   -0.591701
  H      3.981172   -0.636158    1.148412
  H      4.086342    0.924337    0.319127
  H      1.918965    1.950262    0.151330
  H      0.278585   -1.262361    1.475060
  H     -0.269434   -2.431566    0.267817
  H      2.213241   -2.253185    0.277157
  H      1.563910   -1.679464   -1.259326
  H     -1.985788   -0.958374    1.347073
  H     -2.704555    1.647191   -0.050454
  H     -1.925448    1.494360    1.521044
  H     -3.569801    0.895872    1.295124
  H     -3.231359   -0.492162   -1.394419
  H     -4.041053   -1.165503    0.019442
  H     -2.738525   -2.065775   -0.755256

 Total Charge           Charge          ....    0
 Multiplicity           Mult            ....    1
 Number of Electrons    NEL             ....   84
 Basis Dimension        Dim             ....  186

ORBITAL ENERGIES
----------------

  NO   OCC          E(Eh)            E(eV)
   0   2.0000     -18.723968      -509.5051
   1   2.0000      -9.960952      -271.0513
   2   2.0000      -9.918870      -269.9062
   3   2.0000      -9.899735      -269.3855
   4   2.0000      -9.897311      -269.3195
   5   2.0000      -9.896953      -269.3098
   6   2.0000      -9.895281      -269.2643
   7   2.0000      -9.893642      -269.2197
   8   2.0000      -9.885782      -269.0058
   9   2.0000      -9.872034      -268.6317
  10   2.0000      -9.859639      -268.2944
  11   2.0000      -0.926622       -25.2147
  12   2.0000      -0.772865       -21.0307
  13   2.0000      -0.729848       -19.8602
  14   2.0000      -0.683040       -18.5865
  15   2.0000      -0.651801       -17.7364
  16   2.0000      -0.621404       -16.9093
  17   2.0000      -0.604370       -16.4457
  18   2.0000      -0.552675       -15.0390
  19   2.0000      -0.521978       -14.2037
  20   2.0000      -0.496458       -13.5093
  21   2.0000      -0.465495       -12.6668
  22   2.0000      -0.429919       -11.6987
  23   2.0000      -0.415577       -11.3084
  24   2.0000      -0.401159       -10.9161
  25   2.0000      -0.396432       -10.7875
  26   2.0000      -0.390550       -10.6274
  27   2.0000      -0.374264       -10.1842
  28   2.0000      -0.367873       -10.0103
  29   2.0000      -0.357739        -9.7346
  30   2.0000      -0.349302        -9.5050
  31   2.0000      -0.341693        -9.2979
  32   2.0000      -0.337680        -9.1887
  33   2.0000      -0.327119        -8.9014
  34   2.0000      -0.321580        -8.7506
  35   2.0000      -0.304531        -8.2867
  36   2.0000      -0.296282        -8.0623
  37   2.0000      -0.286184        -7.7875
  38   2.0000      -0.276012        -7.5107
  39   2.0000      -0.270166        -7.3516
  40   2.0000      -0.231514        -6.2998
  41   2.0000      -0.183528        -4.9940
  42   0.0000      -0.074117        -2.0168
  43   0.0000       0.014707         0.4002
  44   0.0000       0.032180         0.8756
  45   0.0000       0.046831         1.2743
  46   0.0000       0.061496         1.6734

MULLIKEN ATOMIC CHARGES
-----------------------
   0 C :   -0.215135
   1 C :   -0.110207
   2 C :   -0.111699
   3 C :    0.058264
   4 O :   -0.171803
   5 C :   -0.122762
   6 H :    0.084208
   7 C :   -0.157719
   8 C :   -0.059126
   9 C :   -0.158871
  10 C :   -0.201449
  11 C :   -0.263919
  12 H :    0.118889
  13 H :    0.120707
  14 H :    0.110332
  15 H :    0.044736
  16 H :    0.095126
  17 H :    0.084732
  18 H :    0.085108
  19 H :    0.101200
  20 H :    0.071656
  21 H :    0.112877
  22 H :    0.096441
  23 H :    0.087744
  24 H :    0.105839
  25 H :    0.098291
  26 H :    0.096541
Sum of atomic charges:   -0.0000000

LOEWDIN ATOMIC CHARGES
----------------------
   0 C :   -0.321912
   1 C :   -0.020120
   2 C :   -0.171751
   3 C :    0.039807
   4 O :   -0.128123
   5 C :   -0.156163
   6 H :    0.139596
   7 C :   -0.210726
   8 C :   -0.215226
   9 C :   -0.137262
  10 C :   -0.336067
  11 C :   -0.328765
  12 H :    0.135713
  13 H :    0.136702
  14 H :    0.128626
  15 H :    0.127857
  16 H :    0.120431
  17 H :    0.118285
  18 H :    0.123517
  19 H :    0.136209
  20 H :    0.115309
  21 H :    0.126038
  22 H :    0.115535
  23 H :    0.112929
  24 H :    0.120006
  25 H :    0.116906
  26 H :    0.112651

  Mayer bond orders larger than 0.100000
B(  0-C ,  1-C ) :   1.1300 B(  0-C , 12-H ) :   0.9276 B(  0-C , 13-H ) :   0.9229
B(  0-C , 14-H ) :   0.9419 B(  1-C ,  2-C ) :   1.7367 B(  1-C ,  8-C ) :   1.0744
B(  2-C ,  3-C ) :   1.0678 B(  2-C , 15-H ) :   0.9306 B(  3-C ,  4-O ) :   2.0629
B(  3-C ,  5-C ) :   0.9675 B(  5-C ,  6-H ) :   0.8478 B(  5-C ,  7-C ) :   1.0936
B(  5-C ,  9-C ) :   0.9922 B(  7-C ,  8-C ) :   1.1183 B(  7-C , 16-H ) :   0.9102
B(  7-C , 17-H ) :   0.9060 B(  8-C , 18-H ) :   0.9084 B(  8-C , 19-H ) :   0.8734
B(  9-C , 10-C ) :   1.1729 B(  9-C , 11-C ) :   1.1027 B(  9-C , 20-H ) :   0.8983
B( 10-C , 21-H ) :   0.9247 B( 10-C , 22-H ) :   0.9362 B( 10-C , 23-H ) :   0.9404
B( 11-C , 24-H ) :   0.9496 B( 11-C , 25-H ) :   0.9473 B( 11-C , 26-H ) :   0.9485

Dispersion correction           -0.027842448
FINAL SINGLE POINT ENERGY      -464.835328069229

DIPOLE MOMENT
-------------

Method             : SCF
Type of density    : Electron Density
Multiplicity       :   1
Irrep              :   0
Energy             :  -464.9212267633150759 Eh
Relativity type    :
Basis              : AO
                                X                 Y                 Z
Electronic contribution:      3.628021830       5.653079438      -2.029176703
Nuclear contribution   :     -2.824258629      -6.776999797       2.303694371
                        -----------------------------------------
Total Dipole Moment    :      0.803763201      -1.123920359       0.274517669
                        -----------------------------------------
Magnitude (a.u.)       :      1.408755553
Magnitude (Debye)      :      3.580772046

Rotational constants in cm-1:             0.069947             0.023833             0.019459
Rotational constants in MHz :          2096.944578           714.480555           583.372204

                             ****ORCA TERMINATED NORMALLY****
TOTAL RUN TIME: 0 days 0 hours 0 minutes 29 seconds 193 msec
