                         Program Version 6.0.1  -  RELEASE   -
|  1> ! r2scan-3c def2/J RI DEFGRID2 scfconv6 printgap
|  2> %output
|  3>     printlevel normal
|  4> end
|  5> * xyz 0 1
|  6> C 1.221049861 0.91018137 -1.3483789684
|  7> C 2.592033151 1.023905363 -1.4769730257
|  8> C 3.4318653449 0.4398474415 -0.5401426426
|  9> C 2.8871620109 -0.2653306242 0.5309012118
| 10> C 1.5127505895 -0.383296596 0.655167271
| 11> C 0.6728323453 0.2044803952 -0.2826158806
| 12> C -0.7932545899 0.0742879433 -0.1440150841
| 13> C -1.5898787902 1.2027064478 0.0540419431
| 14> C -2.9721550588 1.0783543765 0.1824711894
| 15> C -3.5684844207 -0.1706362956 0.1121863725
| 16> C -2.7869690361 -1.2979525827 -0.0850461695
| 17> C -1.4039910957 -1.178692377 -0.2118407199
| 18> Cl -0.4465627056 -2.5797747158 -0.4873732704
| 19> Cl -3.5330908276 -2.8403362459 -0.1748696325
| 20> Cl -3.9457664107 2.4691644218 0.4302600545
| 21> Cl -0.8560233901 2.7527459736 0.1742912648
| 22> Cl 3.9123324715 -0.9947638848 1.7051474078
| 23> Cl 5.1375310482 0.5887231945 -0.7057538485
| 24> H 0.5728056112 1.3603573407 -2.0836362479
| 25> H 3.020978767 1.5664460163 -2.3042691742
| 26> H 1.1002474109 -0.9255775143 1.4911838311
| 27> H -4.637535253 -0.2650510991 0.210810867
| 28> *
| 29>
| 30>                          ****END OF INPUT****

CARTESIAN COORDINATES (ANGSTROEM)
---------------------------------
  C      1.221050    0.910181   -1.348379
  C      2.592033    1.023905   -1.476973
  C      3.431865    0.439847   -0.540143
  C      2.887162   -0.265331    0.530901
  C      1.512751   -0.383297    0.655167
  C      0.672832    0.204480   -0.282616
  C     -0.793255    0.074288   -0.144015
  C     -1.589879    1.202706    0.054042
  C     -2.972155    1.078354    0.182471
  C     -3.568484   -0.170636    0.112186
  C     -2.786969   -1.297953   -0.085046
  C     -1.403991   -1.178692   -0.211841
  Cl    -0.446563   -2.579775   -0.487373
  Cl    -3.533091   -2.840336   -0.174870
  Cl    -3.945766    2.469164    0.430260
  Cl    -0.856023    2.752746    0.174291
  Cl     3.912332   -0.994764    1.705147
  Cl     5.137531    0.588723   -0.705754
  H      0.572806    1.360357   -2.083636
  H      3.020979    1.566446   -2.304269
  H      1.100247   -0.925578    1.491184
  H     -4.637535   -0.265051    0.210811

 Total Charge           Charge          ....    0
 Multiplicity           Mult            ....    1
 Number of Electrons    NEL             ....  178
 Basis Dimension        Dim             ....  410

ORBITAL ENERGIES
----------------

  NO   OCC          E(Eh)            E(eV)
   0   2.0000    -101.244656     -2755.0072
   1   2.0000    -101.244453     -2755.0016
   2   2.0000    -101.243679     -2754.9806
   3   2.0000    -101.243446     -2754.9742
   4   2.0000    -101.234297     -2754.7253
   5   2.0000    -101.233602     -2754.7064
   6   2.0000     -10.135814      -275.8095
   7   2.0000     -10.135756      -275.8079
   8   2.0000     -10.135391      -275.7980
   9   2.0000     -10.135334      -275.7965
  10   2.0000     -10.122489      -275.4469
  11   2.0000     -10.121983      -275.4332
  12   2.0000     -10.099030      -274.8086
  13   2.0000     -10.084799      -274.4213
  14   2.0000     -10.080232      -274.2971
  15   2.0000     -10.070012      -274.0189
  16   2.0000     -10.067962      -273.9632
  17   2.0000     -10.065525      -273.8969
  18   2.0000      -9.400570      -255.8025
  19   2.0000      -9.400367      -255.7970
  20   2.0000      -9.399617      -255.7766
  21   2.0000      -9.399369      -255.7698
  22   2.0000      -9.390228      -255.5211
  23   2.0000      -9.389518      -255.5018
  24   2.0000      -7.147066      -194.4816
  25   2.0000      -7.146867      -194.4761
  26   2.0000      -7.146170      -194.4572
  27   2.0000      -7.145921      -194.4504
  28   2.0000      -7.136837      -194.2032
  29   2.0000      -7.136633      -194.1977
  30   2.0000      -7.136633      -194.1976
  31   2.0000      -7.136043      -194.1816
  32   2.0000      -7.135968      -194.1796
  33   2.0000      -7.135949      -194.1791
  34   2.0000      -7.135838      -194.1760
  35   2.0000      -7.135720      -194.1728
  36   2.0000      -7.134930      -194.1513
  37   2.0000      -7.134685      -194.1447
  38   2.0000      -7.126555      -193.9234
  39   2.0000      -7.125802      -193.9029
  40   2.0000      -7.125737      -193.9012
  41   2.0000      -7.125051      -193.8825
  42   2.0000      -0.927589       -25.2410
  43   2.0000      -0.900196       -24.4956
  44   2.0000      -0.889561       -24.2062
  45   2.0000      -0.861712       -23.4484
  46   2.0000      -0.842180       -22.9169
  47   2.0000      -0.837059       -22.7775
  48   2.0000      -0.826296       -22.4847
  49   2.0000      -0.803874       -21.8745
  50   2.0000      -0.757821       -20.6214
  51   2.0000      -0.732402       -19.9297
  52   2.0000      -0.708968       -19.2920
  53   2.0000      -0.703432       -19.1413
  54   2.0000      -0.634812       -17.2741
  55   2.0000      -0.611799       -16.6479
  56   2.0000      -0.588686       -16.0190
  57   2.0000      -0.576313       -15.6823
  58   2.0000      -0.518350       -14.1050
  59   2.0000      -0.515940       -14.0394
  60   2.0000      -0.499250       -13.5853
  61   2.0000      -0.480243       -13.0681
  62   2.0000      -0.467596       -12.7239
  63   2.0000      -0.453998       -12.3539
  64   2.0000      -0.444653       -12.0996
  65   2.0000      -0.433378       -11.7928
  66   2.0000      -0.431949       -11.7539
  67   2.0000      -0.423914       -11.5353
  68   2.0000      -0.410702       -11.1758
  69   2.0000      -0.403912       -10.9910
  70   2.0000      -0.398033       -10.8310
  71   2.0000      -0.384855       -10.4724
  72   2.0000      -0.370421       -10.0797
  73   2.0000      -0.364172        -9.9096
  74   2.0000      -0.350797        -9.5457
  75   2.0000      -0.335966        -9.1421
  76   2.0000      -0.334149        -9.0927
  77   2.0000      -0.331111        -9.0100
  78   2.0000      -0.323410        -8.8004
  79   2.0000      -0.314422        -8.5559
  80   2.0000      -0.308858        -8.4045
  81   2.0000      -0.301529        -8.2050
  82   2.0000      -0.300420        -8.1749
  83   2.0000      -0.292349        -7.9552
  84   2.0000      -0.287605        -7.8261
  85   2.0000      -0.263520        -7.1707
  86   2.0000      -0.251497        -6.8436
  87   2.0000      -0.239067        -6.5054
  88   2.0000      -0.235351        -6.4042
  89   0.0000      -0.088202        -2.4001
  90   0.0000      -0.074690        -2.0324
  91   0.0000      -0.061878        -1.6838
  92   0.0000      -0.054125        -1.4728
  93   0.0000      -0.050146        -1.3645

MULLIKEN ATOMIC CHARGES
-----------------------
   0 C :   -0.142183
   1 C :   -0.233073
   2 C :    0.153338
   3 C :    0.070662
   4 C :   -0.213800
   5 C :    0.128648
   6 C :    0.204972
   7 C :   -0.039750
   8 C :    0.157730
   9 C :   -0.379887
  10 C :    0.157825
  11 C :   -0.034786
  12 Cl:   -0.062527
  13 Cl:   -0.086983
  14 Cl:   -0.087310
  15 Cl:   -0.065029
  16 Cl:   -0.102926
  17 Cl:   -0.102303
  18 H :    0.161369
  19 H :    0.163602
  20 H :    0.172862
  21 H :    0.179549
Sum of atomic charges:    0.0000000

LOEWDIN ATOMIC CHARGES
----------------------
   0 C :   -0.134066
   1 C :   -0.156660
   2 C :   -0.180219
   3 C :   -0.180905
   4 C :   -0.140687
   5 C :   -0.088972
   6 C :   -0.080559
   7 C :   -0.164276
   8 C :   -0.180831
   9 C :   -0.166766
  10 C :   -0.180663
  11 C :   -0.164161
  12 Cl:    0.200091
  13 Cl:    0.174644
  14 Cl:    0.174392
  15 Cl:    0.198650
  16 Cl:    0.161587
  17 Cl:    0.162176
  18 H :    0.181583
  19 H :    0.182821
  20 H :    0.189584
  21 H :    0.193239

  Mayer bond orders larger than 0.100000
B(  0-C ,  1-C ) :   1.4011 B(  0-C ,  5-C ) :   1.3771 B(  0-C , 18-H ) :   0.9396
B(  1-C ,  2-C ) :   1.3368 B(  1-C , 19-H ) :   0.9459 B(  2-C ,  3-C ) :   1.2876
B(  2-C , 17-Cl) :   1.0483 B(  3-C ,  4-C ) :   1.3444 B(  3-C , 16-Cl) :   1.0657
B(  4-C ,  5-C ) :   1.3874 B(  4-C , 20-H ) :   0.9299 B(  5-C ,  6-C ) :   0.7628
B(  6-C ,  7-C ) :   1.2021 B(  6-C , 11-C ) :   1.2033 B(  7-C ,  8-C ) :   1.2010
B(  7-C , 15-Cl) :   1.2477 B(  8-C ,  9-C ) :   1.3141 B(  8-C , 14-Cl) :   1.0619
B(  9-C , 10-C ) :   1.3142 B(  9-C , 21-H ) :   0.9294 B( 10-C , 11-C ) :   1.2011
B( 10-C , 13-Cl) :   1.0627 B( 11-C , 12-Cl) :   1.2493

Dispersion correction           -0.014696754
FINAL SINGLE POINT ENERGY     -3220.642899421960

DIPOLE MOMENT
-------------

Method             : SCF
Type of density    : Electron Density
Multiplicity       :   1
Irrep              :   0
Energy             : -3220.6403238601851626 Eh
Relativity type    :
Basis              : AO
                                X                 Y                 Z
Electronic contribution:     -0.291287877      -2.250929937       3.453796868
Nuclear contribution   :     -0.307271787       2.439857383      -3.783820703
                        -----------------------------------------
Total Dipole Moment    :     -0.598559664       0.188927446      -0.330023835
                        -----------------------------------------
Magnitude (a.u.)       :      0.709142427
Magnitude (Debye)      :      1.802496804

Rotational constants in cm-1:             0.012319             0.004765             0.003762
Rotational constants in MHz :           369.302972           142.848873           112.769624

                             ****ORCA TERMINATED NORMALLY****
TOTAL RUN TIME: 0 days 0 hours 0 minutes 51 seconds 238 msec
