                         Program Version 6.0.1  -  RELEASE   -
|  1> ! r2scan-3c def2/J RI DEFGRID2 scfconv6 printgap
|  2> %output
|  3>     printlevel normal
|  4> end
|  5> * xyz 0 1
|  6> C 1.5481161573 -1.16488865 1.3598343906
|  7> C 2.9150209874 -1.3195765114 1.479852301
|  8> C 3.76931522 -0.5418014878 0.7122709754
|  9> C 3.2516705888 0.3963126278 -0.1796204358
| 10> C 1.8703672345 0.547378675 -0.2886828985
| 11> C 1.0069546615 -0.2325417897 0.4807076478
| 12> C -0.4567369603 -0.0709503294 0.3647353022
| 13> C -1.0523497993 1.1454360696 0.6741926657
| 14> C -2.4234891205 1.3094201884 0.5726082056
| 15> C -3.2298162735 0.2514995089 0.153090713
| 16> C -2.6410589069 -0.97243119 -0.1629625779
| 17> C -1.2603298091 -1.1313657945 -0.0550675624
| 18> Cl -0.552268924 -2.6375965 -0.4831592973
| 19> Cl -3.6198691906 -2.278043896 -0.6865702337
| 20> Cl -4.9265433312 0.447141831 0.0230650615
| 21> Cl -3.1339858104 2.8206984343 0.9649874628
| 22> Cl 1.2359001654 1.6826345358 -1.4148491535
| 23> Cl 4.3033920345 1.3559454189 -1.1379435154
| 24> Cl 5.4689624867 -0.7343119521 0.8571266075
| 25> H 0.8842651932 -1.7659213624 1.9604064994
| 26> H 3.328620737 -2.0419417365 2.1645960388
| 27> H -0.4418205728 1.9703468093 1.0041953259
| 28> *
| 29>
| 30>                          ****END OF INPUT****

CARTESIAN COORDINATES (ANGSTROEM)
---------------------------------
  C      1.548116   -1.164889    1.359834
  C      2.915021   -1.319577    1.479852
  C      3.769315   -0.541801    0.712271
  C      3.251671    0.396313   -0.179620
  C      1.870367    0.547379   -0.288683
  C      1.006955   -0.232542    0.480708
  C     -0.456737   -0.070950    0.364735
  C     -1.052350    1.145436    0.674193
  C     -2.423489    1.309420    0.572608
  C     -3.229816    0.251500    0.153091
  C     -2.641059   -0.972431   -0.162963
  C     -1.260330   -1.131366   -0.055068
  Cl    -0.552269   -2.637596   -0.483159
  Cl    -3.619869   -2.278044   -0.686570
  Cl    -4.926543    0.447142    0.023065
  Cl    -3.133986    2.820698    0.964987
  Cl     1.235900    1.682635   -1.414849
  Cl     4.303392    1.355945   -1.137944
  Cl     5.468962   -0.734312    0.857127
  H      0.884265   -1.765921    1.960406
  H      3.328621   -2.041942    2.164596
  H     -0.441821    1.970347    1.004195

 Total Charge           Charge          ....    0
 Multiplicity           Mult            ....    1
 Number of Electrons    NEL             ....  194
 Basis Dimension        Dim             ....  432

ORBITAL ENERGIES
----------------

  NO   OCC          E(Eh)            E(eV)
   0   2.0000    -101.244812     -2755.0114
   1   2.0000    -101.244747     -2755.0096
   2   2.0000    -101.244359     -2754.9991
   3   2.0000    -101.243170     -2754.9667
   4   2.0000    -101.242687     -2754.9536
   5   2.0000    -101.241529     -2754.9221
   6   2.0000    -101.241467     -2754.9204
   7   2.0000     -10.139346      -275.9056
   8   2.0000     -10.138459      -275.8815
   9   2.0000     -10.135417      -275.7987
  10   2.0000     -10.134880      -275.7841
  11   2.0000     -10.134029      -275.7609
  12   2.0000     -10.133434      -275.7448
  13   2.0000     -10.132088      -275.7081
  14   2.0000     -10.094534      -274.6862
  15   2.0000     -10.090342      -274.5722
  16   2.0000     -10.079747      -274.2839
  17   2.0000     -10.074775      -274.1486
  18   2.0000     -10.074078      -274.1296
  19   2.0000      -9.400611      -255.8036
  20   2.0000      -9.400581      -255.8028
  21   2.0000      -9.400338      -255.7962
  22   2.0000      -9.399146      -255.7638
  23   2.0000      -9.398599      -255.7489
  24   2.0000      -9.397470      -255.7182
  25   2.0000      -9.397286      -255.7132
  26   2.0000      -7.147285      -194.4875
  27   2.0000      -7.147249      -194.4865
  28   2.0000      -7.146866      -194.4761
  29   2.0000      -7.145649      -194.4430
  30   2.0000      -7.145101      -194.4281
  31   2.0000      -7.143931      -194.3962
  32   2.0000      -7.143929      -194.3962
  33   2.0000      -7.136947      -194.2062
  34   2.0000      -7.136914      -194.2053
  35   2.0000      -7.136680      -194.1989
  36   2.0000      -7.135843      -194.1762
  37   2.0000      -7.135816      -194.1754
  38   2.0000      -7.135674      -194.1716
  39   2.0000      -7.135509      -194.1671
  40   2.0000      -7.134861      -194.1494
  41   2.0000      -7.134493      -194.1394
  42   2.0000      -7.134074      -194.1280
  43   2.0000      -7.133786      -194.1202
  44   2.0000      -7.133614      -194.1155
  45   2.0000      -7.132931      -194.0969
  46   2.0000      -7.132554      -194.0866
  47   2.0000      -0.931265       -25.3410
  48   2.0000      -0.919499       -25.0208
  49   2.0000      -0.884899       -24.0793
  50   2.0000      -0.872722       -23.7480
  51   2.0000      -0.861432       -23.4408
  52   2.0000      -0.841902       -22.9093
  53   2.0000      -0.830950       -22.6113
  54   2.0000      -0.819714       -22.3055
  55   2.0000      -0.810913       -22.0661
  56   2.0000      -0.754536       -20.5320
  57   2.0000      -0.726248       -19.7622
  58   2.0000      -0.718465       -19.5504
  59   2.0000      -0.702027       -19.1031
  60   2.0000      -0.626211       -17.0401
  61   2.0000      -0.611462       -16.6387
  62   2.0000      -0.601641       -16.3715
  63   2.0000      -0.580575       -15.7983
  64   2.0000      -0.521704       -14.1963
  65   2.0000      -0.516622       -14.0580
  66   2.0000      -0.498636       -13.5686
  67   2.0000      -0.494850       -13.4655
  68   2.0000      -0.470537       -12.8040
  69   2.0000      -0.457711       -12.4550
  70   2.0000      -0.443454       -12.0670
  71   2.0000      -0.440849       -11.9961
  72   2.0000      -0.438247       -11.9253
  73   2.0000      -0.434453       -11.8221
  74   2.0000      -0.425626       -11.5819
  75   2.0000      -0.411774       -11.2049
  76   2.0000      -0.395651       -10.7662
  77   2.0000      -0.384009       -10.4494
  78   2.0000      -0.380977       -10.3669
  79   2.0000      -0.375460       -10.2168
  80   2.0000      -0.362577        -9.8662
  81   2.0000      -0.354304        -9.6411
  82   2.0000      -0.339512        -9.2386
  83   2.0000      -0.327320        -8.9068
  84   2.0000      -0.324945        -8.8422
  85   2.0000      -0.322485        -8.7753
  86   2.0000      -0.321648        -8.7525
  87   2.0000      -0.316960        -8.6249
  88   2.0000      -0.311896        -8.4871
  89   2.0000      -0.304773        -8.2933
  90   2.0000      -0.302834        -8.2405
  91   2.0000      -0.286039        -7.7835
  92   2.0000      -0.284545        -7.7429
  93   2.0000      -0.258593        -7.0367
  94   2.0000      -0.249410        -6.7868
  95   2.0000      -0.244615        -6.6563
  96   2.0000      -0.237209        -6.4548
  97   0.0000      -0.090402        -2.4600
  98   0.0000      -0.075498        -2.0544
  99   0.0000      -0.069756        -1.8982
 100   0.0000      -0.059385        -1.6159
 101   0.0000      -0.057569        -1.5665

MULLIKEN ATOMIC CHARGES
-----------------------
   0 C :   -0.132890
   1 C :   -0.259232
   2 C :    0.172163
   3 C :   -0.010581
   4 C :    0.021807
   5 C :    0.114410
   6 C :    0.144431
   7 C :   -0.279556
   8 C :    0.110989
   9 C :    0.079838
  10 C :    0.016983
  11 C :    0.009484
  12 Cl:   -0.063311
  13 Cl:   -0.061763
  14 Cl:   -0.060101
  15 Cl:   -0.087654
  16 Cl:   -0.064577
  17 Cl:   -0.068360
  18 Cl:   -0.089941
  19 H :    0.165308
  20 H :    0.165170
  21 H :    0.177385
Sum of atomic charges:    0.0000000

LOEWDIN ATOMIC CHARGES
----------------------
   0 C :   -0.127149
   1 C :   -0.160553
   2 C :   -0.177527
   3 C :   -0.196375
   4 C :   -0.156235
   5 C :   -0.090540
   6 C :   -0.083283
   7 C :   -0.141236
   8 C :   -0.181635
   9 C :   -0.194787
  10 C :   -0.191670
  11 C :   -0.163564
  12 Cl:    0.196846
  13 Cl:    0.189596
  14 Cl:    0.190423
  15 Cl:    0.174558
  16 Cl:    0.196899
  17 Cl:    0.182761
  18 Cl:    0.171864
  19 H :    0.184537
  20 H :    0.184050
  21 H :    0.193017

  Mayer bond orders larger than 0.100000
B(  0-C ,  1-C ) :   1.3755 B(  0-C ,  5-C ) :   1.3877 B(  0-C , 19-H ) :   0.9302
B(  1-C ,  2-C ) :   1.3398 B(  1-C , 20-H ) :   0.9436 B(  2-C ,  3-C ) :   1.2216
B(  2-C , 18-Cl) :   1.0703 B(  3-C ,  4-C ) :   1.1061 B(  3-C , 17-Cl) :   1.2464
B(  4-C ,  5-C ) :   1.2952 B(  4-C , 16-Cl) :   1.2694 B(  5-C ,  6-C ) :   0.7704
B(  5-C , 16-Cl) :  -0.1004 B(  6-C ,  7-C ) :   1.3562 B(  6-C , 11-C ) :   1.2701
B(  6-C , 12-Cl) :  -0.1016 B(  7-C ,  8-C ) :   1.3275 B(  7-C , 21-H ) :   0.9170
B(  8-C ,  9-C ) :   1.2140 B(  8-C , 15-Cl) :   1.0828 B(  9-C , 10-C ) :   1.0960
B(  9-C , 14-Cl) :   1.2495 B( 10-C , 11-C ) :   1.0958 B( 10-C , 13-Cl) :   1.2726
B( 11-C , 12-Cl) :   1.2818

Dispersion correction           -0.015754709
FINAL SINGLE POINT ENERGY     -3680.216224191938

DIPOLE MOMENT
-------------

Method             : SCF
Type of density    : Electron Density
Multiplicity       :   1
Irrep              :   0
Energy             : -3680.2139012043867297 Eh
Relativity type    :
Basis              : AO
                                X                 Y                 Z
Electronic contribution:     -5.034212100       2.342939879      -6.726506500
Nuclear contribution   :      5.181346530      -2.605033573       7.331884856
                        -----------------------------------------
Total Dipole Moment    :      0.147134430      -0.262093693       0.605378356
                        -----------------------------------------
Magnitude (a.u.)       :      0.675888008
Magnitude (Debye)      :      1.717970786

Rotational constants in cm-1:             0.012893             0.003709             0.003186
Rotational constants in MHz :           386.533059           111.183234            95.516674

                             ****ORCA TERMINATED NORMALLY****
TOTAL RUN TIME: 0 days 0 hours 1 minutes 1 seconds 875 msec
