                         Program Version 6.0.1  -  RELEASE   -
|  1> ! pbe def2-sv(p) def2/J RI DEFGRID1 loosescf d4 GCP(DFT/SV(P)) printgap
|  2> %output
|  3>     printlevel normal
|  4> end
|  5> * xyz 0 1
|  6> C -2.4882501555 -0.4460683325 -0.2803386298
|  7> C -1.0820964753 -0.1724398226 0.2639144768
|  8> H -1.0677738356 -0.3885706155 1.3429334973
|  9> C -0.6381641959 1.292002793 0.0603925837
| 10> H -1.3018939848 1.7857416749 -0.6651669329
| 11> C 0.7968064998 1.311179957 -0.5177910867
| 12> H 1.2142255242 2.3216155297 -0.4340502786
| 13> C 1.6772212419 0.3365127239 0.2927819179
| 14> H 2.6897804819 0.321277268 -0.1275581059
| 15> C 1.0920664037 -1.1013788367 0.1657487315
| 16> H 1.0447964908 -1.5566862424 1.1671699971
| 17> O -0.2097230297 -1.0647927993 -0.407242332
| 18> O 1.8668547898 -1.9383907722 -0.6062521448
| 19> O 1.8177030364 0.7438178463 1.6238256549
| 20> O 0.7909708434 1.0024981321 -1.8856479066
| 21> O -0.7144424555 1.9296485134 1.3172224937
| 22> O -2.9029034937 -1.7503492465 0.0001545505
| 23> H -2.488541076 -0.2590772856 -1.3651198635
| 24> H -3.2027920536 0.2239844388 0.2010262243
| 25> H 1.9475837207 -1.5746680574 -1.4979091389
| 26> H 0.951336208 1.0157138847 1.9660090535
| 27> H 0.3293322423 0.1565579339 -1.9906230217
| 28> H -0.5484251433 2.8737453021 1.2117977437
| 29> H -2.2056871277 -2.3506021831 -0.2939417795
| 30> *
| 31>
| 32>                          ****END OF INPUT****

CARTESIAN COORDINATES (ANGSTROEM)
---------------------------------
  C     -2.488250   -0.446068   -0.280339
  C     -1.082096   -0.172440    0.263914
  H     -1.067774   -0.388571    1.342933
  C     -0.638164    1.292003    0.060393
  H     -1.301894    1.785742   -0.665167
  C      0.796806    1.311180   -0.517791
  H      1.214226    2.321616   -0.434050
  C      1.677221    0.336513    0.292782
  H      2.689780    0.321277   -0.127558
  C      1.092066   -1.101379    0.165749
  H      1.044796   -1.556686    1.167170
  O     -0.209723   -1.064793   -0.407242
  O      1.866855   -1.938391   -0.606252
  O      1.817703    0.743818    1.623826
  O      0.790971    1.002498   -1.885648
  O     -0.714442    1.929649    1.317222
  O     -2.902903   -1.750349    0.000155
  H     -2.488541   -0.259077   -1.365120
  H     -3.202792    0.223984    0.201026
  H      1.947584   -1.574668   -1.497909
  H      0.951336    1.015714    1.966009
  H      0.329332    0.156558   -1.990623
  H     -0.548425    2.873745    1.211798
  H     -2.205687   -2.350602   -0.293942

 Total Charge           Charge          ....    0
 Multiplicity           Mult            ....    1
 Number of Electrons    NEL             ....   96
 Basis Dimension        Dim             ....  192

ORBITAL ENERGIES
----------------

  NO   OCC          E(Eh)            E(eV)
   0   2.0000     -18.796227      -511.4713
   1   2.0000     -18.790308      -511.3103
   2   2.0000     -18.768832      -510.7259
   3   2.0000     -18.763837      -510.5900
   4   2.0000     -18.751033      -510.2416
   5   2.0000     -18.748214      -510.1648
   6   2.0000      -9.993632      -271.9405
   7   2.0000      -9.963090      -271.1095
   8   2.0000      -9.960180      -271.0303
   9   2.0000      -9.953815      -270.8571
  10   2.0000      -9.944890      -270.6142
  11   2.0000      -9.943442      -270.5748
  12   2.0000      -1.002529       -27.2802
  13   2.0000      -0.966591       -26.3023
  14   2.0000      -0.943203       -25.6659
  15   2.0000      -0.940023       -25.5793
  16   2.0000      -0.926933       -25.2231
  17   2.0000      -0.923077       -25.1182
  18   2.0000      -0.716714       -19.5028
  19   2.0000      -0.689002       -18.7487
  20   2.0000      -0.627335       -17.0707
  21   2.0000      -0.603448       -16.4207
  22   2.0000      -0.579450       -15.7676
  23   2.0000      -0.544339       -14.8122
  24   2.0000      -0.522055       -14.2058
  25   2.0000      -0.504787       -13.7360
  26   2.0000      -0.480343       -13.0708
  27   2.0000      -0.476058       -12.9542
  28   2.0000      -0.459573       -12.5056
  29   2.0000      -0.447039       -12.1645
  30   2.0000      -0.428254       -11.6534
  31   2.0000      -0.397593       -10.8191
  32   2.0000      -0.387472       -10.5436
  33   2.0000      -0.384477       -10.4621
  34   2.0000      -0.371584       -10.1113
  35   2.0000      -0.364199        -9.9103
  36   2.0000      -0.341114        -9.2822
  37   2.0000      -0.332888        -9.0584
  38   2.0000      -0.322343        -8.7714
  39   2.0000      -0.314270        -8.5517
  40   2.0000      -0.291867        -7.9421
  41   2.0000      -0.281014        -7.6468
  42   2.0000      -0.268701        -7.3117
  43   2.0000      -0.266826        -7.2607
  44   2.0000      -0.252409        -6.8684
  45   2.0000      -0.231981        -6.3125
  46   2.0000      -0.221341        -6.0230
  47   2.0000      -0.204318        -5.5598
  48   0.0000      -0.003135        -0.0853
  49   0.0000       0.012938         0.3520
  50   0.0000       0.031921         0.8686
  51   0.0000       0.049416         1.3447
  52   0.0000       0.057176         1.5558

MULLIKEN ATOMIC CHARGES
-----------------------
   0 C :    0.076316
   1 C :   -0.011055
   2 H :    0.077907
   3 C :    0.007797
   4 H :    0.075317
   5 C :    0.024041
   6 H :    0.070833
   7 C :    0.031980
   8 H :    0.080687
   9 C :    0.186781
  10 H :    0.073482
  11 O :   -0.324221
  12 O :   -0.370261
  13 O :   -0.423134
  14 O :   -0.420252
  15 O :   -0.409364
  16 O :   -0.427217
  17 H :    0.071574
  18 H :    0.100390
  19 H :    0.296281
  20 H :    0.297826
  21 H :    0.299032
  22 H :    0.313746
  23 H :    0.301515
Sum of atomic charges:   -0.0000000

LOEWDIN ATOMIC CHARGES
----------------------
   0 C :   -0.124416
   1 C :   -0.077208
   2 H :    0.114946
   3 C :   -0.081696
   4 H :    0.108485
   5 C :   -0.084878
   6 H :    0.113719
   7 C :   -0.094353
   8 H :    0.119783
   9 C :   -0.003569
  10 H :    0.107503
  11 O :   -0.164270
  12 O :   -0.281188
  13 O :   -0.317471
  14 O :   -0.314857
  15 O :   -0.303786
  16 O :   -0.329214
  17 H :    0.097795
  18 H :    0.122741
  19 H :    0.281153
  20 H :    0.267925
  21 H :    0.266504
  22 H :    0.294051
  23 H :    0.282301

  Mayer bond orders larger than 0.100000
B(  0-C ,  1-C ) :   1.0608 B(  0-C , 16-O ) :   1.0883 B(  0-C , 17-H ) :   0.9009
B(  0-C , 18-H ) :   0.9202 B(  1-C ,  2-H ) :   0.8614 B(  1-C ,  3-C ) :   0.9821
B(  1-C , 11-O ) :   1.0015 B(  3-C ,  4-H ) :   0.8919 B(  3-C ,  5-C ) :   0.9847
B(  3-C , 15-O ) :   1.0302 B(  5-C ,  6-H ) :   0.8923 B(  5-C ,  7-C ) :   0.9665
B(  5-C , 14-O ) :   1.0416 B(  7-C ,  8-H ) :   0.8982 B(  7-C ,  9-C ) :   0.9379
B(  7-C , 13-O ) :   1.0769 B(  9-C , 10-H ) :   0.8934 B(  9-C , 11-O ) :   0.9602
B(  9-C , 12-O ) :   1.1574 B( 12-O , 19-H ) :   0.8387 B( 13-O , 20-H ) :   0.8075
B( 14-O , 21-H ) :   0.8170 B( 15-O , 20-H ) :   0.1101 B( 15-O , 22-H ) :   0.8385
B( 16-O , 23-H ) :   0.8405

Dispersion correction           -0.025053726
FINAL SINGLE POINT ENERGY      -685.693950747434

DIPOLE MOMENT
-------------

Method             : SCF
Type of density    : Electron Density
Multiplicity       :   1
Irrep              :   0
Energy             :  -685.8275707059092383 Eh
Relativity type    :
Basis              : AO
                                X                 Y                 Z
Electronic contribution:      2.148439258      -1.537480567       0.047745428
Nuclear contribution   :     -2.465341104       2.394225098      -0.454795262
                        -----------------------------------------
Total Dipole Moment    :     -0.316901845       0.856744531      -0.407049834
                        -----------------------------------------
Magnitude (a.u.)       :      1.000063767
Magnitude (Debye)      :      2.541960083

Rotational constants in cm-1:             0.038084             0.027703             0.021922
Rotational constants in MHz :          1141.740760           830.508884           657.195765

                             ****ORCA TERMINATED NORMALLY****
TOTAL RUN TIME: 0 days 0 hours 15 minutes 43 seconds 64 msec
