                         Program Version 6.0.1  -  RELEASE   -
|  1> ! pbe def2-sv(p) def2/J RI DEFGRID1 loosescf d4 GCP(DFT/SV(P)) printgap
|  2> %output
|  3>     printlevel normal
|  4> end
|  5> * xyz 0 1
|  6> C -3.5395288205 -0.2005422075 0.3738624368
|  7> C -2.0631175529 0.1477959963 0.5449709401
|  8> H -1.9019837156 0.4382997211 1.5894559895
|  9> C -1.6630886511 1.3321224466 -0.3302012631
| 10> C -0.2077980289 1.6791655597 -0.0466458524
| 11> C 0.7292216368 0.5671322086 -0.5253870399
| 12> H 1.0021213128 0.764938113 -1.5689034382
| 13> C 0.1010948802 -0.8134044693 -0.5393576505
| 14> O 0.6224081787 -1.7193115534 -1.1486414406
| 15> C -1.1846317927 -1.066987484 0.2176035677
| 16> C 2.0511528006 0.5454883878 0.2855545907
| 17> C 1.8779303034 -0.1492695623 1.6349768901
| 18> C 3.1701031529 -0.1227887249 -0.5075188573
| 19> H -3.7529725867 -0.4552600697 -0.662172868
| 20> H -3.8084613949 -1.0478079704 1.0006401848
| 21> H -4.1647924744 0.6445611874 0.6536151542
| 22> H -1.7896864933 1.0768640885 -1.3847032979
| 23> H -2.3029523493 2.1884524419 -0.1089255424
| 24> H 0.0661935078 2.6127681354 -0.5421266927
| 25> H -0.091146711 1.8357380483 1.0278598021
| 26> H -1.7476831978 -1.7881105331 -0.381154809
| 27> H -0.9034583497 -1.5903595885 1.1358007085
| 28> H 2.3273747774 1.591645942 0.4651345533
| 29> H 1.7190587132 -1.2159440188 1.4926262789
| 30> H 1.0342628635 0.2586198769 2.1872608126
| 31> H 2.7729717802 -0.0180189577 2.2392144675
| 32> H 2.8803841324 -1.13253825 -0.7865826598
| 33> H 4.0779217591 -0.1729182122 0.0896517616
| 34> H 3.3861054308 0.4363957953 -1.4153437627
| 35> *
| 36>
| 37>                          ****END OF INPUT****

CARTESIAN COORDINATES (ANGSTROEM)
---------------------------------
  C     -3.539529   -0.200542    0.373862
  C     -2.063118    0.147796    0.544971
  H     -1.901984    0.438300    1.589456
  C     -1.663089    1.332122   -0.330201
  C     -0.207798    1.679166   -0.046646
  C      0.729222    0.567132   -0.525387
  H      1.002121    0.764938   -1.568903
  C      0.101095   -0.813404   -0.539358
  O      0.622408   -1.719312   -1.148641
  C     -1.184632   -1.066987    0.217604
  C      2.051153    0.545488    0.285555
  C      1.877930   -0.149270    1.634977
  C      3.170103   -0.122789   -0.507519
  H     -3.752973   -0.455260   -0.662173
  H     -3.808461   -1.047808    1.000640
  H     -4.164792    0.644561    0.653615
  H     -1.789686    1.076864   -1.384703
  H     -2.302952    2.188452   -0.108926
  H      0.066194    2.612768   -0.542127
  H     -0.091147    1.835738    1.027860
  H     -1.747683   -1.788111   -0.381155
  H     -0.903458   -1.590360    1.135801
  H      2.327375    1.591646    0.465135
  H      1.719059   -1.215944    1.492626
  H      1.034263    0.258620    2.187261
  H      2.772972   -0.018019    2.239214
  H      2.880384   -1.132538   -0.786583
  H      4.077922   -0.172918    0.089652
  H      3.386105    0.436396   -1.415344

 Total Charge           Charge          ....    0
 Multiplicity           Mult            ....    1
 Number of Electrons    NEL             ....   86
 Basis Dimension        Dim             ....  190

ORBITAL ENERGIES
----------------

  NO   OCC          E(Eh)            E(eV)
   0   2.0000     -18.730221      -509.6752
   1   2.0000      -9.969418      -271.2816
   2   2.0000      -9.903493      -269.4877
   3   2.0000      -9.903128      -269.4778
   4   2.0000      -9.896645      -269.3014
   5   2.0000      -9.889475      -269.1063
   6   2.0000      -9.889130      -269.0969
   7   2.0000      -9.888653      -269.0839
   8   2.0000      -9.878157      -268.7983
   9   2.0000      -9.877640      -268.7843
  10   2.0000      -9.863975      -268.4124
  11   2.0000      -0.935174       -25.4474
  12   2.0000      -0.765464       -20.8293
  13   2.0000      -0.730446       -19.8765
  14   2.0000      -0.679199       -18.4819
  15   2.0000      -0.648465       -17.6456
  16   2.0000      -0.616258       -16.7692
  17   2.0000      -0.607614       -16.5340
  18   2.0000      -0.550842       -14.9892
  19   2.0000      -0.526870       -14.3368
  20   2.0000      -0.505902       -13.7663
  21   2.0000      -0.464204       -12.6316
  22   2.0000      -0.440947       -11.9988
  23   2.0000      -0.419007       -11.4018
  24   2.0000      -0.408903       -11.1268
  25   2.0000      -0.399636       -10.8746
  26   2.0000      -0.386551       -10.5186
  27   2.0000      -0.375328       -10.2132
  28   2.0000      -0.368097       -10.0164
  29   2.0000      -0.364309        -9.9133
  30   2.0000      -0.349213        -9.5026
  31   2.0000      -0.341297        -9.2872
  32   2.0000      -0.334310        -9.0970
  33   2.0000      -0.332992        -9.0612
  34   2.0000      -0.318636        -8.6705
  35   2.0000      -0.308433        -8.3929
  36   2.0000      -0.304608        -8.2888
  37   2.0000      -0.292742        -7.9659
  38   2.0000      -0.289346        -7.8735
  39   2.0000      -0.283658        -7.7187
  40   2.0000      -0.272189        -7.4066
  41   2.0000      -0.267925        -7.2906
  42   2.0000      -0.186311        -5.0698
  43   0.0000      -0.052482        -1.4281
  44   0.0000       0.023464         0.6385
  45   0.0000       0.046208         1.2574
  46   0.0000       0.046506         1.2655
  47   0.0000       0.063655         1.7321

MULLIKEN ATOMIC CHARGES
-----------------------
   0 C :   -0.218172
   1 C :   -0.203154
   2 H :    0.067159
   3 C :   -0.119349
   4 C :   -0.080459
   5 C :   -0.127759
   6 H :    0.083273
   7 C :   -0.027934
   8 O :   -0.158754
   9 C :   -0.084800
  10 C :   -0.162754
  11 C :   -0.271005
  12 C :   -0.234109
  13 H :    0.097929
  14 H :    0.104000
  15 H :    0.097923
  16 H :    0.080799
  17 H :    0.082226
  18 H :    0.083265
  19 H :    0.075896
  20 H :    0.097758
  21 H :    0.109280
  22 H :    0.076296
  23 H :    0.120796
  24 H :    0.100113
  25 H :    0.105465
  26 H :    0.120828
  27 H :    0.092312
  28 H :    0.092932
Sum of atomic charges:    0.0000000

LOEWDIN ATOMIC CHARGES
----------------------
   0 C :   -0.328302
   1 C :   -0.152459
   2 H :    0.114605
   3 C :   -0.218410
   4 C :   -0.218140
   5 C :   -0.159572
   6 H :    0.137237
   7 C :    0.053200
   8 O :   -0.125898
   9 C :   -0.243076
  10 C :   -0.133138
  11 C :   -0.335243
  12 C :   -0.336437
  13 H :    0.118443
  14 H :    0.119305
  15 H :    0.118303
  16 H :    0.116899
  17 H :    0.118072
  18 H :    0.120872
  19 H :    0.115064
  20 H :    0.139784
  21 H :    0.146387
  22 H :    0.115820
  23 H :    0.122461
  24 H :    0.113147
  25 H :    0.122744
  26 H :    0.127227
  27 H :    0.114873
  28 H :    0.116230

  Mayer bond orders larger than 0.100000
B(  0-C ,  1-C ) :   1.1196 B(  0-C , 13-H ) :   0.9434 B(  0-C , 14-H ) :   0.9489
B(  0-C , 15-H ) :   0.9478 B(  1-C ,  2-H ) :   0.8872 B(  1-C ,  3-C ) :   1.1339
B(  1-C ,  9-C ) :   1.0363 B(  3-C ,  4-C ) :   1.1433 B(  3-C , 16-H ) :   0.9029
B(  3-C , 17-H ) :   0.9152 B(  4-C ,  5-C ) :   1.0679 B(  4-C , 18-H ) :   0.9037
B(  4-C , 19-H ) :   0.8960 B(  5-C ,  6-H ) :   0.8657 B(  5-C ,  7-C ) :   0.9670
B(  5-C , 10-C ) :   1.0185 B(  7-C ,  8-O ) :   2.1445 B(  7-C ,  9-C ) :   1.0448
B(  9-C , 20-H ) :   0.8913 B(  9-C , 21-H ) :   0.8741 B( 10-C , 11-C ) :   1.1163
B( 10-C , 12-C ) :   1.1186 B( 10-C , 22-H ) :   0.9033 B( 11-C , 23-H ) :   0.9318
B( 11-C , 24-H ) :   0.9423 B( 11-C , 25-H ) :   0.9453 B( 12-C , 26-H ) :   0.9293
B( 12-C , 27-H ) :   0.9461 B( 12-C , 28-H ) :   0.9465

Dispersion correction           -0.030436814
FINAL SINGLE POINT ENERGY      -466.028645526174

DIPOLE MOMENT
-------------

Method             : SCF
Type of density    : Electron Density
Multiplicity       :   1
Irrep              :   0
Energy             :  -466.1252166595265862 Eh
Relativity type    :
Basis              : AO
                                X                 Y                 Z
Electronic contribution:      0.720228663      -3.382375686      -4.162713958
Nuclear contribution   :     -1.113510682       4.128061327       4.703197688
                        -----------------------------------------
Total Dipole Moment    :     -0.393282019       0.745685641       0.540483730
                        -----------------------------------------
Magnitude (a.u.)       :      1.001419235
Magnitude (Debye)      :      2.545405409

Rotational constants in cm-1:             0.065027             0.024462             0.022034
Rotational constants in MHz :          1949.458382           733.365753           660.558695

                             ****ORCA TERMINATED NORMALLY****
TOTAL RUN TIME: 0 days 0 hours 0 minutes 18 seconds 284 msec
