                         Program Version 6.0.1  -  RELEASE   -
|  1> ! pbe def2-sv(p) def2/J RI DEFGRID1 loosescf d4 GCP(DFT/SV(P)) printgap
|  2> %output
|  3>     printlevel normal
|  4> end
|  5> * xyz 0 1
|  6> C 2.2984670701 -0.3709120958 -0.3355345003
|  7> C 1.0455541682 -0.2454298214 0.5333066958
|  8> H 1.2735144874 -0.623135181 1.5387970742
|  9> C 0.5066080198 1.1901792917 0.5734376569
| 10> C -0.5034500016 1.1904211649 -0.5714596792
| 11> C -1.0433882839 -0.2450734772 -0.5325343471
| 12> H -1.2649118665 -0.6239493629 -1.539103268
| 13> O -0.0012915598 -1.0485100749 0.0051255055
| 14> C -2.3020829852 -0.3686444627 0.3279826859
| 15> H 3.1276852529 0.1621302968 0.1225575927
| 16> H 2.5644451322 -1.41937175 -0.4378287796
| 17> H 2.1149606138 0.0361337332 -1.3266783562
| 18> H 0.0051565784 1.3810955744 1.5226221685
| 19> H 1.2973608318 1.925294103 0.4419069931
| 20> H -1.2940312126 1.9255351778 -0.4393546397
| 21> H -0.0019919379 1.382425634 -1.5204702973
| 22> H -3.1281031423 0.1638546858 -0.1366644229
| 23> H -2.1248386408 0.0401493112 1.3195806124
| 24> H -2.5690977228 -1.4169456826 0.4304917175
| 25> *
| 26>
| 27>                          ****END OF INPUT****

CARTESIAN COORDINATES (ANGSTROEM)
---------------------------------
  C      2.298467   -0.370912   -0.335535
  C      1.045554   -0.245430    0.533307
  H      1.273514   -0.623135    1.538797
  C      0.506608    1.190179    0.573438
  C     -0.503450    1.190421   -0.571460
  C     -1.043388   -0.245073   -0.532534
  H     -1.264912   -0.623949   -1.539103
  O     -0.001292   -1.048510    0.005126
  C     -2.302083   -0.368644    0.327983
  H      3.127685    0.162130    0.122558
  H      2.564445   -1.419372   -0.437829
  H      2.114961    0.036134   -1.326678
  H      0.005157    1.381096    1.522622
  H      1.297361    1.925294    0.441907
  H     -1.294031    1.925535   -0.439355
  H     -0.001992    1.382426   -1.520470
  H     -3.128103    0.163855   -0.136664
  H     -2.124839    0.040149    1.319581
  H     -2.569098   -1.416946    0.430492

 Total Charge           Charge          ....    0
 Multiplicity           Mult            ....    1
 Number of Electrons    NEL             ....   56
 Basis Dimension        Dim             ....  122

ORBITAL ENERGIES
----------------

  NO   OCC          E(Eh)            E(eV)
   0   2.0000     -18.739923      -509.9392
   1   2.0000      -9.933152      -270.2948
   2   2.0000      -9.933136      -270.2944
   3   2.0000      -9.887674      -269.0573
   4   2.0000      -9.887615      -269.0557
   5   2.0000      -9.870218      -268.5823
   6   2.0000      -9.870211      -268.5821
   7   2.0000      -0.932558       -25.3762
   8   2.0000      -0.708424       -19.2772
   9   2.0000      -0.699552       -19.0358
  10   2.0000      -0.631477       -17.1834
  11   2.0000      -0.583084       -15.8665
  12   2.0000      -0.527026       -14.3411
  13   2.0000      -0.491026       -13.3615
  14   2.0000      -0.441419       -12.0116
  15   2.0000      -0.438468       -11.9313
  16   2.0000      -0.406308       -11.0562
  17   2.0000      -0.365840        -9.9550
  18   2.0000      -0.357246        -9.7212
  19   2.0000      -0.354968        -9.6592
  20   2.0000      -0.345605        -9.4044
  21   2.0000      -0.343709        -9.3528
  22   2.0000      -0.323354        -8.7989
  23   2.0000      -0.300895        -8.1878
  24   2.0000      -0.284381        -7.7384
  25   2.0000      -0.281329        -7.6553
  26   2.0000      -0.259893        -7.0720
  27   2.0000      -0.193367        -5.2618
  28   0.0000       0.029566         0.8045
  29   0.0000       0.049211         1.3391
  30   0.0000       0.069465         1.8902
  31   0.0000       0.090237         2.4555
  32   0.0000       0.090711         2.4684

MULLIKEN ATOMIC CHARGES
-----------------------
   0 C :   -0.231510
   1 C :    0.020027
   2 H :    0.067951
   3 C :   -0.166622
   4 C :   -0.167822
   5 C :    0.020979
   6 H :    0.067791
   7 O :   -0.331394
   8 C :   -0.231494
   9 H :    0.092306
  10 H :    0.109134
  11 H :    0.088704
  12 H :    0.091995
  13 H :    0.093868
  14 H :    0.093876
  15 H :    0.092044
  16 H :    0.092331
  17 H :    0.088667
  18 H :    0.109169
Sum of atomic charges:    0.0000000

LOEWDIN ATOMIC CHARGES
----------------------
   0 C :   -0.348675
   1 C :   -0.044205
   2 H :    0.105010
   3 C :   -0.232913
   4 C :   -0.233012
   5 C :   -0.044054
   6 H :    0.104865
   7 O :   -0.163453
   8 C :   -0.348506
   9 H :    0.118839
  10 H :    0.124215
  11 H :    0.116331
  12 H :    0.119926
  13 H :    0.123186
  14 H :    0.123215
  15 H :    0.119883
  16 H :    0.118807
  17 H :    0.116328
  18 H :    0.124211

  Mayer bond orders larger than 0.100000
B(  0-C ,  1-C ) :   1.1170 B(  0-C ,  9-H ) :   0.9390 B(  0-C , 10-H ) :   0.9444
B(  0-C , 11-H ) :   0.9446 B(  1-C ,  2-H ) :   0.9116 B(  1-C ,  3-C ) :   1.0757
B(  1-C ,  7-O ) :   1.0125 B(  3-C ,  4-C ) :   1.1245 B(  3-C , 12-H ) :   0.9141
B(  3-C , 13-H ) :   0.9247 B(  4-C ,  5-C ) :   1.0753 B(  4-C , 14-H ) :   0.9247
B(  4-C , 15-H ) :   0.9142 B(  5-C ,  6-H ) :   0.9116 B(  5-C ,  7-O ) :   1.0122
B(  5-C ,  8-C ) :   1.1175 B(  8-C , 16-H ) :   0.9390 B(  8-C , 17-H ) :   0.9445
B(  8-C , 18-H ) :   0.9444

Dispersion correction           -0.015802897
FINAL SINGLE POINT ENERGY      -310.345292135604

DIPOLE MOMENT
-------------

Method             : SCF
Type of density    : Electron Density
Multiplicity       :   1
Irrep              :   0
Energy             :  -310.4154955193988030 Eh
Relativity type    :
Basis              : AO
                                X                 Y                 Z
Electronic contribution:      0.001638102      -2.176231011       0.020163430
Nuclear contribution   :      0.000120039       2.736287638      -0.022574656
                        -----------------------------------------
Total Dipole Moment    :      0.001758142       0.560056627      -0.002411226
                        -----------------------------------------
Magnitude (a.u.)       :      0.560064577
Magnitude (Debye)      :      1.423571022

Rotational constants in cm-1:             0.162583             0.070459             0.060054
Rotational constants in MHz :          4874.106062          2112.315412          1800.368230

                             ****ORCA TERMINATED NORMALLY****
TOTAL RUN TIME: 0 days 0 hours 0 minutes 16 seconds 94 msec
