                         Program Version 6.0.1  -  RELEASE   -
|  1> ! pbe def2-sv(p) def2/J RI DEFGRID1 loosescf d4 GCP(DFT/SV(P)) printgap
|  2> %output
|  3>     printlevel normal
|  4> end
|  5> * xyz 0 1
|  6> C -1.9306164465 -1.1761221554 -0.3936532754
|  7> C -1.0522493313 -0.5305218635 0.7237458144
|  8> H -1.6022829559 -0.6050094639 1.6716639492
|  9> C -0.7596827677 0.9658944643 0.4997443173
| 10> H -1.6548414963 1.4352063852 0.0658032438
| 11> C 0.4300257693 1.2066893646 -0.4447108478
| 12> H 0.6884570843 2.2718758349 -0.368299341
| 13> C 1.6471147976 0.3726573764 0.00494909
| 14> H 2.4320712217 0.4247599034 -0.7613149457
| 15> C 1.2244499412 -1.1106599181 0.1272550145
| 16> H 2.0217662495 -1.6804075755 0.6178664165
| 17> O 0.1235051177 -1.2771185188 0.9877279647
| 18> O 1.0510952139 -1.6752372409 -1.1340464243
| 19> O 2.2128455051 0.8736129642 1.1770277222
| 20> O 0.0371982032 0.8810865439 -1.7694924398
| 21> O -0.4189834138 1.6029455856 1.7152692218
| 22> O -2.5193463878 -0.2662077482 -1.2828039762
| 23> H -2.7642339855 -1.7016430406 0.077261919
| 24> H -1.3272013295 -1.9220704139 -0.9229277778
| 25> H 0.508368036 -1.0757484981 -1.6702828099
| 26> H 1.5020937341 1.0061216144 1.8230810694
| 27> H 0.6905430498 1.2356831019 -2.3825929761
| 28> H -1.1358449881 1.4829889929 2.3482063952
| 29> H -1.8238108175 0.1625953238 -1.8009245865
| 30> *
| 31>
| 32>                          ****END OF INPUT****

CARTESIAN COORDINATES (ANGSTROEM)
---------------------------------
  C     -1.930616   -1.176122   -0.393653
  C     -1.052249   -0.530522    0.723746
  H     -1.602283   -0.605009    1.671664
  C     -0.759683    0.965894    0.499744
  H     -1.654841    1.435206    0.065803
  C      0.430026    1.206689   -0.444711
  H      0.688457    2.271876   -0.368299
  C      1.647115    0.372657    0.004949
  H      2.432071    0.424760   -0.761315
  C      1.224450   -1.110660    0.127255
  H      2.021766   -1.680408    0.617866
  O      0.123505   -1.277119    0.987728
  O      1.051095   -1.675237   -1.134046
  O      2.212846    0.873613    1.177028
  O      0.037198    0.881087   -1.769492
  O     -0.418983    1.602946    1.715269
  O     -2.519346   -0.266208   -1.282804
  H     -2.764234   -1.701643    0.077262
  H     -1.327201   -1.922070   -0.922928
  H      0.508368   -1.075748   -1.670283
  H      1.502094    1.006122    1.823081
  H      0.690543    1.235683   -2.382593
  H     -1.135845    1.482989    2.348206
  H     -1.823811    0.162595   -1.800925

 Total Charge           Charge          ....    0
 Multiplicity           Mult            ....    1
 Number of Electrons    NEL             ....   96
 Basis Dimension        Dim             ....  192

ORBITAL ENERGIES
----------------

  NO   OCC          E(Eh)            E(eV)
   0   2.0000     -18.811164      -511.8778
   1   2.0000     -18.781929      -511.0823
   2   2.0000     -18.763019      -510.5677
   3   2.0000     -18.751855      -510.2639
   4   2.0000     -18.743986      -510.0498
   5   2.0000     -18.743311      -510.0314
   6   2.0000      -9.977806      -271.5099
   7   2.0000      -9.968041      -271.2442
   8   2.0000      -9.961622      -271.0695
   9   2.0000      -9.950796      -270.7749
  10   2.0000      -9.945602      -270.6336
  11   2.0000      -9.930108      -270.2120
  12   2.0000      -0.989384       -26.9225
  13   2.0000      -0.968985       -26.3674
  14   2.0000      -0.955975       -26.0134
  15   2.0000      -0.925625       -25.1875
  16   2.0000      -0.922033       -25.0898
  17   2.0000      -0.907923       -24.7058
  18   2.0000      -0.716944       -19.5090
  19   2.0000      -0.690145       -18.7798
  20   2.0000      -0.625838       -17.0299
  21   2.0000      -0.590992       -16.0817
  22   2.0000      -0.581450       -15.8220
  23   2.0000      -0.544114       -14.8061
  24   2.0000      -0.513451       -13.9717
  25   2.0000      -0.499847       -13.6015
  26   2.0000      -0.478700       -13.0261
  27   2.0000      -0.469044       -12.7633
  28   2.0000      -0.445153       -12.1132
  29   2.0000      -0.431139       -11.7319
  30   2.0000      -0.429741       -11.6938
  31   2.0000      -0.403160       -10.9705
  32   2.0000      -0.397759       -10.8236
  33   2.0000      -0.390608       -10.6290
  34   2.0000      -0.366119        -9.9626
  35   2.0000      -0.362169        -9.8551
  36   2.0000      -0.336518        -9.1571
  37   2.0000      -0.331993        -9.0340
  38   2.0000      -0.311317        -8.4714
  39   2.0000      -0.300939        -8.1890
  40   2.0000      -0.299678        -8.1547
  41   2.0000      -0.269211        -7.3256
  42   2.0000      -0.263814        -7.1787
  43   2.0000      -0.254897        -6.9361
  44   2.0000      -0.245939        -6.6924
  45   2.0000      -0.239348        -6.5130
  46   2.0000      -0.205204        -5.5839
  47   2.0000      -0.200163        -5.4467
  48   0.0000      -0.015884        -0.4322
  49   0.0000       0.007032         0.1914
  50   0.0000       0.039180         1.0661
  51   0.0000       0.048554         1.3212
  52   0.0000       0.069691         1.8964

MULLIKEN ATOMIC CHARGES
-----------------------
   0 C :    0.014254
   1 C :    0.028273
   2 H :    0.057632
   3 C :    0.017165
   4 H :    0.089965
   5 C :    0.008495
   6 H :    0.094926
   7 C :    0.027420
   8 H :    0.069099
   9 C :    0.212747
  10 H :    0.076013
  11 O :   -0.305130
  12 O :   -0.405165
  13 O :   -0.417008
  14 O :   -0.428769
  15 O :   -0.424968
  16 O :   -0.434219
  17 H :    0.084865
  18 H :    0.095130
  19 H :    0.294327
  20 H :    0.302507
  21 H :    0.329110
  22 H :    0.312817
  23 H :    0.300515
Sum of atomic charges:    0.0000000

LOEWDIN ATOMIC CHARGES
----------------------
   0 C :   -0.146411
   1 C :   -0.077774
   2 H :    0.112949
   3 C :   -0.076931
   4 H :    0.113800
   5 C :   -0.070721
   6 H :    0.116812
   7 C :   -0.095567
   8 H :    0.112020
   9 C :   -0.006405
  10 H :    0.113586
  11 O :   -0.141842
  12 O :   -0.310569
  13 O :   -0.312301
  14 O :   -0.303037
  15 O :   -0.306118
  16 O :   -0.338503
  17 H :    0.116541
  18 H :    0.104525
  19 H :    0.261739
  20 H :    0.272783
  21 H :    0.303958
  22 H :    0.292750
  23 H :    0.264716

  Mayer bond orders larger than 0.100000
B(  0-C ,  1-C ) :   0.9802 B(  0-C , 16-O ) :   1.1167 B(  0-C , 17-H ) :   0.9206
B(  0-C , 18-H ) :   0.9113 B(  1-C ,  2-H ) :   0.8928 B(  1-C ,  3-C ) :   1.0223
B(  1-C , 11-O ) :   1.0201 B(  3-C ,  4-H ) :   0.8763 B(  3-C ,  5-C ) :   1.0153
B(  3-C , 15-O ) :   1.0078 B(  5-C ,  6-H ) :   0.9004 B(  5-C ,  7-C ) :   0.9743
B(  5-C , 14-O ) :   0.9907 B(  7-C ,  8-H ) :   0.8976 B(  7-C ,  9-C ) :   0.9671
B(  7-C , 13-O ) :   1.0788 B(  9-C , 10-H ) :   0.9059 B(  9-C , 11-O ) :   1.0413
B(  9-C , 12-O ) :   1.1017 B( 12-O , 19-H ) :   0.7973 B( 13-O , 20-H ) :   0.8102
B( 14-O , 19-H ) :   0.1065 B( 14-O , 21-H ) :   0.8314 B( 15-O , 22-H ) :   0.8400
B( 16-O , 23-H ) :   0.8093

Dispersion correction           -0.026573531
FINAL SINGLE POINT ENERGY      -685.693312316025

DIPOLE MOMENT
-------------

Method             : SCF
Type of density    : Electron Density
Multiplicity       :   1
Irrep              :   0
Energy             :  -685.8291433594748696 Eh
Relativity type    :
Basis              : AO
                                X                 Y                 Z
Electronic contribution:      1.968319400       0.026456618       0.991039735
Nuclear contribution   :     -2.305306222       0.972458715      -1.226466474
                        -----------------------------------------
Total Dipole Moment    :     -0.336986822       0.998915333      -0.235426740
                        -----------------------------------------
Magnitude (a.u.)       :      1.080193368
Magnitude (Debye)      :      2.745633341

Rotational constants in cm-1:             0.040834             0.030413             0.026728
Rotational constants in MHz :          1224.183609           911.771213           801.295493

                             ****ORCA TERMINATED NORMALLY****
TOTAL RUN TIME: 0 days 0 hours 0 minutes 10 seconds 113 msec
