                         Program Version 6.0.1  -  RELEASE   -
|  1> ! r2scan-3c def2/J RI DEFGRID2 scfconv6 printgap
|  2> %output
|  3>     printlevel normal
|  4> end
|  5> * xyz 0 1
|  6> C -2.3530091181 0.8577215038 -0.166034306
|  7> C -1.8978786337 -0.4863839266 0.3867458338
|  8> C -0.6626541112 -1.0145403192 -0.3188241324
|  9> Br 0.9022884481 0.1102627589 0.0218576923
| 10> H -3.2446536819 1.1975753769 0.3544241809
| 11> H -1.575132137 1.6072199223 -0.0360850358
| 12> H -2.5825531924 0.7783520539 -1.2270540411
| 13> H -2.6926743008 -1.2267994042 0.2569969117
| 14> H -1.6966250308 -0.3960586389 1.4567360193
| 15> H -0.792820222 -1.0267077596 -1.4004801324
| 16> H -0.3929249439 -2.0100051559 0.0318282539
| 17> *
| 18>
| 19>                          ****END OF INPUT****

CARTESIAN COORDINATES (ANGSTROEM)
---------------------------------
  C     -2.353009    0.857722   -0.166034
  C     -1.897879   -0.486384    0.386746
  C     -0.662654   -1.014540   -0.318824
  Br     0.902288    0.110263    0.021858
  H     -3.244654    1.197575    0.354424
  H     -1.575132    1.607220   -0.036085
  H     -2.582553    0.778352   -1.227054
  H     -2.692674   -1.226799    0.256997
  H     -1.696625   -0.396059    1.456736
  H     -0.792820   -1.026708   -1.400480
  H     -0.392925   -2.010005    0.031828

 Total Charge           Charge          ....    0
 Multiplicity           Mult            ....    1
 Number of Electrons    NEL             ....   60
 Basis Dimension        Dim             ....  128

ORBITAL ENERGIES
----------------

  NO   OCC          E(Eh)            E(eV)
   0   2.0000    -482.211477    -13121.6414
   1   2.0000     -62.283533     -1694.8211
   2   2.0000     -56.063967     -1525.5781
   3   2.0000     -56.061285     -1525.5051
   4   2.0000     -56.061236     -1525.5038
   5   2.0000     -10.091930      -274.6154
   6   2.0000     -10.047085      -273.3951
   7   2.0000     -10.024209      -272.7726
   8   2.0000      -8.615814      -234.4482
   9   2.0000      -6.423166      -174.7832
  10   2.0000      -6.409742      -174.4179
  11   2.0000      -6.409560      -174.4130
  12   2.0000      -2.520772       -68.5937
  13   2.0000      -2.517465       -68.5037
  14   2.0000      -2.517331       -68.5000
  15   2.0000      -2.507342       -68.2282
  16   2.0000      -2.507316       -68.2275
  17   2.0000      -0.794546       -21.6207
  18   2.0000      -0.722801       -19.6684
  19   2.0000      -0.643657       -17.5148
  20   2.0000      -0.560725       -15.2581
  21   2.0000      -0.444557       -12.0970
  22   2.0000      -0.436931       -11.8895
  23   2.0000      -0.396177       -10.7805
  24   2.0000      -0.361945        -9.8490
  25   2.0000      -0.334698        -9.1076
  26   2.0000      -0.329477        -8.9655
  27   2.0000      -0.314947        -8.5701
  28   2.0000      -0.251229        -6.8363
  29   2.0000      -0.248696        -6.7674
  30   0.0000      -0.021635        -0.5887
  31   0.0000       0.089513         2.4358
  32   0.0000       0.121115         3.2957
  33   0.0000       0.122619         3.3366
  34   0.0000       0.139863         3.8059

MULLIKEN ATOMIC CHARGES
-----------------------
   0 C :   -0.456210
   1 C :   -0.239891
   2 C :   -0.192320
   3 Br:   -0.182322
   4 H :    0.147846
   5 H :    0.162111
   6 H :    0.139431
   7 H :    0.141063
   8 H :    0.154427
   9 H :    0.156291
  10 H :    0.169574
Sum of atomic charges:    0.0000000

LOEWDIN ATOMIC CHARGES
----------------------
   0 C :   -0.430783
   1 C :   -0.340021
   2 C :   -0.393293
   3 Br:    0.065473
   4 H :    0.153060
   5 H :    0.159115
   6 H :    0.150367
   7 H :    0.160099
   8 H :    0.160191
   9 H :    0.157814
  10 H :    0.157979

  Mayer bond orders larger than 0.100000
B(  0-C ,  1-C ) :   0.9249 B(  0-C ,  4-H ) :   0.9698 B(  0-C ,  5-H ) :   0.9690
B(  0-C ,  6-H ) :   0.9781 B(  1-C ,  2-C ) :   0.9230 B(  1-C ,  7-H ) :   0.9475
B(  1-C ,  8-H ) :   0.9646 B(  2-C ,  3-Br) :   0.9642 B(  2-C ,  9-H ) :   0.9622
B(  2-C , 10-H ) :   0.9548

Dispersion correction           -0.002389955
FINAL SINGLE POINT ENERGY     -2692.632565112790

DIPOLE MOMENT
-------------

Method             : SCF
Type of density    : Electron Density
Multiplicity       :   1
Irrep              :   0
Energy             : -2692.6357282666722313 Eh
Relativity type    :
Basis              : AO
                                X                 Y                 Z
Electronic contribution:     19.769787497       1.618513176       0.648152006
Nuclear contribution   :    -20.552935791      -2.033677567      -0.731739926
                        -----------------------------------------
Total Dipole Moment    :     -0.783148294      -0.415164390      -0.083587920
                        -----------------------------------------
Magnitude (a.u.)       :      0.890319977
Magnitude (Debye)      :      2.263013536

Rotational constants in cm-1:             0.368889             0.076578             0.068138
Rotational constants in MHz :         11059.021079          2295.744551          2042.730994

                             ****ORCA TERMINATED NORMALLY****
TOTAL RUN TIME: 0 days 0 hours 0 minutes 18 seconds 802 msec
