                         Program Version 6.0.1  -  RELEASE   -
|  1> ! pbe def2-sv(p) def2/J RI DEFGRID1 loosescf d4 GCP(DFT/SV(P)) printgap
|  2> %output
|  3>     printlevel normal
|  4> end
|  5> * xyz 0 1
|  6> C -3.3653235266 0.0269896701 0.6843629747
|  7> C -1.8454860425 0.0646079412 0.5425367072
|  8> H -1.4114307132 -0.1829109227 1.516397366
|  9> C -1.3620048837 1.4607893825 0.1111826345
| 10> C -0.296741103 1.4146015616 -0.9868408388
| 11> C 0.7631113164 0.324039736 -0.8071507373
| 12> H 1.2820899002 0.2233011102 -1.7698600148
| 13> C 0.1257868117 -1.0281671265 -0.5535092961
| 14> O 0.7630641253 -2.0495113912 -0.4621306902
| 15> C -1.3789876384 -1.0070681148 -0.4479688749
| 16> C 1.8715840996 0.6596175588 0.2244778107
| 17> C 1.4835533591 0.3475694356 1.6681242494
| 18> C 3.1544487986 -0.0930397784 -0.126488323
| 19> H -3.694006501 -0.9485354456 1.0356496409
| 20> H -3.697148194 0.7770144508 1.3989420833
| 21> H -3.8439460846 0.2261473557 -0.2725064654
| 22> H -2.2085283666 2.0376548764 -0.2680779461
| 23> H -0.9773329919 2.0005641434 0.9771461554
| 24> H -0.7924677826 1.2467617195 -1.9463427924
| 25> H 0.1946895324 2.387883221 -1.0509604141
| 26> H -1.7925118833 -0.7992111798 -1.437771015
| 27> H -1.7254265922 -1.9938719552 -0.135589669
| 28> H 2.06808751 1.7359653873 0.1452673113
| 29> H 2.3132083928 0.5916508633 2.3287644399
| 30> H 1.2617755024 -0.7105996321 1.7823085037
| 31> H 0.6223785023 0.9262343729 1.9875460099
| 32> H 2.9703699032 -1.1638817067 -0.1131320504
| 33> H 3.9360965232 0.1346118868 0.5949813822
| 34> H 3.5112560253 0.1862884416 -1.1159492508
| 35> *
| 36>
| 37>                          ****END OF INPUT****

CARTESIAN COORDINATES (ANGSTROEM)
---------------------------------
  C     -3.365324    0.026990    0.684363
  C     -1.845486    0.064608    0.542537
  H     -1.411431   -0.182911    1.516397
  C     -1.362005    1.460789    0.111183
  C     -0.296741    1.414602   -0.986841
  C      0.763111    0.324040   -0.807151
  H      1.282090    0.223301   -1.769860
  C      0.125787   -1.028167   -0.553509
  O      0.763064   -2.049511   -0.462131
  C     -1.378988   -1.007068   -0.447969
  C      1.871584    0.659618    0.224478
  C      1.483553    0.347569    1.668124
  C      3.154449   -0.093040   -0.126488
  H     -3.694007   -0.948535    1.035650
  H     -3.697148    0.777014    1.398942
  H     -3.843946    0.226147   -0.272506
  H     -2.208528    2.037655   -0.268078
  H     -0.977333    2.000564    0.977146
  H     -0.792468    1.246762   -1.946343
  H      0.194690    2.387883   -1.050960
  H     -1.792512   -0.799211   -1.437771
  H     -1.725427   -1.993872   -0.135590
  H      2.068088    1.735965    0.145267
  H      2.313208    0.591651    2.328764
  H      1.261776   -0.710600    1.782309
  H      0.622379    0.926234    1.987546
  H      2.970370   -1.163882   -0.113132
  H      3.936097    0.134612    0.594981
  H      3.511256    0.186288   -1.115949

 Total Charge           Charge          ....    0
 Multiplicity           Mult            ....    1
 Number of Electrons    NEL             ....   86
 Basis Dimension        Dim             ....  190

ORBITAL ENERGIES
----------------

  NO   OCC          E(Eh)            E(eV)
   0   2.0000     -18.733234      -509.7572
   1   2.0000      -9.969018      -271.2708
   2   2.0000      -9.906255      -269.5629
   3   2.0000      -9.901427      -269.4315
   4   2.0000      -9.897807      -269.3330
   5   2.0000      -9.891799      -269.1695
   6   2.0000      -9.890145      -269.1245
   7   2.0000      -9.888611      -269.0828
   8   2.0000      -9.879995      -268.8483
   9   2.0000      -9.873077      -268.6601
  10   2.0000      -9.863377      -268.3961
  11   2.0000      -0.936805       -25.4918
  12   2.0000      -0.767083       -20.8734
  13   2.0000      -0.727780       -19.8039
  14   2.0000      -0.678521       -18.4635
  15   2.0000      -0.654191       -17.8014
  16   2.0000      -0.617681       -16.8080
  17   2.0000      -0.604345       -16.4451
  18   2.0000      -0.554763       -15.0959
  19   2.0000      -0.521210       -14.1828
  20   2.0000      -0.504680       -13.7330
  21   2.0000      -0.458358       -12.4725
  22   2.0000      -0.442026       -12.0281
  23   2.0000      -0.429289       -11.6815
  24   2.0000      -0.413776       -11.2594
  25   2.0000      -0.389481       -10.5983
  26   2.0000      -0.386990       -10.5305
  27   2.0000      -0.374200       -10.1825
  28   2.0000      -0.370333       -10.0773
  29   2.0000      -0.359672        -9.7872
  30   2.0000      -0.348556        -9.4847
  31   2.0000      -0.342758        -9.3269
  32   2.0000      -0.337517        -9.1843
  33   2.0000      -0.334411        -9.0998
  34   2.0000      -0.320164        -8.7121
  35   2.0000      -0.317112        -8.6290
  36   2.0000      -0.296347        -8.0640
  37   2.0000      -0.293560        -7.9882
  38   2.0000      -0.289837        -7.8869
  39   2.0000      -0.282223        -7.6797
  40   2.0000      -0.272895        -7.4259
  41   2.0000      -0.265476        -7.2240
  42   2.0000      -0.187030        -5.0893
  43   0.0000      -0.050366        -1.3705
  44   0.0000       0.022729         0.6185
  45   0.0000       0.040666         1.1066
  46   0.0000       0.048425         1.3177
  47   0.0000       0.067550         1.8381

MULLIKEN ATOMIC CHARGES
-----------------------
   0 C :   -0.218047
   1 C :   -0.236784
   2 H :    0.081636
   3 C :   -0.119995
   4 C :   -0.077930
   5 C :   -0.144950
   6 H :    0.092141
   7 C :   -0.001323
   8 O :   -0.149153
   9 C :   -0.059342
  10 C :   -0.155369
  11 C :   -0.261440
  12 C :   -0.247635
  13 H :    0.100649
  14 H :    0.105708
  15 H :    0.094098
  16 H :    0.075749
  17 H :    0.095070
  18 H :    0.070133
  19 H :    0.082877
  20 H :    0.090326
  21 H :    0.084354
  22 H :    0.068702
  23 H :    0.099346
  24 H :    0.120440
  25 H :    0.105893
  26 H :    0.120045
  27 H :    0.092928
  28 H :    0.091873
Sum of atomic charges:   -0.0000000

LOEWDIN ATOMIC CHARGES
----------------------
   0 C :   -0.325964
   1 C :   -0.149433
   2 H :    0.119700
   3 C :   -0.221890
   4 C :   -0.217992
   5 C :   -0.162598
   6 H :    0.143018
   7 C :    0.054691
   8 O :   -0.120691
   9 C :   -0.236776
  10 C :   -0.133367
  11 C :   -0.337719
  12 C :   -0.337256
  13 H :    0.119084
  14 H :    0.120023
  15 H :    0.116258
  16 H :    0.120137
  17 H :    0.118652
  18 H :    0.117409
  19 H :    0.120681
  20 H :    0.136702
  21 H :    0.128495
  22 H :    0.113990
  23 H :    0.121164
  24 H :    0.123671
  25 H :    0.114545
  26 H :    0.126981
  27 H :    0.114473
  28 H :    0.114013

  Mayer bond orders larger than 0.100000
B(  0-C ,  1-C ) :   1.1168 B(  0-C , 13-H ) :   0.9473 B(  0-C , 14-H ) :   0.9494
B(  0-C , 15-H ) :   0.9442 B(  1-C ,  2-H ) :   0.8909 B(  1-C ,  3-C ) :   1.0659
B(  1-C ,  9-C ) :   1.1250 B(  3-C ,  4-C ) :   1.1758 B(  3-C , 16-H ) :   0.9052
B(  3-C , 17-H ) :   0.9063 B(  4-C ,  5-C ) :   1.1122 B(  4-C , 18-H ) :   0.8874
B(  4-C , 19-H ) :   0.9054 B(  5-C ,  6-H ) :   0.8582 B(  5-C ,  7-C ) :   0.9072
B(  5-C , 10-C ) :   1.0111 B(  7-C ,  8-O ) :   2.1665 B(  7-C ,  9-C ) :   1.0827
B(  9-C , 20-H ) :   0.8559 B(  9-C , 21-H ) :   0.8932 B( 10-C , 11-C ) :   1.1336
B( 10-C , 12-C ) :   1.1100 B( 10-C , 22-H ) :   0.9026 B( 11-C , 23-H ) :   0.9425
B( 11-C , 24-H ) :   0.9300 B( 11-C , 25-H ) :   0.9324 B( 12-C , 26-H ) :   0.9334
B( 12-C , 27-H ) :   0.9456 B( 12-C , 28-H ) :   0.9459

Dispersion correction           -0.031057482
FINAL SINGLE POINT ENERGY      -466.027105078468

DIPOLE MOMENT
-------------

Method             : SCF
Type of density    : Electron Density
Multiplicity       :   1
Irrep              :   0
Energy             :  -466.1233314897647233 Eh
Relativity type    :
Basis              : AO
                                X                 Y                 Z
Electronic contribution:      1.333480542      -5.347824413      -3.447869165
Nuclear contribution   :     -1.848920237       6.231916621       3.423841061
                        -----------------------------------------
Total Dipole Moment    :     -0.515439695       0.884092208      -0.024028104
                        -----------------------------------------
Magnitude (a.u.)       :      1.023657394
Magnitude (Debye)      :      2.601930318

Rotational constants in cm-1:             0.060294             0.026510             0.023491
Rotational constants in MHz :          1807.569083           794.744918           704.243343

                             ****ORCA TERMINATED NORMALLY****
TOTAL RUN TIME: 0 days 0 hours 0 minutes 18 seconds 285 msec
