                         Program Version 6.0.1  -  RELEASE   -
|  1> ! r2scan-3c def2/J RI DEFGRID2 scfconv6 printgap
|  2> %output
|  3>     printlevel normal
|  4> end
|  5> * xyz 0 1
|  6> C 1.4795478374 -0.3689728323 0.4194946358
|  7> C 0.6682711252 0.5463214523 -0.4866484738
|  8> C -0.8113095126 0.3326509213 -0.353312591
|  9> O -1.3446637712 -0.4579230581 0.370735183
| 10> H 1.2705858092 -1.4092784936 0.1838493455
| 11> H 1.2116650958 -0.199049739 1.4591081273
| 12> H 2.5437509376 -0.186437768 0.2954485575
| 13> H 0.8703401847 1.5979883258 -0.2637822385
| 14> H 0.9298923092 0.3899835908 -1.5371909783
| 15> H -1.4080395377 0.9982711012 -1.0118431786
| 16> *
| 17>
| 18>                          ****END OF INPUT****

CARTESIAN COORDINATES (ANGSTROEM)
---------------------------------
  C      1.479548   -0.368973    0.419495
  C      0.668271    0.546321   -0.486648
  C     -0.811310    0.332651   -0.353313
  O     -1.344664   -0.457923    0.370735
  H      1.270586   -1.409278    0.183849
  H      1.211665   -0.199050    1.459108
  H      2.543751   -0.186438    0.295449
  H      0.870340    1.597988   -0.263782
  H      0.929892    0.389984   -1.537191
  H     -1.408040    0.998271   -1.011843

 Total Charge           Charge          ....    0
 Multiplicity           Mult            ....    1
 Number of Electrons    NEL             ....   32
 Basis Dimension        Dim             ....  111

ORBITAL ENERGIES
----------------

  NO   OCC          E(Eh)            E(eV)
   0   2.0000     -18.953328      -515.7463
   1   2.0000     -10.120507      -275.3930
   2   2.0000     -10.048218      -273.4259
   3   2.0000     -10.026021      -272.8219
   4   2.0000      -1.021362       -27.7927
   5   2.0000      -0.756878       -20.5957
   6   2.0000      -0.637657       -17.3515
   7   2.0000      -0.525885       -14.3101
   8   2.0000      -0.458468       -12.4755
   9   2.0000      -0.442678       -12.0459
  10   2.0000      -0.408678       -11.1207
  11   2.0000      -0.360492        -9.8095
  12   2.0000      -0.352955        -9.6044
  13   2.0000      -0.339678        -9.2431
  14   2.0000      -0.325808        -8.8657
  15   2.0000      -0.224585        -6.1113
  16   0.0000      -0.054985        -1.4962
  17   0.0000       0.087035         2.3684
  18   0.0000       0.107398         2.9224
  19   0.0000       0.130379         3.5478
  20   0.0000       0.149505         4.0682

MULLIKEN ATOMIC CHARGES
-----------------------
   0 C :   -0.467365
   1 C :   -0.189639
   2 C :    0.137223
   3 O :   -0.343886
   4 H :    0.155474
   5 H :    0.155418
   6 H :    0.145120
   7 H :    0.151324
   8 H :    0.151351
   9 H :    0.104981
Sum of atomic charges:   -0.0000000

LOEWDIN ATOMIC CHARGES
----------------------
   0 C :   -0.411019
   1 C :   -0.310034
   2 C :    0.198033
   3 O :   -0.448144
   4 H :    0.161129
   5 H :    0.161103
   6 H :    0.150956
   7 H :    0.174636
   8 H :    0.174662
   9 H :    0.148677

  Mayer bond orders larger than 0.100000
B(  0-C ,  1-C ) :   0.9203 B(  0-C ,  4-H ) :   0.9741 B(  0-C ,  5-H ) :   0.9741
B(  0-C ,  6-H ) :   0.9718 B(  1-C ,  2-C ) :   0.9317 B(  1-C ,  7-H ) :   0.9340
B(  1-C ,  8-H ) :   0.9339 B(  2-C ,  3-O ) :   1.9298 B(  2-C ,  9-H ) :   0.9641

Dispersion correction           -0.001722397
FINAL SINGLE POINT ENERGY      -193.093971356544

DIPOLE MOMENT
-------------

Method             : SCF
Type of density    : Electron Density
Multiplicity       :   1
Irrep              :   0
Energy             :  -193.0969156266797881 Eh
Relativity type    :
Basis              : AO
                                X                 Y                 Z
Electronic contribution:     -4.388624601      -0.500083209       0.267507972
Nuclear contribution   :      5.063231029       1.111013900      -0.814845363
                        -----------------------------------------
Total Dipole Moment    :      0.674606428       0.610930691      -0.547337391
                        -----------------------------------------
Magnitude (a.u.)       :      1.062030302
Magnitude (Debye)      :      2.699466497

Rotational constants in cm-1:             0.561477             0.198405             0.154997
Rotational constants in MHz :         16832.657651          5948.035188          4646.684837

                             ****ORCA TERMINATED NORMALLY****
TOTAL RUN TIME: 0 days 0 hours 0 minutes 13 seconds 349 msec
