                         Program Version 6.0.0  -   RELEASE  -
|  1> ! r2SCAN-3c DEF2-TZVP FREQ
|  2> * xyzfile 0 1 censo.xyz
|  3>
|  4>                          ****END OF INPUT****

CARTESIAN COORDINATES (ANGSTROEM)
---------------------------------
  C      0.036236   -1.219293    0.000114
  C      1.415676   -1.218350    0.000043
  C      2.108434   -0.000110    0.000022
  C      1.415559    1.217892    0.000037
  C      0.035081    1.219261    0.000107
  C     -0.645753    0.000321    0.000149
  N     -2.089277    0.000765    0.000033
  O     -2.682696   -1.083802   -0.000199
  O     -2.682505    1.085358   -0.000219
  O      3.461623   -0.057560   -0.000012
  H     -0.512497   -2.152401    0.000071
  H      1.972839   -2.148377   -0.000003
  H      1.968945    2.151749   -0.000013
  H     -0.512792    2.152885    0.000061
  H      3.829005    0.839281   -0.000016

 Total Charge           Charge          ....    0
 Multiplicity           Mult            ....    1
 Number of Electrons    NEL             ....   72
 Basis Dimension        Dim             ....  340

ORBITAL ENERGIES
----------------

  NO   OCC          E(Eh)            E(eV)
   0   2.0000     -19.021531      -517.6022
   1   2.0000     -18.974451      -516.3210
   2   2.0000     -18.974416      -516.3201
   3   2.0000     -14.385348      -391.4452
   4   2.0000     -10.136064      -275.8163
   5   2.0000     -10.100426      -274.8466
   6   2.0000     -10.076273      -274.1893
   7   2.0000     -10.073677      -274.1187
   8   2.0000     -10.070747      -274.0390
   9   2.0000     -10.064866      -273.8789
  10   2.0000      -1.178542       -32.0698
  11   2.0000      -1.065062       -28.9818
  12   2.0000      -1.002847       -27.2889
  13   2.0000      -0.863049       -23.4848
  14   2.0000      -0.777463       -21.1558
  15   2.0000      -0.755164       -20.5491
  16   2.0000      -0.675299       -18.3758
  17   2.0000      -0.623659       -16.9706
  18   2.0000      -0.581336       -15.8189
  19   2.0000      -0.549071       -14.9410
  20   2.0000      -0.518986       -14.1223
  21   2.0000      -0.495957       -13.4957
  22   2.0000      -0.486757       -13.2453
  23   2.0000      -0.459146       -12.4940
  24   2.0000      -0.445067       -12.1109
  25   2.0000      -0.428595       -11.6627
  26   2.0000      -0.416447       -11.3321
  27   2.0000      -0.410749       -11.1771
  28   2.0000      -0.382598       -10.4110
  29   2.0000      -0.346170        -9.4198
  30   2.0000      -0.343013        -9.3338
  31   2.0000      -0.283508        -7.7146
  32   2.0000      -0.273977        -7.4553
  33   2.0000      -0.271558        -7.3895
  34   2.0000      -0.248788        -6.7699
  35   2.0000      -0.242837        -6.6079
  36   0.0000      -0.117105        -3.1866
  37   0.0000      -0.066242        -1.8025
  38   0.0000      -0.024906        -0.6777
  39   0.0000       0.011695         0.3182
  40   0.0000       0.042360         1.1527

MULLIKEN ATOMIC CHARGES
-----------------------
   0 C :   -0.137292
   1 C :   -0.164595
   2 C :    0.294308
   3 C :   -0.156560
   4 C :   -0.163267
   5 C :    0.022544
   6 N :    0.516923
   7 O :   -0.355600
   8 O :   -0.357668
   9 O :   -0.371432
  10 H :    0.152708
  11 H :    0.128537
  12 H :    0.113468
  13 H :    0.154755
  14 H :    0.323171
Sum of atomic charges:   -0.0000000

LOEWDIN ATOMIC CHARGES
----------------------
   0 C :   -0.083028
   1 C :   -0.105068
   2 C :   -0.256569
   3 C :   -0.131644
   4 C :   -0.085360
   5 C :   -0.177462
   6 N :   -0.019569
   7 O :   -0.037574
   8 O :   -0.039001
   9 O :    0.113269
  10 H :    0.161604
  11 H :    0.155369
  12 H :    0.147114
  13 H :    0.161301
  14 H :    0.196620

  Mayer bond orders larger than 0.100000
B(  0-C ,  1-C ) :   1.4412 B(  0-C ,  5-C ) :   1.3596 B(  0-C , 10-H ) :   0.9436
B(  1-C ,  2-C ) :   1.3313 B(  1-C , 11-H ) :   0.9782 B(  2-C ,  3-C ) :   1.2985
B(  2-C ,  9-O ) :   1.1625 B(  3-C ,  4-C ) :   1.4245 B(  3-C , 12-H ) :   0.9580
B(  4-C ,  5-C ) :   1.3872 B(  4-C , 13-H ) :   0.9242 B(  5-C ,  6-N ) :   1.0082
B(  6-N ,  7-O ) :   1.5071 B(  6-N ,  8-O ) :   1.5061 B(  7-O ,  8-O ) :   0.2045
B(  9-O , 14-H ) :   0.8761

Dispersion correction           -0.005128886
FINAL SINGLE POINT ENERGY      -511.931694317488

DIPOLE MOMENT
-------------

Method             : SCF
Type of density    : Electron Density
Multiplicity       :   1
Irrep              :   0
Energy             :  -511.9368058332545957 Eh
Relativity type    :
Basis              : AO
                                X                 Y                 Z
Electronic contribution:     -4.089328495      -0.266729362       0.000090318
Nuclear contribution   :      6.305495053       0.791509191       0.000109282
                        -----------------------------------------
Total Dipole Moment    :      2.216166558       0.524779830       0.000199600
                        -----------------------------------------
Magnitude (a.u.)       :      2.277452112
Magnitude (Debye)      :      5.788823223

VIBRATIONAL FREQUENCIES
-----------------------

Scaling factor for frequencies =  1.000000000  (already applied!)

     0:       0.00 cm**-1
     1:       0.00 cm**-1
     2:       0.00 cm**-1
     3:       0.00 cm**-1
     4:       0.00 cm**-1
     5:       0.00 cm**-1
     6:      97.59 cm**-1
     7:     117.46 cm**-1
     8:     242.71 cm**-1
     9:     301.92 cm**-1
    10:     368.42 cm**-1
    11:     422.18 cm**-1
    12:     422.84 cm**-1
    13:     487.91 cm**-1
    14:     503.19 cm**-1
    15:     541.49 cm**-1
    16:     646.92 cm**-1
    17:     650.00 cm**-1
    18:     707.19 cm**-1
    19:     772.44 cm**-1
    20:     807.94 cm**-1
    21:     827.76 cm**-1
    22:     855.92 cm**-1
    23:     879.65 cm**-1
    24:     954.45 cm**-1
    25:     977.38 cm**-1
    26:    1022.31 cm**-1
    27:    1129.14 cm**-1
    28:    1135.76 cm**-1
    29:    1196.55 cm**-1
    30:    1206.90 cm**-1
    31:    1303.58 cm**-1
    32:    1326.74 cm**-1
    33:    1339.61 cm**-1
    34:    1392.87 cm**-1
    35:    1467.46 cm**-1
    36:    1510.77 cm**-1
    37:    1523.68 cm**-1
    38:    1628.87 cm**-1
    39:    1642.60 cm**-1
    40:    3167.13 cm**-1
    41:    3190.59 cm**-1
    42:    3215.18 cm**-1
    43:    3216.77 cm**-1
    44:    3737.43 cm**-1

IR SPECTRUM
-----------

 Mode   freq       eps      Int      T**2         TX        TY        TZ
       cm**-1   L/(mol*cm) km/mol    a.u.
----------------------------------------------------------------------------
  6:     97.59   0.000042    0.21  0.000134  ( 0.000002 -0.000020  0.011585)
  7:    117.46   0.000245    1.24  0.000651  ( 0.000055  0.000003  0.025506)
  8:    242.71   0.000398    2.01  0.000512  (-0.012822 -0.018650 -0.000003)
  9:    301.92   0.000197    0.99  0.000203  ( 0.000051  0.000010  0.014257)
 10:    368.42   0.000015    0.08  0.000013  ( 0.003367 -0.001238 -0.000004)
 11:    422.18   0.000151    0.76  0.000112  ( 0.000104  0.000026 -0.010560)
 12:    422.84   0.001605    8.11  0.001185  ( 0.033825  0.006369  0.000036)
 13:    487.91   0.017976   90.84  0.011497  ( 0.000005 -0.000001 -0.107224)
 14:    503.19   0.004478   22.63  0.002777  (-0.000011 -0.000006  0.052696)
 15:    541.49   0.000551    2.79  0.000318  (-0.010975  0.014048  0.000002)
 16:    646.92   0.004650   23.50  0.002243  ( 0.047212 -0.003743 -0.000014)
 17:    650.00   0.000162    0.82  0.000078  (-0.000287 -0.008828  0.000002)
 18:    707.19   0.002353   11.89  0.001038  ( 0.000013 -0.000002 -0.032224)
 19:    772.44   0.004961   25.07  0.002004  (-0.000030 -0.000001  0.044770)
 20:    807.94   0.000829    4.19  0.000320  ( 0.000010  0.000004  0.017895)
 21:    827.76   0.000058    0.29  0.000022  (-0.004683 -0.000068  0.000009)
 22:    855.92   0.007062   35.69  0.002575  (-0.000024  0.000002 -0.050742)
 23:    879.65   0.004223   21.34  0.001498  (-0.038677 -0.001490  0.000002)
 24:    954.45   0.000313    1.58  0.000102  ( 0.000015  0.000026  0.010121)
 25:    977.38   0.000087    0.44  0.000028  (-0.000017  0.000019 -0.005258)
 26:   1022.31   0.000022    0.11  0.000007  ( 0.002609  0.000064  0.000001)
 27:   1129.14   0.004413   22.30  0.001220  (-0.019640 -0.028878  0.000000)
 28:   1135.76   0.016200   81.87  0.004451  ( 0.066707 -0.001094 -0.000000)
 29:   1196.55   0.005573   28.16  0.001453  (-0.037826 -0.004759 -0.000002)
 30:   1206.90   0.034361  173.64  0.008885  (-0.094258  0.000130  0.000000)
 31:   1303.58   0.047259  238.83  0.011313  ( 0.106361  0.000805  0.000001)
 32:   1326.74   0.003027   15.30  0.000712  ( 0.026581  0.002340  0.000000)
 33:   1339.61   0.076681  387.52  0.017863  ( 0.133652 -0.000373  0.000011)
 34:   1392.87   0.005443   27.51  0.001220  ( 0.028470 -0.020223 -0.000001)
 35:   1467.46   0.013644   68.95  0.002901  (-0.021270  0.049488 -0.000000)
 36:   1510.77   0.030631  154.80  0.006327  ( 0.038320  0.069705 -0.000002)
 37:   1523.68   0.011011   55.65  0.002255  (-0.028886  0.037694  0.000001)
 38:   1628.87   0.013324   67.33  0.002553  (-0.042691  0.027020  0.000000)
 39:   1642.60   0.024132  121.95  0.004585  (-0.066474 -0.012875  0.000001)
 40:   3167.13   0.001803    9.11  0.000178  ( 0.011259  0.007133 -0.000000)
 41:   3190.59   0.000260    1.31  0.000025  (-0.004126  0.002902  0.000000)
 42:   3215.18   0.000397    2.01  0.000039  ( 0.004722 -0.004028  0.000001)
 43:   3216.77   0.000665    3.36  0.000065  ( 0.007580  0.002658  0.000002)
 44:   3737.43   0.018011   91.02  0.001504  ( 0.032898  0.020534 -0.000000)

--------------------------
THERMOCHEMISTRY AT 298.15K
--------------------------

Temperature         ...   298.15 K
Pressure            ...     1.00 atm
Total Mass          ...   139.11 AMU
Quasi RRHO          ...     True
Cut-Off Frequency   ...     1.00 cm^-1

Throughout the following assumptions are being made:
  (1) The electronic state is orbitally nondegenerate
  (2) There are no thermally accessible electronically excited states
  (3) Hindered rotations indicated by low frequency modes are not
      treated as such but are treated as vibrations and this may
      cause some error
  (4) All equations used are the standard statistical mechanics
      equations for an ideal gas
  (5) All vibrations are strictly harmonic

freq.      97.59  E(vib)   ...       0.46
freq.     117.46  E(vib)   ...       0.44
freq.     242.71  E(vib)   ...       0.31
freq.     301.92  E(vib)   ...       0.26
freq.     368.42  E(vib)   ...       0.21
freq.     422.18  E(vib)   ...       0.18
freq.     422.84  E(vib)   ...       0.18
freq.     487.91  E(vib)   ...       0.15
freq.     503.19  E(vib)   ...       0.14
freq.     541.49  E(vib)   ...       0.12
freq.     646.92  E(vib)   ...       0.09
freq.     650.00  E(vib)   ...       0.08
freq.     707.19  E(vib)   ...       0.07
freq.     772.44  E(vib)   ...       0.05
freq.     807.94  E(vib)   ...       0.05
freq.     827.76  E(vib)   ...       0.04
freq.     855.92  E(vib)   ...       0.04
freq.     879.65  E(vib)   ...       0.04
freq.     954.45  E(vib)   ...       0.03
freq.     977.38  E(vib)   ...       0.03
freq.    1022.31  E(vib)   ...       0.02
freq.    1129.14  E(vib)   ...       0.01
freq.    1135.76  E(vib)   ...       0.01
freq.    1196.55  E(vib)   ...       0.01
freq.    1206.90  E(vib)   ...       0.01
freq.    1303.58  E(vib)   ...       0.01
freq.    1326.74  E(vib)   ...       0.01
freq.    1339.61  E(vib)   ...       0.01
freq.    1392.87  E(vib)   ...       0.00
freq.    1467.46  E(vib)   ...       0.00
freq.    1510.77  E(vib)   ...       0.00
freq.    1523.68  E(vib)   ...       0.00
freq.    1628.87  E(vib)   ...       0.00
freq.    1642.60  E(vib)   ...       0.00
freq.    3167.13  E(vib)   ...       0.00
freq.    3190.59  E(vib)   ...       0.00
freq.    3215.18  E(vib)   ...       0.00
freq.    3216.77  E(vib)   ...       0.00
freq.    3737.43  E(vib)   ...       0.00

------------
INNER ENERGY
------------

The inner energy is: U= E(el) + E(ZPE) + E(vib) + E(rot) + E(trans)
    E(el)   - is the total energy from the electronic structure calculation
              = E(kin-el) + E(nuc-el) + E(el-el) + E(nuc-nuc)
    E(ZPE)  - the the zero temperature vibrational energy from the frequency calculation
    E(vib)  - the the finite temperature correction to E(ZPE) due to population
              of excited vibrational states
    E(rot)  - is the rotational thermal energy
    E(trans)- is the translational thermal energy

Summary of contributions to the inner energy U:
Electronic energy                ...   -511.93169432 Eh
Zero point energy                ...      0.10693562 Eh      67.10 kcal/mol
Thermal vibrational correction   ...      0.00491300 Eh       3.08 kcal/mol
Thermal rotational correction    ...      0.00141627 Eh       0.89 kcal/mol
Thermal translational correction ...      0.00141627 Eh       0.89 kcal/mol
-----------------------------------------------------------------------
Total thermal energy                   -511.81701316 Eh

Summary of corrections to the electronic energy:
(perhaps to be used in another calculation)
Total thermal correction                  0.00774554 Eh       4.86 kcal/mol
Non-thermal (ZPE) correction              0.10693562 Eh      67.10 kcal/mol
-----------------------------------------------------------------------
Total correction                          0.11468116 Eh      71.96 kcal/mol

--------
ENTHALPY
--------

The enthalpy is H = U + kB*T
                kB is Boltzmann's constant
Total thermal energy              ...   -511.81701316 Eh
Thermal Enthalpy correction       ...      0.00094421 Eh       0.59 kcal/mol
-----------------------------------------------------------------------
Total Enthalpy                    ...   -511.81606895 Eh

Note: Only C1 symmetry has been detected, increase convergence thresholds
      if your molecule has a higher symmetry. Symmetry factor of 1.0 is
      used for the rotational entropy correction.

Note: Rotational entropy computed according to Herzberg
Infrared and Raman Spectra, Chapter V,1, Van Nostrand Reinhold, 1945
Point Group:  C1, Symmetry Number:   1
Rotational constants in cm-1:     0.131269     0.027508     0.022742

Vibrational entropy computed according to the QRRHO of S. Grimme
Chem.Eur.J. 2012 18 9955 using a reference frequency of 100.0 cm-1

-------
ENTROPY
-------

The entropy contributions are T*S = T*(S(el)+S(vib)+S(rot)+S(trans))
     S(el)   - electronic entropy
     S(vib)  - vibrational entropy
     S(rot)  - rotational entropy
     S(trans)- translational entropy
The entropies will be listed as multiplied by the temperature to get
units of energy

Electronic entropy                ...      0.00000000 Eh      0.00 kcal/mol
Vibrational entropy               ...      0.00795403 Eh      4.99 kcal/mol
Rotational entropy                ...      0.01395192 Eh      8.75 kcal/mol
Translational entropy             ...      0.01933875 Eh     12.14 kcal/mol
-----------------------------------------------------------------------
Final entropy term                ...      0.04124470 Eh     25.88 kcal/mol

In case the symmetry of your molecule has not been determined correctly
or in case you have a reason to use a different symmetry number we print
out the resulting rotational entropy values for sn=1,12:

 non-linear molecules -----------------------------------
|  sn= 1 | S(rot)=       0.01395192 Eh      8.75 kcal/mol|
|  sn= 2 | S(rot)=       0.01329747 Eh      8.34 kcal/mol|
|  sn= 3 | S(rot)=       0.01291464 Eh      8.10 kcal/mol|
|  sn= 4 | S(rot)=       0.01264301 Eh      7.93 kcal/mol|
|  sn= 5 | S(rot)=       0.01243232 Eh      7.80 kcal/mol|
|  sn= 6 | S(rot)=       0.01226018 Eh      7.69 kcal/mol|
|  sn= 7 | S(rot)=       0.01211463 Eh      7.60 kcal/mol|
|  sn= 8 | S(rot)=       0.01198856 Eh      7.52 kcal/mol|
|  sn= 9 | S(rot)=       0.01187735 Eh      7.45 kcal/mol|
|  sn=10 | S(rot)=       0.01177787 Eh      7.39 kcal/mol|
|  sn=11 | S(rot)=       0.01168788 Eh      7.33 kcal/mol|
|  sn=12 | S(rot)=       0.01160572 Eh      7.28 kcal/mol|
 linear molecules ---------------------------------------
|  Dinfh | S(rot)=       0.00889815 Eh      5.58 kcal/mol|
|  Cinfv | S(rot)=       0.00955261 Eh      5.99 kcal/mol|
 --------------------------------------------------------

-------------------
GIBBS FREE ENERGY
-------------------

                             ****ORCA TERMINATED NORMALLY****
TOTAL RUN TIME: 0 days 0 hours 11 minutes 50 seconds 486 msec
