                         Program Version 6.0.0  -   RELEASE  -
|  1> ! r2SCAN-3c DEF2-TZVP FREQ
|  2> * xyzfile 0 1 vacuum_censo.xyz
|  3>
|  4>                          ****END OF INPUT****

CARTESIAN COORDINATES (ANGSTROEM)
---------------------------------
  C      0.037672   -1.213816    0.000018
  C      1.420258   -1.213582    0.000008
  C      2.113124    0.000968   -0.000008
  C      1.418058    1.214847   -0.000013
  C      0.033167    1.215470   -0.000002
  C     -0.643644    0.000898    0.000024
  N     -2.110483    0.000772    0.000075
  O     -2.680153    1.087859   -0.000003
  O     -2.679352   -1.086321   -0.000025
  O      3.469138   -0.063346   -0.000018
  H     -0.523775   -2.139556    0.000033
  H      1.982178   -2.140429    0.000015
  H      1.961391    2.155894   -0.000022
  H     -0.529077    2.140706   -0.000001
  H      3.836354    0.828590   -0.000038

 Total Charge           Charge          ....    0
 Multiplicity           Mult            ....    1
 Number of Electrons    NEL             ....   72
 Basis Dimension        Dim             ....  340

ORBITAL ENERGIES
----------------

  NO   OCC          E(Eh)            E(eV)
   0   2.0000     -19.019037      -517.5343
   1   2.0000     -18.978357      -516.4273
   2   2.0000     -18.978346      -516.4271
   3   2.0000     -14.388375      -391.5276
   4   2.0000     -10.133751      -275.7534
   5   2.0000     -10.097911      -274.7781
   6   2.0000     -10.074211      -274.1332
   7   2.0000     -10.071732      -274.0658
   8   2.0000     -10.069754      -274.0119
   9   2.0000     -10.063462      -273.8407
  10   2.0000      -1.186407       -32.2838
  11   2.0000      -1.062838       -28.9213
  12   2.0000      -1.013850       -27.5883
  13   2.0000      -0.861203       -23.4345
  14   2.0000      -0.773058       -21.0360
  15   2.0000      -0.752634       -20.4802
  16   2.0000      -0.672221       -18.2921
  17   2.0000      -0.622808       -16.9475
  18   2.0000      -0.580188       -15.7877
  19   2.0000      -0.547409       -14.8958
  20   2.0000      -0.521762       -14.1979
  21   2.0000      -0.500245       -13.6124
  22   2.0000      -0.486461       -13.2373
  23   2.0000      -0.462307       -12.5800
  24   2.0000      -0.443896       -12.0790
  25   2.0000      -0.426050       -11.5934
  26   2.0000      -0.414578       -11.2812
  27   2.0000      -0.410779       -11.1779
  28   2.0000      -0.381277       -10.3751
  29   2.0000      -0.345483        -9.4011
  30   2.0000      -0.341845        -9.3021
  31   2.0000      -0.287786        -7.8311
  32   2.0000      -0.274063        -7.4576
  33   2.0000      -0.270278        -7.3546
  34   2.0000      -0.255326        -6.9478
  35   2.0000      -0.242134        -6.5888
  36   0.0000      -0.114234        -3.1085
  37   0.0000      -0.065481        -1.7818
  38   0.0000      -0.024383        -0.6635
  39   0.0000       0.014409         0.3921
  40   0.0000       0.042741         1.1630

MULLIKEN ATOMIC CHARGES
-----------------------
   0 C :   -0.140033
   1 C :   -0.163912
   2 C :    0.293551
   3 C :   -0.161003
   4 C :   -0.162393
   5 C :    0.014886
   6 N :    0.526260
   7 O :   -0.352932
   8 O :   -0.350506
   9 O :   -0.373432
  10 H :    0.151912
  11 H :    0.127455
  12 H :    0.113702
  13 H :    0.154718
  14 H :    0.321726
Sum of atomic charges:    0.0000000

LOEWDIN ATOMIC CHARGES
----------------------
   0 C :   -0.086410
   1 C :   -0.104441
   2 C :   -0.258188
   3 C :   -0.130939
   4 C :   -0.089170
   5 C :   -0.173440
   6 N :   -0.030216
   7 O :   -0.028870
   8 O :   -0.026900
   9 O :    0.111061
  10 H :    0.161136
  11 H :    0.155136
  12 H :    0.147264
  13 H :    0.160857
  14 H :    0.193118

  Mayer bond orders larger than 0.100000
B(  0-C ,  1-C ) :   1.4342 B(  0-C ,  5-C ) :   1.3686 B(  0-C , 10-H ) :   0.9436
B(  1-C ,  2-C ) :   1.3368 B(  1-C , 11-H ) :   0.9791 B(  2-C ,  3-C ) :   1.3041
B(  2-C ,  9-O ) :   1.1599 B(  3-C ,  4-C ) :   1.4165 B(  3-C , 12-H ) :   0.9581
B(  4-C ,  5-C ) :   1.4006 B(  4-C , 13-H ) :   0.9229 B(  5-C ,  6-N ) :   0.9892
B(  6-N ,  7-O ) :   1.5195 B(  6-N ,  8-O ) :   1.5213 B(  7-O ,  8-O ) :   0.2090
B(  9-O , 14-H ) :   0.8783

Dispersion correction           -0.005126125
FINAL SINGLE POINT ENERGY      -511.932466512840

DIPOLE MOMENT
-------------

Method             : SCF
Type of density    : Electron Density
Multiplicity       :   1
Irrep              :   0
Energy             :  -511.9375035436625012 Eh
Relativity type    :
Basis              : AO
                                X                 Y                 Z
Electronic contribution:     -4.197695179      -0.270518300       0.000071876
Nuclear contribution   :      6.286352006       0.794380266      -0.000033155
                        -----------------------------------------
Total Dipole Moment    :      2.088656827       0.523861966       0.000038721
                        -----------------------------------------
Magnitude (a.u.)       :      2.153350576
Magnitude (Debye)      :      5.473382187

VIBRATIONAL FREQUENCIES
-----------------------

Scaling factor for frequencies =  1.000000000  (already applied!)

     0:       0.00 cm**-1
     1:       0.00 cm**-1
     2:       0.00 cm**-1
     3:       0.00 cm**-1
     4:       0.00 cm**-1
     5:       0.00 cm**-1
     6:      79.09 cm**-1
     7:     116.67 cm**-1
     8:     238.09 cm**-1
     9:     300.94 cm**-1
    10:     362.52 cm**-1
    11:     410.85 cm**-1
    12:     418.99 cm**-1
    13:     427.09 cm**-1
    14:     500.61 cm**-1
    15:     541.26 cm**-1
    16:     639.78 cm**-1
    17:     649.76 cm**-1
    18:     703.02 cm**-1
    19:     767.46 cm**-1
    20:     810.90 cm**-1
    21:     825.90 cm**-1
    22:     856.43 cm**-1
    23:     877.32 cm**-1
    24:     953.61 cm**-1
    25:     975.26 cm**-1
    26:    1029.61 cm**-1
    27:    1120.12 cm**-1
    28:    1124.82 cm**-1
    29:    1192.99 cm**-1
    30:    1195.10 cm**-1
    31:    1295.99 cm**-1
    32:    1329.10 cm**-1
    33:    1345.27 cm**-1
    34:    1395.05 cm**-1
    35:    1472.48 cm**-1
    36:    1523.34 cm**-1
    37:    1558.63 cm**-1
    38:    1633.30 cm**-1
    39:    1648.32 cm**-1
    40:    3156.89 cm**-1
    41:    3192.68 cm**-1
    42:    3213.01 cm**-1
    43:    3214.35 cm**-1
    44:    3798.83 cm**-1

IR SPECTRUM
-----------

 Mode   freq       eps      Int      T**2         TX        TY        TZ
       cm**-1   L/(mol*cm) km/mol    a.u.
----------------------------------------------------------------------------
  6:     79.09   0.000048    0.24  0.000191  ( 0.000004 -0.000163 -0.013805)
  7:    116.67   0.000196    0.99  0.000525  (-0.000039 -0.000004 -0.022921)
  8:    238.09   0.000398    2.01  0.000522  ( 0.013802  0.018211  0.000002)
  9:    300.94   0.000294    1.49  0.000305  (-0.000023 -0.000002 -0.017456)
 10:    362.52   0.000038    0.19  0.000033  (-0.005616  0.001078 -0.000000)
 11:    410.85   0.017842   90.17  0.013552  (-0.000001 -0.000005  0.116413)
 12:    418.99   0.001697    8.58  0.001264  ( 0.035126  0.005491 -0.000015)
 13:    427.09   0.002328   11.76  0.001701  ( 0.000005 -0.000015 -0.041240)
 14:    500.61   0.002447   12.36  0.001525  (-0.000000  0.000001 -0.039053)
 15:    541.26   0.000490    2.47  0.000282  ( 0.011433 -0.012312  0.000001)
 16:    639.78   0.003487   17.62  0.001701  (-0.041181  0.002194  0.000004)
 17:    649.76   0.000257    1.30  0.000123  (-0.007118  0.008523  0.000001)
 18:    703.02   0.002464   12.45  0.001094  (-0.000015 -0.000000  0.033074)
 19:    767.46   0.004566   23.07  0.001857  ( 0.000018  0.000002 -0.043087)
 20:    810.90   0.000801    4.05  0.000308  (-0.000003  0.000002 -0.017558)
 21:    825.90   0.000005    0.03  0.000002  ( 0.001372 -0.000059 -0.000002)
 22:    856.43   0.007410   37.45  0.002700  ( 0.000009 -0.000002  0.051963)
 23:    877.32   0.007812   39.48  0.002779  ( 0.052693  0.001488 -0.000001)
 24:    953.61   0.000277    1.40  0.000091  (-0.000001  0.000004 -0.009527)
 25:    975.26   0.000086    0.43  0.000027  (-0.000001  0.000000  0.005239)
 26:   1029.61   0.000001    0.01  0.000000  (-0.000580 -0.000291  0.000000)
 27:   1120.12   0.023716  119.85  0.006607  (-0.080801 -0.008858 -0.000000)
 28:   1124.82   0.002828   14.29  0.000785  ( 0.006787 -0.027178  0.000001)
 29:   1192.99   0.000092    0.47  0.000024  (-0.000592 -0.004882  0.000000)
 30:   1195.10   0.038142  192.76  0.009960  ( 0.099797 -0.000595 -0.000001)
 31:   1295.99   0.039709  200.67  0.009562  ( 0.097781  0.000571 -0.000001)
 32:   1329.10   0.002898   14.65  0.000681  ( 0.025955 -0.002626 -0.000000)
 33:   1345.27   0.072925  368.53  0.016916  ( 0.130063  0.000089 -0.000000)
 34:   1395.05   0.003369   17.03  0.000754  (-0.022941  0.015077  0.000000)
 35:   1472.48   0.006172   31.19  0.001308  (-0.031469  0.017822  0.000001)
 36:   1523.34   0.011707   59.16  0.002398  (-0.047906 -0.010165  0.000001)
 37:   1558.63   0.040515  204.74  0.008112  (-0.007629 -0.089741 -0.000001)
 38:   1633.30   0.028378  143.41  0.005422  ( 0.071882 -0.015967 -0.000000)
 39:   1648.32   0.008525   43.08  0.001614  ( 0.020066  0.034804  0.000000)
 40:   3156.89   0.001912    9.66  0.000189  ( 0.011639  0.007316 -0.000000)
 41:   3192.68   0.000238    1.20  0.000023  ( 0.003683 -0.003112 -0.000000)
 42:   3213.01   0.000338    1.71  0.000033  ( 0.004429 -0.003632 -0.000000)
 43:   3214.35   0.000727    3.68  0.000071  ( 0.008207  0.001806  0.000000)
 44:   3798.83   0.017609   88.99  0.001447  ( 0.032247  0.020167 -0.000001)

--------------------------
THERMOCHEMISTRY AT 298.15K
--------------------------

Temperature         ...   298.15 K
Pressure            ...     1.00 atm
Total Mass          ...   139.11 AMU
Quasi RRHO          ...     True
Cut-Off Frequency   ...     1.00 cm^-1

Throughout the following assumptions are being made:
  (1) The electronic state is orbitally nondegenerate
  (2) There are no thermally accessible electronically excited states
  (3) Hindered rotations indicated by low frequency modes are not
      treated as such but are treated as vibrations and this may
      cause some error
  (4) All equations used are the standard statistical mechanics
      equations for an ideal gas
  (5) All vibrations are strictly harmonic

freq.      79.09  E(vib)   ...       0.49
freq.     116.67  E(vib)   ...       0.44
freq.     238.09  E(vib)   ...       0.32
freq.     300.94  E(vib)   ...       0.26
freq.     362.52  E(vib)   ...       0.22
freq.     410.85  E(vib)   ...       0.19
freq.     418.99  E(vib)   ...       0.18
freq.     427.09  E(vib)   ...       0.18
freq.     500.61  E(vib)   ...       0.14
freq.     541.26  E(vib)   ...       0.12
freq.     639.78  E(vib)   ...       0.09
freq.     649.76  E(vib)   ...       0.08
freq.     703.02  E(vib)   ...       0.07
freq.     767.46  E(vib)   ...       0.06
freq.     810.90  E(vib)   ...       0.05
freq.     825.90  E(vib)   ...       0.04
freq.     856.43  E(vib)   ...       0.04
freq.     877.32  E(vib)   ...       0.04
freq.     953.61  E(vib)   ...       0.03
freq.     975.26  E(vib)   ...       0.03
freq.    1029.61  E(vib)   ...       0.02
freq.    1120.12  E(vib)   ...       0.01
freq.    1124.82  E(vib)   ...       0.01
freq.    1192.99  E(vib)   ...       0.01
freq.    1195.10  E(vib)   ...       0.01
freq.    1295.99  E(vib)   ...       0.01
freq.    1329.10  E(vib)   ...       0.01
freq.    1345.27  E(vib)   ...       0.01
freq.    1395.05  E(vib)   ...       0.00
freq.    1472.48  E(vib)   ...       0.00
freq.    1523.34  E(vib)   ...       0.00
freq.    1558.63  E(vib)   ...       0.00
freq.    1633.30  E(vib)   ...       0.00
freq.    1648.32  E(vib)   ...       0.00
freq.    3156.89  E(vib)   ...       0.00
freq.    3192.68  E(vib)   ...       0.00
freq.    3213.01  E(vib)   ...       0.00
freq.    3214.35  E(vib)   ...       0.00
freq.    3798.83  E(vib)   ...       0.00

------------
INNER ENERGY
------------

The inner energy is: U= E(el) + E(ZPE) + E(vib) + E(rot) + E(trans)
    E(el)   - is the total energy from the electronic structure calculation
              = E(kin-el) + E(nuc-el) + E(el-el) + E(nuc-nuc)
    E(ZPE)  - the the zero temperature vibrational energy from the frequency calculation
    E(vib)  - the the finite temperature correction to E(ZPE) due to population
              of excited vibrational states
    E(rot)  - is the rotational thermal energy
    E(trans)- is the translational thermal energy

Summary of contributions to the inner energy U:
Electronic energy                ...   -511.93246651 Eh
Zero point energy                ...      0.10683567 Eh      67.04 kcal/mol
Thermal vibrational correction   ...      0.00503969 Eh       3.16 kcal/mol
Thermal rotational correction    ...      0.00141627 Eh       0.89 kcal/mol
Thermal translational correction ...      0.00141627 Eh       0.89 kcal/mol
-----------------------------------------------------------------------
Total thermal energy                   -511.81775860 Eh

Summary of corrections to the electronic energy:
(perhaps to be used in another calculation)
Total thermal correction                  0.00787223 Eh       4.94 kcal/mol
Non-thermal (ZPE) correction              0.10683567 Eh      67.04 kcal/mol
-----------------------------------------------------------------------
Total correction                          0.11470791 Eh      71.98 kcal/mol

--------
ENTHALPY
--------

The enthalpy is H = U + kB*T
                kB is Boltzmann's constant
Total thermal energy              ...   -511.81775860 Eh
Thermal Enthalpy correction       ...      0.00094421 Eh       0.59 kcal/mol
-----------------------------------------------------------------------
Total Enthalpy                    ...   -511.81681439 Eh

Note: Only C1 symmetry has been detected, increase convergence thresholds
      if your molecule has a higher symmetry. Symmetry factor of 1.0 is
      used for the rotational entropy correction.

Note: Rotational entropy computed according to Herzberg
Infrared and Raman Spectra, Chapter V,1, Van Nostrand Reinhold, 1945
Point Group:  C1, Symmetry Number:   1
Rotational constants in cm-1:     0.131738     0.027412     0.022691

Vibrational entropy computed according to the QRRHO of S. Grimme
Chem.Eur.J. 2012 18 9955 using a reference frequency of 100.0 cm-1

-------
ENTROPY
-------

The entropy contributions are T*S = T*(S(el)+S(vib)+S(rot)+S(trans))
     S(el)   - electronic entropy
     S(vib)  - vibrational entropy
     S(rot)  - rotational entropy
     S(trans)- translational entropy
The entropies will be listed as multiplied by the temperature to get
units of energy

Electronic entropy                ...      0.00000000 Eh      0.00 kcal/mol
Vibrational entropy               ...      0.00818203 Eh      5.13 kcal/mol
Rotational entropy                ...      0.01395295 Eh      8.76 kcal/mol
Translational entropy             ...      0.01933875 Eh     12.14 kcal/mol
-----------------------------------------------------------------------
Final entropy term                ...      0.04147372 Eh     26.03 kcal/mol

In case the symmetry of your molecule has not been determined correctly
or in case you have a reason to use a different symmetry number we print
out the resulting rotational entropy values for sn=1,12:

 non-linear molecules -----------------------------------
|  sn= 1 | S(rot)=       0.01395295 Eh      8.76 kcal/mol|
|  sn= 2 | S(rot)=       0.01329849 Eh      8.34 kcal/mol|
|  sn= 3 | S(rot)=       0.01291566 Eh      8.10 kcal/mol|
|  sn= 4 | S(rot)=       0.01264403 Eh      7.93 kcal/mol|
|  sn= 5 | S(rot)=       0.01243335 Eh      7.80 kcal/mol|
|  sn= 6 | S(rot)=       0.01226120 Eh      7.69 kcal/mol|
|  sn= 7 | S(rot)=       0.01211566 Eh      7.60 kcal/mol|
|  sn= 8 | S(rot)=       0.01198958 Eh      7.52 kcal/mol|
|  sn= 9 | S(rot)=       0.01187837 Eh      7.45 kcal/mol|
|  sn=10 | S(rot)=       0.01177889 Eh      7.39 kcal/mol|
|  sn=11 | S(rot)=       0.01168890 Eh      7.33 kcal/mol|
|  sn=12 | S(rot)=       0.01160675 Eh      7.28 kcal/mol|
 linear molecules ---------------------------------------
|  Dinfh | S(rot)=       0.00890028 Eh      5.59 kcal/mol|
|  Cinfv | S(rot)=       0.00955474 Eh      6.00 kcal/mol|
 --------------------------------------------------------

-------------------
GIBBS FREE ENERGY
-------------------

                             ****ORCA TERMINATED NORMALLY****
TOTAL RUN TIME: 0 days 0 hours 12 minutes 15 seconds 281 msec
