                         Program Version 6.0.1  -  RELEASE   -
|  1> ! pbe def2-sv(p) def2/J RI DEFGRID1 loosescf d4 GCP(DFT/SV(P)) printgap
|  2> %output
|  3>     printlevel normal
|  4> end
|  5> * xyz 0 1
|  6> C -2.4489935512 -0.8257697922 -0.23297998
|  7> O -1.1748895732 -0.6700100257 0.3817405342
|  8> C -0.5612378952 0.4928423216 0.1791250079
|  9> O -1.0217284418 1.4081384074 -0.4446173034
| 10> C 0.8097515398 0.4970186503 0.8299382509
| 11> Cl 1.9163989516 -0.3561469961 -0.2792809934
| 12> H -2.3520181053 -0.7787887506 -1.3190611211
| 13> H -3.1251283048 -0.0342201165 0.095373482
| 14> H -2.816972587 -1.8001569652 0.0764720748
| 15> H 0.8024831872 -0.0476767645 1.7721802613
| 16> H 1.1739876267 1.5158570478 0.9484090285
| 17> *
| 18>
| 19>                          ****END OF INPUT****

CARTESIAN COORDINATES (ANGSTROEM)
---------------------------------
  C     -2.448994   -0.825770   -0.232980
  O     -1.174890   -0.670010    0.381741
  C     -0.561238    0.492842    0.179125
  O     -1.021728    1.408138   -0.444617
  C      0.809752    0.497019    0.829938
  Cl     1.916399   -0.356147   -0.279281
  H     -2.352018   -0.778789   -1.319061
  H     -3.125128   -0.034220    0.095373
  H     -2.816973   -1.800157    0.076472
  H      0.802483   -0.047677    1.772180
  H      1.173988    1.515857    0.948409

 Total Charge           Charge          ....    0
 Multiplicity           Mult            ....    1
 Number of Electrons    NEL             ....   56
 Basis Dimension        Dim             ....   98

ORBITAL ENERGIES
----------------

  NO   OCC          E(Eh)            E(eV)
   0   2.0000    -100.633204     -2738.3687
   1   2.0000     -18.812447      -511.9127
   2   2.0000     -18.751129      -510.2442
   3   2.0000     -10.021204      -272.6908
   4   2.0000      -9.955752      -270.9098
   5   2.0000      -9.948181      -270.7038
   6   2.0000      -9.169051      -249.5026
   7   2.0000      -7.001163      -190.5113
   8   2.0000      -6.988572      -190.1687
   9   2.0000      -6.988172      -190.1578
  10   2.0000      -1.021551       -27.7978
  11   2.0000      -0.931062       -25.3355
  12   2.0000      -0.790665       -21.5151
  13   2.0000      -0.685658       -18.6577
  14   2.0000      -0.620689       -16.8898
  15   2.0000      -0.520839       -14.1727
  16   2.0000      -0.467331       -12.7167
  17   2.0000      -0.447738       -12.1836
  18   2.0000      -0.436616       -11.8809
  19   2.0000      -0.398235       -10.8365
  20   2.0000      -0.396821       -10.7980
  21   2.0000      -0.380180       -10.3452
  22   2.0000      -0.346911        -9.4399
  23   2.0000      -0.318565        -8.6686
  24   2.0000      -0.273630        -7.4459
  25   2.0000      -0.269612        -7.3365
  26   2.0000      -0.255850        -6.9620
  27   2.0000      -0.230371        -6.2687
  28   0.0000      -0.053544        -1.4570
  29   0.0000       0.022885         0.6227
  30   0.0000       0.053338         1.4514
  31   0.0000       0.067250         1.8300
  32   0.0000       0.080164         2.1814

MULLIKEN ATOMIC CHARGES
-----------------------
   0 C :   -0.113574
   1 O :   -0.235541
   2 C :    0.114952
   3 O :   -0.181668
   4 C :   -0.130620
   5 Cl:   -0.127921
   6 H :    0.124599
   7 H :    0.121850
   8 H :    0.125791
   9 H :    0.150524
  10 H :    0.151609
Sum of atomic charges:    0.0000000

LOEWDIN ATOMIC CHARGES
----------------------
   0 C :   -0.203957
   1 O :   -0.068704
   2 C :   -0.000820
   3 O :   -0.139687
   4 C :   -0.293870
   5 Cl:    0.063439
   6 H :    0.122302
   7 H :    0.120479
   8 H :    0.122844
   9 H :    0.137987
  10 H :    0.139987

  Mayer bond orders larger than 0.100000
B(  0-C ,  1-O ) :   0.9414 B(  0-C ,  6-H ) :   0.9521 B(  0-C ,  7-H ) :   0.9501
B(  0-C ,  8-H ) :   0.9585 B(  1-O ,  2-C ) :   1.2132 B(  2-C ,  3-O ) :   2.0849
B(  2-C ,  4-C ) :   0.9864 B(  4-C ,  5-Cl) :   1.0427 B(  4-C ,  9-H ) :   0.9122
B(  4-C , 10-H ) :   0.9181

Dispersion correction           -0.008344703
FINAL SINGLE POINT ENERGY      -727.081638878620

DIPOLE MOMENT
-------------

Method             : SCF
Type of density    : Electron Density
Multiplicity       :   1
Irrep              :   0
Energy             :  -727.1235599694128950 Eh
Relativity type    :
Basis              : AO
                                X                 Y                 Z
Electronic contribution:      8.054802424       0.184681827      -1.307134804
Nuclear contribution   :     -8.531767600      -0.585246133       1.850019569
                        -----------------------------------------
Total Dipole Moment    :     -0.476965176      -0.400564306       0.542884764
                        -----------------------------------------
Magnitude (a.u.)       :      0.826239317
Magnitude (Debye)      :      2.100133444

Rotational constants in cm-1:             0.193574             0.055902             0.049317
Rotational constants in MHz :          5803.206968          1675.908853          1478.499715

                             ****ORCA TERMINATED NORMALLY****
TOTAL RUN TIME: 0 days 0 hours 0 minutes 7 seconds 421 msec
