                         Program Version 6.0.1  -  RELEASE   -
|  1> ! pbe def2-sv(p) def2/J RI DEFGRID1 loosescf d4 GCP(DFT/SV(P)) printgap
|  2> %output
|  3>     printlevel normal
|  4> end
|  5> * xyz 0 1
|  6> C -2.7817365133 0.1983880123 -1.0058805702
|  7> C -1.7541428393 -0.0479444016 0.0689612684
|  8> O -2.0482023158 -0.397937499 1.1839790924
|  9> C -0.3118210433 0.1650208067 -0.3587581388
| 10> C 0.4057874444 -1.1920215014 -0.3554977065
| 11> C 1.8787838867 -1.0248753756 -0.7127439074
| 12> C 2.5616335399 -0.073667994 0.2645986106
| 13> C 1.8579126031 1.2794822132 0.2633558082
| 14> C 0.3844074768 1.1173457502 0.6196794823
| 15> H -3.7803956997 -0.0168780614 -0.6353610997
| 16> H -2.7275466324 1.2379448089 -1.3234803044
| 17> H -2.565772621 -0.4292565197 -1.8680365258
| 18> H -0.278593546 0.5875890484 -1.367478259
| 19> H 0.3136939831 -1.6316105077 0.6395352871
| 20> H -0.0774520078 -1.8658647282 -1.0675004302
| 21> H 2.3718640838 -1.9988369192 -0.6929084462
| 22> H 1.9647113424 -0.626922251 -1.7270132403
| 23> H 2.5238044918 -0.499652176 1.2693818233
| 24> H 3.6114737626 0.0512362357 -0.0084482737
| 25> H 2.3357620297 1.9498569818 0.9803753329
| 26> H 1.9450323398 1.7328194867 -0.7274016788
| 27> H 0.2869977484 0.7110608546 1.6280197824
| 28> H -0.1140104676 2.089705434 0.6001333613
| 29> *
| 30>
| 31>                          ****END OF INPUT****

CARTESIAN COORDINATES (ANGSTROEM)
---------------------------------
  C     -2.781737    0.198388   -1.005881
  C     -1.754143   -0.047944    0.068961
  O     -2.048202   -0.397937    1.183979
  C     -0.311821    0.165021   -0.358758
  C      0.405787   -1.192022   -0.355498
  C      1.878784   -1.024875   -0.712744
  C      2.561634   -0.073668    0.264599
  C      1.857913    1.279482    0.263356
  C      0.384407    1.117346    0.619679
  H     -3.780396   -0.016878   -0.635361
  H     -2.727547    1.237945   -1.323480
  H     -2.565773   -0.429257   -1.868037
  H     -0.278594    0.587589   -1.367478
  H      0.313694   -1.631611    0.639535
  H     -0.077452   -1.865865   -1.067500
  H      2.371864   -1.998837   -0.692908
  H      1.964711   -0.626922   -1.727013
  H      2.523804   -0.499652    1.269382
  H      3.611474    0.051236   -0.008448
  H      2.335762    1.949857    0.980375
  H      1.945032    1.732819   -0.727402
  H      0.286998    0.711061    1.628020
  H     -0.114010    2.089705    0.600133

 Total Charge           Charge          ....    0
 Multiplicity           Mult            ....    1
 Number of Electrons    NEL             ....   70
 Basis Dimension        Dim             ....  154

ORBITAL ENERGIES
----------------

  NO   OCC          E(Eh)            E(eV)
   0   2.0000     -18.735513      -509.8192
   1   2.0000      -9.969529      -271.2847
   2   2.0000      -9.897863      -269.3345
   3   2.0000      -9.890041      -269.1217
   4   2.0000      -9.886295      -269.0198
   5   2.0000      -9.886080      -269.0139
   6   2.0000      -9.885955      -269.0105
   7   2.0000      -9.884708      -268.9766
   8   2.0000      -9.883456      -268.9425
   9   2.0000      -0.938537       -25.5389
  10   2.0000      -0.761951       -20.7337
  11   2.0000      -0.692524       -18.8445
  12   2.0000      -0.670159       -18.2360
  13   2.0000      -0.656430       -17.8624
  14   2.0000      -0.558238       -15.1904
  15   2.0000      -0.546629       -14.8745
  16   2.0000      -0.501710       -13.6522
  17   2.0000      -0.469466       -12.7748
  18   2.0000      -0.426825       -11.6145
  19   2.0000      -0.417186       -11.3522
  20   2.0000      -0.404922       -11.0185
  21   2.0000      -0.399780       -10.8786
  22   2.0000      -0.392035       -10.6678
  23   2.0000      -0.374994       -10.2041
  24   2.0000      -0.358058        -9.7433
  25   2.0000      -0.345235        -9.3943
  26   2.0000      -0.338916        -9.2224
  27   2.0000      -0.332476        -9.0471
  28   2.0000      -0.309918        -8.4333
  29   2.0000      -0.306425        -8.3383
  30   2.0000      -0.301912        -8.2154
  31   2.0000      -0.284913        -7.7529
  32   2.0000      -0.271750        -7.3947
  33   2.0000      -0.261889        -7.1264
  34   2.0000      -0.192234        -5.2310
  35   0.0000      -0.045315        -1.2331
  36   0.0000       0.025656         0.6981
  37   0.0000       0.046062         1.2534
  38   0.0000       0.058168         1.5828
  39   0.0000       0.064187         1.7466

MULLIKEN ATOMIC CHARGES
-----------------------
   0 C :   -0.258336
   1 C :    0.047217
   2 O :   -0.163325
   3 C :   -0.185186
   4 C :   -0.141942
   5 C :   -0.125961
   6 C :   -0.163216
   7 C :   -0.130680
   8 C :   -0.134554
   9 H :    0.114119
  10 H :    0.125459
  11 H :    0.122887
  12 H :    0.055927
  13 H :    0.092894
  14 H :    0.083296
  15 H :    0.087918
  16 H :    0.072016
  17 H :    0.079422
  18 H :    0.086664
  19 H :    0.087460
  20 H :    0.071197
  21 H :    0.093310
  22 H :    0.083414
Sum of atomic charges:    0.0000000

LOEWDIN ATOMIC CHARGES
----------------------
   0 C :   -0.363312
   1 C :    0.051661
   2 O :   -0.122084
   3 C :   -0.170631
   4 C :   -0.208641
   5 C :   -0.225083
   6 C :   -0.227227
   7 C :   -0.225456
   8 C :   -0.211096
   9 H :    0.131017
  10 H :    0.141672
  11 H :    0.139942
  12 H :    0.114884
  13 H :    0.123031
  14 H :    0.115508
  15 H :    0.118468
  16 H :    0.113508
  17 H :    0.116623
  18 H :    0.116685
  19 H :    0.118291
  20 H :    0.112964
  21 H :    0.122988
  22 H :    0.116289

  Mayer bond orders larger than 0.100000
B(  0-C ,  1-C ) :   1.0817 B(  0-C ,  9-H ) :   0.9338 B(  0-C , 10-H ) :   0.9252
B(  0-C , 11-H ) :   0.9249 B(  1-C ,  2-O ) :   2.1946 B(  1-C ,  3-C ) :   0.8992
B(  3-C ,  4-C ) :   1.0709 B(  3-C ,  8-C ) :   1.0720 B(  3-C , 12-H ) :   0.8891
B(  4-C ,  5-C ) :   1.1373 B(  4-C , 13-H ) :   0.9047 B(  4-C , 14-H ) :   0.9182
B(  5-C ,  6-C ) :   1.1364 B(  5-C , 15-H ) :   0.9177 B(  5-C , 16-H ) :   0.9112
B(  6-C ,  7-C ) :   1.1356 B(  6-C , 17-H ) :   0.9153 B(  6-C , 18-H ) :   0.9199
B(  7-C ,  8-C ) :   1.1381 B(  7-C , 19-H ) :   0.9180 B(  7-C , 20-H ) :   0.9113
B(  8-C , 21-H ) :   0.9019 B(  8-C , 22-H ) :   0.9211

Dispersion correction           -0.021712980
FINAL SINGLE POINT ENERGY      -387.610209772333

DIPOLE MOMENT
-------------

Method             : SCF
Type of density    : Electron Density
Multiplicity       :   1
Irrep              :   0
Energy             :  -387.6878780881696116 Eh
Relativity type    :
Basis              : AO
                                X                 Y                 Z
Electronic contribution:     -5.052744484      -0.949204684       3.165324068
Nuclear contribution   :      5.419963073       1.205450335      -4.016725597
                        -----------------------------------------
Total Dipole Moment    :      0.367218589       0.256245651      -0.851401529
                        -----------------------------------------
Magnitude (a.u.)       :      0.961974994
Magnitude (Debye)      :      2.445146117

Rotational constants in cm-1:             0.104622             0.034407             0.031486
Rotational constants in MHz :          3136.494781          1031.500910           943.931554

                             ****ORCA TERMINATED NORMALLY****
TOTAL RUN TIME: 0 days 0 hours 0 minutes 11 seconds 188 msec
