                         Program Version 6.0.0  -   RELEASE  -
|  1> ! r2SCAN-3c DEF2-TZVP FREQ
|  2> * xyzfile 0 1 censo.xyz
|  3>
|  4>                          ****END OF INPUT****

CARTESIAN COORDINATES (ANGSTROEM)
---------------------------------
  C      0.710232   -0.555088   -0.215810
  C     -0.578011    0.167048    0.310647
  F     -0.476579    0.278994    1.648349
  Cl    -2.005188   -0.836867   -0.083423
  Cl    -0.732875    1.784152   -0.417806
  F      0.768541   -1.779901    0.330923
  F      0.646298   -0.685007   -1.546753
  Cl     2.183426    0.353877    0.236190

 Total Charge           Charge          ....    0
 Multiplicity           Mult            ....    1
 Number of Electrons    NEL             ....   90
 Basis Dimension        Dim             ....  266

ORBITAL ENERGIES
----------------

  NO   OCC          E(Eh)            E(eV)
   0   2.0000    -101.228476     -2754.5669
   1   2.0000    -101.227581     -2754.5425
   2   2.0000    -101.224999     -2754.4723
   3   2.0000     -24.553405      -668.1321
   4   2.0000     -24.551727      -668.0865
   5   2.0000     -24.551472      -668.0795
   6   2.0000     -10.301736      -280.3245
   7   2.0000     -10.279546      -279.7207
   8   2.0000      -9.404842      -255.9188
   9   2.0000      -9.403914      -255.8935
  10   2.0000      -9.401508      -255.8281
  11   2.0000      -7.150335      -194.5705
  12   2.0000      -7.149511      -194.5481
  13   2.0000      -7.146917      -194.4775
  14   2.0000      -7.139343      -194.2714
  15   2.0000      -7.139179      -194.2669
  16   2.0000      -7.138372      -194.2450
  17   2.0000      -7.138186      -194.2399
  18   2.0000      -7.136010      -194.1807
  19   2.0000      -7.135886      -194.1773
  20   2.0000      -1.281290       -34.8657
  21   2.0000      -1.248479       -33.9728
  22   2.0000      -1.217753       -33.1367
  23   2.0000      -0.897320       -24.4173
  24   2.0000      -0.853690       -23.2301
  25   2.0000      -0.822126       -22.3712
  26   2.0000      -0.720167       -19.5967
  27   2.0000      -0.638440       -17.3728
  28   2.0000      -0.580179       -15.7875
  29   2.0000      -0.574165       -15.6238
  30   2.0000      -0.543698       -14.7948
  31   2.0000      -0.517446       -14.0804
  32   2.0000      -0.504798       -13.7363
  33   2.0000      -0.451246       -12.2790
  34   2.0000      -0.438297       -11.9267
  35   2.0000      -0.420181       -11.4337
  36   2.0000      -0.414459       -11.2780
  37   2.0000      -0.398932       -10.8555
  38   2.0000      -0.374672       -10.1954
  39   2.0000      -0.344187        -9.3658
  40   2.0000      -0.335135        -9.1195
  41   2.0000      -0.330964        -9.0060
  42   2.0000      -0.319986        -8.7073
  43   2.0000      -0.318615        -8.6700
  44   2.0000      -0.303398        -8.2559
  45   0.0000      -0.073447        -1.9986
  46   0.0000      -0.056148        -1.5279
  47   0.0000      -0.017622        -0.4795
  48   0.0000       0.019929         0.5423
  49   0.0000       0.084286         2.2935

MULLIKEN ATOMIC CHARGES
-----------------------
   0 C :    0.338245
   1 C :    0.248054
   2 F :   -0.130354
   3 Cl:   -0.059186
   4 Cl:   -0.053745
   5 F :   -0.136201
   6 F :   -0.137203
   7 Cl:   -0.069610
Sum of atomic charges:   -0.0000000

LOEWDIN ATOMIC CHARGES
----------------------
   0 C :   -0.846846
   1 C :   -0.938519
   2 F :    0.204564
   3 Cl:    0.382912
   4 Cl:    0.389042
   5 F :    0.212751
   6 F :    0.216255
   7 Cl:    0.379840

  Mayer bond orders larger than 0.100000
B(  0-C ,  1-C ) :   0.9206 B(  0-C ,  5-F ) :   1.1179 B(  0-C ,  6-F ) :   1.1257
B(  0-C ,  7-Cl) :   1.1293 B(  1-C ,  2-F ) :   1.0942 B(  1-C ,  3-Cl) :   1.1101
B(  1-C ,  4-Cl) :   1.1237

Dispersion correction           -0.003018882
FINAL SINGLE POINT ENERGY     -1756.276845362479

DIPOLE MOMENT
-------------

Method             : SCF
Type of density    : Electron Density
Multiplicity       :   1
Irrep              :   0
Energy             : -1756.2884460027494242 Eh
Relativity type    :
Basis              : AO
                                X                 Y                 Z
Electronic contribution:      0.087785376      -0.149407434      -0.006346454
Nuclear contribution   :     -0.133986164       0.276763690      -0.046471729
                        -----------------------------------------
Total Dipole Moment    :     -0.046200788       0.127356257      -0.052818183
                        -----------------------------------------
Magnitude (a.u.)       :      0.145409386
Magnitude (Debye)      :      0.369601285

VIBRATIONAL FREQUENCIES
-----------------------

Scaling factor for frequencies =  1.000000000  (already applied!)

     0:       0.00 cm**-1
     1:       0.00 cm**-1
     2:       0.00 cm**-1
     3:       0.00 cm**-1
     4:       0.00 cm**-1
     5:       0.00 cm**-1
     6:      80.90 cm**-1
     7:     165.71 cm**-1
     8:     204.20 cm**-1
     9:     239.07 cm**-1
    10:     285.47 cm**-1
    11:     313.56 cm**-1
    12:     347.61 cm**-1
    13:     382.36 cm**-1
    14:     420.44 cm**-1
    15:     444.80 cm**-1
    16:     527.80 cm**-1
    17:     646.47 cm**-1
    18:     762.89 cm**-1
    19:     841.49 cm**-1
    20:     992.69 cm**-1
    21:    1098.28 cm**-1
    22:    1156.76 cm**-1
    23:    1189.76 cm**-1

IR SPECTRUM
-----------

 Mode   freq       eps      Int      T**2         TX        TY        TZ
       cm**-1   L/(mol*cm) km/mol    a.u.
----------------------------------------------------------------------------
  6:     80.90   0.000020    0.10  0.000078  ( 0.002022  0.007002 -0.004971)
  7:    165.71   0.000097    0.49  0.000182  ( 0.010011  0.009024  0.000312)
  8:    204.20   0.000118    0.60  0.000181  ( 0.008615 -0.003247  0.009802)
  9:    239.07   0.000013    0.07  0.000018  ( 0.001225  0.003452 -0.002046)
 10:    285.47   0.000015    0.08  0.000017  (-0.001065 -0.003498  0.001776)
 11:    313.56   0.000164    0.83  0.000163  (-0.001029 -0.009575  0.008392)
 12:    347.61   0.000013    0.06  0.000011  ( 0.002742 -0.000979  0.001658)
 13:    382.36   0.000133    0.67  0.000108  (-0.001768 -0.010084  0.001867)
 14:    420.44   0.000084    0.42  0.000062  (-0.006087 -0.003399 -0.003688)
 15:    444.80   0.000440    2.22  0.000309  ( 0.000229 -0.011608  0.013193)
 16:    527.80   0.000476    2.40  0.000281  ( 0.004718 -0.014991 -0.005847)
 17:    646.47   0.002175   10.99  0.001050  (-0.012175  0.030008  0.001140)
 18:    762.89   0.065445  330.73  0.026771  (-0.145971 -0.071488 -0.018777)
 19:    841.49   0.030558  154.43  0.011332  ( 0.029592 -0.096839  0.032844)
 20:    992.69   0.018236   92.16  0.005733  (-0.036848 -0.065810  0.006637)
 21:   1098.28   0.031815  160.78  0.009040  ( 0.024654  0.043776  0.080720)
 22:   1156.76   0.042152  213.02  0.011372  ( 0.011353 -0.038338  0.098858)
 23:   1189.76   0.011353   57.37  0.002978  (-0.010392  0.052128  0.012350)

--------------------------
THERMOCHEMISTRY AT 298.15K
--------------------------

Temperature         ...   298.15 K
Pressure            ...     1.00 atm
Total Mass          ...   187.38 AMU
Quasi RRHO          ...     True
Cut-Off Frequency   ...     1.00 cm^-1

Throughout the following assumptions are being made:
  (1) The electronic state is orbitally nondegenerate
  (2) There are no thermally accessible electronically excited states
  (3) Hindered rotations indicated by low frequency modes are not
      treated as such but are treated as vibrations and this may
      cause some error
  (4) All equations used are the standard statistical mechanics
      equations for an ideal gas
  (5) All vibrations are strictly harmonic

freq.      80.90  E(vib)   ...       0.48
freq.     165.71  E(vib)   ...       0.39
freq.     204.20  E(vib)   ...       0.35
freq.     239.07  E(vib)   ...       0.32
freq.     285.47  E(vib)   ...       0.28
freq.     313.56  E(vib)   ...       0.25
freq.     347.61  E(vib)   ...       0.23
freq.     382.36  E(vib)   ...       0.21
freq.     420.44  E(vib)   ...       0.18
freq.     444.80  E(vib)   ...       0.17
freq.     527.80  E(vib)   ...       0.13
freq.     646.47  E(vib)   ...       0.09
freq.     762.89  E(vib)   ...       0.06
freq.     841.49  E(vib)   ...       0.04
freq.     992.69  E(vib)   ...       0.02
freq.    1098.28  E(vib)   ...       0.02
freq.    1156.76  E(vib)   ...       0.01
freq.    1189.76  E(vib)   ...       0.01

------------
INNER ENERGY
------------

The inner energy is: U= E(el) + E(ZPE) + E(vib) + E(rot) + E(trans)
    E(el)   - is the total energy from the electronic structure calculation
              = E(kin-el) + E(nuc-el) + E(el-el) + E(nuc-nuc)
    E(ZPE)  - the the zero temperature vibrational energy from the frequency calculation
    E(vib)  - the the finite temperature correction to E(ZPE) due to population
              of excited vibrational states
    E(rot)  - is the rotational thermal energy
    E(trans)- is the translational thermal energy

Summary of contributions to the inner energy U:
Electronic energy                ...  -1756.27684536 Eh
Zero point energy                ...      0.02301004 Eh      14.44 kcal/mol
Thermal vibrational correction   ...      0.00513388 Eh       3.22 kcal/mol
Thermal rotational correction    ...      0.00141627 Eh       0.89 kcal/mol
Thermal translational correction ...      0.00141627 Eh       0.89 kcal/mol
-----------------------------------------------------------------------
Total thermal energy                  -1756.24586890 Eh

Summary of corrections to the electronic energy:
(perhaps to be used in another calculation)
Total thermal correction                  0.00796642 Eh       5.00 kcal/mol
Non-thermal (ZPE) correction              0.02301004 Eh      14.44 kcal/mol
-----------------------------------------------------------------------
Total correction                          0.03097646 Eh      19.44 kcal/mol

--------
ENTHALPY
--------

The enthalpy is H = U + kB*T
                kB is Boltzmann's constant
Total thermal energy              ...  -1756.24586890 Eh
Thermal Enthalpy correction       ...      0.00094421 Eh       0.59 kcal/mol
-----------------------------------------------------------------------
Total Enthalpy                    ...  -1756.24492470 Eh

Note: Only C1 symmetry has been detected, increase convergence thresholds
      if your molecule has a higher symmetry. Symmetry factor of 1.0 is
      used for the rotational entropy correction.

Note: Rotational entropy computed according to Herzberg
Infrared and Raman Spectra, Chapter V,1, Van Nostrand Reinhold, 1945
Point Group:  C1, Symmetry Number:   1
Rotational constants in cm-1:     0.051715     0.035606     0.029019

Vibrational entropy computed according to the QRRHO of S. Grimme
Chem.Eur.J. 2012 18 9955 using a reference frequency of 100.0 cm-1

-------
ENTROPY
-------

The entropy contributions are T*S = T*(S(el)+S(vib)+S(rot)+S(trans))
     S(el)   - electronic entropy
     S(vib)  - vibrational entropy
     S(rot)  - rotational entropy
     S(trans)- translational entropy
The entropies will be listed as multiplied by the temperature to get
units of energy

Electronic entropy                ...      0.00000000 Eh      0.00 kcal/mol
Vibrational entropy               ...      0.00859766 Eh      5.40 kcal/mol
Rotational entropy                ...      0.01415479 Eh      8.88 kcal/mol
Translational entropy             ...      0.01976058 Eh     12.40 kcal/mol
-----------------------------------------------------------------------
Final entropy term                ...      0.04251303 Eh     26.68 kcal/mol

In case the symmetry of your molecule has not been determined correctly
or in case you have a reason to use a different symmetry number we print
out the resulting rotational entropy values for sn=1,12:

 non-linear molecules -----------------------------------
|  sn= 1 | S(rot)=       0.01415479 Eh      8.88 kcal/mol|
|  sn= 2 | S(rot)=       0.01350034 Eh      8.47 kcal/mol|
|  sn= 3 | S(rot)=       0.01311750 Eh      8.23 kcal/mol|
|  sn= 4 | S(rot)=       0.01284588 Eh      8.06 kcal/mol|
|  sn= 5 | S(rot)=       0.01263519 Eh      7.93 kcal/mol|
|  sn= 6 | S(rot)=       0.01246305 Eh      7.82 kcal/mol|
|  sn= 7 | S(rot)=       0.01231750 Eh      7.73 kcal/mol|
|  sn= 8 | S(rot)=       0.01219142 Eh      7.65 kcal/mol|
|  sn= 9 | S(rot)=       0.01208021 Eh      7.58 kcal/mol|
|  sn=10 | S(rot)=       0.01198074 Eh      7.52 kcal/mol|
|  sn=11 | S(rot)=       0.01189075 Eh      7.46 kcal/mol|
|  sn=12 | S(rot)=       0.01180859 Eh      7.41 kcal/mol|
 linear molecules ---------------------------------------
|  Dinfh | S(rot)=       0.00866802 Eh      5.44 kcal/mol|
|  Cinfv | S(rot)=       0.00932248 Eh      5.85 kcal/mol|
 --------------------------------------------------------

-------------------
GIBBS FREE ENERGY
-------------------

The Gibbs free energy is G = H - T*S

Total enthalpy                    ...  -1756.24492470 Eh
Total entropy correction          ...     -0.04251303 Eh    -26.68 kcal/mol
-----------------------------------------------------------------------
Final Gibbs free energy         ...  -1756.28743773 Eh

For completeness - the Gibbs free energy minus the electronic energy
G-E(el)                           ...     -0.01059236 Eh     -6.65 kcal/mol

                             ****ORCA TERMINATED NORMALLY****
TOTAL RUN TIME: 0 days 0 hours 4 minutes 18 seconds 737 msec
