                         Program Version 6.0.0  -   RELEASE  -
|  1> ! r2SCAN-3c DEF2-TZVP FREQ
|  2> * xyzfile 0 1 vacuum_censo.xyz
|  3>
|  4>                          ****END OF INPUT****

CARTESIAN COORDINATES (ANGSTROEM)
---------------------------------
  C      0.709355    0.556993    0.217691
  C     -0.577387   -0.167157   -0.312374
  F     -0.476751   -0.275020   -1.649665
  Cl    -2.007572    0.832222    0.085841
  Cl    -0.729126   -1.787134    0.412159
  F      0.767573    1.782041   -0.328455
  F      0.644191    0.685794    1.548282
  Cl     2.184907   -0.350670   -0.233426

 Total Charge           Charge          ....    0
 Multiplicity           Mult            ....    1
 Number of Electrons    NEL             ....   90
 Basis Dimension        Dim             ....  266

ORBITAL ENERGIES
----------------

  NO   OCC          E(Eh)            E(eV)
   0   2.0000    -101.228418     -2754.5653
   1   2.0000    -101.227516     -2754.5407
   2   2.0000    -101.224883     -2754.4691
   3   2.0000     -24.553778      -668.1423
   4   2.0000     -24.551979      -668.0933
   5   2.0000     -24.551589      -668.0827
   6   2.0000     -10.301912      -280.3293
   7   2.0000     -10.279735      -279.7258
   8   2.0000      -9.404776      -255.9170
   9   2.0000      -9.403842      -255.8916
  10   2.0000      -9.401383      -255.8246
  11   2.0000      -7.150270      -194.5687
  12   2.0000      -7.149439      -194.5461
  13   2.0000      -7.146791      -194.4741
  14   2.0000      -7.139277      -194.2696
  15   2.0000      -7.139114      -194.2652
  16   2.0000      -7.138300      -194.2430
  17   2.0000      -7.138116      -194.2380
  18   2.0000      -7.135885      -194.1773
  19   2.0000      -7.135763      -194.1740
  20   2.0000      -1.281496       -34.8713
  21   2.0000      -1.249027       -33.9877
  22   2.0000      -1.217958       -33.1423
  23   2.0000      -0.897078       -24.4107
  24   2.0000      -0.853393       -23.2220
  25   2.0000      -0.821955       -22.3665
  26   2.0000      -0.720112       -19.5952
  27   2.0000      -0.638655       -17.3787
  28   2.0000      -0.580324       -15.7914
  29   2.0000      -0.574372       -15.6295
  30   2.0000      -0.543691       -14.7946
  31   2.0000      -0.517568       -14.0837
  32   2.0000      -0.504968       -13.7409
  33   2.0000      -0.451496       -12.2858
  34   2.0000      -0.438432       -11.9304
  35   2.0000      -0.420280       -11.4364
  36   2.0000      -0.414597       -11.2817
  37   2.0000      -0.398959       -10.8562
  38   2.0000      -0.374647       -10.1947
  39   2.0000      -0.344132        -9.3643
  40   2.0000      -0.335042        -9.1169
  41   2.0000      -0.330932        -9.0051
  42   2.0000      -0.319896        -8.7048
  43   2.0000      -0.318575        -8.6689
  44   2.0000      -0.303308        -8.2534
  45   0.0000      -0.073619        -2.0033
  46   0.0000      -0.056408        -1.5349
  47   0.0000      -0.017745        -0.4829
  48   0.0000       0.020046         0.5455
  49   0.0000       0.084271         2.2931

MULLIKEN ATOMIC CHARGES
-----------------------
   0 C :    0.338504
   1 C :    0.248404
   2 F :   -0.129813
   3 Cl:   -0.059714
   4 Cl:   -0.054113
   5 F :   -0.136132
   6 F :   -0.136830
   7 Cl:   -0.070305
Sum of atomic charges:   -0.0000000

LOEWDIN ATOMIC CHARGES
----------------------
   0 C :   -0.845998
   1 C :   -0.937761
   2 F :    0.205685
   3 Cl:    0.381865
   4 Cl:    0.388095
   5 F :    0.212792
   6 F :    0.216864
   7 Cl:    0.378458

  Mayer bond orders larger than 0.100000
B(  0-C ,  1-C ) :   0.9203 B(  0-C ,  5-F ) :   1.1179 B(  0-C ,  6-F ) :   1.1263
B(  0-C ,  7-Cl) :   1.1283 B(  1-C ,  2-F ) :   1.0950 B(  1-C ,  3-Cl) :   1.1094
B(  1-C ,  4-Cl) :   1.1232

Dispersion correction           -0.003018639
FINAL SINGLE POINT ENERGY     -1756.276831048641

DIPOLE MOMENT
-------------

Method             : SCF
Type of density    : Electron Density
Multiplicity       :   1
Irrep              :   0
Energy             : -1756.2884114788566876 Eh
Relativity type    :
Basis              : AO
                                X                 Y                 Z
Electronic contribution:      0.087125162       0.151010177       0.005930238
Nuclear contribution   :     -0.133483537      -0.277371341       0.045930255
                        -----------------------------------------
Total Dipole Moment    :     -0.046358376      -0.126361164       0.051860493
                        -----------------------------------------
Magnitude (a.u.)       :      0.144241997
Magnitude (Debye)      :      0.366634019

VIBRATIONAL FREQUENCIES
-----------------------

Scaling factor for frequencies =  1.000000000  (already applied!)

     0:       0.00 cm**-1
     1:       0.00 cm**-1
     2:       0.00 cm**-1
     3:       0.00 cm**-1
     4:       0.00 cm**-1
     5:       0.00 cm**-1
     6:      80.85 cm**-1
     7:     165.63 cm**-1
     8:     203.96 cm**-1
     9:     238.80 cm**-1
    10:     285.24 cm**-1
    11:     313.20 cm**-1
    12:     347.30 cm**-1
    13:     381.99 cm**-1
    14:     419.90 cm**-1
    15:     444.37 cm**-1
    16:     527.62 cm**-1
    17:     646.28 cm**-1
    18:     761.67 cm**-1
    19:     840.27 cm**-1
    20:     991.59 cm**-1
    21:    1100.25 cm**-1
    22:    1157.76 cm**-1
    23:    1189.47 cm**-1

IR SPECTRUM
-----------

 Mode   freq       eps      Int      T**2         TX        TY        TZ
       cm**-1   L/(mol*cm) km/mol    a.u.
----------------------------------------------------------------------------
  6:     80.85   0.000020    0.10  0.000078  ( 0.002064 -0.007012  0.004908)
  7:    165.63   0.000097    0.49  0.000182  ( 0.010012 -0.009055 -0.000376)
  8:    203.96   0.000117    0.59  0.000179  ( 0.008529  0.003224 -0.009814)
  9:    238.80   0.000014    0.07  0.000018  (-0.001260  0.003437 -0.002069)
 10:    285.24   0.000015    0.08  0.000017  ( 0.001049 -0.003515  0.001781)
 11:    313.20   0.000165    0.83  0.000164  ( 0.000983 -0.009659  0.008367)
 12:    347.30   0.000012    0.06  0.000011  ( 0.002706  0.000977 -0.001655)
 13:    381.99   0.000138    0.70  0.000113  ( 0.001914 -0.010286  0.001853)
 14:    419.90   0.000091    0.46  0.000068  (-0.006400  0.003590  0.003751)
 15:    444.37   0.000446    2.26  0.000314  (-0.000371 -0.011699  0.013288)
 16:    527.62   0.000476    2.41  0.000282  (-0.004554 -0.015000 -0.005998)
 17:    646.28   0.002198   11.11  0.001061  ( 0.011887  0.030308  0.001247)
 18:    761.67   0.065624  331.64  0.026887  (-0.146276  0.071690  0.018731)
 19:    840.27   0.030431  153.79  0.011302  (-0.029993 -0.096666  0.032522)
 20:    991.59   0.018285   92.40  0.005754  ( 0.037083 -0.065882  0.006226)
 21:   1100.25   0.031543  159.41  0.008947  (-0.024242  0.043788  0.080259)
 22:   1157.76   0.042646  215.52  0.011495  (-0.011755 -0.039022  0.099167)
 23:   1189.47   0.011231   56.76  0.002946  ( 0.010155  0.051678  0.013144)

--------------------------
THERMOCHEMISTRY AT 298.15K
--------------------------

Temperature         ...   298.15 K
Pressure            ...     1.00 atm
Total Mass          ...   187.38 AMU
Quasi RRHO          ...     True
Cut-Off Frequency   ...     1.00 cm^-1

Throughout the following assumptions are being made:
  (1) The electronic state is orbitally nondegenerate
  (2) There are no thermally accessible electronically excited states
  (3) Hindered rotations indicated by low frequency modes are not
      treated as such but are treated as vibrations and this may
      cause some error
  (4) All equations used are the standard statistical mechanics
      equations for an ideal gas
  (5) All vibrations are strictly harmonic

freq.      80.85  E(vib)   ...       0.48
freq.     165.63  E(vib)   ...       0.39
freq.     203.96  E(vib)   ...       0.35
freq.     238.80  E(vib)   ...       0.32
freq.     285.24  E(vib)   ...       0.28
freq.     313.20  E(vib)   ...       0.25
freq.     347.30  E(vib)   ...       0.23
freq.     381.99  E(vib)   ...       0.21
freq.     419.90  E(vib)   ...       0.18
freq.     444.37  E(vib)   ...       0.17
freq.     527.62  E(vib)   ...       0.13
freq.     646.28  E(vib)   ...       0.09
freq.     761.67  E(vib)   ...       0.06
freq.     840.27  E(vib)   ...       0.04
freq.     991.59  E(vib)   ...       0.02
freq.    1100.25  E(vib)   ...       0.02
freq.    1157.76  E(vib)   ...       0.01
freq.    1189.47  E(vib)   ...       0.01

------------
INNER ENERGY
------------

The inner energy is: U= E(el) + E(ZPE) + E(vib) + E(rot) + E(trans)
    E(el)   - is the total energy from the electronic structure calculation
              = E(kin-el) + E(nuc-el) + E(el-el) + E(nuc-nuc)
    E(ZPE)  - the the zero temperature vibrational energy from the frequency calculation
    E(vib)  - the the finite temperature correction to E(ZPE) due to population
              of excited vibrational states
    E(rot)  - is the rotational thermal energy
    E(trans)- is the translational thermal energy

Summary of contributions to the inner energy U:
Electronic energy                ...  -1756.27683105 Eh
Zero point energy                ...      0.02300071 Eh      14.43 kcal/mol
Thermal vibrational correction   ...      0.00513802 Eh       3.22 kcal/mol
Thermal rotational correction    ...      0.00141627 Eh       0.89 kcal/mol
Thermal translational correction ...      0.00141627 Eh       0.89 kcal/mol
-----------------------------------------------------------------------
Total thermal energy                  -1756.24585977 Eh

Summary of corrections to the electronic energy:
(perhaps to be used in another calculation)
Total thermal correction                  0.00797057 Eh       5.00 kcal/mol
Non-thermal (ZPE) correction              0.02300071 Eh      14.43 kcal/mol
-----------------------------------------------------------------------
Total correction                          0.03097128 Eh      19.43 kcal/mol

--------
ENTHALPY
--------

The enthalpy is H = U + kB*T
                kB is Boltzmann's constant
Total thermal energy              ...  -1756.24585977 Eh
Thermal Enthalpy correction       ...      0.00094421 Eh       0.59 kcal/mol
-----------------------------------------------------------------------
Total Enthalpy                    ...  -1756.24491556 Eh

Note: Only C1 symmetry has been detected, increase convergence thresholds
      if your molecule has a higher symmetry. Symmetry factor of 1.0 is
      used for the rotational entropy correction.

Note: Rotational entropy computed according to Herzberg
Infrared and Raman Spectra, Chapter V,1, Van Nostrand Reinhold, 1945
Point Group:  C1, Symmetry Number:   1
Rotational constants in cm-1:     0.051694     0.035586     0.028997

Vibrational entropy computed according to the QRRHO of S. Grimme
Chem.Eur.J. 2012 18 9955 using a reference frequency of 100.0 cm-1

-------
ENTROPY
-------

The entropy contributions are T*S = T*(S(el)+S(vib)+S(rot)+S(trans))
     S(el)   - electronic entropy
     S(vib)  - vibrational entropy
     S(rot)  - rotational entropy
     S(trans)- translational entropy
The entropies will be listed as multiplied by the temperature to get
units of energy

Electronic entropy                ...      0.00000000 Eh      0.00 kcal/mol
Vibrational entropy               ...      0.00860579 Eh      5.40 kcal/mol
Rotational entropy                ...      0.01415559 Eh      8.88 kcal/mol
Translational entropy             ...      0.01976058 Eh     12.40 kcal/mol
-----------------------------------------------------------------------
Final entropy term                ...      0.04252196 Eh     26.68 kcal/mol

In case the symmetry of your molecule has not been determined correctly
or in case you have a reason to use a different symmetry number we print
out the resulting rotational entropy values for sn=1,12:

 non-linear molecules -----------------------------------
|  sn= 1 | S(rot)=       0.01415559 Eh      8.88 kcal/mol|
|  sn= 2 | S(rot)=       0.01350114 Eh      8.47 kcal/mol|
|  sn= 3 | S(rot)=       0.01311831 Eh      8.23 kcal/mol|
|  sn= 4 | S(rot)=       0.01284668 Eh      8.06 kcal/mol|
|  sn= 5 | S(rot)=       0.01263599 Eh      7.93 kcal/mol|
|  sn= 6 | S(rot)=       0.01246385 Eh      7.82 kcal/mol|
|  sn= 7 | S(rot)=       0.01231830 Eh      7.73 kcal/mol|
|  sn= 8 | S(rot)=       0.01219222 Eh      7.65 kcal/mol|
|  sn= 9 | S(rot)=       0.01208102 Eh      7.58 kcal/mol|
|  sn=10 | S(rot)=       0.01198154 Eh      7.52 kcal/mol|
|  sn=11 | S(rot)=       0.01189155 Eh      7.46 kcal/mol|
|  sn=12 | S(rot)=       0.01180939 Eh      7.41 kcal/mol|
 linear molecules ---------------------------------------
|  Dinfh | S(rot)=       0.00866873 Eh      5.44 kcal/mol|
|  Cinfv | S(rot)=       0.00932319 Eh      5.85 kcal/mol|
 --------------------------------------------------------

-------------------
GIBBS FREE ENERGY
-------------------

The Gibbs free energy is G = H - T*S

Total enthalpy                    ...  -1756.24491556 Eh
Total entropy correction          ...     -0.04252196 Eh    -26.68 kcal/mol
-----------------------------------------------------------------------
Final Gibbs free energy         ...  -1756.28743753 Eh

For completeness - the Gibbs free energy minus the electronic energy
G-E(el)                           ...     -0.01060648 Eh     -6.66 kcal/mol

                             ****ORCA TERMINATED NORMALLY****
TOTAL RUN TIME: 0 days 0 hours 4 minutes 15 seconds 347 msec
