                         Program Version 6.0.1  -  RELEASE   -
|  1> ! pbe def2-sv(p) def2/J RI DEFGRID1 loosescf d4 GCP(DFT/SV(P)) printgap
|  2> %output
|  3>     printlevel normal
|  4> end
|  5> * xyz 0 1
|  6> C -2.2711744151 0.3285157475 -0.263704493
|  7> C -1.2294910595 -0.0370436994 0.4609303954
|  8> C -0.0769640253 -0.8055929026 -0.0793421173
|  9> Cl 1.4019026761 0.2189735501 -0.0332642616
| 10> H -3.0869515418 0.88905634 0.1582732764
| 11> H -2.3533864385 0.074059015 -1.3076486234
| 12> H -1.1558048366 0.235480884 1.5046486323
| 13> H 0.147047464 -1.6821466766 0.5291724317
| 14> H -0.2288961658 -1.0921650963 -1.1191756283
| 15> *
| 16>
| 17>                          ****END OF INPUT****

CARTESIAN COORDINATES (ANGSTROEM)
---------------------------------
  C     -2.271174    0.328516   -0.263704
  C     -1.229491   -0.037044    0.460930
  C     -0.076964   -0.805593   -0.079342
  Cl     1.401903    0.218974   -0.033264
  H     -3.086952    0.889056    0.158273
  H     -2.353386    0.074059   -1.307649
  H     -1.155805    0.235481    1.504649
  H      0.147047   -1.682147    0.529172
  H     -0.228896   -1.092165   -1.119176

 Total Charge           Charge          ....    0
 Multiplicity           Mult            ....    1
 Number of Electrons    NEL             ....   40
 Basis Dimension        Dim             ....   70

ORBITAL ENERGIES
----------------

  NO   OCC          E(Eh)            E(eV)
   0   2.0000    -100.617858     -2737.9511
   1   2.0000      -9.946338      -270.6536
   2   2.0000      -9.906140      -269.5598
   3   2.0000      -9.895963      -269.2829
   4   2.0000      -9.153820      -249.0881
   5   2.0000      -6.985569      -190.0870
   6   2.0000      -6.973505      -189.7587
   7   2.0000      -6.973177      -189.7498
   8   2.0000      -0.779981       -21.2244
   9   2.0000      -0.701474       -19.0881
  10   2.0000      -0.602616       -16.3980
  11   2.0000      -0.512215       -13.9381
  12   2.0000      -0.442133       -12.0311
  13   2.0000      -0.406295       -11.0559
  14   2.0000      -0.389465       -10.5979
  15   2.0000      -0.357750        -9.7349
  16   2.0000      -0.327605        -8.9146
  17   2.0000      -0.258124        -7.0239
  18   2.0000      -0.245357        -6.6765
  19   2.0000      -0.239631        -6.5207
  20   0.0000      -0.043627        -1.1872
  21   0.0000       0.024632         0.6703
  22   0.0000       0.060592         1.6488
  23   0.0000       0.063964         1.7406
  24   0.0000       0.083391         2.2692

MULLIKEN ATOMIC CHARGES
-----------------------
   0 C :   -0.190750
   1 C :   -0.100650
   2 C :   -0.134925
   3 Cl:   -0.155295
   4 H :    0.109636
   5 H :    0.102510
   6 H :    0.090815
   7 H :    0.144193
   8 H :    0.134466
Sum of atomic charges:   -0.0000000

LOEWDIN ATOMIC CHARGES
----------------------
   0 C :   -0.234709
   1 C :   -0.160021
   2 C :   -0.266607
   3 Cl:    0.024726
   4 H :    0.127254
   5 H :    0.123420
   6 H :    0.126294
   7 H :    0.131921
   8 H :    0.127720

  Mayer bond orders larger than 0.100000
B(  0-C ,  1-C ) :   2.0487 B(  0-C ,  4-H ) :   0.9261 B(  0-C ,  5-H ) :   0.9207
B(  1-C ,  2-C ) :   1.0783 B(  1-C ,  6-H ) :   0.9319 B(  2-C ,  3-Cl) :   0.9998
B(  2-C ,  7-H ) :   0.9175 B(  2-C ,  8-H ) :   0.9244

Dispersion correction           -0.005942264
FINAL SINGLE POINT ENERGY      -576.874155681036

DIPOLE MOMENT
-------------

Method             : SCF
Type of density    : Electron Density
Multiplicity       :   1
Irrep              :   0
Energy             :  -576.9013253296241146 Eh
Relativity type    :
Basis              : AO
                                X                 Y                 Z
Electronic contribution:      7.577359609       1.416149048       0.176925377
Nuclear contribution   :     -8.146749141      -1.772200187      -0.175569500
                        -----------------------------------------
Total Dipole Moment    :     -0.569389532      -0.356051140       0.001355876
                        -----------------------------------------
Magnitude (a.u.)       :      0.671549471
Magnitude (Debye)      :      1.706943102

Rotational constants in cm-1:             0.679796             0.096029             0.092528
Rotational constants in MHz :         20379.785790          2878.882620          2773.917907

                             ****ORCA TERMINATED NORMALLY****
TOTAL RUN TIME: 0 days 0 hours 0 minutes 3 seconds 682 msec
