                         Program Version 6.0.1  -  RELEASE   -
|  1> ! pbe def2-sv(p) def2/J RI DEFGRID1 loosescf d4 GCP(DFT/SV(P)) printgap
|  2> %output
|  3>     printlevel normal
|  4> end
|  5> * xyz 0 1
|  6> C -2.1232058807 -0.8820487527 -0.3446421222
|  7> C -1.1924492546 -0.347765978 0.7687795806
|  8> H -1.796074322 -0.4028793116 1.6888456069
|  9> C -0.7732732842 1.1246394009 0.5907008664
| 10> H -1.6484853767 1.6988430831 0.2355704269
| 11> C 0.3885269283 1.3080638061 -0.4061574781
| 12> H 0.8228334652 2.2967312283 -0.2068795774
| 13> C 1.5130699615 0.2905676979 -0.1251709741
| 14> H 2.1520204319 0.2225103795 -1.0115349278
| 15> C 1.0258886044 -1.1497939355 0.1973178395
| 16> H 1.825796434 -1.6211094123 0.7852617618
| 17> O -0.0838179858 -1.1689425635 1.0708543549
| 18> O 0.8661669191 -1.938371556 -0.9248783293
| 19> O 2.318893565 0.7750362473 0.9158503598
| 20> O -0.0479091776 1.2312664007 -1.7495175118
| 21> O -0.3043920894 1.6626142764 1.8082239323
| 22> O -1.5779521581 -0.9858438052 -1.630908778
| 23> H -3.0175529357 -0.2406588147 -0.3582833753
| 24> H -2.4255940049 -1.8956631869 -0.0693572985
| 25> H 0.009554923 -1.7405896822 -1.3567660295
| 26> H 1.7501474672 0.9418724341 1.6813855617
| 27> H -0.3577965991 2.0950039416 -2.040191383
| 28> H -0.906603894 1.4266548006 2.523389872
| 29> H -1.1557717335 -0.1416894554 -1.8830611558
| 30> *
| 31>
| 32>                          ****END OF INPUT****

CARTESIAN COORDINATES (ANGSTROEM)
---------------------------------
  C     -2.123206   -0.882049   -0.344642
  C     -1.192449   -0.347766    0.768780
  H     -1.796074   -0.402879    1.688846
  C     -0.773273    1.124639    0.590701
  H     -1.648485    1.698843    0.235570
  C      0.388527    1.308064   -0.406157
  H      0.822833    2.296731   -0.206880
  C      1.513070    0.290568   -0.125171
  H      2.152020    0.222510   -1.011535
  C      1.025889   -1.149794    0.197318
  H      1.825796   -1.621109    0.785262
  O     -0.083818   -1.168943    1.070854
  O      0.866167   -1.938372   -0.924878
  O      2.318894    0.775036    0.915850
  O     -0.047909    1.231266   -1.749518
  O     -0.304392    1.662614    1.808224
  O     -1.577952   -0.985844   -1.630909
  H     -3.017553   -0.240659   -0.358283
  H     -2.425594   -1.895663   -0.069357
  H      0.009555   -1.740590   -1.356766
  H      1.750147    0.941872    1.681386
  H     -0.357797    2.095004   -2.040191
  H     -0.906604    1.426655    2.523390
  H     -1.155772   -0.141689   -1.883061

 Total Charge           Charge          ....    0
 Multiplicity           Mult            ....    1
 Number of Electrons    NEL             ....   96
 Basis Dimension        Dim             ....  192

ORBITAL ENERGIES
----------------

  NO   OCC          E(Eh)            E(eV)
   0   2.0000     -18.801345      -511.6106
   1   2.0000     -18.783029      -511.1122
   2   2.0000     -18.764646      -510.6120
   3   2.0000     -18.764584      -510.6103
   4   2.0000     -18.739973      -509.9406
   5   2.0000     -18.724465      -509.5186
   6   2.0000      -9.969103      -271.2731
   7   2.0000      -9.967080      -271.2180
   8   2.0000      -9.963520      -271.1212
   9   2.0000      -9.960936      -271.0509
  10   2.0000      -9.947783      -270.6929
  11   2.0000      -9.935684      -270.3637
  12   2.0000      -0.983441       -26.7608
  13   2.0000      -0.966785       -26.3076
  14   2.0000      -0.955605       -26.0033
  15   2.0000      -0.937807       -25.5190
  16   2.0000      -0.919731       -25.0272
  17   2.0000      -0.892598       -24.2888
  18   2.0000      -0.718240       -19.5443
  19   2.0000      -0.690137       -18.7796
  20   2.0000      -0.629735       -17.1360
  21   2.0000      -0.597216       -16.2511
  22   2.0000      -0.584647       -15.9090
  23   2.0000      -0.539252       -14.6738
  24   2.0000      -0.496984       -13.5236
  25   2.0000      -0.489994       -13.3334
  26   2.0000      -0.480702       -13.0806
  27   2.0000      -0.475366       -12.9354
  28   2.0000      -0.452342       -12.3088
  29   2.0000      -0.433386       -11.7930
  30   2.0000      -0.428129       -11.6500
  31   2.0000      -0.423228       -11.5166
  32   2.0000      -0.401572       -10.9273
  33   2.0000      -0.383347       -10.4314
  34   2.0000      -0.366915        -9.9843
  35   2.0000      -0.357511        -9.7284
  36   2.0000      -0.337234        -9.1766
  37   2.0000      -0.330970        -9.0062
  38   2.0000      -0.305247        -8.3062
  39   2.0000      -0.296211        -8.0603
  40   2.0000      -0.284275        -7.7355
  41   2.0000      -0.279841        -7.6149
  42   2.0000      -0.271671        -7.3925
  43   2.0000      -0.248523        -6.7627
  44   2.0000      -0.247123        -6.7246
  45   2.0000      -0.233088        -6.3426
  46   2.0000      -0.213387        -5.8066
  47   2.0000      -0.192816        -5.2468
  48   0.0000      -0.012095        -0.3291
  49   0.0000      -0.000143        -0.0039
  50   0.0000       0.042584         1.1588
  51   0.0000       0.047770         1.2999
  52   0.0000       0.070437         1.9167

MULLIKEN ATOMIC CHARGES
-----------------------
   0 C :    0.038530
   1 C :   -0.001503
   2 H :    0.064443
   3 C :    0.053356
   4 H :    0.053071
   5 C :   -0.000544
   6 H :    0.094551
   7 C :    0.063920
   8 H :    0.086080
   9 C :    0.183159
  10 H :    0.069676
  11 O :   -0.301471
  12 O :   -0.406420
  13 O :   -0.425324
  14 O :   -0.412905
  15 O :   -0.414023
  16 O :   -0.440277
  17 H :    0.075423
  18 H :    0.104662
  19 H :    0.283914
  20 H :    0.297930
  21 H :    0.324330
  22 H :    0.309094
  23 H :    0.300329
Sum of atomic charges:    0.0000000

LOEWDIN ATOMIC CHARGES
----------------------
   0 C :   -0.136762
   1 C :   -0.086146
   2 H :    0.116592
   3 C :   -0.079199
   4 H :    0.096259
   5 C :   -0.075731
   6 H :    0.119835
   7 C :   -0.081191
   8 H :    0.125768
   9 C :   -0.011092
  10 H :    0.110526
  11 O :   -0.143882
  12 O :   -0.325879
  13 O :   -0.314058
  14 O :   -0.298054
  15 O :   -0.307291
  16 O :   -0.329889
  17 H :    0.103007
  18 H :    0.123409
  19 H :    0.264151
  20 H :    0.272065
  21 H :    0.301579
  22 H :    0.289469
  23 H :    0.266514

  Mayer bond orders larger than 0.100000
B(  0-C ,  1-C ) :   1.0247 B(  0-C , 16-O ) :   1.0622 B(  0-C , 17-H ) :   0.9090
B(  0-C , 18-H ) :   0.9153 B(  1-C ,  2-H ) :   0.8797 B(  1-C ,  3-C ) :   0.9832
B(  1-C , 11-O ) :   1.0490 B(  3-C ,  4-H ) :   0.8950 B(  3-C ,  5-C ) :   0.9748
B(  3-C , 15-O ) :   1.0290 B(  5-C ,  6-H ) :   0.8987 B(  5-C ,  7-C ) :   0.9828
B(  5-C , 14-O ) :   1.0040 B(  7-C ,  8-H ) :   0.8866 B(  7-C ,  9-C ) :   0.9683
B(  7-C , 13-O ) :   1.0409 B(  9-C , 10-H ) :   0.9023 B(  9-C , 11-O ) :   1.0077
B(  9-C , 12-O ) :   1.1638 B( 12-O , 19-H ) :   0.7684 B( 13-O , 20-H ) :   0.8239
B( 14-O , 21-H ) :   0.8356 B( 14-O , 23-H ) :   0.1532 B( 15-O , 22-H ) :   0.8390
B( 16-O , 19-H ) :   0.1657 B( 16-O , 23-H ) :   0.7599

Dispersion correction           -0.026561398
FINAL SINGLE POINT ENERGY      -685.700856211701

DIPOLE MOMENT
-------------

Method             : SCF
Type of density    : Electron Density
Multiplicity       :   1
Irrep              :   0
Energy             :  -685.8366275731785890 Eh
Relativity type    :
Basis              : AO
                                X                 Y                 Z
Electronic contribution:      2.832865785      -0.827886731       0.382693983
Nuclear contribution   :     -4.436639556       2.469570423      -0.018462983
                        -----------------------------------------
Total Dipole Moment    :     -1.603773771       1.641683692       0.364231000
                        -----------------------------------------
Magnitude (a.u.)       :      2.323764160
Magnitude (Debye)      :      5.906539095

Rotational constants in cm-1:             0.039257             0.031229             0.027817
Rotational constants in MHz :          1176.888772           936.214625           833.945612

                             ****ORCA TERMINATED NORMALLY****
TOTAL RUN TIME: 0 days 0 hours 0 minutes 30 seconds 748 msec
