                         Program Version 6.0.1  -  RELEASE   -
|  1> ! pbe def2-sv(p) def2/J RI DEFGRID1 loosescf d4 GCP(DFT/SV(P)) printgap
|  2> %output
|  3>     printlevel normal
|  4> end
|  5> * xyz 0 1
|  6> C -2.002627424 0.688454702 0.4219868101
|  7> O -1.1115730864 -0.4103337202 0.4326847105
|  8> S 0.364405092 -0.0071242663 -0.1066926035
|  9> O 0.9417542655 0.9414334864 0.7930263418
| 10> O 0.2675035517 0.3628163343 -1.4837852307
| 11> C 1.1399500502 -1.6193805909 0.0732341886
| 12> H -1.6149421083 1.4823665141 1.0641912799
| 13> H -2.9592123348 0.3280753338 0.7961412681
| 14> H -2.1081782958 1.0661960925 -0.5974297725
| 15> H 0.3763470245 -2.2846797645 0.4501383866
| 16> H 1.4881654401 -1.9370511834 -0.8998336036
| 17> H 1.9563197342 -1.5246028268 0.77573724
| 18> *
| 19>
| 20>                          ****END OF INPUT****

CARTESIAN COORDINATES (ANGSTROEM)
---------------------------------
  C     -2.002627    0.688455    0.421987
  O     -1.111573   -0.410334    0.432685
  S      0.364405   -0.007124   -0.106693
  O      0.941754    0.941433    0.793026
  O      0.267504    0.362816   -1.483785
  C      1.139950   -1.619381    0.073234
  H     -1.614942    1.482367    1.064191
  H     -2.959212    0.328075    0.796141
  H     -2.108178    1.066196   -0.597430
  H      0.376347   -2.284680    0.450138
  H      1.488165   -1.937051   -0.899834
  H      1.956320   -1.524603    0.775737

 Total Charge           Charge          ....    0
 Multiplicity           Mult            ....    1
 Number of Electrons    NEL             ....   58
 Basis Dimension        Dim             ....  100

ORBITAL ENERGIES
----------------

  NO   OCC          E(Eh)            E(eV)
   0   2.0000     -88.251538     -2401.4464
   1   2.0000     -18.802484      -511.6416
   2   2.0000     -18.744859      -510.0735
   3   2.0000     -18.744747      -510.0705
   4   2.0000      -9.947172      -270.6763
   5   2.0000      -9.927729      -270.1472
   6   2.0000      -7.866769      -214.0657
   7   2.0000      -5.895157      -160.4154
   8   2.0000      -5.891891      -160.3265
   9   2.0000      -5.891069      -160.3041
  10   2.0000      -1.058076       -28.7917
  11   2.0000      -0.951665       -25.8961
  12   2.0000      -0.916783       -24.9469
  13   2.0000      -0.719954       -19.5910
  14   2.0000      -0.648451       -17.6453
  15   2.0000      -0.541755       -14.7419
  16   2.0000      -0.488448       -13.2913
  17   2.0000      -0.452318       -12.3082
  18   2.0000      -0.435464       -11.8496
  19   2.0000      -0.417765       -11.3680
  20   2.0000      -0.411272       -11.1913
  21   2.0000      -0.388910       -10.5828
  22   2.0000      -0.380832       -10.3630
  23   2.0000      -0.352651        -9.5961
  24   2.0000      -0.291712        -7.9379
  25   2.0000      -0.291453        -7.9308
  26   2.0000      -0.277085        -7.5399
  27   2.0000      -0.268307        -7.3010
  28   2.0000      -0.239250        -6.5103
  29   0.0000       0.018336         0.4989
  30   0.0000       0.032532         0.8853
  31   0.0000       0.047870         1.3026
  32   0.0000       0.056208         1.5295
  33   0.0000       0.059419         1.6169

MULLIKEN ATOMIC CHARGES
-----------------------
   0 C :   -0.130130
   1 O :   -0.403542
   2 S :    0.785596
   3 O :   -0.399368
   4 O :   -0.399338
   5 C :   -0.340397
   6 H :    0.126188
   7 H :    0.135447
   8 H :    0.126111
   9 H :    0.169046
  10 H :    0.165292
  11 H :    0.165096
Sum of atomic charges:   -0.0000000

LOEWDIN ATOMIC CHARGES
----------------------
   0 C :   -0.236988
   1 O :   -0.299465
   2 S :    1.116282
   3 O :   -0.457749
   4 O :   -0.457779
   5 C :   -0.471629
   6 H :    0.115293
   7 H :    0.127480
   8 H :    0.115270
   9 H :    0.150914
  10 H :    0.149229
  11 H :    0.149142

  Mayer bond orders larger than 0.100000
B(  0-C ,  1-O ) :   0.9303 B(  0-C ,  6-H ) :   0.9454 B(  0-C ,  7-H ) :   0.9575
B(  0-C ,  8-H ) :   0.9454 B(  1-O ,  2-S ) :   0.9461 B(  2-S ,  3-O ) :   1.7800
B(  2-S ,  4-O ) :   1.7800 B(  2-S ,  5-C ) :   0.9017 B(  5-C ,  9-H ) :   0.9307
B(  5-C , 10-H ) :   0.9337 B(  5-C , 11-H ) :   0.9336

Dispersion correction           -0.010073668
FINAL SINGLE POINT ENERGY      -702.673700771632

DIPOLE MOMENT
-------------

Method             : SCF
Type of density    : Electron Density
Multiplicity       :   1
Irrep              :   0
Energy             :  -702.7242879011129162 Eh
Relativity type    :
Basis              : AO
                                X                 Y                 Z
Electronic contribution:      2.307336618       1.742769099      -1.135783455
Nuclear contribution   :     -2.693680224      -2.678821285       1.489969038
                        -----------------------------------------
Total Dipole Moment    :     -0.386343606      -0.936052186       0.354185583
                        -----------------------------------------
Magnitude (a.u.)       :      1.072801242
Magnitude (Debye)      :      2.726844050

Rotational constants in cm-1:             0.151917             0.088269             0.084307
Rotational constants in MHz :          4554.370305          2646.226813          2527.464309

                             ****ORCA TERMINATED NORMALLY****
TOTAL RUN TIME: 0 days 0 hours 0 minutes 4 seconds 26 msec
