                         Program Version 6.0.1  -  RELEASE   -
|  1> ! pbe def2-sv(p) def2/J RI DEFGRID1 loosescf d4 GCP(DFT/SV(P)) printgap
|  2> %output
|  3>     printlevel normal
|  4> end
|  5> * xyz 0 1
|  6> C -2.4827003627 -0.4698701088 -0.2849164255
|  7> C -1.0626322382 -0.20423076 0.2289329984
|  8> H -1.0362782758 -0.3763570116 1.3197981769
|  9> C -0.6256116145 1.2549097635 -0.0231950453
| 10> H -1.2499038699 1.69926827 -0.8115385904
| 11> C 0.8456826753 1.2932381516 -0.5128413597
| 12> H 1.2354227622 2.3102944598 -0.3760898327
| 13> C 1.6801411815 0.3206396458 0.3386069351
| 14> H 2.7130401555 0.2976015691 -0.0236763432
| 15> C 1.1120711165 -1.1114204791 0.1571404101
| 16> H 1.0737584313 -1.5985348212 1.1542738589
| 17> O -0.1878730421 -1.1081573652 -0.4048209836
| 18> O 1.9307091075 -1.8014474124 -0.7171451846
| 19> O 1.7276145841 0.7110421878 1.6821432618
| 20> O 0.9341933596 1.0245183699 -1.8800721462
| 21> O -0.7930781305 1.9488432292 1.1979164377
| 22> O -3.0003711525 -1.7018863955 0.1269164991
| 23> H -2.4642601303 -0.5048897433 -1.3758981819
| 24> H -3.124754219 0.3599164963 0.0441500938
| 25> H 1.5053423766 -2.6380754621 -0.9434492689
| 26> H 0.8518411885 1.0315701565 1.949460531
| 27> H 0.7638064265 0.0819657929 -2.0170547991
| 28> H -0.6165224328 2.8866395409 1.0585259693
| 29> H -3.0013232028 -1.7419466781 1.0903798776
| 30> *
| 31>
| 32>                          ****END OF INPUT****

CARTESIAN COORDINATES (ANGSTROEM)
---------------------------------
  C     -2.482700   -0.469870   -0.284916
  C     -1.062632   -0.204231    0.228933
  H     -1.036278   -0.376357    1.319798
  C     -0.625612    1.254910   -0.023195
  H     -1.249904    1.699268   -0.811539
  C      0.845683    1.293238   -0.512841
  H      1.235423    2.310294   -0.376090
  C      1.680141    0.320640    0.338607
  H      2.713040    0.297602   -0.023676
  C      1.112071   -1.111420    0.157140
  H      1.073758   -1.598535    1.154274
  O     -0.187873   -1.108157   -0.404821
  O      1.930709   -1.801447   -0.717145
  O      1.727615    0.711042    1.682143
  O      0.934193    1.024518   -1.880072
  O     -0.793078    1.948843    1.197916
  O     -3.000371   -1.701886    0.126916
  H     -2.464260   -0.504890   -1.375898
  H     -3.124754    0.359916    0.044150
  H      1.505342   -2.638075   -0.943449
  H      0.851841    1.031570    1.949461
  H      0.763806    0.081966   -2.017055
  H     -0.616522    2.886640    1.058526
  H     -3.001323   -1.741947    1.090380

 Total Charge           Charge          ....    0
 Multiplicity           Mult            ....    1
 Number of Electrons    NEL             ....   96
 Basis Dimension        Dim             ....  192

ORBITAL ENERGIES
----------------

  NO   OCC          E(Eh)            E(eV)
   0   2.0000     -18.785682      -511.1844
   1   2.0000     -18.782299      -511.0923
   2   2.0000     -18.770514      -510.7717
   3   2.0000     -18.753288      -510.3029
   4   2.0000     -18.748609      -510.1756
   5   2.0000     -18.745156      -510.0816
   6   2.0000      -9.989390      -271.8251
   7   2.0000      -9.958223      -270.9770
   8   2.0000      -9.955408      -270.9004
   9   2.0000      -9.946819      -270.6667
  10   2.0000      -9.943015      -270.5632
  11   2.0000      -9.938760      -270.4474
  12   2.0000      -0.997205       -27.1353
  13   2.0000      -0.961326       -26.1590
  14   2.0000      -0.937391       -25.5077
  15   2.0000      -0.932538       -25.3756
  16   2.0000      -0.923372       -25.1262
  17   2.0000      -0.921178       -25.0665
  18   2.0000      -0.712027       -19.3752
  19   2.0000      -0.685887       -18.6639
  20   2.0000      -0.627837       -17.0843
  21   2.0000      -0.595419       -16.2022
  22   2.0000      -0.573941       -15.6177
  23   2.0000      -0.527358       -14.3501
  24   2.0000      -0.513608       -13.9760
  25   2.0000      -0.500744       -13.6259
  26   2.0000      -0.488739       -13.2993
  27   2.0000      -0.483621       -13.1600
  28   2.0000      -0.447438       -12.1754
  29   2.0000      -0.434750       -11.8301
  30   2.0000      -0.413618       -11.2551
  31   2.0000      -0.407622       -11.0919
  32   2.0000      -0.389482       -10.5983
  33   2.0000      -0.377552       -10.2737
  34   2.0000      -0.361896        -9.8477
  35   2.0000      -0.355750        -9.6804
  36   2.0000      -0.338193        -9.2027
  37   2.0000      -0.326479        -8.8839
  38   2.0000      -0.318114        -8.6563
  39   2.0000      -0.314143        -8.5483
  40   2.0000      -0.284082        -7.7303
  41   2.0000      -0.275627        -7.5002
  42   2.0000      -0.266816        -7.2604
  43   2.0000      -0.253178        -6.8893
  44   2.0000      -0.243589        -6.6284
  45   2.0000      -0.226514        -6.1637
  46   2.0000      -0.213945        -5.8217
  47   2.0000      -0.204444        -5.5632
  48   0.0000       0.004678         0.1273
  49   0.0000       0.019175         0.5218
  50   0.0000       0.028629         0.7790
  51   0.0000       0.048247         1.3129
  52   0.0000       0.053761         1.4629

MULLIKEN ATOMIC CHARGES
-----------------------
   0 C :    0.072357
   1 C :    0.011464
   2 H :    0.047504
   3 C :    0.000336
   4 H :    0.073515
   5 C :    0.022582
   6 H :    0.066205
   7 C :    0.045167
   8 H :    0.093232
   9 C :    0.176777
  10 H :    0.057955
  11 O :   -0.308565
  12 O :   -0.378866
  13 O :   -0.423721
  14 O :   -0.408594
  15 O :   -0.414183
  16 O :   -0.422645
  17 H :    0.092074
  18 H :    0.087133
  19 H :    0.306924
  20 H :    0.296027
  21 H :    0.299584
  22 H :    0.312377
  23 H :    0.295363
Sum of atomic charges:    0.0000000

LOEWDIN ATOMIC CHARGES
----------------------
   0 C :   -0.126074
   1 C :   -0.074113
   2 H :    0.099634
   3 C :   -0.083179
   4 H :    0.109365
   5 C :   -0.082243
   6 H :    0.111796
   7 C :   -0.085235
   8 H :    0.126597
   9 C :   -0.005584
  10 H :    0.087124
  11 O :   -0.154859
  12 O :   -0.290969
  13 O :   -0.317598
  14 O :   -0.308338
  15 O :   -0.309581
  16 O :   -0.327346
  17 H :    0.121409
  18 H :    0.102766
  19 H :    0.290200
  20 H :    0.266724
  21 H :    0.273393
  22 H :    0.292754
  23 H :    0.283357

  Mayer bond orders larger than 0.100000
B(  0-C ,  1-C ) :   1.0395 B(  0-C , 16-O ) :   1.0880 B(  0-C , 17-H ) :   0.9042
B(  0-C , 18-H ) :   0.9201 B(  1-C ,  2-H ) :   0.8622 B(  1-C ,  3-C ) :   0.9752
B(  1-C , 11-O ) :   1.0366 B(  3-C ,  4-H ) :   0.8876 B(  3-C ,  5-C ) :   0.9650
B(  3-C , 15-O ) :   1.0160 B(  5-C ,  6-H ) :   0.8951 B(  5-C ,  7-C ) :   1.0014
B(  5-C , 14-O ) :   1.0705 B(  7-C ,  8-H ) :   0.8894 B(  7-C ,  9-C ) :   0.9345
B(  7-C , 13-O ) :   1.0752 B(  9-C , 10-H ) :   0.8950 B(  9-C , 11-O ) :   0.9887
B(  9-C , 12-O ) :   1.1501 B( 12-O , 19-H ) :   0.8401 B( 13-O , 20-H ) :   0.8092
B( 14-O , 21-H ) :   0.8301 B( 15-O , 20-H ) :   0.1110 B( 15-O , 22-H ) :   0.8393
B( 16-O , 23-H ) :   0.8529

Dispersion correction           -0.024869608
FINAL SINGLE POINT ENERGY      -685.691684914631

DIPOLE MOMENT
-------------

Method             : SCF
Type of density    : Electron Density
Multiplicity       :   1
Irrep              :   0
Energy             :  -685.8241762020019223 Eh
Relativity type    :
Basis              : AO
                                X                 Y                 Z
Electronic contribution:      2.343289505      -1.404997639      -0.545797617
Nuclear contribution   :     -3.133656609       1.681963662       1.002865827
                        -----------------------------------------
Total Dipole Moment    :     -0.790367104       0.276966023       0.457068210
                        -----------------------------------------
Magnitude (a.u.)       :      0.954097314
Magnitude (Debye)      :      2.425122646

Rotational constants in cm-1:             0.038523             0.026957             0.021718
Rotational constants in MHz :          1154.885062           808.137587           651.090152

                             ****ORCA TERMINATED NORMALLY****
TOTAL RUN TIME: 0 days 0 hours 0 minutes 8 seconds 956 msec
