                         Program Version 6.0.1  -  RELEASE   -
|  1> ! r2scan-3c def2/J RI DEFGRID2 scfconv6 printgap
|  2> %output
|  3>     printlevel normal
|  4> end
|  5> * xyz 0 1
|  6> C -1.5776220665 0.8930540913 0.2942086111
|  7> C -1.3254612968 -0.4789424238 -0.316972047
|  8> C 0.0806933254 -1.0030114977 -0.3840218746
|  9> C 1.2642149429 -0.4830231115 -0.0937578186
| 10> C 1.6485523211 0.8664648988 0.4217781499
| 11> H -2.6513277264 1.0616201148 0.3660432832
| 12> H -1.159577473 1.6828345197 -0.3245203274
| 13> H -1.1580669871 0.9555237499 1.2949108769
| 14> H -1.9059575935 -1.2185916047 0.2463306919
| 15> H -1.7250409434 -0.4888943228 -1.3377410704
| 16> H 0.086312022 -2.0258249934 -0.7492436139
| 17> H 2.1228454475 -1.1318478939 -0.2335267343
| 18> H 0.8480049253 1.5913655798 0.3624383941
| 19> H 2.4991406626 1.2397825824 -0.1483244633
| 20> H 1.9666552023 0.782446349 1.4622639434
| 21> *
| 22>
| 23>                          ****END OF INPUT****

CARTESIAN COORDINATES (ANGSTROEM)
---------------------------------
  C     -1.577622    0.893054    0.294209
  C     -1.325461   -0.478942   -0.316972
  C      0.080693   -1.003011   -0.384022
  C      1.264215   -0.483023   -0.093758
  C      1.648552    0.866465    0.421778
  H     -2.651328    1.061620    0.366043
  H     -1.159577    1.682835   -0.324520
  H     -1.158067    0.955524    1.294911
  H     -1.905958   -1.218592    0.246331
  H     -1.725041   -0.488894   -1.337741
  H      0.086312   -2.025825   -0.749244
  H      2.122845   -1.131848   -0.233527
  H      0.848005    1.591366    0.362438
  H      2.499141    1.239783   -0.148324
  H      1.966655    0.782446    1.462264

 Total Charge           Charge          ....    0
 Multiplicity           Mult            ....    1
 Number of Electrons    NEL             ....   40
 Basis Dimension        Dim             ....  145

ORBITAL ENERGIES
----------------

  NO   OCC          E(Eh)            E(eV)
   0   2.0000     -10.031602      -272.9738
   1   2.0000     -10.023166      -272.7442
   2   2.0000     -10.021453      -272.6976
   3   2.0000     -10.019335      -272.6400
   4   2.0000     -10.018324      -272.6125
   5   2.0000      -0.768900       -20.9228
   6   2.0000      -0.716216       -19.4892
   7   2.0000      -0.655760       -17.8441
   8   2.0000      -0.586052       -15.9473
   9   2.0000      -0.485996       -13.2246
  10   2.0000      -0.438442       -11.9306
  11   2.0000      -0.418273       -11.3818
  12   2.0000      -0.387483       -10.5440
  13   2.0000      -0.377059       -10.2603
  14   2.0000      -0.358130        -9.7452
  15   2.0000      -0.352259        -9.5855
  16   2.0000      -0.325104        -8.8465
  17   2.0000      -0.305005        -8.2996
  18   2.0000      -0.284077        -7.7301
  19   2.0000      -0.216603        -5.8941
  20   0.0000       0.006043         0.1644
  21   0.0000       0.084032         2.2866
  22   0.0000       0.119219         3.2441
  23   0.0000       0.126941         3.4543
  24   0.0000       0.140974         3.8361

MULLIKEN ATOMIC CHARGES
-----------------------
   0 C :   -0.516603
   1 C :   -0.200263
   2 C :   -0.174989
   3 C :   -0.108452
   4 C :   -0.474914
   5 H :    0.143958
   6 H :    0.148671
   7 H :    0.157475
   8 H :    0.139495
   9 H :    0.143417
  10 H :    0.143664
  11 H :    0.143607
  12 H :    0.155912
  13 H :    0.143896
  14 H :    0.155126
Sum of atomic charges:   -0.0000000

LOEWDIN ATOMIC CHARGES
----------------------
   0 C :   -0.426208
   1 C :   -0.302894
   2 C :   -0.212383
   3 C :   -0.216629
   4 C :   -0.413262
   5 H :    0.150911
   6 H :    0.149097
   7 H :    0.153280
   8 H :    0.159874
   9 H :    0.161305
  10 H :    0.162166
  11 H :    0.159861
  12 H :    0.158107
  13 H :    0.156463
  14 H :    0.160312

  Mayer bond orders larger than 0.100000
B(  0-C ,  1-C ) :   0.8838 B(  0-C ,  5-H ) :   0.9696 B(  0-C ,  6-H ) :   0.9781
B(  0-C ,  7-H ) :   0.9822 B(  1-C ,  2-C ) :   0.9415 B(  1-C ,  8-H ) :   0.9717
B(  1-C ,  9-H ) :   0.9640 B(  2-C ,  3-C ) :   1.9383 B(  2-C , 10-H ) :   0.9353
B(  3-C ,  4-C ) :   0.9025 B(  3-C , 11-H ) :   0.9424 B(  4-C , 12-H ) :   0.9848
B(  4-C , 13-H ) :   0.9682 B(  4-C , 14-H ) :   0.9670

Dispersion correction           -0.003376563
FINAL SINGLE POINT ENERGY      -196.454548406322

DIPOLE MOMENT
-------------

Method             : SCF
Type of density    : Electron Density
Multiplicity       :   1
Irrep              :   0
Energy             :  -196.4576153946237866 Eh
Relativity type    :
Basis              : AO
                                X                 Y                 Z
Electronic contribution:      0.913580238      -2.217288887      -0.846593365
Nuclear contribution   :     -1.010413287       2.297011596       0.880588893
                        -----------------------------------------
Total Dipole Moment    :     -0.096833048       0.079722709       0.033995529
                        -----------------------------------------
Magnitude (a.u.)       :      0.129954013
Magnitude (Debye)      :      0.330316851

Rotational constants in cm-1:             0.257513             0.120277             0.085967
Rotational constants in MHz :          7720.035941          3605.822648          2577.221938

                             ****ORCA TERMINATED NORMALLY****
TOTAL RUN TIME: 0 days 0 hours 0 minutes 9 seconds 706 msec
