                         Program Version 6.0.1  -  RELEASE   -
|  1> ! pbe def2-sv(p) def2/J RI DEFGRID1 loosescf d4 GCP(DFT/SV(P)) printgap
|  2> %output
|  3>     printlevel normal
|  4> end
|  5> * xyz 0 1
|  6> C -2.3365631693 -1.0399119343 0.3978177578
|  7> C -1.0670723189 -0.2742323331 0.8228329732
|  8> H -1.279146997 0.1907124784 1.7936840104
|  9> C -0.6830825857 0.8409047481 -0.1553311487
| 10> H -0.7056043589 0.4738914727 -1.1969155281
| 11> C 0.7550289039 1.2924045421 0.1547743839
| 12> H 0.8314327011 1.5662103976 1.2125176428
| 13> C 1.731213757 0.1396013674 -0.1120659095
| 14> H 2.0623752954 0.1774824482 -1.1644771057
| 15> C 0.9996866454 -1.2173564123 0.0672610734
| 16> H 1.7173053702 -1.9632663355 0.4543572598
| 17> O 0.0105425101 -1.1778712706 1.0467097279
| 18> O 0.5244434021 -1.6145110843 -1.1845988459
| 19> O 2.818334148 0.2876490363 0.7587480222
| 20> O 1.0473803006 2.4672291386 -0.5577973859
| 21> O -1.5823508339 1.9104869969 -0.0211144043
| 22> O -2.2341625311 -1.6619205238 -0.863085964
| 23> H -3.1819197976 -0.3456148098 0.4288216504
| 24> H -2.5003299132 -1.8473800815 1.1143644257
| 25> H -0.331882993 -2.0673801423 -1.0633675661
| 26> H 3.4427341879 -0.4343698488 0.6246260766
| 27> H 1.2194885171 2.2469000005 -1.4816534475
| 28> H -1.0714808439 2.7251508775 -0.1424936192
| 29> H -2.3168391462 -0.9911580619 -1.5504617402
| 30> *
| 31>
| 32>                          ****END OF INPUT****

CARTESIAN COORDINATES (ANGSTROEM)
---------------------------------
  C     -2.336563   -1.039912    0.397818
  C     -1.067072   -0.274232    0.822833
  H     -1.279147    0.190712    1.793684
  C     -0.683083    0.840905   -0.155331
  H     -0.705604    0.473891   -1.196916
  C      0.755029    1.292405    0.154774
  H      0.831433    1.566210    1.212518
  C      1.731214    0.139601   -0.112066
  H      2.062375    0.177482   -1.164477
  C      0.999687   -1.217356    0.067261
  H      1.717305   -1.963266    0.454357
  O      0.010543   -1.177871    1.046710
  O      0.524443   -1.614511   -1.184599
  O      2.818334    0.287649    0.758748
  O      1.047380    2.467229   -0.557797
  O     -1.582351    1.910487   -0.021114
  O     -2.234163   -1.661921   -0.863086
  H     -3.181920   -0.345615    0.428822
  H     -2.500330   -1.847380    1.114364
  H     -0.331883   -2.067380   -1.063368
  H      3.442734   -0.434370    0.624626
  H      1.219489    2.246900   -1.481653
  H     -1.071481    2.725151   -0.142494
  H     -2.316839   -0.991158   -1.550462

 Total Charge           Charge          ....    0
 Multiplicity           Mult            ....    1
 Number of Electrons    NEL             ....   96
 Basis Dimension        Dim             ....  192

ORBITAL ENERGIES
----------------

  NO   OCC          E(Eh)            E(eV)
   0   2.0000     -18.778051      -510.9767
   1   2.0000     -18.771916      -510.8098
   2   2.0000     -18.768030      -510.7041
   3   2.0000     -18.755536      -510.3641
   4   2.0000     -18.750731      -510.2333
   5   2.0000     -18.749407      -510.1973
   6   2.0000      -9.985740      -271.7258
   7   2.0000      -9.949126      -270.7295
   8   2.0000      -9.948413      -270.7101
   9   2.0000      -9.945980      -270.6439
  10   2.0000      -9.945956      -270.6432
  11   2.0000      -9.941542      -270.5231
  12   2.0000      -0.986056       -26.8319
  13   2.0000      -0.955569       -26.0024
  14   2.0000      -0.948163       -25.8008
  15   2.0000      -0.933867       -25.4118
  16   2.0000      -0.921659       -25.0796
  17   2.0000      -0.905022       -24.6269
  18   2.0000      -0.709209       -19.2986
  19   2.0000      -0.695309       -18.9203
  20   2.0000      -0.627848       -17.0846
  21   2.0000      -0.593655       -16.1542
  22   2.0000      -0.573902       -15.6167
  23   2.0000      -0.529247       -14.4015
  24   2.0000      -0.513738       -13.9795
  25   2.0000      -0.479027       -13.0350
  26   2.0000      -0.475088       -12.9278
  27   2.0000      -0.456483       -12.4215
  28   2.0000      -0.447512       -12.1774
  29   2.0000      -0.442570       -12.0429
  30   2.0000      -0.423670       -11.5286
  31   2.0000      -0.408569       -11.1177
  32   2.0000      -0.397904       -10.8275
  33   2.0000      -0.385507       -10.4902
  34   2.0000      -0.367016        -9.9870
  35   2.0000      -0.356270        -9.6946
  36   2.0000      -0.332468        -9.0469
  37   2.0000      -0.315343        -8.5809
  38   2.0000      -0.307264        -8.3611
  39   2.0000      -0.302348        -8.2273
  40   2.0000      -0.290811        -7.9134
  41   2.0000      -0.277396        -7.5483
  42   2.0000      -0.266447        -7.2504
  43   2.0000      -0.249668        -6.7938
  44   2.0000      -0.233726        -6.3600
  45   2.0000      -0.227573        -6.1926
  46   2.0000      -0.218227        -5.9383
  47   2.0000      -0.205511        -5.5922
  48   0.0000       0.011443         0.3114
  49   0.0000       0.021343         0.5808
  50   0.0000       0.029083         0.7914
  51   0.0000       0.050508         1.3744
  52   0.0000       0.053238         1.4487

MULLIKEN ATOMIC CHARGES
-----------------------
   0 C :    0.065519
   1 C :    0.050003
   2 H :    0.074309
   3 C :    0.016566
   4 H :    0.025534
   5 C :    0.020217
   6 H :    0.081306
   7 C :    0.100305
   8 H :    0.051749
   9 C :    0.150802
  10 H :    0.045096
  11 O :   -0.302694
  12 O :   -0.429224
  13 O :   -0.403952
  14 O :   -0.414373
  15 O :   -0.415999
  16 O :   -0.435996
  17 H :    0.098603
  18 H :    0.099611
  19 H :    0.299342
  20 H :    0.300128
  21 H :    0.302534
  22 H :    0.302967
  23 H :    0.317644
Sum of atomic charges:    0.0000000

LOEWDIN ATOMIC CHARGES
----------------------
   0 C :   -0.130592
   1 C :   -0.070520
   2 H :    0.123614
   3 C :   -0.093615
   4 H :    0.086682
   5 C :   -0.069018
   6 H :    0.128574
   7 C :   -0.084540
   8 H :    0.101054
   9 C :   -0.005051
  10 H :    0.090228
  11 O :   -0.134099
  12 O :   -0.337100
  13 O :   -0.310700
  14 O :   -0.303599
  15 O :   -0.327325
  16 O :   -0.313365
  17 H :    0.115834
  18 H :    0.121227
  19 H :    0.268502
  20 H :    0.285161
  21 H :    0.285879
  22 H :    0.280856
  23 H :    0.291914

  Mayer bond orders larger than 0.100000
B(  0-C ,  1-C ) :   1.0375 B(  0-C , 16-O ) :   1.0409 B(  0-C , 17-H ) :   0.9179
B(  0-C , 18-H ) :   0.9190 B(  1-C ,  2-H ) :   0.8691 B(  1-C ,  3-C ) :   0.9681
B(  1-C , 11-O ) :   0.9706 B(  3-C ,  4-H ) :   0.8456 B(  3-C ,  5-C ) :   1.0496
B(  3-C , 15-O ) :   1.0972 B(  5-C ,  6-H ) :   0.8515 B(  5-C ,  7-C ) :   1.0160
B(  5-C , 14-O ) :   1.0198 B(  7-C ,  8-H ) :   0.8694 B(  7-C ,  9-C ) :   0.9712
B(  7-C , 13-O ) :   1.0937 B(  9-C , 10-H ) :   0.8957 B(  9-C , 11-O ) :   1.0943
B(  9-C , 12-O ) :   1.0715 B( 12-O , 19-H ) :   0.7774 B( 13-O , 20-H ) :   0.8465
B( 14-O , 21-H ) :   0.8466 B( 15-O , 22-H ) :   0.8196 B( 16-O , 19-H ) :   0.1296
B( 16-O , 23-H ) :   0.8361

Dispersion correction           -0.025155483
FINAL SINGLE POINT ENERGY      -685.694151039696

DIPOLE MOMENT
-------------

Method             : SCF
Type of density    : Electron Density
Multiplicity       :   1
Irrep              :   0
Energy             :  -685.8276432372688305 Eh
Relativity type    :
Basis              : AO
                                X                 Y                 Z
Electronic contribution:      1.987815570       0.221092562       0.318051714
Nuclear contribution   :     -1.974513337      -0.249073616      -0.923126007
                        -----------------------------------------
Total Dipole Moment    :      0.013302233      -0.027981054      -0.605074293
                        -----------------------------------------
Magnitude (a.u.)       :      0.605866973
Magnitude (Debye)      :      1.539991460

Rotational constants in cm-1:             0.042246             0.028415             0.020787
Rotational constants in MHz :          1266.499565           851.849236           623.192699

                             ****ORCA TERMINATED NORMALLY****
TOTAL RUN TIME: 0 days 0 hours 0 minutes 10 seconds 704 msec
