                         Program Version 6.0.1  -  RELEASE   -
|  1> ! pbe def2-sv(p) def2/J RI DEFGRID1 loosescf d4 GCP(DFT/SV(P)) printgap
|  2> %output
|  3>     printlevel normal
|  4> end
|  5> * xyz 0 1
|  6> C -2.0194795069 -0.6208154678 -0.6433102361
|  7> C -1.1625494714 -0.0960809457 0.5333910129
|  8> H -1.7927938261 -0.0423636952 1.4280776323
|  9> C -0.6241678794 1.3233121991 0.244998979
| 10> H -1.3624828024 1.8375670155 -0.3806316366
| 11> C 0.7175977685 1.3017428016 -0.5138206079
| 12> H 1.1582526299 2.3034513426 -0.4114845623
| 13> C 1.6752098265 0.2736825549 0.1325294868
| 14> H 2.6195064573 0.2379777544 -0.4263156059
| 15> C 1.0031756575 -1.1096561854 0.1219401592
| 16> H 1.6363541502 -1.8359130858 0.6515859835
| 17> O -0.1560132729 -1.0324064516 0.9198669262
| 18> O 0.7990430288 -1.6245733675 -1.1438460587
| 19> O 1.9567112137 0.6436849509 1.4631561202
| 20> O 0.4809913477 0.9984887225 -1.8757597874
| 21> O -0.510151069 2.0926676284 1.4120578478
| 22> O -2.2489788896 -1.9963327871 -0.5568907543
| 23> H -1.548510943 -0.35922548 -1.6023611565
| 24> H -2.9981035848 -0.1374508474 -0.6031851475
| 25> H 0.4476085901 -0.923040964 -1.7198450936
| 26> H 1.4594842748 0.0518989167 2.047355923
| 27> H 1.2489074058 1.2552185206 -2.398386991
| 28> H 0.3074751644 1.8472470541 1.8702241354
| 29> H -1.3923550883 -2.4326318621 -0.4439173943
| 30> *
| 31>
| 32>                          ****END OF INPUT****

CARTESIAN COORDINATES (ANGSTROEM)
---------------------------------
  C     -2.019480   -0.620815   -0.643310
  C     -1.162549   -0.096081    0.533391
  H     -1.792794   -0.042364    1.428078
  C     -0.624168    1.323312    0.244999
  H     -1.362483    1.837567   -0.380632
  C      0.717598    1.301743   -0.513821
  H      1.158253    2.303451   -0.411485
  C      1.675210    0.273683    0.132529
  H      2.619506    0.237978   -0.426316
  C      1.003176   -1.109656    0.121940
  H      1.636354   -1.835913    0.651586
  O     -0.156013   -1.032406    0.919867
  O      0.799043   -1.624573   -1.143846
  O      1.956711    0.643685    1.463156
  O      0.480991    0.998489   -1.875760
  O     -0.510151    2.092668    1.412058
  O     -2.248979   -1.996333   -0.556891
  H     -1.548511   -0.359225   -1.602361
  H     -2.998104   -0.137451   -0.603185
  H      0.447609   -0.923041   -1.719845
  H      1.459484    0.051899    2.047356
  H      1.248907    1.255219   -2.398387
  H      0.307475    1.847247    1.870224
  H     -1.392355   -2.432632   -0.443917

 Total Charge           Charge          ....    0
 Multiplicity           Mult            ....    1
 Number of Electrons    NEL             ....   96
 Basis Dimension        Dim             ....  192

ORBITAL ENERGIES
----------------

  NO   OCC          E(Eh)            E(eV)
   0   2.0000     -18.800326      -511.5829
   1   2.0000     -18.783772      -511.1324
   2   2.0000     -18.783574      -511.1270
   3   2.0000     -18.771421      -510.7963
   4   2.0000     -18.749540      -510.2009
   5   2.0000     -18.732834      -509.7463
   6   2.0000     -10.001672      -272.1593
   7   2.0000      -9.966997      -271.2158
   8   2.0000      -9.963385      -271.1175
   9   2.0000      -9.953884      -270.8589
  10   2.0000      -9.945666      -270.6353
  11   2.0000      -9.929602      -270.1982
  12   2.0000      -1.001495       -27.2521
  13   2.0000      -0.970328       -26.4040
  14   2.0000      -0.957989       -26.0682
  15   2.0000      -0.934222       -25.4215
  16   2.0000      -0.924646       -25.1609
  17   2.0000      -0.909602       -24.7515
  18   2.0000      -0.715866       -19.4797
  19   2.0000      -0.700777       -19.0691
  20   2.0000      -0.623092       -16.9552
  21   2.0000      -0.609850       -16.5949
  22   2.0000      -0.576406       -15.6848
  23   2.0000      -0.538116       -14.6429
  24   2.0000      -0.530613       -14.4387
  25   2.0000      -0.497810       -13.5461
  26   2.0000      -0.487760       -13.2726
  27   2.0000      -0.463039       -12.5999
  28   2.0000      -0.458371       -12.4729
  29   2.0000      -0.443850       -12.0778
  30   2.0000      -0.418271       -11.3817
  31   2.0000      -0.411323       -11.1927
  32   2.0000      -0.397720       -10.8225
  33   2.0000      -0.390038       -10.6135
  34   2.0000      -0.372403       -10.1336
  35   2.0000      -0.359913        -9.7937
  36   2.0000      -0.347642        -9.4598
  37   2.0000      -0.332085        -9.0365
  38   2.0000      -0.315028        -8.5723
  39   2.0000      -0.308251        -8.3879
  40   2.0000      -0.295711        -8.0467
  41   2.0000      -0.282643        -7.6911
  42   2.0000      -0.274708        -7.4752
  43   2.0000      -0.262043        -7.1305
  44   2.0000      -0.249586        -6.7916
  45   2.0000      -0.228781        -6.2255
  46   2.0000      -0.223352        -6.0777
  47   2.0000      -0.201315        -5.4781
  48   0.0000      -0.012216        -0.3324
  49   0.0000       0.016173         0.4401
  50   0.0000       0.050462         1.3731
  51   0.0000       0.055546         1.5115
  52   0.0000       0.060960         1.6588

MULLIKEN ATOMIC CHARGES
-----------------------
   0 C :    0.006399
   1 C :    0.026192
   2 H :    0.083495
   3 C :    0.067740
   4 H :    0.087159
   5 C :   -0.001677
   6 H :    0.093099
   7 C :    0.024488
   8 H :    0.078211
   9 C :    0.157785
  10 H :    0.085488
  11 O :   -0.324523
  12 O :   -0.402264
  13 O :   -0.415844
  14 O :   -0.410418
  15 O :   -0.417536
  16 O :   -0.433245
  17 H :    0.075934
  18 H :    0.091513
  19 H :    0.311919
  20 H :    0.311563
  21 H :    0.318843
  22 H :    0.287419
  23 H :    0.298262
Sum of atomic charges:   -0.0000000

LOEWDIN ATOMIC CHARGES
----------------------
   0 C :   -0.146236
   1 C :   -0.079421
   2 H :    0.124040
   3 C :   -0.065008
   4 H :    0.124877
   5 C :   -0.079036
   6 H :    0.114821
   7 C :   -0.092915
   8 H :    0.111473
   9 C :   -0.018128
  10 H :    0.111292
  11 O :   -0.148899
  12 O :   -0.298990
  13 O :   -0.306676
  14 O :   -0.303985
  15 O :   -0.315644
  16 O :   -0.332948
  17 H :    0.089410
  18 H :    0.119692
  19 H :    0.271704
  20 H :    0.282586
  21 H :    0.299502
  22 H :    0.267641
  23 H :    0.270848

  Mayer bond orders larger than 0.100000
B(  0-C ,  1-C ) :   1.0281 B(  0-C , 16-O ) :   1.0949 B(  0-C , 17-H ) :   0.8999
B(  0-C , 18-H ) :   0.9128 B(  1-C ,  2-H ) :   0.8921 B(  1-C ,  3-C ) :   0.9762
B(  1-C , 11-O ) :   0.9900 B(  3-C ,  4-H ) :   0.8913 B(  3-C ,  5-C ) :   0.9890
B(  3-C , 15-O ) :   1.0641 B(  5-C ,  6-H ) :   0.9034 B(  5-C ,  7-C ) :   0.9572
B(  5-C , 14-O ) :   1.0146 B(  7-C ,  8-H ) :   0.8979 B(  7-C ,  9-C ) :   1.0046
B(  7-C , 13-O ) :   1.0548 B(  9-C , 10-H ) :   0.9114 B(  9-C , 11-O ) :   1.0077
B(  9-C , 12-O ) :   1.1452 B( 12-O , 19-H ) :   0.7798 B( 13-O , 20-H ) :   0.8137
B( 13-O , 22-H ) :   0.1035 B( 14-O , 19-H ) :   0.1189 B( 14-O , 21-H ) :   0.8357
B( 15-O , 22-H ) :   0.8150 B( 16-O , 23-H ) :   0.8281

Dispersion correction           -0.026546956
FINAL SINGLE POINT ENERGY      -685.695834003992

DIPOLE MOMENT
-------------

Method             : SCF
Type of density    : Electron Density
Multiplicity       :   1
Irrep              :   0
Energy             :  -685.8323059456970441 Eh
Relativity type    :
Basis              : AO
                                X                 Y                 Z
Electronic contribution:      1.376435017      -1.063524432       1.388044376
Nuclear contribution   :     -0.198497285       1.677665112      -1.862673241
                        -----------------------------------------
Total Dipole Moment    :      1.177937733       0.614140680      -0.474628865
                        -----------------------------------------
Magnitude (a.u.)       :      1.410666026
Magnitude (Debye)      :      3.585628083

Rotational constants in cm-1:             0.041498             0.029319             0.025985
Rotational constants in MHz :          1244.085469           878.971742           778.999350

                             ****ORCA TERMINATED NORMALLY****
TOTAL RUN TIME: 0 days 0 hours 1 minutes 30 seconds 494 msec
