                         Program Version 6.0.1  -  RELEASE   -
|  1> ! pbe def2-sv(p) def2/J RI DEFGRID1 loosescf d4 GCP(DFT/SV(P)) printgap
|  2> %output
|  3>     printlevel normal
|  4> end
|  5> * xyz 0 1
|  6> C -1.5622867017 0.9173168328 0.2382226553
|  7> C -1.3286953399 -0.5145899266 -0.2253999949
|  8> C 0.0813734215 -1.0056610168 -0.3888166414
|  9> C 1.2659165779 -0.4701436475 -0.1328857695
| 10> C 1.6348496686 0.862565967 0.4374636886
| 11> H -1.0264053941 1.6216795771 -0.3920743085
| 12> H -1.2553420687 1.0520507099 1.2720756186
| 13> H -2.6252793262 1.1459017656 0.1759656067
| 14> H -1.8352946641 -1.1975521408 0.4663135713
| 15> H -1.8169728932 -0.6458946573 -1.1979824314
| 16> H 0.0899918889 -2.005595957 -0.8121758058
| 17> H 2.1320004471 -1.0717825862 -0.3872577418
| 18> H 0.8393396963 1.3078673202 1.0208458807
| 19> H 1.8997789594 1.5487131905 -0.3686933531
| 20> H 2.5118709712 0.7532516545 1.0740379483
| 21> *
| 22>
| 23>                          ****END OF INPUT****

CARTESIAN COORDINATES (ANGSTROEM)
---------------------------------
  C     -1.562287    0.917317    0.238223
  C     -1.328695   -0.514590   -0.225400
  C      0.081373   -1.005661   -0.388817
  C      1.265917   -0.470144   -0.132886
  C      1.634850    0.862566    0.437464
  H     -1.026405    1.621680   -0.392074
  H     -1.255342    1.052051    1.272076
  H     -2.625279    1.145902    0.175966
  H     -1.835295   -1.197552    0.466314
  H     -1.816973   -0.645895   -1.197982
  H      0.089992   -2.005596   -0.812176
  H      2.132000   -1.071783   -0.387258
  H      0.839340    1.307867    1.020846
  H      1.899779    1.548713   -0.368693
  H      2.511871    0.753252    1.074038

 Total Charge           Charge          ....    0
 Multiplicity           Mult            ....    1
 Number of Electrons    NEL             ....   40
 Basis Dimension        Dim             ....   90

ORBITAL ENERGIES
----------------

  NO   OCC          E(Eh)            E(eV)
   0   2.0000      -9.888418      -269.0775
   1   2.0000      -9.879960      -268.8474
   2   2.0000      -9.879395      -268.8320
   3   2.0000      -9.874241      -268.6918
   4   2.0000      -9.874101      -268.6880
   5   2.0000      -0.719679       -19.5835
   6   2.0000      -0.670009       -18.2319
   7   2.0000      -0.613938       -16.7061
   8   2.0000      -0.549712       -14.9584
   9   2.0000      -0.458716       -12.4823
  10   2.0000      -0.419155       -11.4058
  11   2.0000      -0.401652       -10.9295
  12   2.0000      -0.371238       -10.1019
  13   2.0000      -0.361360        -9.8331
  14   2.0000      -0.343541        -9.3482
  15   2.0000      -0.336380        -9.1534
  16   2.0000      -0.312305        -8.4983
  17   2.0000      -0.292891        -7.9700
  18   2.0000      -0.273013        -7.4291
  19   2.0000      -0.207149        -5.6368
  20   0.0000       0.000142         0.0039
  21   0.0000       0.037457         1.0193
  22   0.0000       0.065881         1.7927
  23   0.0000       0.071317         1.9406
  24   0.0000       0.093244         2.5373

MULLIKEN ATOMIC CHARGES
-----------------------
   0 C :   -0.288147
   1 C :   -0.136941
   2 C :   -0.139822
   3 C :   -0.171870
   4 C :   -0.224863
   5 H :    0.112776
   6 H :    0.119488
   7 H :    0.097792
   8 H :    0.096264
   9 H :    0.091963
  10 H :    0.061208
  11 H :    0.062563
  12 H :    0.104966
  13 H :    0.113868
  14 H :    0.100756
Sum of atomic charges:    0.0000000

LOEWDIN ATOMIC CHARGES
----------------------
   0 C :   -0.342828
   1 C :   -0.232107
   2 C :   -0.153600
   3 C :   -0.160111
   4 C :   -0.342837
   5 H :    0.121000
   6 H :    0.119427
   7 H :    0.120005
   8 H :    0.127076
   9 H :    0.126123
  10 H :    0.118573
  11 H :    0.118700
  12 H :    0.124440
  13 H :    0.130763
  14 H :    0.125375

  Mayer bond orders larger than 0.100000
B(  0-C ,  1-C ) :   1.1661 B(  0-C ,  5-H ) :   0.9515 B(  0-C ,  6-H ) :   0.9422
B(  0-C ,  7-H ) :   0.9434 B(  1-C ,  2-C ) :   1.0864 B(  1-C ,  8-H ) :   0.9075
B(  1-C ,  9-H ) :   0.9099 B(  2-C ,  3-C ) :   2.0380 B(  2-C , 10-H ) :   0.9133
B(  3-C ,  4-C ) :   1.1132 B(  3-C , 11-H ) :   0.9154 B(  4-C , 12-H ) :   0.9377
B(  4-C , 13-H ) :   0.9320 B(  4-C , 14-H ) :   0.9369

Dispersion correction           -0.010176206
FINAL SINGLE POINT ENERGY      -196.025671894028

DIPOLE MOMENT
-------------

Method             : SCF
Type of density    : Electron Density
Multiplicity       :   1
Irrep              :   0
Energy             :  -196.0736424404657612 Eh
Relativity type    :
Basis              : AO
                                X                 Y                 Z
Electronic contribution:      0.929934293      -2.276382091      -0.787768037
Nuclear contribution   :     -1.019138128       2.353512274       0.798428332
                        -----------------------------------------
Total Dipole Moment    :     -0.089203834       0.077130182       0.010660294
                        -----------------------------------------
Magnitude (a.u.)       :      0.118406211
Magnitude (Debye)      :      0.300964671

Rotational constants in cm-1:             0.256425             0.121492             0.086452
Rotational constants in MHz :          7687.420980          3642.224715          2591.766430

                             ****ORCA TERMINATED NORMALLY****
TOTAL RUN TIME: 0 days 0 hours 0 minutes 6 seconds 188 msec
