                         Program Version 6.0.1  -  RELEASE   -
|  1> ! r2scan-3c def2/J RI DEFGRID2 scfconv6 printgap
|  2> %output
|  3>     printlevel normal
|  4> end
|  5> * xyz 0 1
|  6> C 1.13081703 -1.5397773304 0.1225657779
|  7> C 0.7160277348 -0.1009700511 0.4058884231
|  8> C 1.6342082294 0.8827220725 -0.3280113115
|  9> C -0.7305803503 0.2499112171 0.0713488381
| 10> O -1.1364752478 1.3768571746 0.2149114159
| 11> C -1.6237063057 -0.854418052 -0.4291100856
| 12> H 2.166431651 -1.6811891517 0.4252722453
| 13> H 0.5212103075 -2.2502766024 0.6747267947
| 14> H 1.0601764597 -1.7661576797 -0.9388298465
| 15> H 0.8170208625 0.0887973832 1.4823264133
| 16> H 1.3086211939 1.9029008117 -0.1427095724
| 17> H 1.6026076984 0.6981310658 -1.4001085867
| 18> H 2.6606511405 0.7723250417 0.0129443219
| 19> H -1.7037102307 -1.6366579293 0.3219583136
| 20> H -1.2077854245 -1.2926328186 -1.332707746
| 21> H -2.6123338959 -0.4543641401 -0.6396348231
| 22> *
| 23>
| 24>                          ****END OF INPUT****

CARTESIAN COORDINATES (ANGSTROEM)
---------------------------------
  C      1.130817   -1.539777    0.122566
  C      0.716028   -0.100970    0.405888
  C      1.634208    0.882722   -0.328011
  C     -0.730580    0.249911    0.071349
  O     -1.136475    1.376857    0.214911
  C     -1.623706   -0.854418   -0.429110
  H      2.166432   -1.681189    0.425272
  H      0.521210   -2.250277    0.674727
  H      1.060176   -1.766158   -0.938830
  H      0.817021    0.088797    1.482326
  H      1.308621    1.902901   -0.142710
  H      1.602608    0.698131   -1.400109
  H      2.660651    0.772325    0.012944
  H     -1.703710   -1.636658    0.321958
  H     -1.207785   -1.292633   -1.332708
  H     -2.612334   -0.454364   -0.639635

 Total Charge           Charge          ....    0
 Multiplicity           Mult            ....    1
 Number of Electrons    NEL             ....   48
 Basis Dimension        Dim             ....  169

ORBITAL ENERGIES
----------------

  NO   OCC          E(Eh)            E(eV)
   0   2.0000     -18.935416      -515.2589
   1   2.0000     -10.116567      -275.2858
   2   2.0000     -10.047175      -273.3975
   3   2.0000     -10.033627      -273.0289
   4   2.0000     -10.030207      -272.9358
   5   2.0000     -10.023798      -272.7614
   6   2.0000      -1.007654       -27.4196
   7   2.0000      -0.778350       -21.1800
   8   2.0000      -0.709037       -19.2939
   9   2.0000      -0.658988       -17.9320
  10   2.0000      -0.593407       -16.1474
  11   2.0000      -0.492664       -13.4061
  12   2.0000      -0.447760       -12.1842
  13   2.0000      -0.436117       -11.8674
  14   2.0000      -0.414305       -11.2738
  15   2.0000      -0.397777       -10.8241
  16   2.0000      -0.376281       -10.2391
  17   2.0000      -0.368427       -10.0254
  18   2.0000      -0.361310        -9.8317
  19   2.0000      -0.346911        -9.4399
  20   2.0000      -0.328014        -8.9257
  21   2.0000      -0.313975        -8.5437
  22   2.0000      -0.303217        -8.2509
  23   2.0000      -0.211487        -5.7549
  24   0.0000      -0.044541        -1.2120
  25   0.0000       0.076765         2.0889
  26   0.0000       0.118408         3.2221
  27   0.0000       0.122876         3.3436
  28   0.0000       0.130179         3.5424

MULLIKEN ATOMIC CHARGES
-----------------------
   0 C :   -0.507909
   1 C :   -0.024623
   2 C :   -0.487688
   3 C :    0.265675
   4 O :   -0.352749
   5 C :   -0.488741
   6 H :    0.151332
   7 H :    0.144736
   8 H :    0.158018
   9 H :    0.164827
  10 H :    0.180240
  11 H :    0.146646
  12 H :    0.148411
  13 H :    0.167578
  14 H :    0.156627
  15 H :    0.177621
Sum of atomic charges:    0.0000000

LOEWDIN ATOMIC CHARGES
----------------------
   0 C :   -0.412829
   1 C :   -0.225503
   2 C :   -0.389359
   3 C :    0.225397
   4 O :   -0.464737
   5 C :   -0.383473
   6 H :    0.158247
   7 H :    0.154202
   8 H :    0.154810
   9 H :    0.182245
  10 H :    0.172258
  11 H :    0.154963
  12 H :    0.152957
  13 H :    0.173766
  14 H :    0.172651
  15 H :    0.174405

  Mayer bond orders larger than 0.100000
B(  0-C ,  1-C ) :   0.8734 B(  0-C ,  6-H ) :   0.9598 B(  0-C ,  7-H ) :   0.9674
B(  0-C ,  8-H ) :   0.9951 B(  1-C ,  2-C ) :   0.9058 B(  1-C ,  3-C ) :   0.8947
B(  1-C ,  9-H ) :   0.9296 B(  2-C , 10-H ) :   0.9641 B(  2-C , 11-H ) :   0.9816
B(  2-C , 12-H ) :   0.9750 B(  3-C ,  4-O ) :   1.9117 B(  3-C ,  5-C ) :   0.9256
B(  5-C , 13-H ) :   0.9580 B(  5-C , 14-H ) :   0.9459 B(  5-C , 15-H ) :   0.9794

Dispersion correction           -0.003947527
FINAL SINGLE POINT ENERGY      -271.702494986341

DIPOLE MOMENT
-------------

Method             : SCF
Type of density    : Electron Density
Multiplicity       :   1
Irrep              :   0
Energy             :  -271.7062251339934846 Eh
Relativity type    :
Basis              : AO
                                X                 Y                 Z
Electronic contribution:     -3.875984775       4.224197807       1.336021322
Nuclear contribution   :      4.310796800      -5.251245502      -1.438549790
                        -----------------------------------------
Total Dipole Moment    :      0.434812025      -1.027047695      -0.102528468
                        -----------------------------------------
Magnitude (a.u.)       :      1.120000246
Magnitude (Debye)      :      2.846814386

Rotational constants in cm-1:             0.152827             0.106319             0.070124
Rotational constants in MHz :          4581.649161          3187.371211          2102.254226

                             ****ORCA TERMINATED NORMALLY****
TOTAL RUN TIME: 0 days 0 hours 0 minutes 19 seconds 710 msec
