                         Program Version 6.0.1  -  RELEASE   -
|  1> ! pbe def2-sv(p) def2/J RI DEFGRID1 loosescf d4 GCP(DFT/SV(P)) printgap
|  2> %output
|  3>     printlevel normal
|  4> end
|  5> * xyz 0 1
|  6> C -2.3483593557 1.1063951803 0.0730643747
|  7> C -1.4274100895 -0.0872437402 0.1627908949
|  8> O -1.5650188882 -0.9276519953 1.015016261
|  9> C -0.3532525802 -0.1593849446 -0.9162101227
| 10> C 0.5503276188 -1.3921766313 -0.748337197
| 11> C 1.8912226217 -1.0406503129 -0.0990872632
| 12> C 1.6774019166 0.0088934438 0.9847246577
| 13> C 1.2393641459 1.3393047426 0.3597952561
| 14> C 0.4901243661 1.1203389475 -0.9588047191
| 15> H -1.8780118967 1.9531430301 0.5699233135
| 16> H -2.5504433889 1.3788318576 -0.9587465426
| 17> H -3.2788859315 0.8866976247 0.5908109129
| 18> H -0.9040005976 -0.2397748996 -1.861683017
| 19> H 0.0247853682 -2.1092975274 -0.1145300123
| 20> H 0.724017029 -1.8644033225 -1.7166185457
| 21> H 2.3321087434 -1.9412872412 0.3306551949
| 22> H 2.5905486295 -0.6564178775 -0.8448696115
| 23> H 0.9081935652 -0.3544664582 1.6675384244
| 24> H 2.5915929427 0.1535758516 1.5626800012
| 25> H 0.6055598925 1.8774326205 1.067419437
| 26> H 2.111980438 1.966570328 0.1651044974
| 27> H -0.1314879176 1.9874335413 -1.1849489438
| 28> H 1.2070800026 1.016238559 -1.7752840116
| 29> *
| 30>
| 31>                          ****END OF INPUT****

CARTESIAN COORDINATES (ANGSTROEM)
---------------------------------
  C     -2.348359    1.106395    0.073064
  C     -1.427410   -0.087244    0.162791
  O     -1.565019   -0.927652    1.015016
  C     -0.353253   -0.159385   -0.916210
  C      0.550328   -1.392177   -0.748337
  C      1.891223   -1.040650   -0.099087
  C      1.677402    0.008893    0.984725
  C      1.239364    1.339305    0.359795
  C      0.490124    1.120339   -0.958805
  H     -1.878012    1.953143    0.569923
  H     -2.550443    1.378832   -0.958747
  H     -3.278886    0.886698    0.590811
  H     -0.904001   -0.239775   -1.861683
  H      0.024785   -2.109298   -0.114530
  H      0.724017   -1.864403   -1.716619
  H      2.332109   -1.941287    0.330655
  H      2.590549   -0.656418   -0.844870
  H      0.908194   -0.354466    1.667538
  H      2.591593    0.153576    1.562680
  H      0.605560    1.877433    1.067419
  H      2.111980    1.966570    0.165104
  H     -0.131488    1.987434   -1.184949
  H      1.207080    1.016239   -1.775284

 Total Charge           Charge          ....    0
 Multiplicity           Mult            ....    1
 Number of Electrons    NEL             ....   70
 Basis Dimension        Dim             ....  154

ORBITAL ENERGIES
----------------

  NO   OCC          E(Eh)            E(eV)
   0   2.0000     -18.741456      -509.9810
   1   2.0000      -9.973345      -271.3885
   2   2.0000      -9.900282      -269.4004
   3   2.0000      -9.894191      -269.2346
   4   2.0000      -9.887170      -269.0436
   5   2.0000      -9.886063      -269.0135
   6   2.0000      -9.878807      -268.8160
   7   2.0000      -9.877266      -268.7741
   8   2.0000      -9.876326      -268.7485
   9   2.0000      -0.943586       -25.6763
  10   2.0000      -0.760680       -20.6992
  11   2.0000      -0.690073       -18.7778
  12   2.0000      -0.665841       -18.1184
  13   2.0000      -0.651794       -17.7362
  14   2.0000      -0.567235       -15.4353
  15   2.0000      -0.544275       -14.8105
  16   2.0000      -0.491757       -13.3814
  17   2.0000      -0.455804       -12.4030
  18   2.0000      -0.441707       -12.0195
  19   2.0000      -0.430720       -11.7205
  20   2.0000      -0.411686       -11.2025
  21   2.0000      -0.392727       -10.6866
  22   2.0000      -0.381437       -10.3794
  23   2.0000      -0.367929       -10.0119
  24   2.0000      -0.350693        -9.5428
  25   2.0000      -0.343587        -9.3495
  26   2.0000      -0.332357        -9.0439
  27   2.0000      -0.327935        -8.9236
  28   2.0000      -0.323361        -8.7991
  29   2.0000      -0.316522        -8.6130
  30   2.0000      -0.305765        -8.3203
  31   2.0000      -0.267623        -7.2824
  32   2.0000      -0.262375        -7.1396
  33   2.0000      -0.260004        -7.0751
  34   2.0000      -0.197746        -5.3809
  35   0.0000      -0.050247        -1.3673
  36   0.0000       0.020427         0.5559
  37   0.0000       0.047355         1.2886
  38   0.0000       0.063510         1.7282
  39   0.0000       0.076542         2.0828

MULLIKEN ATOMIC CHARGES
-----------------------
   0 C :   -0.251739
   1 C :    0.002273
   2 O :   -0.152076
   3 C :   -0.218068
   4 C :   -0.095216
   5 C :   -0.161424
   6 C :   -0.160008
   7 C :   -0.171987
   8 C :   -0.114409
   9 H :    0.134469
  10 H :    0.117271
  11 H :    0.120230
  12 H :    0.092499
  13 H :    0.096987
  14 H :    0.075091
  15 H :    0.088153
  16 H :    0.071893
  17 H :    0.097419
  18 H :    0.084508
  19 H :    0.085327
  20 H :    0.084474
  21 H :    0.088705
  22 H :    0.085628
Sum of atomic charges:    0.0000000

LOEWDIN ATOMIC CHARGES
----------------------
   0 C :   -0.362825
   1 C :    0.046809
   2 O :   -0.116591
   3 C :   -0.174411
   4 C :   -0.224257
   5 C :   -0.224108
   6 C :   -0.234748
   7 C :   -0.231343
   8 C :   -0.214456
   9 H :    0.146386
  10 H :    0.132439
  11 H :    0.136903
  12 H :    0.136641
  13 H :    0.125276
  14 H :    0.116515
  15 H :    0.119625
  16 H :    0.110348
  17 H :    0.122115
  18 H :    0.117127
  19 H :    0.114843
  20 H :    0.118898
  21 H :    0.116509
  22 H :    0.122306

  Mayer bond orders larger than 0.100000
B(  0-C ,  1-C ) :   1.0663 B(  0-C ,  9-H ) :   0.9139 B(  0-C , 10-H ) :   0.9324
B(  0-C , 11-H ) :   0.9301 B(  1-C ,  2-O ) :   2.1729 B(  1-C ,  3-C ) :   0.9111
B(  3-C ,  4-C ) :   1.0883 B(  3-C ,  8-C ) :   1.1270 B(  3-C , 12-H ) :   0.8617
B(  4-C ,  5-C ) :   1.1620 B(  4-C , 13-H ) :   0.8933 B(  4-C , 14-H ) :   0.9107
B(  5-C ,  6-C ) :   1.1848 B(  5-C , 15-H ) :   0.9205 B(  5-C , 16-H ) :   0.9074
B(  6-C ,  7-C ) :   1.1446 B(  6-C , 17-H ) :   0.9028 B(  6-C , 18-H ) :   0.9219
B(  7-C ,  8-C ) :   1.1535 B(  7-C , 19-H ) :   0.9121 B(  7-C , 20-H ) :   0.9168
B(  8-C , 21-H ) :   0.9085 B(  8-C , 22-H ) :   0.8966

Dispersion correction           -0.023177332
FINAL SINGLE POINT ENERGY      -387.600690597528

DIPOLE MOMENT
-------------

Method             : SCF
Type of density    : Electron Density
Multiplicity       :   1
Irrep              :   0
Energy             :  -387.6783402229777380 Eh
Relativity type    :
Basis              : AO
                                X                 Y                 Z
Electronic contribution:     -3.925681351      -3.097158732       1.703020463
Nuclear contribution   :      4.060660426       3.789825982      -2.332752605
                        -----------------------------------------
Total Dipole Moment    :      0.134979075       0.692667250      -0.629732142
                        -----------------------------------------
Magnitude (a.u.)       :      0.945817023
Magnitude (Debye)      :      2.404075817

Rotational constants in cm-1:             0.081374             0.046492             0.040531
Rotational constants in MHz :          2439.527146          1393.797359          1215.080310

                             ****ORCA TERMINATED NORMALLY****
TOTAL RUN TIME: 0 days 0 hours 0 minutes 11 seconds 187 msec
