                         Program Version 6.0.1  -  RELEASE   -
|  1> ! pbe def2-sv(p) def2/J RI DEFGRID1 loosescf d4 GCP(DFT/SV(P)) printgap
|  2> %output
|  3>     printlevel normal
|  4> end
|  5> * xyz 0 1
|  6> C -3.8004311549 0.7045289093 -0.0007957941
|  7> O -2.3867004423 0.8180954464 0.0003440805
|  8> C -1.7087253464 -0.3432929207 0.0002571837
|  9> O -2.2560311468 -1.4202431879 -0.0002370542
| 10> C -0.2443290052 -0.1485309791 0.0005146767
| 11> C 0.5728877568 -1.2769155713 0.0003886761
| 12> C 1.9453117556 -1.146246827 7.30449e-05
| 13> C 2.5236194228 0.1208243338 -0.0001084513
| 14> C 1.708876011 1.2530333028 0.0001892724
| 15> C 0.3381754888 1.1185738251 0.0004645966
| 16> O 3.8655951127 0.2999972622 -0.0006465845
| 17> H -4.1379338443 0.1676271706 -0.8900225194
| 18> H -4.1876471443 1.7202551923 0.0025306358
| 19> H -4.1389356959 0.1612829777 0.8841601141
| 20> H 0.1092289943 -2.2515358367 0.0003615688
| 21> H 2.5772175032 -2.0246567283 -0.0001558878
| 22> H 2.1774674201 2.2242141486 0.0002281494
| 23> H -0.2930695809 1.9926955076 0.0008046191
| 24> H 4.3163422215 -0.553791761 -0.0010584494
| 25> *
| 26>
| 27>                          ****END OF INPUT****

CARTESIAN COORDINATES (ANGSTROEM)
---------------------------------
  C     -3.800431    0.704529   -0.000796
  O     -2.386700    0.818095    0.000344
  C     -1.708725   -0.343293    0.000257
  O     -2.256031   -1.420243   -0.000237
  C     -0.244329   -0.148531    0.000515
  C      0.572888   -1.276916    0.000389
  C      1.945312   -1.146247    0.000073
  C      2.523619    0.120824   -0.000108
  C      1.708876    1.253033    0.000189
  C      0.338175    1.118574    0.000465
  O      3.865595    0.299997   -0.000647
  H     -4.137934    0.167627   -0.890023
  H     -4.187647    1.720255    0.002531
  H     -4.138936    0.161283    0.884160
  H      0.109229   -2.251536    0.000362
  H      2.577218   -2.024657   -0.000156
  H      2.177467    2.224214    0.000228
  H     -0.293070    1.992696    0.000805
  H      4.316342   -0.553792   -0.001058

 Total Charge           Charge          ....    0
 Multiplicity           Mult            ....    1
 Number of Electrons    NEL             ....   80
 Basis Dimension        Dim             ....  170

ORBITAL ENERGIES
----------------

  NO   OCC          E(Eh)            E(eV)
   0   2.0000     -18.798188      -511.5247
   1   2.0000     -18.794772      -511.4317
   2   2.0000     -18.730044      -509.6704
   3   2.0000     -10.002466      -272.1809
   4   2.0000      -9.967434      -271.2277
   5   2.0000      -9.936782      -270.3936
   6   2.0000      -9.902315      -269.4557
   7   2.0000      -9.902228      -269.4533
   8   2.0000      -9.901832      -269.4426
   9   2.0000      -9.901624      -269.4369
  10   2.0000      -9.896293      -269.2918
  11   2.0000      -1.001517       -27.2527
  12   2.0000      -0.980608       -26.6837
  13   2.0000      -0.909525       -24.7494
  14   2.0000      -0.783656       -21.3244
  15   2.0000      -0.696147       -18.9431
  16   2.0000      -0.683420       -18.5968
  17   2.0000      -0.648184       -17.6380
  18   2.0000      -0.583221       -15.8703
  19   2.0000      -0.555761       -15.1230
  20   2.0000      -0.509795       -13.8722
  21   2.0000      -0.505523       -13.7560
  22   2.0000      -0.480019       -13.0620
  23   2.0000      -0.432046       -11.7566
  24   2.0000      -0.430279       -11.7085
  25   2.0000      -0.411403       -11.1949
  26   2.0000      -0.391094       -10.6422
  27   2.0000      -0.387117       -10.5340
  28   2.0000      -0.382888       -10.4189
  29   2.0000      -0.378865       -10.3095
  30   2.0000      -0.353963        -9.6318
  31   2.0000      -0.353012        -9.6060
  32   2.0000      -0.334162        -9.0930
  33   2.0000      -0.309249        -8.4151
  34   2.0000      -0.300785        -8.1848
  35   2.0000      -0.296182        -8.0595
  36   2.0000      -0.255446        -6.9510
  37   2.0000      -0.239223        -6.5096
  38   2.0000      -0.220294        -5.9945
  39   2.0000      -0.207859        -5.6561
  40   0.0000      -0.063068        -1.7162
  41   0.0000      -0.042570        -1.1584
  42   0.0000       0.014939         0.4065
  43   0.0000       0.030345         0.8257
  44   0.0000       0.049845         1.3564

MULLIKEN ATOMIC CHARGES
-----------------------
   0 C :   -0.104651
   1 O :   -0.251511
   2 C :    0.151186
   3 O :   -0.191790
   4 C :    0.037356
   5 C :   -0.101397
   6 C :   -0.148612
   7 C :    0.245984
   8 C :   -0.113626
   9 C :   -0.083765
  10 O :   -0.319634
  11 H :    0.116069
  12 H :    0.117676
  13 H :    0.116153
  14 H :    0.064064
  15 H :    0.035362
  16 H :    0.050786
  17 H :    0.060450
  18 H :    0.319899
Sum of atomic charges:    0.0000000

LOEWDIN ATOMIC CHARGES
----------------------
   0 C :   -0.205678
   1 O :   -0.079212
   2 C :    0.043514
   3 O :   -0.160707
   4 C :   -0.099331
   5 C :   -0.080809
   6 C :   -0.172897
   7 C :    0.032640
   8 C :   -0.146324
   9 C :   -0.089844
  10 O :   -0.220633
  11 H :    0.117718
  12 H :    0.118138
  13 H :    0.117752
  14 H :    0.136285
  15 H :    0.123063
  16 H :    0.133096
  17 H :    0.132855
  18 H :    0.300374

  Mayer bond orders larger than 0.100000
B(  0-C ,  1-O ) :   0.9500 B(  0-C , 11-H ) :   0.9512 B(  0-C , 12-H ) :   0.9589
B(  0-C , 13-H ) :   0.9510 B(  1-O ,  2-C ) :   1.2171 B(  2-C ,  3-O ) :   2.0667
B(  2-C ,  4-C ) :   0.9581 B(  4-C ,  5-C ) :   1.3772 B(  4-C ,  9-C ) :   1.3325
B(  5-C ,  6-C ) :   1.3560 B(  5-C , 14-H ) :   0.9550 B(  6-C ,  7-C ) :   1.2882
B(  6-C , 15-H ) :   0.9592 B(  7-C ,  8-C ) :   1.3399 B(  7-C , 10-O ) :   1.2068
B(  8-C ,  9-C ) :   1.3637 B(  8-C , 16-H ) :   0.9665 B(  9-C , 17-H ) :   0.9610
B( 10-O , 18-H ) :   0.8408

Dispersion correction           -0.019675431
FINAL SINGLE POINT ENERGY      -534.246339928494

DIPOLE MOMENT
-------------

Method             : SCF
Type of density    : Electron Density
Multiplicity       :   1
Irrep              :   0
Energy             :  -534.3117235359409278 Eh
Relativity type    :
Basis              : AO
                                X                 Y                 Z
Electronic contribution:      3.921443637      -1.185168445       0.002487466
Nuclear contribution   :     -3.367657735       1.342824682      -0.002964890
                        -----------------------------------------
Total Dipole Moment    :      0.553785902       0.157656238      -0.000477425
                        -----------------------------------------
Magnitude (a.u.)       :      0.575790363
Magnitude (Debye)      :      1.463542794

Rotational constants in cm-1:             0.116539             0.019435             0.016710
Rotational constants in MHz :          3493.737786           582.650174           500.940854

                             ****ORCA TERMINATED NORMALLY****
TOTAL RUN TIME: 0 days 0 hours 0 minutes 17 seconds 360 msec
