                         Program Version 6.0.1  -  RELEASE   -
|  1> ! pbe def2-sv(p) def2/J RI DEFGRID1 loosescf d4 GCP(DFT/SV(P)) printgap
|  2> %output
|  3>     printlevel normal
|  4> end
|  5> * xyz 0 1
|  6> C 1.1534045782 -1.3420985807 -0.5165780205
|  7> C 0.6817364246 -0.2294665071 0.4268721423
|  8> C 1.6410934826 0.9552038793 0.3875287313
|  9> C -0.7178962774 0.186946245 0.0007736313
| 10> O -0.9402453982 1.208311036 -0.5974635909
| 11> C -1.8201073902 -0.7832241593 0.3597838553
| 12> H 0.4823184751 -2.1970875032 -0.4875657321
| 13> H 1.1960436342 -0.9695906895 -1.5376490277
| 14> H 2.1482670599 -1.6743449046 -0.2291992503
| 15> H 0.6272492254 -0.6279636482 1.445815389
| 16> H 1.3160274718 1.7290245245 1.0787996555
| 17> H 1.6618790923 1.382231972 -0.6118239311
| 18> H 2.6459731895 0.6411143756 0.6592224869
| 19> H -1.4495283616 -1.6568594357 0.8859543727
| 20> H -2.3358260385 -1.0899865985 -0.5482458778
| 21> H -2.5477149187 -0.2664151488 0.9830019808
| 22> *
| 23>
| 24>                          ****END OF INPUT****

CARTESIAN COORDINATES (ANGSTROEM)
---------------------------------
  C      1.153405   -1.342099   -0.516578
  C      0.681736   -0.229467    0.426872
  C      1.641093    0.955204    0.387529
  C     -0.717896    0.186946    0.000774
  O     -0.940245    1.208311   -0.597464
  C     -1.820107   -0.783224    0.359784
  H      0.482318   -2.197088   -0.487566
  H      1.196044   -0.969591   -1.537649
  H      2.148267   -1.674345   -0.229199
  H      0.627249   -0.627964    1.445815
  H      1.316027    1.729025    1.078800
  H      1.661879    1.382232   -0.611824
  H      2.645973    0.641114    0.659222
  H     -1.449528   -1.656859    0.885954
  H     -2.335826   -1.089987   -0.548246
  H     -2.547715   -0.266415    0.983002

 Total Charge           Charge          ....    0
 Multiplicity           Mult            ....    1
 Number of Electrons    NEL             ....   48
 Basis Dimension        Dim             ....  104

ORBITAL ENERGIES
----------------

  NO   OCC          E(Eh)            E(eV)
   0   2.0000     -18.737673      -509.8780
   1   2.0000      -9.969975      -271.2968
   2   2.0000      -9.902731      -269.4670
   3   2.0000      -9.889044      -269.0946
   4   2.0000      -9.885322      -268.9933
   5   2.0000      -9.872663      -268.6488
   6   2.0000      -0.940066       -25.5805
   7   2.0000      -0.729272       -19.8445
   8   2.0000      -0.664138       -18.0721
   9   2.0000      -0.616135       -16.7659
  10   2.0000      -0.553576       -15.0636
  11   2.0000      -0.459926       -12.5152
  12   2.0000      -0.428215       -11.6523
  13   2.0000      -0.411309       -11.1923
  14   2.0000      -0.401362       -10.9216
  15   2.0000      -0.375990       -10.2312
  16   2.0000      -0.360972        -9.8225
  17   2.0000      -0.352779        -9.5996
  18   2.0000      -0.343886        -9.3576
  19   2.0000      -0.315596        -8.5878
  20   2.0000      -0.313858        -8.5405
  21   2.0000      -0.299682        -8.1548
  22   2.0000      -0.297699        -8.1008
  23   2.0000      -0.194690        -5.2978
  24   0.0000      -0.047950        -1.3048
  25   0.0000       0.029698         0.8081
  26   0.0000       0.066309         1.8044
  27   0.0000       0.076052         2.0695
  28   0.0000       0.089403         2.4328

MULLIKEN ATOMIC CHARGES
-----------------------
   0 C :   -0.261228
   1 C :   -0.198717
   2 C :   -0.226759
   3 C :    0.003576
   4 O :   -0.160846
   5 C :   -0.249491
   6 H :    0.106150
   7 H :    0.111208
   8 H :    0.114876
   9 H :    0.085713
  10 H :    0.103722
  11 H :    0.108897
  12 H :    0.094310
  13 H :    0.107807
  14 H :    0.129831
  15 H :    0.130951
Sum of atomic charges:    0.0000000

LOEWDIN ATOMIC CHARGES
----------------------
   0 C :   -0.319715
   1 C :   -0.186166
   2 C :   -0.328204
   3 C :    0.047437
   4 O :   -0.123059
   5 C :   -0.365963
   6 H :    0.118865
   7 H :    0.125036
   8 H :    0.124842
   9 H :    0.124835
  10 H :    0.122226
  11 H :    0.125062
  12 H :    0.117187
  13 H :    0.123728
  14 H :    0.145850
  15 H :    0.148039

  Mayer bond orders larger than 0.100000
B(  0-C ,  1-C ) :   1.0816 B(  0-C ,  6-H ) :   0.9485 B(  0-C ,  7-H ) :   0.9475
B(  0-C ,  8-H ) :   0.9499 B(  1-C ,  2-C ) :   1.1163 B(  1-C ,  3-C ) :   0.9456
B(  1-C ,  9-H ) :   0.8848 B(  2-C , 10-H ) :   0.9528 B(  2-C , 11-H ) :   0.9426
B(  2-C , 12-H ) :   0.9486 B(  3-C ,  4-O ) :   2.1942 B(  3-C ,  5-C ) :   1.0647
B(  5-C , 13-H ) :   0.9367 B(  5-C , 14-H ) :   0.9276 B(  5-C , 15-H ) :   0.9235

Dispersion correction           -0.011823035
FINAL SINGLE POINT ENERGY      -271.142882608666

DIPOLE MOMENT
-------------

Method             : SCF
Type of density    : Electron Density
Multiplicity       :   1
Irrep              :   0
Energy             :  -271.1968955312238450 Eh
Relativity type    :
Basis              : AO
                                X                 Y                 Z
Electronic contribution:     -3.335491912       3.579763911      -1.092341247
Nuclear contribution   :      3.499191296      -4.419484708       1.528143855
                        -----------------------------------------
Total Dipole Moment    :      0.163699384      -0.839720797       0.435802608
                        -----------------------------------------
Magnitude (a.u.)       :      0.960131459
Magnitude (Debye)      :      2.440460222

Rotational constants in cm-1:             0.159040             0.099266             0.073487
Rotational constants in MHz :          4767.911697          2975.933428          2203.073712

                             ****ORCA TERMINATED NORMALLY****
TOTAL RUN TIME: 0 days 0 hours 0 minutes 4 seconds 809 msec
