                         Program Version 6.0.1  -  RELEASE   -
|  1> ! pbe def2-sv(p) def2/J RI DEFGRID1 loosescf d4 GCP(DFT/SV(P)) printgap
|  2> %output
|  3>     printlevel normal
|  4> end
|  5> * xyz 0 1
|  6> C -2.3555553692 -1.0351896087 0.2373400956
|  7> C -1.1338918295 -0.2717755015 0.7957431197
|  8> H -1.4213910223 0.123030938 1.7823424339
|  9> C -0.755250999 0.9140406496 -0.1006806139
| 10> H -0.8491049197 0.6494910422 -1.1607135223
| 11> C 0.6914768295 1.3189009464 0.2062149883
| 12> H 0.790253552 1.4853024096 1.2941250737
| 13> C 1.6366911068 0.180913417 -0.1976330604
| 14> H 1.7812832972 0.2332666857 -1.2894344617
| 15> C 1.023995688 -1.1996961641 0.1396799897
| 16> H 1.7890704337 -1.7883949006 0.6574422215
| 17> O -0.0342653558 -1.1337406455 1.062371298
| 18> O 0.7026721786 -1.9198502389 -1.0053628869
| 19> O 2.8707706648 0.2814755001 0.4588524186
| 20> O 1.0524384619 2.4872682396 -0.4884606944
| 21> O -1.6235112195 2.0080335674 0.0683345189
| 22> O -2.0809813036 -1.7262534632 -0.9512466802
| 23> H -3.1312380428 -0.3032016648 -0.0010885524
| 24> H -2.7283982777 -1.7179864205 1.009486816
| 25> H 0.0114354361 -1.4640132061 -1.5101105404
| 26> H 3.2310628601 1.1590155198 0.2794999162
| 27> H 0.2481116711 3.0084252856 -0.6225882827
| 28> H -1.6485378085 2.2540504829 1.0019918023
| 29> H -1.5185336741 -2.4843410573 -0.7386832607
| 30> *
| 31>
| 32>                          ****END OF INPUT****

CARTESIAN COORDINATES (ANGSTROEM)
---------------------------------
  C     -2.355555   -1.035190    0.237340
  C     -1.133892   -0.271776    0.795743
  H     -1.421391    0.123031    1.782342
  C     -0.755251    0.914041   -0.100681
  H     -0.849105    0.649491   -1.160714
  C      0.691477    1.318901    0.206215
  H      0.790254    1.485302    1.294125
  C      1.636691    0.180913   -0.197633
  H      1.781283    0.233267   -1.289434
  C      1.023996   -1.199696    0.139680
  H      1.789070   -1.788395    0.657442
  O     -0.034265   -1.133741    1.062371
  O      0.702672   -1.919850   -1.005363
  O      2.870771    0.281476    0.458852
  O      1.052438    2.487268   -0.488461
  O     -1.623511    2.008034    0.068335
  O     -2.080981   -1.726253   -0.951247
  H     -3.131238   -0.303202   -0.001089
  H     -2.728398   -1.717986    1.009487
  H      0.011435   -1.464013   -1.510111
  H      3.231063    1.159016    0.279500
  H      0.248112    3.008425   -0.622588
  H     -1.648538    2.254050    1.001992
  H     -1.518534   -2.484341   -0.738683

 Total Charge           Charge          ....    0
 Multiplicity           Mult            ....    1
 Number of Electrons    NEL             ....   96
 Basis Dimension        Dim             ....  192

ORBITAL ENERGIES
----------------

  NO   OCC          E(Eh)            E(eV)
   0   2.0000     -18.783110      -511.1144
   1   2.0000     -18.775666      -510.9119
   2   2.0000     -18.768489      -510.7166
   3   2.0000     -18.762519      -510.5541
   4   2.0000     -18.755692      -510.3683
   5   2.0000     -18.752647      -510.2855
   6   2.0000      -9.987455      -271.7725
   7   2.0000      -9.960236      -271.0318
   8   2.0000      -9.958565      -270.9863
   9   2.0000      -9.946616      -270.6612
  10   2.0000      -9.943348      -270.5723
  11   2.0000      -9.943277      -270.5703
  12   2.0000      -0.987627       -26.8747
  13   2.0000      -0.965307       -26.2673
  14   2.0000      -0.943067       -25.6622
  15   2.0000      -0.937496       -25.5106
  16   2.0000      -0.922043       -25.0901
  17   2.0000      -0.917821       -24.9752
  18   2.0000      -0.716373       -19.4935
  19   2.0000      -0.696039       -18.9402
  20   2.0000      -0.632994       -17.2247
  21   2.0000      -0.601680       -16.3726
  22   2.0000      -0.569455       -15.4957
  23   2.0000      -0.538773       -14.6608
  24   2.0000      -0.508173       -13.8281
  25   2.0000      -0.495840       -13.4925
  26   2.0000      -0.489345       -13.3158
  27   2.0000      -0.471784       -12.8379
  28   2.0000      -0.447342       -12.1728
  29   2.0000      -0.431642       -11.7456
  30   2.0000      -0.420428       -11.4404
  31   2.0000      -0.409073       -11.1314
  32   2.0000      -0.401051       -10.9131
  33   2.0000      -0.392064       -10.6686
  34   2.0000      -0.374164       -10.1815
  35   2.0000      -0.355321        -9.6688
  36   2.0000      -0.336977        -9.1696
  37   2.0000      -0.317005        -8.6261
  38   2.0000      -0.311624        -8.4797
  39   2.0000      -0.301203        -8.1962
  40   2.0000      -0.299355        -8.1459
  41   2.0000      -0.282578        -7.6893
  42   2.0000      -0.263356        -7.1663
  43   2.0000      -0.256677        -6.9845
  44   2.0000      -0.247193        -6.7265
  45   2.0000      -0.228188        -6.2093
  46   2.0000      -0.220183        -5.9915
  47   2.0000      -0.210944        -5.7401
  48   0.0000       0.002502         0.0681
  49   0.0000       0.022360         0.6085
  50   0.0000       0.034490         0.9385
  51   0.0000       0.044911         1.2221
  52   0.0000       0.053189         1.4473

MULLIKEN ATOMIC CHARGES
-----------------------
   0 C :    0.068895
   1 C :    0.049861
   2 H :    0.052956
   3 C :   -0.052588
   4 H :    0.076661
   5 C :    0.066711
   6 H :    0.043429
   7 C :    0.055726
   8 H :    0.067220
   9 C :    0.196589
  10 H :    0.085860
  11 O :   -0.308577
  12 O :   -0.415287
  13 O :   -0.411651
  14 O :   -0.419508
  15 O :   -0.410527
  16 O :   -0.439130
  17 H :    0.091170
  18 H :    0.090667
  19 H :    0.297448
  20 H :    0.309400
  21 H :    0.301049
  22 H :    0.302828
  23 H :    0.300800
Sum of atomic charges:    0.0000000

LOEWDIN ATOMIC CHARGES
----------------------
   0 C :   -0.131190
   1 C :   -0.079880
   2 H :    0.111739
   3 C :   -0.090513
   4 H :    0.116690
   5 C :   -0.087471
   6 H :    0.100049
   7 C :   -0.080045
   8 H :    0.107207
   9 C :    0.001464
  10 H :    0.122330
  11 O :   -0.143405
  12 O :   -0.304965
  13 O :   -0.313621
  14 O :   -0.329255
  15 O :   -0.301276
  16 O :   -0.325819
  17 H :    0.120498
  18 H :    0.106176
  19 H :    0.264678
  20 H :    0.291081
  21 H :    0.279705
  22 H :    0.286191
  23 H :    0.279632

  Mayer bond orders larger than 0.100000
B(  0-C ,  1-C ) :   1.0271 B(  0-C , 16-O ) :   1.0829 B(  0-C , 17-H ) :   0.9125
B(  0-C , 18-H ) :   0.9207 B(  1-C ,  2-H ) :   0.8699 B(  1-C ,  3-C ) :   0.9702
B(  1-C , 11-O ) :   0.9997 B(  3-C ,  4-H ) :   0.8731 B(  3-C ,  5-C ) :   1.0206
B(  3-C , 15-O ) :   1.0053 B(  5-C ,  6-H ) :   0.8486 B(  5-C ,  7-C ) :   1.0224
B(  5-C , 14-O ) :   1.1033 B(  7-C ,  8-H ) :   0.8922 B(  7-C ,  9-C ) :   0.9773
B(  7-C , 13-O ) :   1.0846 B(  9-C , 10-H ) :   0.8903 B(  9-C , 11-O ) :   1.0599
B(  9-C , 12-O ) :   1.0825 B( 12-O , 19-H ) :   0.8017 B( 13-O , 20-H ) :   0.8446
B( 14-O , 21-H ) :   0.8231 B( 15-O , 22-H ) :   0.8431 B( 16-O , 23-H ) :   0.8134

Dispersion correction           -0.024972471
FINAL SINGLE POINT ENERGY      -685.693688751947

DIPOLE MOMENT
-------------

Method             : SCF
Type of density    : Electron Density
Multiplicity       :   1
Irrep              :   0
Energy             :  -685.8269321478793472 Eh
Relativity type    :
Basis              : AO
                                X                 Y                 Z
Electronic contribution:      2.557891772      -0.327716297      -0.117349527
Nuclear contribution   :     -3.219779274       1.083208107       0.646174419
                        -----------------------------------------
Total Dipole Moment    :     -0.661887502       0.755491809       0.528824892
                        -----------------------------------------
Magnitude (a.u.)       :      1.135129379
Magnitude (Debye)      :      2.885269584

Rotational constants in cm-1:             0.040193             0.029245             0.020071
Rotational constants in MHz :          1204.959423           876.756407           601.703676

                             ****ORCA TERMINATED NORMALLY****
TOTAL RUN TIME: 0 days 0 hours 0 minutes 9 seconds 390 msec
