                         Program Version 6.0.1  -  RELEASE   -
|  1> ! pbe def2-sv(p) def2/J RI DEFGRID1 loosescf d4 GCP(DFT/SV(P)) printgap
|  2> %output
|  3>     printlevel normal
|  4> end
|  5> * xyz 0 1
|  6> C 3.3561991278 0.0295898963 0.1886776191
|  7> N 1.9387249274 0.2770188292 0.3075107933
|  8> C 1.5720601275 1.3883396738 1.14552132
|  9> C 1.0656112098 -0.4978194241 -0.377980426
| 10> O 1.4252135741 -1.4003616147 -1.1112770065
| 11> C -0.3892047894 -0.1907490712 -0.1789290192
| 12> C -1.0624286014 -0.6773048936 0.9356869328
| 13> C -2.4208852892 -0.4548560955 1.0766099559
| 14> C -3.1132624629 0.2531610223 0.1083662789
| 15> C -2.4471480747 0.7309505499 -1.0076312162
| 16> C -1.0897876217 0.5051226749 -1.1559474858
| 17> H 3.7868848341 -0.1855625302 1.1692887637
| 18> H 3.8615577393 0.899301366 -0.2381438397
| 19> H 3.4942931821 -0.8281594571 -0.4666903604
| 20> H 1.8849524996 1.2043254846 2.1777199758
| 21> H 0.4962455608 1.5428407569 1.1245158905
| 22> H 2.0672902202 2.2982595459 0.7940676668
| 23> H -0.5202076443 -1.2334669621 1.6867895379
| 24> H -2.9404873907 -0.8360568612 1.9434464986
| 25> H -4.1731858108 0.4273334686 0.2210688524
| 26> H -2.9866236127 1.2774217664 -1.7671341572
| 27> H -0.5672338129 0.8665079521 -2.0294032005
| 28> *
| 29>
| 30>                          ****END OF INPUT****

CARTESIAN COORDINATES (ANGSTROEM)
---------------------------------
  C      3.356199    0.029590    0.188678
  N      1.938725    0.277019    0.307511
  C      1.572060    1.388340    1.145521
  C      1.065611   -0.497819   -0.377980
  O      1.425214   -1.400362   -1.111277
  C     -0.389205   -0.190749   -0.178929
  C     -1.062429   -0.677305    0.935687
  C     -2.420885   -0.454856    1.076610
  C     -3.113262    0.253161    0.108366
  C     -2.447148    0.730951   -1.007631
  C     -1.089788    0.505123   -1.155947
  H      3.786885   -0.185563    1.169289
  H      3.861558    0.899301   -0.238144
  H      3.494293   -0.828159   -0.466690
  H      1.884952    1.204325    2.177720
  H      0.496246    1.542841    1.124516
  H      2.067290    2.298260    0.794068
  H     -0.520208   -1.233467    1.686790
  H     -2.940487   -0.836057    1.943446
  H     -4.173186    0.427333    0.221069
  H     -2.986624    1.277422   -1.767134
  H     -0.567234    0.866508   -2.029403

 Total Charge           Charge          ....    0
 Multiplicity           Mult            ....    1
 Number of Electrons    NEL             ....   80
 Basis Dimension        Dim             ....  176

ORBITAL ENERGIES
----------------

  NO   OCC          E(Eh)            E(eV)
   0   2.0000     -18.710674      -509.1433
   1   2.0000     -14.026290      -381.6748
   2   2.0000      -9.977947      -271.5137
   3   2.0000      -9.923604      -270.0350
   4   2.0000      -9.913647      -269.7641
   5   2.0000      -9.906638      -269.5733
   6   2.0000      -9.899421      -269.3769
   7   2.0000      -9.898233      -269.3446
   8   2.0000      -9.898082      -269.3405
   9   2.0000      -9.897470      -269.3238
  10   2.0000      -9.896641      -269.3013
  11   2.0000      -0.935489       -25.4559
  12   2.0000      -0.850589       -23.1457
  13   2.0000      -0.782294       -21.2873
  14   2.0000      -0.691771       -18.8240
  15   2.0000      -0.676082       -18.3971
  16   2.0000      -0.653870       -17.7927
  17   2.0000      -0.630476       -17.1561
  18   2.0000      -0.554157       -15.0794
  19   2.0000      -0.548963       -14.9381
  20   2.0000      -0.498294       -13.5593
  21   2.0000      -0.480074       -13.0635
  22   2.0000      -0.440612       -11.9897
  23   2.0000      -0.435275       -11.8444
  24   2.0000      -0.419209       -11.4073
  25   2.0000      -0.410011       -11.1570
  26   2.0000      -0.395741       -10.7687
  27   2.0000      -0.380618       -10.3571
  28   2.0000      -0.364020        -9.9055
  29   2.0000      -0.362739        -9.8706
  30   2.0000      -0.352498        -9.5920
  31   2.0000      -0.343616        -9.3503
  32   2.0000      -0.330159        -8.9841
  33   2.0000      -0.327622        -8.9151
  34   2.0000      -0.313545        -8.5320
  35   2.0000      -0.302922        -8.2429
  36   2.0000      -0.237788        -6.4706
  37   2.0000      -0.235796        -6.4163
  38   2.0000      -0.204666        -5.5693
  39   2.0000      -0.194481        -5.2921
  40   0.0000      -0.042161        -1.1473
  41   0.0000      -0.040273        -1.0959
  42   0.0000      -0.000792        -0.0215
  43   0.0000       0.031247         0.8503
  44   0.0000       0.044169         1.2019

MULLIKEN ATOMIC CHARGES
-----------------------
   0 C :   -0.180422
   1 N :   -0.241000
   2 C :   -0.180430
   3 C :    0.144776
   4 O :   -0.215347
   5 C :   -0.040295
   6 C :   -0.074817
   7 C :   -0.048599
   8 C :   -0.045573
   9 C :   -0.048827
  10 C :   -0.069288
  11 H :    0.106724
  12 H :    0.107504
  13 H :    0.143238
  14 H :    0.106087
  15 H :    0.160830
  16 H :    0.106859
  17 H :    0.048751
  18 H :    0.055633
  19 H :    0.056204
  20 H :    0.056275
  21 H :    0.051717
Sum of atomic charges:    0.0000000

LOEWDIN ATOMIC CHARGES
----------------------
   0 C :   -0.255782
   1 N :   -0.051445
   2 C :   -0.251102
   3 C :    0.027413
   4 O :   -0.184374
   5 C :   -0.061549
   6 C :   -0.114492
   7 C :   -0.119565
   8 C :   -0.123423
   9 C :   -0.118800
  10 C :   -0.108434
  11 H :    0.115529
  12 H :    0.115417
  13 H :    0.136471
  14 H :    0.114113
  15 H :    0.136616
  16 H :    0.114851
  17 H :    0.125540
  18 H :    0.125097
  19 H :    0.124640
  20 H :    0.125411
  21 H :    0.127869

  Mayer bond orders larger than 0.100000
B(  0-C ,  1-N ) :   1.0048 B(  0-C , 11-H ) :   0.9515 B(  0-C , 12-H ) :   0.9519
B(  0-C , 13-H ) :   0.9271 B(  1-N ,  2-C ) :   1.0210 B(  1-N ,  3-C ) :   1.1845
B(  1-N ,  4-O ) :   0.1058 B(  2-C , 14-H ) :   0.9472 B(  2-C , 15-H ) :   0.9290
B(  2-C , 16-H ) :   0.9454 B(  3-C ,  4-O ) :   2.0561 B(  3-C ,  5-C ) :   0.8885
B(  5-C ,  6-C ) :   1.3906 B(  5-C , 10-C ) :   1.3981 B(  6-C ,  7-C ) :   1.3710
B(  6-C , 17-H ) :   0.9654 B(  7-C ,  8-C ) :   1.3798 B(  7-C , 18-H ) :   0.9637
B(  8-C ,  9-C ) :   1.3781 B(  8-C , 19-H ) :   0.9650 B(  9-C , 10-C ) :   1.3675
B(  9-C , 20-H ) :   0.9641 B( 10-C , 21-H ) :   0.9672

Dispersion correction           -0.024073697
FINAL SINGLE POINT ENERGY      -478.521867700911

DIPOLE MOMENT
-------------

Method             : SCF
Type of density    : Electron Density
Multiplicity       :   1
Irrep              :   0
Energy             :  -478.5878460220577608 Eh
Relativity type    :
Basis              : AO
                                X                 Y                 Z
Electronic contribution:     -4.172509915      -3.996173689      -3.452258213
Nuclear contribution   :      4.162968970       5.077605640       4.315366451
                        -----------------------------------------
Total Dipole Moment    :     -0.009540945       1.081431951       0.863108238
                        -----------------------------------------
Magnitude (a.u.)       :      1.383669731
Magnitude (Debye)      :      3.517008954

Rotational constants in cm-1:             0.081533             0.023376             0.022102
Rotational constants in MHz :          2444.297407           700.803419           662.595567

                             ****ORCA TERMINATED NORMALLY****
TOTAL RUN TIME: 0 days 0 hours 0 minutes 11 seconds 963 msec
