                         Program Version 6.0.1  -  RELEASE   -
|  1> ! pbe def2-sv(p) def2/J RI DEFGRID1 loosescf d4 GCP(DFT/SV(P)) printgap
|  2> %output
|  3>     printlevel normal
|  4> end
|  5> * xyz 0 1
|  6> C -1.7900057762 -1.1001841164 -0.6354109554
|  7> C -1.0234206761 -0.5013397635 0.5562559205
|  8> H -1.6763010428 -0.5841043379 1.4333860844
|  9> C -0.7225067761 1.0006017256 0.3676728132
| 10> H -1.5853560027 1.4401533249 -0.147443389
| 11> C 0.5569018376 1.2347005902 -0.4609611421
| 12> H 0.8458903731 2.2894764326 -0.3347690602
| 13> C 1.7083199181 0.368774225 0.075530034
| 14> H 2.5620006069 0.4546223661 -0.6153584475
| 15> C 1.2737533376 -1.1093833905 0.1192911488
| 16> H 2.0223991578 -1.7076323295 0.6600321396
| 17> O 0.1164275006 -1.2718386916 0.898717665
| 18> O 1.194987827 -1.6467425193 -1.1579720645
| 19> O 2.0437008437 0.8527247127 1.3548354291
| 20> O 0.3886741938 0.9276137364 -1.8308439318
| 21> O -0.6306543048 1.6719721176 1.5932253553
| 22> O -3.0412814494 -0.4513074241 -0.7175107823
| 23> H -1.9037254024 -2.1745857825 -0.4481088637
| 24> H -1.2355168242 -0.9686091508 -1.5727454023
| 25> H 0.8530892814 -0.9683374247 -1.7616993267
| 26> H 2.6754046303 0.2511951619 1.7649719164
| 27> H -0.3213101612 1.4778046504 -2.18115932
| 28> H 0.1988618698 1.4049815275 2.0170492776
| 29> H -3.6123057213 -0.9502432965 -1.3103580544
| 30> *
| 31>
| 32>                          ****END OF INPUT****

CARTESIAN COORDINATES (ANGSTROEM)
---------------------------------
  C     -1.790006   -1.100184   -0.635411
  C     -1.023421   -0.501340    0.556256
  H     -1.676301   -0.584104    1.433386
  C     -0.722507    1.000602    0.367673
  H     -1.585356    1.440153   -0.147443
  C      0.556902    1.234701   -0.460961
  H      0.845890    2.289476   -0.334769
  C      1.708320    0.368774    0.075530
  H      2.562001    0.454622   -0.615358
  C      1.273753   -1.109383    0.119291
  H      2.022399   -1.707632    0.660032
  O      0.116428   -1.271839    0.898718
  O      1.194988   -1.646743   -1.157972
  O      2.043701    0.852725    1.354835
  O      0.388674    0.927614   -1.830844
  O     -0.630654    1.671972    1.593225
  O     -3.041281   -0.451307   -0.717511
  H     -1.903725   -2.174586   -0.448109
  H     -1.235517   -0.968609   -1.572745
  H      0.853089   -0.968337   -1.761699
  H      2.675405    0.251195    1.764972
  H     -0.321310    1.477805   -2.181159
  H      0.198862    1.404982    2.017049
  H     -3.612306   -0.950243   -1.310358

 Total Charge           Charge          ....    0
 Multiplicity           Mult            ....    1
 Number of Electrons    NEL             ....   96
 Basis Dimension        Dim             ....  192

ORBITAL ENERGIES
----------------

  NO   OCC          E(Eh)            E(eV)
   0   2.0000     -18.786637      -511.2104
   1   2.0000     -18.779919      -511.0276
   2   2.0000     -18.760590      -510.5016
   3   2.0000     -18.752121      -510.2712
   4   2.0000     -18.750624      -510.2304
   5   2.0000     -18.733554      -509.7659
   6   2.0000      -9.985003      -271.7057
   7   2.0000      -9.955527      -270.9037
   8   2.0000      -9.954912      -270.8869
   9   2.0000      -9.937519      -270.4136
  10   2.0000      -9.935801      -270.3669
  11   2.0000      -9.929143      -270.1857
  12   2.0000      -0.981661       -26.7124
  13   2.0000      -0.955995       -26.0139
  14   2.0000      -0.950112       -25.8539
  15   2.0000      -0.928170       -25.2568
  16   2.0000      -0.918693       -24.9989
  17   2.0000      -0.904423       -24.6106
  18   2.0000      -0.703523       -19.1438
  19   2.0000      -0.693907       -18.8822
  20   2.0000      -0.612188       -16.6585
  21   2.0000      -0.599913       -16.3245
  22   2.0000      -0.564789       -15.3687
  23   2.0000      -0.530756       -14.4426
  24   2.0000      -0.511481       -13.9181
  25   2.0000      -0.490437       -13.3455
  26   2.0000      -0.478511       -13.0210
  27   2.0000      -0.458989       -12.4897
  28   2.0000      -0.441205       -12.0058
  29   2.0000      -0.429202       -11.6792
  30   2.0000      -0.421759       -11.4767
  31   2.0000      -0.406764       -11.0686
  32   2.0000      -0.388042       -10.5592
  33   2.0000      -0.377483       -10.2718
  34   2.0000      -0.366495        -9.9728
  35   2.0000      -0.343158        -9.3378
  36   2.0000      -0.336920        -9.1681
  37   2.0000      -0.332571        -9.0497
  38   2.0000      -0.308893        -8.4054
  39   2.0000      -0.292563        -7.9610
  40   2.0000      -0.287540        -7.8244
  41   2.0000      -0.271447        -7.3864
  42   2.0000      -0.254086        -6.9140
  43   2.0000      -0.244796        -6.6612
  44   2.0000      -0.233275        -6.3477
  45   2.0000      -0.228784        -6.2255
  46   2.0000      -0.214482        -5.8363
  47   2.0000      -0.198340        -5.3971
  48   0.0000      -0.002531        -0.0689
  49   0.0000       0.016273         0.4428
  50   0.0000       0.024619         0.6699
  51   0.0000       0.063392         1.7250
  52   0.0000       0.072425         1.9708

MULLIKEN ATOMIC CHARGES
-----------------------
   0 C :    0.009668
   1 C :    0.051865
   2 H :    0.082378
   3 C :    0.057929
   4 H :    0.074665
   5 C :    0.010246
   6 H :    0.088169
   7 C :    0.006697
   8 H :    0.087549
   9 C :    0.185213
  10 H :    0.057503
  11 O :   -0.300689
  12 O :   -0.402942
  13 O :   -0.417358
  14 O :   -0.419997
  15 O :   -0.425988
  16 O :   -0.435753
  17 H :    0.085328
  18 H :    0.047972
  19 H :    0.318123
  20 H :    0.313399
  21 H :    0.321465
  22 H :    0.300962
  23 H :    0.303598
Sum of atomic charges:   -0.0000000

LOEWDIN ATOMIC CHARGES
----------------------
   0 C :   -0.143702
   1 C :   -0.065776
   2 H :    0.124600
   3 C :   -0.077720
   4 H :    0.116108
   5 C :   -0.071241
   6 H :    0.111722
   7 C :   -0.087847
   8 H :    0.110556
   9 C :   -0.012953
  10 H :    0.100530
  11 O :   -0.139202
  12 O :   -0.307244
  13 O :   -0.303180
  14 O :   -0.309260
  15 O :   -0.317265
  16 O :   -0.344556
  17 H :    0.105334
  18 H :    0.086306
  19 H :    0.271264
  20 H :    0.293749
  21 H :    0.298479
  22 H :    0.272140
  23 H :    0.289159

  Mayer bond orders larger than 0.100000
B(  0-C ,  1-C ) :   1.0481 B(  0-C , 16-O ) :   1.0640 B(  0-C , 17-H ) :   0.9106
B(  0-C , 18-H ) :   0.8986 B(  1-C ,  2-H ) :   0.8893 B(  1-C ,  3-C ) :   0.9966
B(  1-C , 11-O ) :   1.0112 B(  3-C ,  4-H ) :   0.8857 B(  3-C ,  5-C ) :   0.9717
B(  3-C , 15-O ) :   1.0593 B(  5-C ,  6-H ) :   0.9023 B(  5-C ,  7-C ) :   1.0057
B(  5-C , 14-O ) :   1.0257 B(  7-C ,  8-H ) :   0.8956 B(  7-C ,  9-C ) :   0.9868
B(  7-C , 13-O ) :   1.0232 B(  9-C , 10-H ) :   0.9087 B(  9-C , 11-O ) :   1.0559
B(  9-C , 12-O ) :   1.1436 B( 12-O , 19-H ) :   0.7945 B( 13-O , 20-H ) :   0.8400
B( 14-O , 21-H ) :   0.8354 B( 15-O , 22-H ) :   0.8170 B( 16-O , 23-H ) :   0.8506

Dispersion correction           -0.026018731
FINAL SINGLE POINT ENERGY      -685.695951363647

DIPOLE MOMENT
-------------

Method             : SCF
Type of density    : Electron Density
Multiplicity       :   1
Irrep              :   0
Energy             :  -685.8293419409029639 Eh
Relativity type    :
Basis              : AO
                                X                 Y                 Z
Electronic contribution:      1.333004678       0.075129169       1.584147093
Nuclear contribution   :     -1.103039060      -0.031876532      -2.339781823
                        -----------------------------------------
Total Dipole Moment    :      0.229965618       0.043252637      -0.755634730
                        -----------------------------------------
Magnitude (a.u.)       :      0.791036549
Magnitude (Debye)      :      2.010655117

Rotational constants in cm-1:             0.040863             0.028948             0.024825
Rotational constants in MHz :          1225.032954           867.844064           744.223950

                             ****ORCA TERMINATED NORMALLY****
TOTAL RUN TIME: 0 days 0 hours 0 minutes 8 seconds 139 msec
