                         Program Version 6.0.1  -  RELEASE   -
|  1> ! pbe def2-sv(p) def2/J RI DEFGRID1 loosescf d4 GCP(DFT/SV(P)) printgap
|  2> %output
|  3>     printlevel normal
|  4> end
|  5> * xyz 0 1
|  6> C -2.4528296037 -0.8779827256 -0.1260967084
|  7> C -1.0966205068 -0.5927569369 0.5412606704
|  8> H -1.1153843366 -0.9666119428 1.581146836
|  9> C -0.764486154 0.9188358146 0.5762124533
| 10> H -1.6527608576 1.4880179004 0.2721251503
| 11> C 0.3663737147 1.2341445453 -0.4166707593
| 12> H 0.6374845395 2.2934388306 -0.2896931397
| 13> C 1.6131240657 0.3900448617 -0.074390953
| 14> H 2.2870684148 0.365297244 -0.9403827071
| 15> C 1.1913577682 -1.0739032952 0.2529194459
| 16> H 1.2768457624 -1.2240779305 1.3431052235
| 17> O -0.1254852512 -1.3203334194 -0.1787299865
| 18> O 2.0099960425 -2.0151618972 -0.3418251073
| 19> O 2.346168272 0.9768953352 0.9608367688
| 20> O -0.1131993663 0.9955515212 -1.7185488144
| 21> O -0.317237198 1.3340633174 1.8519310223
| 22> O -2.7382105976 -0.028774554 -1.1986516173
| 23> H -3.2598331139 -0.7392778788 0.5986293094
| 24> H -2.4397032226 -1.9290792389 -0.4467387043
| 25> H 1.7128100762 -2.1319883602 -1.2526318205
| 26> H 1.7378358691 1.1622183593 1.6908087428
| 27> H 0.5686541253 1.2456125548 -2.3514790398
| 28> H -1.0545734092 1.3009697236 2.4704556088
| 29> H -1.9352041659 0.0716362309 -1.7304765307
| 30> *
| 31>
| 32>                          ****END OF INPUT****

CARTESIAN COORDINATES (ANGSTROEM)
---------------------------------
  C     -2.452830   -0.877983   -0.126097
  C     -1.096621   -0.592757    0.541261
  H     -1.115384   -0.966612    1.581147
  C     -0.764486    0.918836    0.576212
  H     -1.652761    1.488018    0.272125
  C      0.366374    1.234145   -0.416671
  H      0.637485    2.293439   -0.289693
  C      1.613124    0.390045   -0.074391
  H      2.287068    0.365297   -0.940383
  C      1.191358   -1.073903    0.252919
  H      1.276846   -1.224078    1.343105
  O     -0.125485   -1.320333   -0.178730
  O      2.009996   -2.015162   -0.341825
  O      2.346168    0.976895    0.960837
  O     -0.113199    0.995552   -1.718549
  O     -0.317237    1.334063    1.851931
  O     -2.738211   -0.028775   -1.198652
  H     -3.259833   -0.739278    0.598629
  H     -2.439703   -1.929079   -0.446739
  H      1.712810   -2.131988   -1.252632
  H      1.737836    1.162218    1.690809
  H      0.568654    1.245613   -2.351479
  H     -1.054573    1.300970    2.470456
  H     -1.935204    0.071636   -1.730477

 Total Charge           Charge          ....    0
 Multiplicity           Mult            ....    1
 Number of Electrons    NEL             ....   96
 Basis Dimension        Dim             ....  192

ORBITAL ENERGIES
----------------

  NO   OCC          E(Eh)            E(eV)
   0   2.0000     -18.781395      -511.0677
   1   2.0000     -18.779303      -511.0108
   2   2.0000     -18.771623      -510.8018
   3   2.0000     -18.753644      -510.3126
   4   2.0000     -18.741796      -509.9902
   5   2.0000     -18.738345      -509.8963
   6   2.0000      -9.982922      -271.6491
   7   2.0000      -9.955725      -270.9090
   8   2.0000      -9.954135      -270.8658
   9   2.0000      -9.950539      -270.7679
  10   2.0000      -9.938421      -270.4382
  11   2.0000      -9.932980      -270.2901
  12   2.0000      -0.988526       -26.8992
  13   2.0000      -0.959587       -26.1117
  14   2.0000      -0.950000       -25.8508
  15   2.0000      -0.926670       -25.2160
  16   2.0000      -0.920396       -25.0452
  17   2.0000      -0.910809       -24.7844
  18   2.0000      -0.707134       -19.2421
  19   2.0000      -0.686422       -18.6785
  20   2.0000      -0.624245       -16.9866
  21   2.0000      -0.588933       -16.0257
  22   2.0000      -0.568970       -15.4825
  23   2.0000      -0.534821       -14.5532
  24   2.0000      -0.512757       -13.9528
  25   2.0000      -0.497775       -13.5452
  26   2.0000      -0.480678       -13.0799
  27   2.0000      -0.457621       -12.4525
  28   2.0000      -0.455939       -12.4067
  29   2.0000      -0.441467       -12.0129
  30   2.0000      -0.415472       -11.3056
  31   2.0000      -0.393687       -10.7128
  32   2.0000      -0.387285       -10.5386
  33   2.0000      -0.381517       -10.3816
  34   2.0000      -0.364295        -9.9130
  35   2.0000      -0.358529        -9.7561
  36   2.0000      -0.334321        -9.0973
  37   2.0000      -0.324450        -8.8287
  38   2.0000      -0.319024        -8.6811
  39   2.0000      -0.306992        -8.3537
  40   2.0000      -0.281888        -7.6706
  41   2.0000      -0.272060        -7.4031
  42   2.0000      -0.257698        -7.0123
  43   2.0000      -0.245345        -6.6762
  44   2.0000      -0.245240        -6.6733
  45   2.0000      -0.229400        -6.2423
  46   2.0000      -0.211276        -5.7491
  47   2.0000      -0.193584        -5.2677
  48   0.0000      -0.004433        -0.1206
  49   0.0000       0.013764         0.3745
  50   0.0000       0.038526         1.0483
  51   0.0000       0.048959         1.3322
  52   0.0000       0.067268         1.8305

MULLIKEN ATOMIC CHARGES
-----------------------
   0 C :    0.094185
   1 C :   -0.009317
   2 H :    0.051259
   3 C :   -0.015371
   4 H :    0.097649
   5 C :    0.049484
   6 H :    0.081936
   7 C :    0.037245
   8 H :    0.046192
   9 C :    0.225408
  10 H :    0.045203
  11 O :   -0.299411
  12 O :   -0.385147
  13 O :   -0.422650
  14 O :   -0.419437
  15 O :   -0.428437
  16 O :   -0.440816
  17 H :    0.076402
  18 H :    0.084359
  19 H :    0.295910
  20 H :    0.304718
  21 H :    0.311851
  22 H :    0.315034
  23 H :    0.303750
Sum of atomic charges:   -0.0000000

LOEWDIN ATOMIC CHARGES
----------------------
   0 C :   -0.121555
   1 C :   -0.080976
   2 H :    0.101010
   3 C :   -0.076360
   4 H :    0.117485
   5 C :   -0.073494
   6 H :    0.109534
   7 C :   -0.094497
   8 H :    0.107992
   9 C :    0.004197
  10 H :    0.094746
  11 O :   -0.152761
  12 O :   -0.294178
  13 O :   -0.312257
  14 O :   -0.308197
  15 O :   -0.314392
  16 O :   -0.337850
  17 H :    0.109462
  18 H :    0.104991
  19 H :    0.283754
  20 H :    0.273939
  21 H :    0.292810
  22 H :    0.294359
  23 H :    0.272240

  Mayer bond orders larger than 0.100000
B(  0-C ,  1-C ) :   1.0349 B(  0-C , 16-O ) :   1.0990 B(  0-C , 17-H ) :   0.9208
B(  0-C , 18-H ) :   0.9111 B(  1-C ,  2-H ) :   0.8834 B(  1-C ,  3-C ) :   0.9638
B(  1-C , 11-O ) :   1.0139 B(  3-C ,  4-H ) :   0.8909 B(  3-C ,  5-C ) :   1.0320
B(  3-C , 15-O ) :   1.0268 B(  5-C ,  6-H ) :   0.8963 B(  5-C ,  7-C ) :   0.9580
B(  5-C , 14-O ) :   1.0173 B(  7-C ,  8-H ) :   0.8914 B(  7-C ,  9-C ) :   0.9408
B(  7-C , 13-O ) :   1.0669 B(  9-C , 10-H ) :   0.8760 B(  9-C , 11-O ) :   1.0398
B(  9-C , 12-O ) :   1.1271 B( 12-O , 19-H ) :   0.8467 B( 13-O , 20-H ) :   0.8197
B( 14-O , 21-H ) :   0.8409 B( 15-O , 22-H ) :   0.8429 B( 16-O , 23-H ) :   0.8076

Dispersion correction           -0.025393908
FINAL SINGLE POINT ENERGY      -685.687909017584

DIPOLE MOMENT
-------------

Method             : SCF
Type of density    : Electron Density
Multiplicity       :   1
Irrep              :   0
Energy             :  -685.8207130973662515 Eh
Relativity type    :
Basis              : AO
                                X                 Y                 Z
Electronic contribution:      2.592678096      -0.452826740      -0.836945984
Nuclear contribution   :     -3.020898348       0.877417428       0.877188919
                        -----------------------------------------
Total Dipole Moment    :     -0.428220252       0.424590688       0.040242935
                        -----------------------------------------
Magnitude (a.u.)       :      0.604375157
Magnitude (Debye)      :      1.536199565

Rotational constants in cm-1:             0.042198             0.027262             0.023384
Rotational constants in MHz :          1265.072731           817.283499           701.030363

                             ****ORCA TERMINATED NORMALLY****
TOTAL RUN TIME: 0 days 0 hours 0 minutes 10 seconds 400 msec
