                         Program Version 6.0.1  -  RELEASE   -
|  1> ! pbe def2-sv(p) def2/J RI DEFGRID1 loosescf d4 GCP(DFT/SV(P)) printgap
|  2> %output
|  3>     printlevel normal
|  4> end
|  5> * xyz 0 1
|  6> C -2.0804975113 0.0097662043 -0.1316093819
|  7> C -0.7652156771 0.6376857033 0.3150684385
|  8> C 0.4700103235 0.0010532654 -0.3316375751
|  9> C 1.7123508806 0.8294476247 -0.007680214
| 10> C 0.6730582347 -1.4393798085 0.1321915769
| 11> H -2.9205466553 0.5572351723 0.2903696176
| 12> H -2.1543765561 -1.0240667643 0.1951893922
| 13> H -2.1658849123 0.0353746173 -1.2160907425
| 14> H -0.7815427473 1.6999786398 0.0586139714
| 15> H -0.6778318097 0.5630394916 1.4016430932
| 16> H 0.3280090191 0.0002793609 -1.4186778308
| 17> H 2.5933669737 0.3995007891 -0.4790289296
| 18> H 1.8782069497 0.8570464902 1.0674495066
| 19> H 1.5987786087 1.85136556 -0.3630213067
| 20> H 0.7719565632 -1.4773587258 1.2152971879
| 21> H 1.5772705391 -1.8538001898 -0.3085710902
| 22> H -0.1630739695 -2.0682632307 -0.161134765
| 23> *
| 24>
| 25>                          ****END OF INPUT****

CARTESIAN COORDINATES (ANGSTROEM)
---------------------------------
  C     -2.080498    0.009766   -0.131609
  C     -0.765216    0.637686    0.315068
  C      0.470010    0.001053   -0.331638
  C      1.712351    0.829448   -0.007680
  C      0.673058   -1.439380    0.132192
  H     -2.920547    0.557235    0.290370
  H     -2.154377   -1.024067    0.195189
  H     -2.165885    0.035375   -1.216091
  H     -0.781543    1.699979    0.058614
  H     -0.677832    0.563039    1.401643
  H      0.328009    0.000279   -1.418678
  H      2.593367    0.399501   -0.479029
  H      1.878207    0.857046    1.067450
  H      1.598779    1.851366   -0.363021
  H      0.771957   -1.477359    1.215297
  H      1.577271   -1.853800   -0.308571
  H     -0.163074   -2.068263   -0.161135

 Total Charge           Charge          ....    0
 Multiplicity           Mult            ....    1
 Number of Electrons    NEL             ....   42
 Basis Dimension        Dim             ....   94

ORBITAL ENERGIES
----------------

  NO   OCC          E(Eh)            E(eV)
   0   2.0000      -9.889297      -269.1015
   1   2.0000      -9.878079      -268.7962
   2   2.0000      -9.869445      -268.5613
   3   2.0000      -9.868440      -268.5339
   4   2.0000      -9.867701      -268.5138
   5   2.0000      -0.728771       -19.8309
   6   2.0000      -0.654843       -17.8192
   7   2.0000      -0.606721       -16.5097
   8   2.0000      -0.552067       -15.0225
   9   2.0000      -0.491770       -13.3817
  10   2.0000      -0.415479       -11.3058
  11   2.0000      -0.395483       -10.7616
  12   2.0000      -0.382386       -10.4053
  13   2.0000      -0.362424        -9.8620
  14   2.0000      -0.338179        -9.2023
  15   2.0000      -0.333896        -9.0858
  16   2.0000      -0.313316        -8.5258
  17   2.0000      -0.303433        -8.2568
  18   2.0000      -0.279052        -7.5934
  19   2.0000      -0.275307        -7.4915
  20   2.0000      -0.270930        -7.3724
  21   0.0000       0.035783         0.9737
  22   0.0000       0.065268         1.7760
  23   0.0000       0.070559         1.9200
  24   0.0000       0.080605         2.1934
  25   0.0000       0.102926         2.8007

MULLIKEN ATOMIC CHARGES
-----------------------
   0 C :   -0.266510
   1 C :   -0.162715
   2 C :   -0.182482
   3 C :   -0.233761
   4 C :   -0.253102
   5 H :    0.100452
   6 H :    0.103133
   7 H :    0.095412
   8 H :    0.079799
   9 H :    0.077347
  10 H :    0.069055
  11 H :    0.096035
  12 H :    0.090469
  13 H :    0.095452
  14 H :    0.091128
  15 H :    0.096890
  16 H :    0.103399
Sum of atomic charges:    0.0000000

LOEWDIN ATOMIC CHARGES
----------------------
   0 C :   -0.341632
   1 C :   -0.225518
   2 C :   -0.158927
   3 C :   -0.328841
   4 C :   -0.330684
   5 H :    0.119215
   6 H :    0.116225
   7 H :    0.116558
   8 H :    0.112838
   9 H :    0.112655
  10 H :    0.111982
  11 H :    0.115582
  12 H :    0.115734
  13 H :    0.115325
  14 H :    0.116025
  15 H :    0.117218
  16 H :    0.116244

  Mayer bond orders larger than 0.100000
B(  0-C ,  1-C ) :   1.1584 B(  0-C ,  5-H ) :   0.9512 B(  0-C ,  6-H ) :   0.9488
B(  0-C ,  7-H ) :   0.9533 B(  1-C ,  2-C ) :   1.0857 B(  1-C ,  8-H ) :   0.9270
B(  1-C ,  9-H ) :   0.9211 B(  2-C ,  3-C ) :   1.1142 B(  2-C ,  4-C ) :   1.1056
B(  2-C , 10-H ) :   0.9047 B(  3-C , 11-H ) :   0.9518 B(  3-C , 12-H ) :   0.9502
B(  3-C , 13-H ) :   0.9499 B(  4-C , 14-H ) :   0.9503 B(  4-C , 15-H ) :   0.9508
B(  4-C , 16-H ) :   0.9476

Dispersion correction           -0.011596924
FINAL SINGLE POINT ENERGY      -197.237446264355

DIPOLE MOMENT
-------------

Method             : SCF
Type of density    : Electron Density
Multiplicity       :   1
Irrep              :   0
Energy             :  -197.2952197579687379 Eh
Relativity type    :
Basis              : AO
                                X                 Y                 Z
Electronic contribution:      0.093080872       0.438683579      -0.288819913
Nuclear contribution   :     -0.108515182      -0.431243245       0.264597097
                        -----------------------------------------
Total Dipole Moment    :     -0.015434310       0.007440334      -0.024222815
                        -----------------------------------------
Magnitude (a.u.)       :      0.029670209
Magnitude (Debye)      :      0.075415677

Rotational constants in cm-1:             0.245553             0.112944             0.086652
Rotational constants in MHz :          7361.494082          3385.988747          2597.771997

                             ****ORCA TERMINATED NORMALLY****
TOTAL RUN TIME: 0 days 0 hours 0 minutes 16 seconds 268 msec
