                         Program Version 6.0.1  -  RELEASE   -
|  1> ! pbe def2-sv(p) def2/J RI DEFGRID1 loosescf d4 GCP(DFT/SV(P)) printgap
|  2> %output
|  3>     printlevel normal
|  4> end
|  5> * xyz 0 1
|  6> C 2.1946491797 0.4524851501 0.1345831394
|  7> C 1.2221429069 -0.6184980785 -0.3438162324
|  8> C -0.1247084312 -0.5485171733 0.3646892196
|  9> H 0.0182960805 -0.5134488088 1.4482498022
| 10> C -1.0459725123 -1.6944033349 -0.0151428553
| 11> Cl -0.9379838264 0.9987877805 -0.0562863372
| 12> H 3.1391901284 0.3682462143 -0.3967823539
| 13> H 2.3871091635 0.34565452 1.20005159
| 14> H 1.7854738062 1.4435257209 -0.0437935633
| 15> H 1.6471566398 -1.6076386254 -0.1549565672
| 16> H 1.0649493253 -0.5194667445 -1.4196954501
| 17> H -1.20419507 -1.7132810801 -1.0910442991
| 18> H -0.600337443 -2.6391154494 0.290184853
| 19> H -2.010537107 -1.5900374863 0.4755712959
| 20> *
| 21>
| 22>                          ****END OF INPUT****

CARTESIAN COORDINATES (ANGSTROEM)
---------------------------------
  C      2.194649    0.452485    0.134583
  C      1.222143   -0.618498   -0.343816
  C     -0.124708   -0.548517    0.364689
  H      0.018296   -0.513449    1.448250
  C     -1.045973   -1.694403   -0.015143
  Cl    -0.937984    0.998788   -0.056286
  H      3.139190    0.368246   -0.396782
  H      2.387109    0.345655    1.200052
  H      1.785474    1.443526   -0.043794
  H      1.647157   -1.607639   -0.154957
  H      1.064949   -0.519467   -1.419695
  H     -1.204195   -1.713281   -1.091044
  H     -0.600337   -2.639115    0.290185
  H     -2.010537   -1.590037    0.475571

 Total Charge           Charge          ....    0
 Multiplicity           Mult            ....    1
 Number of Electrons    NEL             ....   50
 Basis Dimension        Dim             ....   92

ORBITAL ENERGIES
----------------

  NO   OCC          E(Eh)            E(eV)
   0   2.0000    -100.613752     -2737.8394
   1   2.0000      -9.948652      -270.7166
   2   2.0000      -9.895480      -269.2697
   3   2.0000      -9.886210      -269.0175
   4   2.0000      -9.875455      -268.7248
   5   2.0000      -9.149824      -248.9794
   6   2.0000      -6.981027      -189.9634
   7   2.0000      -6.969659      -189.6541
   8   2.0000      -6.969542      -189.6509
   9   2.0000      -0.784637       -21.3511
  10   2.0000      -0.692006       -18.8304
  11   2.0000      -0.656377       -17.8609
  12   2.0000      -0.569110       -15.4863
  13   2.0000      -0.516123       -14.0444
  14   2.0000      -0.432936       -11.7808
  15   2.0000      -0.403126       -10.9696
  16   2.0000      -0.393891       -10.7183
  17   2.0000      -0.378640       -10.3033
  18   2.0000      -0.342635        -9.3236
  19   2.0000      -0.327228        -8.9043
  20   2.0000      -0.313557        -8.5323
  21   2.0000      -0.304447        -8.2844
  22   2.0000      -0.301796        -8.2123
  23   2.0000      -0.244026        -6.6403
  24   2.0000      -0.242687        -6.6038
  25   0.0000       0.013950         0.3796
  26   0.0000       0.037586         1.0228
  27   0.0000       0.065311         1.7772
  28   0.0000       0.068658         1.8683
  29   0.0000       0.099987         2.7208

MULLIKEN ATOMIC CHARGES
-----------------------
   0 C :   -0.262059
   1 C :   -0.149032
   2 C :   -0.196204
   3 H :    0.119658
   4 C :   -0.200418
   5 Cl:   -0.137323
   6 H :    0.105390
   7 H :    0.096075
   8 H :    0.109350
   9 H :    0.092217
  10 H :    0.095439
  11 H :    0.108159
  12 H :    0.103755
  13 H :    0.114994
Sum of atomic charges:   -0.0000000

LOEWDIN ATOMIC CHARGES
----------------------
   0 C :   -0.346776
   1 C :   -0.245219
   2 C :   -0.191429
   3 H :    0.121675
   4 C :   -0.348510
   5 Cl:    0.037339
   6 H :    0.121217
   7 H :    0.117234
   8 H :    0.117929
   9 H :    0.122179
  10 H :    0.121176
  11 H :    0.124412
  12 H :    0.124296
  13 H :    0.124478

  Mayer bond orders larger than 0.100000
B(  0-C ,  1-C ) :   1.1563 B(  0-C ,  6-H ) :   0.9521 B(  0-C ,  7-H ) :   0.9530
B(  0-C ,  8-H ) :   0.9439 B(  1-C ,  2-C ) :   1.0652 B(  1-C ,  9-H ) :   0.9136
B(  1-C , 10-H ) :   0.9154 B(  2-C ,  3-H ) :   0.9093 B(  2-C ,  4-C ) :   1.1091
B(  2-C ,  5-Cl) :   1.0100 B(  4-C , 11-H ) :   0.9442 B(  4-C , 12-H ) :   0.9354
B(  4-C , 13-H ) :   0.9458

Dispersion correction           -0.010548481
FINAL SINGLE POINT ENERGY      -617.305223909610

DIPOLE MOMENT
-------------

Method             : SCF
Type of density    : Electron Density
Multiplicity       :   1
Irrep              :   0
Energy             :  -617.3519143076106275 Eh
Relativity type    :
Basis              : AO
                                X                 Y                 Z
Electronic contribution:     -6.776819310       6.752163436      -0.238762282
Nuclear contribution   :      7.101044651      -7.368841589       0.364302497
                        -----------------------------------------
Total Dipole Moment    :      0.324225340      -0.616678153       0.125540215
                        -----------------------------------------
Magnitude (a.u.)       :      0.707936693
Magnitude (Debye)      :      1.799432071

Rotational constants in cm-1:             0.154386             0.105608             0.068105
Rotational constants in MHz :          4628.368920          3166.062768          2041.725346

                             ****ORCA TERMINATED NORMALLY****
TOTAL RUN TIME: 0 days 0 hours 0 minutes 8 seconds 804 msec
