                         Program Version 6.0.1  -  RELEASE   -
|  1> ! pbe def2-sv(p) def2/J RI DEFGRID1 loosescf d4 GCP(DFT/SV(P)) printgap
|  2> %output
|  3>     printlevel normal
|  4> end
|  5> * xyz 0 1
|  6> C 3.7482443472 -0.2020492622 -0.0522772359
|  7> C 2.286591739 -0.171038454 0.3833095533
|  8> H 2.24627229 -0.0156425333 1.4677520317
|  9> C 1.5747451528 -1.4777334344 0.0508628571
| 10> C 0.1275922528 -1.4079967581 0.5181820417
| 11> C -0.6772654879 -0.2813651246 -0.1478617275
| 12> H -0.7080200884 -0.449937429 -1.2299647914
| 13> C 0.0570670131 1.0600716802 0.0669716365
| 14> H -0.0350035318 1.3508868069 1.127724614
| 15> C 1.5406979788 0.9611702471 -0.3081958585
| 16> O -0.4213285018 2.096609792 -0.767270879
| 17> C -2.1245710393 -0.3552815951 0.4064172788
| 18> C -2.9599736256 0.9236983623 0.3147925437
| 19> C -2.8961417399 -1.4678992185 -0.3082634069
| 20> H 4.277977598 -1.0109437665 0.4463255676
| 21> H 3.8203758276 -0.3552346785 -1.1268358386
| 22> H 4.2410395158 0.7356054601 0.1937448568
| 23> H 1.6101518746 -1.647148526 -1.0273910939
| 24> H 2.0755471633 -2.3164511507 0.5398146517
| 25> H -0.3579184434 -2.3652003286 0.3245483437
| 26> H 0.1192855138 -1.2470037376 1.5999820143
| 27> H 1.5899332066 0.8243860809 -1.3904106524
| 28> H 2.002341708 1.9234819014 -0.0809211636
| 29> H -1.3497002112 2.2608259842 -0.5818726609
| 30> H -2.0533534673 -0.6126559641 1.4701102952
| 31> H -3.9542257972 0.7231865492 0.7122765842
| 32> H -3.0813580839 1.241122751 -0.719720287
| 33> H -2.5355731062 1.7287150951 0.9117439075
| 34> H -3.8789441144 -1.5941985291 0.1409622404
| 35> H -2.3770332369 -2.4200915685 -0.250500339
| 36> H -3.0311801846 -1.2152693979 -1.3581469297
| 37> *
| 38>
| 39>                          ****END OF INPUT****

CARTESIAN COORDINATES (ANGSTROEM)
---------------------------------
  C      3.748244   -0.202049   -0.052277
  C      2.286592   -0.171038    0.383310
  H      2.246272   -0.015643    1.467752
  C      1.574745   -1.477733    0.050863
  C      0.127592   -1.407997    0.518182
  C     -0.677265   -0.281365   -0.147862
  H     -0.708020   -0.449937   -1.229965
  C      0.057067    1.060072    0.066972
  H     -0.035004    1.350887    1.127725
  C      1.540698    0.961170   -0.308196
  O     -0.421329    2.096610   -0.767271
  C     -2.124571   -0.355282    0.406417
  C     -2.959974    0.923698    0.314793
  C     -2.896142   -1.467899   -0.308263
  H      4.277978   -1.010944    0.446326
  H      3.820376   -0.355235   -1.126836
  H      4.241040    0.735605    0.193745
  H      1.610152   -1.647149   -1.027391
  H      2.075547   -2.316451    0.539815
  H     -0.357918   -2.365200    0.324548
  H      0.119286   -1.247004    1.599982
  H      1.589933    0.824386   -1.390411
  H      2.002342    1.923482   -0.080921
  H     -1.349700    2.260826   -0.581873
  H     -2.053353   -0.612656    1.470110
  H     -3.954226    0.723187    0.712277
  H     -3.081358    1.241123   -0.719720
  H     -2.535573    1.728715    0.911744
  H     -3.878944   -1.594199    0.140962
  H     -2.377033   -2.420092   -0.250500
  H     -3.031180   -1.215269   -1.358147

 Total Charge           Charge          ....    0
 Multiplicity           Mult            ....    1
 Number of Electrons    NEL             ....   88
 Basis Dimension        Dim             ....  194

ORBITAL ENERGIES
----------------

  NO   OCC          E(Eh)            E(eV)
   0   2.0000     -18.731822      -509.7188
   1   2.0000      -9.930483      -270.2222
   2   2.0000      -9.898932      -269.3636
   3   2.0000      -9.888836      -269.0889
   4   2.0000      -9.888632      -269.0834
   5   2.0000      -9.885015      -268.9849
   6   2.0000      -9.881627      -268.8927
   7   2.0000      -9.877780      -268.7881
   8   2.0000      -9.875248      -268.7192
   9   2.0000      -9.871657      -268.6214
  10   2.0000      -9.868677      -268.5404
  11   2.0000      -0.913405       -24.8550
  12   2.0000      -0.757448       -20.6112
  13   2.0000      -0.726288       -19.7633
  14   2.0000      -0.672366       -18.2960
  15   2.0000      -0.653767       -17.7899
  16   2.0000      -0.617368       -16.7994
  17   2.0000      -0.602086       -16.3836
  18   2.0000      -0.536795       -14.6069
  19   2.0000      -0.533645       -14.5212
  20   2.0000      -0.505836       -13.7645
  21   2.0000      -0.497510       -13.5379
  22   2.0000      -0.451169       -12.2769
  23   2.0000      -0.427564       -11.6346
  24   2.0000      -0.410953       -11.1826
  25   2.0000      -0.397080       -10.8051
  26   2.0000      -0.392823       -10.6893
  27   2.0000      -0.383336       -10.4311
  28   2.0000      -0.368426       -10.0254
  29   2.0000      -0.355958        -9.6861
  30   2.0000      -0.352506        -9.5922
  31   2.0000      -0.345763        -9.4087
  32   2.0000      -0.335915        -9.1407
  33   2.0000      -0.324353        -8.8261
  34   2.0000      -0.312868        -8.5136
  35   2.0000      -0.303011        -8.2454
  36   2.0000      -0.298915        -8.1339
  37   2.0000      -0.296204        -8.0601
  38   2.0000      -0.283793        -7.7224
  39   2.0000      -0.280087        -7.6216
  40   2.0000      -0.273479        -7.4417
  41   2.0000      -0.262582        -7.1452
  42   2.0000      -0.245788        -6.6882
  43   2.0000      -0.206399        -5.6164
  44   0.0000       0.030039         0.8174
  45   0.0000       0.039408         1.0724
  46   0.0000       0.043054         1.1716
  47   0.0000       0.054789         1.4909
  48   0.0000       0.072808         1.9812

MULLIKEN ATOMIC CHARGES
-----------------------
   0 C :   -0.195804
   1 C :   -0.202872
   2 H :    0.060061
   3 C :   -0.075590
   4 C :   -0.137062
   5 C :   -0.136705
   6 H :    0.051907
   7 C :    0.057331
   8 H :    0.044042
   9 C :   -0.096298
  10 O :   -0.409307
  11 C :   -0.119702
  12 C :   -0.283829
  13 C :   -0.254827
  14 H :    0.093575
  15 H :    0.089575
  16 H :    0.096027
  17 H :    0.064983
  18 H :    0.074478
  19 H :    0.085127
  20 H :    0.067445
  21 H :    0.070506
  22 H :    0.082686
  23 H :    0.281128
  24 H :    0.065794
  25 H :    0.102729
  26 H :    0.107974
  27 H :    0.115244
  28 H :    0.097384
  29 H :    0.106310
  30 H :    0.097687
Sum of atomic charges:   -0.0000000

LOEWDIN ATOMIC CHARGES
----------------------
   0 C :   -0.325869
   1 C :   -0.154455
   2 H :    0.112158
   3 C :   -0.215941
   4 C :   -0.215183
   5 C :   -0.149945
   6 H :    0.116485
   7 C :   -0.044275
   8 H :    0.092780
   9 C :   -0.215225
  10 O :   -0.325138
  11 C :   -0.146686
  12 C :   -0.345308
  13 C :   -0.328070
  14 H :    0.116033
  15 H :    0.116945
  16 H :    0.117510
  17 H :    0.114312
  18 H :    0.114625
  19 H :    0.115591
  20 H :    0.113799
  21 H :    0.119404
  22 H :    0.119670
  23 H :    0.270941
  24 H :    0.115292
  25 H :    0.124050
  26 H :    0.118813
  27 H :    0.116561
  28 H :    0.116829
  29 H :    0.116446
  30 H :    0.117852

  Mayer bond orders larger than 0.100000
B(  0-C ,  1-C ) :   1.1134 B(  0-C , 14-H ) :   0.9486 B(  0-C , 15-H ) :   0.9459
B(  0-C , 16-H ) :   0.9489 B(  1-C ,  2-H ) :   0.8924 B(  1-C ,  3-C ) :   1.0859
B(  1-C ,  9-C ) :   1.0771 B(  3-C ,  4-C ) :   1.1407 B(  3-C , 17-H ) :   0.9029
B(  3-C , 18-H ) :   0.9101 B(  4-C ,  5-C ) :   1.0835 B(  4-C , 19-H ) :   0.9057
B(  4-C , 20-H ) :   0.8966 B(  5-C ,  6-H ) :   0.8681 B(  5-C ,  7-C ) :   1.0378
B(  5-C , 11-C ) :   1.0341 B(  7-C ,  8-H ) :   0.8886 B(  7-C ,  9-C ) :   1.0986
B(  7-C , 10-O ) :   1.0744 B(  9-C , 21-H ) :   0.8947 B(  9-C , 22-H ) :   0.9097
B( 10-O , 23-H ) :   0.8389 B( 11-C , 12-C ) :   1.1208 B( 11-C , 13-C ) :   1.1150
B( 11-C , 24-H ) :   0.8872 B( 12-C , 25-H ) :   0.9358 B( 12-C , 26-H ) :   0.9319
B( 12-C , 27-H ) :   0.9239 B( 13-C , 28-H ) :   0.9475 B( 13-C , 29-H ) :   0.9430
B( 13-C , 30-H ) :   0.9476

Dispersion correction           -0.031255164
FINAL SINGLE POINT ENERGY      -467.195385085349

DIPOLE MOMENT
-------------

Method             : SCF
Type of density    : Electron Density
Multiplicity       :   1
Irrep              :   0
Energy             :  -467.3085978519052333 Eh
Relativity type    :
Basis              : AO
                                X                 Y                 Z
Electronic contribution:      0.861258172       3.822713251      -0.688960985
Nuclear contribution   :     -1.300341837      -4.154575145       1.085537569
                        -----------------------------------------
Total Dipole Moment    :     -0.439083666      -0.331861893       0.396576584
                        -----------------------------------------
Magnitude (a.u.)       :      0.678380254
Magnitude (Debye)      :      1.724305572

Rotational constants in cm-1:             0.063067             0.023048             0.018110
Rotational constants in MHz :          1890.698115           690.954494           542.934345

                             ****ORCA TERMINATED NORMALLY****
TOTAL RUN TIME: 0 days 0 hours 0 minutes 11 seconds 905 msec
