                         Program Version 6.0.1  -  RELEASE   -
|  1> ! r2scan-3c def2/J RI DEFGRID2 scfconv6 printgap
|  2> %output
|  3>     printlevel normal
|  4> end
|  5> * xyz 0 1
|  6> C -0.6497700121 0.8876134865 0.4175274891
|  7> C 0.3969806458 0.1257751545 -0.3679681761
|  8> Cl 0.3852644957 -1.5964123383 0.0661782473
|  9> Cl 1.99877008 0.8190664446 -0.0123010353
| 10> Cl -2.2732447502 0.3528119116 -0.0777771923
| 11> H -0.5473631233 0.7042888203 1.4874117116
| 12> H -0.5746836729 1.955491325 0.2086271486
| 13> H 0.237456459 0.1968448172 -1.4459455047
| 14> *
| 15>
| 16>                          ****END OF INPUT****

CARTESIAN COORDINATES (ANGSTROEM)
---------------------------------
  C     -0.649770    0.887613    0.417527
  C      0.396981    0.125775   -0.367968
  Cl     0.385264   -1.596412    0.066178
  Cl     1.998770    0.819066   -0.012301
  Cl    -2.273245    0.352812   -0.077777
  H     -0.547363    0.704289    1.487412
  H     -0.574684    1.955491    0.208627
  H      0.237456    0.196845   -1.445946

 Total Charge           Charge          ....    0
 Multiplicity           Mult            ....    1
 Number of Electrons    NEL             ....   66
 Basis Dimension        Dim             ....  134

ORBITAL ENERGIES
----------------

  NO   OCC          E(Eh)            E(eV)
   0   2.0000    -101.235725     -2754.7641
   1   2.0000    -101.229624     -2754.5981
   2   2.0000    -101.224623     -2754.4620
   3   2.0000     -10.180074      -277.0139
   4   2.0000     -10.125947      -275.5410
   5   2.0000      -9.391745      -255.5624
   6   2.0000      -9.385733      -255.3988
   7   2.0000      -9.380572      -255.2583
   8   2.0000      -7.138346      -194.2443
   9   2.0000      -7.132458      -194.0841
  10   2.0000      -7.127670      -193.9538
  11   2.0000      -7.127508      -193.9493
  12   2.0000      -7.127158      -193.9398
  13   2.0000      -7.121565      -193.7876
  14   2.0000      -7.121435      -193.7841
  15   2.0000      -7.116573      -193.6518
  16   2.0000      -7.116258      -193.6432
  17   2.0000      -0.899110       -24.4660
  18   2.0000      -0.832421       -22.6513
  19   2.0000      -0.797995       -21.7146
  20   2.0000      -0.695872       -18.9356
  21   2.0000      -0.600037       -16.3278
  22   2.0000      -0.490181       -13.3385
  23   2.0000      -0.463321       -12.6076
  24   2.0000      -0.449252       -12.2248
  25   2.0000      -0.408699       -11.1213
  26   2.0000      -0.397118       -10.8061
  27   2.0000      -0.318557        -8.6684
  28   2.0000      -0.307427        -8.3655
  29   2.0000      -0.301772        -8.2116
  30   2.0000      -0.289571        -7.8796
  31   2.0000      -0.286756        -7.8030
  32   2.0000      -0.280757        -7.6398
  33   0.0000      -0.040851        -1.1116
  34   0.0000      -0.026248        -0.7142
  35   0.0000       0.013409         0.3649
  36   0.0000       0.087658         2.3853
  37   0.0000       0.096679         2.6308

MULLIKEN ATOMIC CHARGES
-----------------------
   0 C :   -0.195584
   1 C :    0.023990
   2 Cl:   -0.111925
   3 Cl:   -0.124963
   4 Cl:   -0.151557
   5 H :    0.185353
   6 H :    0.178194
   7 H :    0.196493
Sum of atomic charges:   -0.0000000

LOEWDIN ATOMIC CHARGES
----------------------
   0 C :   -0.363939
   1 C :   -0.349887
   2 Cl:    0.077769
   3 Cl:    0.075050
   4 Cl:    0.043105
   5 H :    0.174608
   6 H :    0.171534
   7 H :    0.171761

  Mayer bond orders larger than 0.100000
B(  0-C ,  1-C ) :   0.9510 B(  0-C ,  4-Cl) :   0.9849 B(  0-C ,  5-H ) :   0.9499
B(  0-C ,  6-H ) :   0.9369 B(  1-C ,  2-Cl) :   1.0156 B(  1-C ,  3-Cl) :   0.9845
B(  1-C ,  7-H ) :   0.9306

Dispersion correction           -0.002516834
FINAL SINGLE POINT ENERGY     -1458.522742865963

DIPOLE MOMENT
-------------

Method             : SCF
Type of density    : Electron Density
Multiplicity       :   1
Irrep              :   0
Energy             : -1458.5299743687480714 Eh
Relativity type    :
Basis              : AO
                                X                 Y                 Z
Electronic contribution:      1.009546822      -2.713508517      -0.295776501
Nuclear contribution   :     -0.978605525       3.249833438       0.266710647
                        -----------------------------------------
Total Dipole Moment    :      0.030941297       0.536324921      -0.029065854
                        -----------------------------------------
Magnitude (a.u.)       :      0.538002425
Magnitude (Debye)      :      1.367493487

Rotational constants in cm-1:             0.119495             0.048688             0.035840
Rotational constants in MHz :          3582.376894          1459.619130          1074.450190

                             ****ORCA TERMINATED NORMALLY****
TOTAL RUN TIME: 0 days 0 hours 0 minutes 13 seconds 809 msec
