                         Program Version 6.0.1  -  RELEASE   -
|  1> ! pbe def2-sv(p) def2/J RI DEFGRID1 loosescf d4 GCP(DFT/SV(P)) printgap
|  2> %output
|  3>     printlevel normal
|  4> end
|  5> * xyz 0 1
|  6> C 1.2577385557 0.3101929052 1.1439496937
|  7> C 0.0317337581 -0.573021402 1.1033483793
|  8> Br -1.2256866918 0.0067547816 -0.269249717
|  9> Cl 2.2499944079 0.0944050111 -0.3285012238
| 10> H 0.9891220422 1.3654806814 1.2002641237
| 11> H 1.8836280359 0.0399196518 1.9958531981
| 12> H -0.5038868008 -0.5242942264 2.0517243097
| 13> H 0.2904935222 -1.6052273988 0.8719977564
| 14> *
| 15>
| 16>                          ****END OF INPUT****

CARTESIAN COORDINATES (ANGSTROEM)
---------------------------------
  C      1.257739    0.310193    1.143950
  C      0.031734   -0.573021    1.103348
  Br    -1.225687    0.006755   -0.269250
  Cl     2.249994    0.094405   -0.328501
  H      0.989122    1.365481    1.200264
  H      1.883628    0.039920    1.995853
  H     -0.503887   -0.524294    2.051724
  H      0.290494   -1.605227    0.871998

 Total Charge           Charge          ....    0
 Multiplicity           Mult            ....    1
 Number of Electrons    NEL             ....   68
 Basis Dimension        Dim             ....   86

ORBITAL ENERGIES
----------------

  NO   OCC          E(Eh)            E(eV)
   0   2.0000    -480.927422    -13086.7005
   1   2.0000    -100.627712     -2738.2193
   2   2.0000     -61.769990     -1680.8469
   3   2.0000     -55.700632     -1515.6913
   4   2.0000     -55.697476     -1515.6054
   5   2.0000     -55.697361     -1515.6023
   6   2.0000      -9.959700      -271.0172
   7   2.0000      -9.955316      -270.8979
   8   2.0000      -9.163523      -249.3521
   9   2.0000      -8.395581      -228.4554
  10   2.0000      -6.995382      -190.3540
  11   2.0000      -6.983106      -190.0200
  12   2.0000      -6.982906      -190.0145
  13   2.0000      -6.277942      -170.8315
  14   2.0000      -6.263069      -170.4268
  15   2.0000      -6.262759      -170.4183
  16   2.0000      -2.478980       -67.4565
  17   2.0000      -2.475327       -67.3571
  18   2.0000      -2.475105       -67.3510
  19   2.0000      -2.463966       -67.0479
  20   2.0000      -2.463957       -67.0477
  21   2.0000      -0.795990       -21.6600
  22   2.0000      -0.732893       -19.9430
  23   2.0000      -0.650223       -17.6935
  24   2.0000      -0.556251       -15.1364
  25   2.0000      -0.442287       -12.0353
  26   2.0000      -0.433970       -11.8089
  27   2.0000      -0.392931       -10.6922
  28   2.0000      -0.357709        -9.7337
  29   2.0000      -0.341141        -9.2829
  30   2.0000      -0.258907        -7.0452
  31   2.0000      -0.256854        -6.9894
  32   2.0000      -0.242505        -6.5989
  33   2.0000      -0.237492        -6.4625
  34   0.0000      -0.035970        -0.9788
  35   0.0000       0.005291         0.1440
  36   0.0000       0.037220         1.0128
  37   0.0000       0.072656         1.9771
  38   0.0000       0.089337         2.4310

MULLIKEN ATOMIC CHARGES
-----------------------
   0 C :   -0.154269
   1 C :   -0.224595
   2 Br:   -0.100114
   3 Cl:   -0.131981
   4 H :    0.154530
   5 H :    0.148405
   6 H :    0.150751
   7 H :    0.157273
Sum of atomic charges:    0.0000000

LOEWDIN ATOMIC CHARGES
----------------------
   0 C :   -0.295645
   1 C :   -0.307515
   2 Br:    0.026117
   3 Cl:    0.039435
   4 H :    0.132117
   5 H :    0.133561
   6 H :    0.136564
   7 H :    0.135366

  Mayer bond orders larger than 0.100000
B(  0-C ,  1-C ) :   1.0834 B(  0-C ,  3-Cl) :   1.0533 B(  0-C ,  4-H ) :   0.9210
B(  0-C ,  5-H ) :   0.9137 B(  1-C ,  2-Br) :   1.0543 B(  1-C ,  6-H ) :   0.9121
B(  1-C ,  7-H ) :   0.9181

Dispersion correction           -0.006701892
FINAL SINGLE POINT ENERGY     -3111.734187145929

DIPOLE MOMENT
-------------

Method             : SCF
Type of density    : Electron Density
Multiplicity       :   1
Irrep              :   0
Energy             : -3111.7645300243366364 Eh
Relativity type    :
Basis              : AO
                                X                 Y                 Z
Electronic contribution:    -10.777912922       0.764162860      -7.730454922
Nuclear contribution   :     10.855740674      -0.868787571       8.682471545
                        -----------------------------------------
Total Dipole Moment    :      0.077827752      -0.104624710       0.952016623
                        -----------------------------------------
Magnitude (a.u.)       :      0.960905375
Magnitude (Debye)      :      2.442427361

Rotational constants in cm-1:             0.288790             0.050415             0.044914
Rotational constants in MHz :          8657.701397          1511.409834          1346.491198

                             ****ORCA TERMINATED NORMALLY****
TOTAL RUN TIME: 0 days 0 hours 0 minutes 11 seconds 196 msec
