                         Program Version 6.0.0  -   RELEASE  -
|  1> ! M062X DEF2-TZVP FREQ
|  2> * xyzfile 0 1 censo.xyz
|  3>
|  4>                          ****END OF INPUT****

CARTESIAN COORDINATES (ANGSTROEM)
---------------------------------
  C     -2.565596   -0.000004   -0.000319
  C     -1.873301   -1.210179    0.000071
  C     -0.485186   -1.220944    0.000611
  C      0.183157    0.000011    0.000778
  C     -0.485197    1.220962    0.000417
  C     -1.873315    1.210179   -0.000131
  N      1.647399   -0.000020    0.000121
  O      2.231974   -1.082755   -0.000937
  O      2.232026    1.082737   -0.000852
  H     -3.650496   -0.000011   -0.000862
  H     -2.415617   -2.149211   -0.000194
  H      0.068295   -2.151210    0.000740
  H      0.068283    2.151237    0.000388
  H     -2.415644    2.149206   -0.000557

 Total Charge           Charge          ....    0
 Multiplicity           Mult            ....    1
 Number of Electrons    NEL             ....   64
 Basis Dimension        Dim             ....  309

ORBITAL ENERGIES
----------------

  NO   OCC          E(Eh)            E(eV)
   0   2.0000     -19.666058      -535.1406
   1   2.0000     -19.666029      -535.1398
   2   2.0000     -15.002201      -408.2307
   3   2.0000     -10.618067      -288.9323
   4   2.0000     -10.580291      -287.9043
   5   2.0000     -10.580265      -287.9036
   6   2.0000     -10.577154      -287.8190
   7   2.0000     -10.574123      -287.7365
   8   2.0000     -10.574015      -287.7336
   9   2.0000      -1.360785       -37.0288
  10   2.0000      -1.174769       -31.9671
  11   2.0000      -1.006732       -27.3946
  12   2.0000      -0.917593       -24.9690
  13   2.0000      -0.879875       -23.9426
  14   2.0000      -0.804248       -21.8847
  15   2.0000      -0.724393       -19.7117
  16   2.0000      -0.691865       -18.8266
  17   2.0000      -0.657330       -17.8869
  18   2.0000      -0.625203       -17.0126
  19   2.0000      -0.606010       -16.4904
  20   2.0000      -0.594182       -16.1685
  21   2.0000      -0.547859       -14.9080
  22   2.0000      -0.544035       -14.8040
  23   2.0000      -0.523903       -14.2561
  24   2.0000      -0.472810       -12.8658
  25   2.0000      -0.457562       -12.4509
  26   2.0000      -0.438528       -11.9330
  27   2.0000      -0.397549       -10.8179
  28   2.0000      -0.384022       -10.4498
  29   2.0000      -0.383260       -10.4290
  30   2.0000      -0.345259        -9.3950
  31   2.0000      -0.342046        -9.3075
  32   0.0000      -0.063732        -1.7342
  33   0.0000      -0.007926        -0.2157
  34   0.0000       0.030857         0.8397
  35   0.0000       0.064917         1.7665
  36   0.0000       0.095352         2.5947

MULLIKEN ATOMIC CHARGES
-----------------------
   0 C :   -0.133536
   1 C :   -0.123787
   2 C :   -0.157975
   3 C :    0.041352
   4 C :   -0.157947
   5 C :   -0.123771
   6 N :    0.470124
   7 O :   -0.337631
   8 O :   -0.337648
   9 H :    0.155305
  10 H :    0.156678
  11 H :    0.196095
  12 H :    0.196068
  13 H :    0.156673
Sum of atomic charges:    0.0000000

LOEWDIN ATOMIC CHARGES
----------------------
   0 C :   -0.114956
   1 C :   -0.126335
   2 C :   -0.087469
   3 C :   -0.158162
   4 C :   -0.087466
   5 C :   -0.126335
   6 N :   -0.001151
   7 O :   -0.037796
   8 O :   -0.037856
   9 H :    0.150441
  10 H :    0.151372
  11 H :    0.162169
  12 H :    0.162171
  13 H :    0.151372

  Mayer bond orders larger than 0.100000
B(  0-C ,  1-C ) :   1.4356 B(  0-C ,  5-C ) :   1.4357 B(  0-C ,  9-H ) :   0.9465
B(  1-C ,  2-C ) :   1.4531 B(  1-C , 10-H ) :   0.9477 B(  2-C ,  3-C ) :   1.4457
B(  2-C , 11-H ) :   0.8978 B(  3-C ,  4-C ) :   1.4456 B(  3-C ,  6-N ) :   0.9555
B(  4-C ,  5-C ) :   1.4530 B(  4-C , 12-H ) :   0.8978 B(  5-C , 13-H ) :   0.9477
B(  6-N ,  7-O ) :   1.5610 B(  6-N ,  8-O ) :   1.5609 B(  7-O ,  8-O ) :   0.1790

FINAL SINGLE POINT ENERGY      -436.739862606715

DIPOLE MOMENT
-------------

Method             : SCF
Type of density    : Electron Density
Multiplicity       :   1
Irrep              :   0
Energy             :  -436.7398626067148371 Eh
Relativity type    :
Basis              : AO
                                X                 Y                 Z
Electronic contribution:      5.845815825      -0.000086052       0.000902429
Nuclear contribution   :     -7.785304065       0.000019414      -0.000085028
                        -----------------------------------------
Total Dipole Moment    :     -1.939488240      -0.000066639       0.000817401
                        -----------------------------------------
Magnitude (a.u.)       :      1.939488413
Magnitude (Debye)      :      4.929787770

VIBRATIONAL FREQUENCIES
-----------------------

Scaling factor for frequencies =  1.000000000  (already applied!)

     0:       0.00 cm**-1
     1:       0.00 cm**-1
     2:       0.00 cm**-1
     3:       0.00 cm**-1
     4:       0.00 cm**-1
     5:       0.00 cm**-1
     6:     136.46 cm**-1
     7:     195.12 cm**-1
     8:     281.85 cm**-1
     9:     405.43 cm**-1
    10:     426.25 cm**-1
    11:     470.26 cm**-1
    12:     535.14 cm**-1
    13:     627.11 cm**-1
    14:     706.80 cm**-1
    15:     708.67 cm**-1
    16:     755.55 cm**-1
    17:     846.37 cm**-1
    18:     879.92 cm**-1
    19:     886.80 cm**-1
    20:     991.27 cm**-1
    21:    1019.71 cm**-1
    22:    1021.24 cm**-1
    23:    1043.01 cm**-1
    24:    1048.64 cm**-1
    25:    1110.10 cm**-1
    26:    1140.97 cm**-1
    27:    1183.67 cm**-1
    28:    1203.45 cm**-1
    29:    1324.05 cm**-1
    30:    1340.15 cm**-1
    31:    1400.71 cm**-1
    32:    1494.63 cm**-1
    33:    1520.38 cm**-1
    34:    1552.79 cm**-1
    35:    1654.97 cm**-1
    36:    1667.47 cm**-1
    37:    3190.73 cm**-1
    38:    3204.56 cm**-1
    39:    3211.24 cm**-1
    40:    3238.70 cm**-1
    41:    3238.84 cm**-1

IR SPECTRUM
-----------

 Mode   freq       eps      Int      T**2         TX        TY        TZ
       cm**-1   L/(mol*cm) km/mol    a.u.
----------------------------------------------------------------------------
  6:    136.46   0.000000    0.00  0.000000  ( 0.000000 -0.000176  0.000044)
  7:    195.12   0.000208    1.05  0.000333  (-0.000078 -0.000019 -0.018239)
  8:    281.85   0.000242    1.22  0.000268  ( 0.000004  0.016361 -0.000002)
  9:    405.43   0.000406    2.05  0.000312  (-0.017672 -0.000001  0.000023)
 10:    426.25   0.000000    0.00  0.000000  ( 0.000008  0.000086 -0.000002)
 11:    470.26   0.000146    0.74  0.000097  (-0.000013  0.000008  0.009838)
 12:    535.14   0.000465    2.35  0.000271  ( 0.000002  0.016470 -0.000005)
 13:    627.11   0.000009    0.05  0.000005  (-0.000001 -0.002160 -0.000003)
 14:    706.80   0.002458   12.42  0.001085  ( 0.032940 -0.000002 -0.000545)
 15:    708.67   0.002698   13.64  0.001188  ( 0.000541  0.000015  0.034466)
 16:    755.55   0.016127   81.50  0.006661  (-0.000017 -0.000009 -0.081614)
 17:    846.37   0.001058    5.35  0.000390  (-0.000009  0.000005  0.019751)
 18:    879.92   0.000000    0.00  0.000000  (-0.000013  0.000043 -0.000007)
 19:    886.80   0.004703   23.77  0.001655  ( 0.040683 -0.000007 -0.000038)
 20:    991.27   0.000652    3.30  0.000205  (-0.000052  0.000017  0.014329)
 21:   1019.71   0.000000    0.00  0.000000  ( 0.000015 -0.000045  0.000007)
 22:   1021.24   0.000114    0.58  0.000035  ( 0.005897  0.000002 -0.000004)
 23:   1043.01   0.000039    0.20  0.000012  (-0.000018 -0.000015 -0.003410)
 24:   1048.64   0.001319    6.67  0.000393  ( 0.019813  0.000004  0.000008)
 25:   1110.10   0.001590    8.03  0.000447  (-0.000010 -0.021139  0.000000)
 26:   1140.97   0.002829   14.30  0.000774  (-0.027817  0.000016 -0.000015)
 27:   1183.67   0.000532    2.69  0.000140  (-0.000002 -0.011845  0.000001)
 28:   1203.45   0.000617    3.12  0.000160  ( 0.012648  0.000008 -0.000010)
 29:   1324.05   0.003205   16.19  0.000755  ( 0.000014  0.027482 -0.000000)
 30:   1340.15   0.000000    0.00  0.000000  ( 0.000013  0.000091  0.000000)
 31:   1400.71   0.054875  277.31  0.012225  (-0.110569 -0.000068  0.000037)
 32:   1494.63   0.003649   18.44  0.000762  (-0.000043  0.027602  0.000004)
 33:   1520.38   0.001087    5.50  0.000223  (-0.014940 -0.000013 -0.000008)
 34:   1552.79   0.057308  289.61  0.011517  ( 0.000055 -0.107318 -0.000005)
 35:   1654.97   0.000826    4.17  0.000156  ( 0.012478  0.000009  0.000009)
 36:   1667.47   0.002255   11.40  0.000422  (-0.000008  0.020544  0.000002)
 37:   3190.73   0.000104    0.53  0.000010  ( 0.003192  0.000005  0.000002)
 38:   3204.56   0.000823    4.16  0.000080  ( 0.000008 -0.008952  0.000001)
 39:   3211.24   0.000375    1.90  0.000036  ( 0.006040  0.000010  0.000002)
 40:   3238.70   0.000752    3.80  0.000072  (-0.002561 -0.008118  0.000001)
 41:   3238.84   0.001041    5.26  0.000100  (-0.009786  0.002125  0.000003)

--------------------------
THERMOCHEMISTRY AT 298.15K
--------------------------

Temperature         ...   298.15 K
Pressure            ...     1.00 atm
Total Mass          ...   123.11 AMU
Quasi RRHO          ...     True
Cut-Off Frequency   ...     1.00 cm^-1

Throughout the following assumptions are being made:
  (1) The electronic state is orbitally nondegenerate
  (2) There are no thermally accessible electronically excited states
  (3) Hindered rotations indicated by low frequency modes are not
      treated as such but are treated as vibrations and this may
      cause some error
  (4) All equations used are the standard statistical mechanics
      equations for an ideal gas
  (5) All vibrations are strictly harmonic

freq.     136.46  E(vib)   ...       0.42
freq.     195.12  E(vib)   ...       0.36
freq.     281.85  E(vib)   ...       0.28
freq.     405.43  E(vib)   ...       0.19
freq.     426.25  E(vib)   ...       0.18
freq.     470.26  E(vib)   ...       0.16
freq.     535.14  E(vib)   ...       0.13
freq.     627.11  E(vib)   ...       0.09
freq.     706.80  E(vib)   ...       0.07
freq.     708.67  E(vib)   ...       0.07
freq.     755.55  E(vib)   ...       0.06
freq.     846.37  E(vib)   ...       0.04
freq.     879.92  E(vib)   ...       0.04
freq.     886.80  E(vib)   ...       0.04
freq.     991.27  E(vib)   ...       0.02
freq.    1019.71  E(vib)   ...       0.02
freq.    1021.24  E(vib)   ...       0.02
freq.    1043.01  E(vib)   ...       0.02
freq.    1048.64  E(vib)   ...       0.02
freq.    1110.10  E(vib)   ...       0.02
freq.    1140.97  E(vib)   ...       0.01
freq.    1183.67  E(vib)   ...       0.01
freq.    1203.45  E(vib)   ...       0.01
freq.    1324.05  E(vib)   ...       0.01
freq.    1340.15  E(vib)   ...       0.01
freq.    1400.71  E(vib)   ...       0.00
freq.    1494.63  E(vib)   ...       0.00
freq.    1520.38  E(vib)   ...       0.00
freq.    1552.79  E(vib)   ...       0.00
freq.    1654.97  E(vib)   ...       0.00
freq.    1667.47  E(vib)   ...       0.00
freq.    3190.73  E(vib)   ...       0.00
freq.    3204.56  E(vib)   ...       0.00
freq.    3211.24  E(vib)   ...       0.00
freq.    3238.70  E(vib)   ...       0.00
freq.    3238.84  E(vib)   ...       0.00

------------
INNER ENERGY
------------

The inner energy is: U= E(el) + E(ZPE) + E(vib) + E(rot) + E(trans)
    E(el)   - is the total energy from the electronic structure calculation
              = E(kin-el) + E(nuc-el) + E(el-el) + E(nuc-nuc)
    E(ZPE)  - the the zero temperature vibrational energy from the frequency calculation
    E(vib)  - the the finite temperature correction to E(ZPE) due to population
              of excited vibrational states
    E(rot)  - is the rotational thermal energy
    E(trans)- is the translational thermal energy

Summary of contributions to the inner energy U:
Electronic energy                ...   -436.73986261 Eh
Zero point energy                ...      0.10402802 Eh      65.28 kcal/mol
Thermal vibrational correction   ...      0.00364547 Eh       2.29 kcal/mol
Thermal rotational correction    ...      0.00141627 Eh       0.89 kcal/mol
Thermal translational correction ...      0.00141627 Eh       0.89 kcal/mol
-----------------------------------------------------------------------
Total thermal energy                   -436.62935657 Eh

Summary of corrections to the electronic energy:
(perhaps to be used in another calculation)
Total thermal correction                  0.00647801 Eh       4.07 kcal/mol
Non-thermal (ZPE) correction              0.10402802 Eh      65.28 kcal/mol
-----------------------------------------------------------------------
Total correction                          0.11050604 Eh      69.34 kcal/mol

--------
ENTHALPY
--------

The enthalpy is H = U + kB*T
                kB is Boltzmann's constant
Total thermal energy              ...   -436.62935657 Eh
Thermal Enthalpy correction       ...      0.00094421 Eh       0.59 kcal/mol
-----------------------------------------------------------------------
Total Enthalpy                    ...   -436.62841236 Eh

Note: Only C1 symmetry has been detected, increase convergence thresholds
      if your molecule has a higher symmetry. Symmetry factor of 1.0 is
      used for the rotational entropy correction.

Note: Rotational entropy computed according to Herzberg
Infrared and Raman Spectra, Chapter V,1, Van Nostrand Reinhold, 1945
Point Group:  C1, Symmetry Number:   1
Rotational constants in cm-1:     0.132586     0.043000     0.032469

Vibrational entropy computed according to the QRRHO of S. Grimme
Chem.Eur.J. 2012 18 9955 using a reference frequency of 100.0 cm-1

-------
ENTROPY
-------

The entropy contributions are T*S = T*(S(el)+S(vib)+S(rot)+S(trans))
     S(el)   - electronic entropy
     S(vib)  - vibrational entropy
     S(rot)  - rotational entropy
     S(trans)- translational entropy
The entropies will be listed as multiplied by the temperature to get
units of energy

Electronic entropy                ...      0.00000000 Eh      0.00 kcal/mol
Vibrational entropy               ...      0.00573680 Eh      3.60 kcal/mol
Rotational entropy                ...      0.01356821 Eh      8.51 kcal/mol
Translational entropy             ...      0.01916571 Eh     12.03 kcal/mol
-----------------------------------------------------------------------
Final entropy term                ...      0.03847072 Eh     24.14 kcal/mol

In case the symmetry of your molecule has not been determined correctly
or in case you have a reason to use a different symmetry number we print
out the resulting rotational entropy values for sn=1,12:

 non-linear molecules -----------------------------------
|  sn= 1 | S(rot)=       0.01356821 Eh      8.51 kcal/mol|
|  sn= 2 | S(rot)=       0.01291376 Eh      8.10 kcal/mol|
|  sn= 3 | S(rot)=       0.01253093 Eh      7.86 kcal/mol|
|  sn= 4 | S(rot)=       0.01225930 Eh      7.69 kcal/mol|
|  sn= 5 | S(rot)=       0.01204861 Eh      7.56 kcal/mol|
|  sn= 6 | S(rot)=       0.01187647 Eh      7.45 kcal/mol|
|  sn= 7 | S(rot)=       0.01173092 Eh      7.36 kcal/mol|
|  sn= 8 | S(rot)=       0.01160484 Eh      7.28 kcal/mol|
|  sn= 9 | S(rot)=       0.01149364 Eh      7.21 kcal/mol|
|  sn=10 | S(rot)=       0.01139416 Eh      7.15 kcal/mol|
|  sn=11 | S(rot)=       0.01130417 Eh      7.09 kcal/mol|
|  sn=12 | S(rot)=       0.01122201 Eh      7.04 kcal/mol|
 linear molecules ---------------------------------------
|  Dinfh | S(rot)=       0.00856195 Eh      5.37 kcal/mol|
|  Cinfv | S(rot)=       0.00921640 Eh      5.78 kcal/mol|
 --------------------------------------------------------

-------------------
GIBBS FREE ENERGY
-------------------

The Gibbs free energy is G = H - T*S

                             ****ORCA TERMINATED NORMALLY****
TOTAL RUN TIME: 0 days 0 hours 29 minutes 2 seconds 412 msec
