                         Program Version 6.0.0  -   RELEASE  -
|  1> ! M062X DEF2-TZVP FREQ
|  2> * xyzfile 0 1 vacuum_censo.xyz
|  3>
|  4>                          ****END OF INPUT****

CARTESIAN COORDINATES (ANGSTROEM)
---------------------------------
  C     -2.570156    0.000002    0.000033
  C     -1.877050   -1.208494    0.000448
  C     -0.487725   -1.217639    0.000382
  C      0.180870   -0.000003   -0.000113
  C     -0.487741    1.217633   -0.000395
  C     -1.877065    1.208502   -0.000395
  N      1.661268    0.000015   -0.000512
  O      2.226736    1.086046    0.000834
  O      2.226686   -1.086070   -0.000251
  H     -3.655158   -0.000002    0.000049
  H     -2.419353   -2.147814    0.000792
  H      0.078446   -2.140298    0.000636
  H      0.078433    2.140300   -0.000715
  H     -2.419370    2.147824   -0.000749

 Total Charge           Charge          ....    0
 Multiplicity           Mult            ....    1
 Number of Electrons    NEL             ....   64
 Basis Dimension        Dim             ....  309

ORBITAL ENERGIES
----------------

  NO   OCC          E(Eh)            E(eV)
   0   2.0000     -19.668267      -535.2008
   1   2.0000     -19.668237      -535.2000
   2   2.0000     -15.003803      -408.2742
   3   2.0000     -10.616168      -288.8806
   4   2.0000     -10.578593      -287.8582
   5   2.0000     -10.578566      -287.8574
   6   2.0000     -10.575757      -287.7810
   7   2.0000     -10.573299      -287.7141
   8   2.0000     -10.573167      -287.7105
   9   2.0000      -1.365684       -37.1621
  10   2.0000      -1.182369       -32.1739
  11   2.0000      -1.005035       -27.3484
  12   2.0000      -0.913934       -24.8694
  13   2.0000      -0.878190       -23.8968
  14   2.0000      -0.801897       -21.8207
  15   2.0000      -0.723955       -19.6998
  16   2.0000      -0.691741       -18.8232
  17   2.0000      -0.658470       -17.9179
  18   2.0000      -0.628149       -17.0928
  19   2.0000      -0.608198       -16.5499
  20   2.0000      -0.594042       -16.1647
  21   2.0000      -0.547971       -14.9111
  22   2.0000      -0.543293       -14.7838
  23   2.0000      -0.522393       -14.2150
  24   2.0000      -0.472400       -12.8547
  25   2.0000      -0.457622       -12.4525
  26   2.0000      -0.436950       -11.8900
  27   2.0000      -0.395610       -10.7651
  28   2.0000      -0.388358       -10.5678
  29   2.0000      -0.386682       -10.5222
  30   2.0000      -0.344788        -9.3822
  31   2.0000      -0.340644        -9.2694
  32   0.0000      -0.060479        -1.6457
  33   0.0000      -0.007148        -0.1945
  34   0.0000       0.031003         0.8436
  35   0.0000       0.065640         1.7861
  36   0.0000       0.096319         2.6210

MULLIKEN ATOMIC CHARGES
-----------------------
   0 C :   -0.132587
   1 C :   -0.126711
   2 C :   -0.158218
   3 C :    0.037886
   4 C :   -0.158161
   5 C :   -0.126675
   6 N :    0.475751
   7 O :   -0.335127
   8 O :   -0.335139
   9 H :    0.154814
  10 H :    0.156361
  11 H :    0.195739
  12 H :    0.195712
  13 H :    0.156355
Sum of atomic charges:   -0.0000000

LOEWDIN ATOMIC CHARGES
----------------------
   0 C :   -0.116939
   1 C :   -0.126210
   2 C :   -0.090392
   3 C :   -0.154634
   4 C :   -0.090391
   5 C :   -0.126213
   6 N :   -0.009051
   7 O :   -0.031439
   8 O :   -0.031473
   9 H :    0.150416
  10 H :    0.151272
  11 H :    0.161891
  12 H :    0.161892
  13 H :    0.151273

  Mayer bond orders larger than 0.100000
B(  0-C ,  1-C ) :   1.4378 B(  0-C ,  5-C ) :   1.4379 B(  0-C ,  9-H ) :   0.9468
B(  1-C ,  2-C ) :   1.4533 B(  1-C , 10-H ) :   0.9476 B(  2-C ,  3-C ) :   1.4492
B(  2-C , 11-H ) :   0.8970 B(  3-C ,  4-C ) :   1.4491 B(  3-C ,  6-N ) :   0.9468
B(  4-C ,  5-C ) :   1.4533 B(  4-C , 12-H ) :   0.8970 B(  5-C , 13-H ) :   0.9476
B(  6-N ,  7-O ) :   1.5665 B(  6-N ,  8-O ) :   1.5666 B(  7-O ,  8-O ) :   0.1814

FINAL SINGLE POINT ENERGY      -436.740648969346

DIPOLE MOMENT
-------------

Method             : SCF
Type of density    : Electron Density
Multiplicity       :   1
Irrep              :   0
Energy             :  -436.7406489693464096 Eh
Relativity type    :
Basis              : AO
                                X                 Y                 Z
Electronic contribution:      5.899246109       0.000042826      -0.000499527
Nuclear contribution   :     -7.770033325       0.000014988      -0.000047104
                        -----------------------------------------
Total Dipole Moment    :     -1.870787216       0.000057813      -0.000546631
                        -----------------------------------------
Magnitude (a.u.)       :      1.870787296
Magnitude (Debye)      :      4.755163408

VIBRATIONAL FREQUENCIES
-----------------------

Scaling factor for frequencies =  1.000000000  (already applied!)

     0:       0.00 cm**-1
     1:       0.00 cm**-1
     2:       0.00 cm**-1
     3:       0.00 cm**-1
     4:       0.00 cm**-1
     5:       0.00 cm**-1
     6:     128.79 cm**-1
     7:     194.05 cm**-1
     8:     279.11 cm**-1
     9:     400.54 cm**-1
    10:     427.84 cm**-1
    11:     465.37 cm**-1
    12:     534.71 cm**-1
    13:     627.74 cm**-1
    14:     702.59 cm**-1
    15:     709.09 cm**-1
    16:     752.34 cm**-1
    17:     844.38 cm**-1
    18:     882.31 cm**-1
    19:     882.34 cm**-1
    20:     991.53 cm**-1
    21:    1020.18 cm**-1
    22:    1022.43 cm**-1
    23:    1043.08 cm**-1
    24:    1051.69 cm**-1
    25:    1106.44 cm**-1
    26:    1130.31 cm**-1
    27:    1184.01 cm**-1
    28:    1200.74 cm**-1
    29:    1327.91 cm**-1
    30:    1340.79 cm**-1
    31:    1405.48 cm**-1
    32:    1499.40 cm**-1
    33:    1521.51 cm**-1
    34:    1584.66 cm**-1
    35:    1654.25 cm**-1
    36:    1676.54 cm**-1
    37:    3189.24 cm**-1
    38:    3202.27 cm**-1
    39:    3209.56 cm**-1
    40:    3237.46 cm**-1
    41:    3237.61 cm**-1

IR SPECTRUM
-----------

 Mode   freq       eps      Int      T**2         TX        TY        TZ
       cm**-1   L/(mol*cm) km/mol    a.u.
----------------------------------------------------------------------------
  6:    128.79   0.000000    0.00  0.000000  (-0.000034  0.000333 -0.000381)
  7:    194.05   0.000204    1.03  0.000329  (-0.000032  0.000069  0.018129)
  8:    279.11   0.000233    1.18  0.000261  ( 0.000001  0.016141 -0.000014)
  9:    400.54   0.000377    1.90  0.000294  ( 0.017136 -0.000000  0.000011)
 10:    427.84   0.000000    0.00  0.000000  ( 0.000040  0.000005 -0.000026)
 11:    465.37   0.000141    0.71  0.000095  ( 0.000039  0.000174  0.009732)
 12:    534.71   0.000381    1.93  0.000222  (-0.000001 -0.014913  0.000027)
 13:    627.74   0.000006    0.03  0.000003  ( 0.000001  0.001670  0.000008)
 14:    702.59   0.002223   11.23  0.000987  ( 0.031420  0.000001  0.000058)
 15:    709.09   0.002020   10.21  0.000889  (-0.000057  0.000041  0.029816)
 16:    752.34   0.016566   83.72  0.006871  ( 0.000087  0.000020 -0.082894)
 17:    844.38   0.001366    6.90  0.000505  ( 0.000098  0.000057  0.022469)
 18:    882.31   0.000091    0.46  0.000032  (-0.005673  0.000044  0.000003)
 19:    882.34   0.005775   29.19  0.002043  ( 0.045196  0.000006  0.000004)
 20:    991.53   0.000683    3.45  0.000215  ( 0.000008  0.000073  0.014660)
 21:   1020.18   0.000000    0.00  0.000000  ( 0.000020  0.000021  0.000013)
 22:   1022.43   0.000035    0.18  0.000011  (-0.003273  0.000000 -0.000000)
 23:   1043.08   0.000046    0.23  0.000014  (-0.000019 -0.000083 -0.003727)
 24:   1051.69   0.001313    6.64  0.000390  ( 0.019740  0.000015 -0.000001)
 25:   1106.44   0.001546    7.81  0.000436  ( 0.000029  0.020883  0.000006)
 26:   1130.31   0.003653   18.46  0.001009  ( 0.031758 -0.000021  0.000008)
 27:   1184.01   0.000475    2.40  0.000125  (-0.000002  0.011185 -0.000004)
 28:   1200.74   0.000482    2.44  0.000125  (-0.011191 -0.000000  0.000003)
 29:   1327.91   0.002926   14.79  0.000688  ( 0.000011 -0.026224 -0.000003)
 30:   1340.79   0.000008    0.04  0.000002  (-0.000000  0.001328  0.000003)
 31:   1405.48   0.052683  266.24  0.011697  (-0.108154  0.000032 -0.000005)
 32:   1499.40   0.000389    1.97  0.000081  ( 0.000006  0.009001  0.000020)
 33:   1521.51   0.001818    9.19  0.000373  (-0.019309 -0.000006  0.000004)
 34:   1584.66   0.060862  307.57  0.011985  (-0.000030 -0.109478 -0.000062)
 35:   1654.25   0.000455    2.30  0.000086  (-0.009265 -0.000001 -0.000004)
 36:   1676.54   0.004248   21.47  0.000791  ( 0.000007  0.028119  0.000023)
 37:   3189.24   0.000090    0.46  0.000009  (-0.002969 -0.000000 -0.000001)
 38:   3202.27   0.000824    4.16  0.000080  (-0.000002 -0.008959  0.000003)
 39:   3209.56   0.000398    2.01  0.000039  ( 0.006220 -0.000002 -0.000000)
 40:   3237.46   0.000649    3.28  0.000063  ( 0.003168  0.007251 -0.000000)
 41:   3237.61   0.001097    5.54  0.000106  ( 0.010022 -0.002294  0.000000)

--------------------------
THERMOCHEMISTRY AT 298.15K
--------------------------

Temperature         ...   298.15 K
Pressure            ...     1.00 atm
Total Mass          ...   123.11 AMU
Quasi RRHO          ...     True
Cut-Off Frequency   ...     1.00 cm^-1

Throughout the following assumptions are being made:
  (1) The electronic state is orbitally nondegenerate
  (2) There are no thermally accessible electronically excited states
  (3) Hindered rotations indicated by low frequency modes are not
      treated as such but are treated as vibrations and this may
      cause some error
  (4) All equations used are the standard statistical mechanics
      equations for an ideal gas
  (5) All vibrations are strictly harmonic

freq.     128.79  E(vib)   ...       0.43
freq.     194.05  E(vib)   ...       0.36
freq.     279.11  E(vib)   ...       0.28
freq.     400.54  E(vib)   ...       0.19
freq.     427.84  E(vib)   ...       0.18
freq.     465.37  E(vib)   ...       0.16
freq.     534.71  E(vib)   ...       0.13
freq.     627.74  E(vib)   ...       0.09
freq.     702.59  E(vib)   ...       0.07
freq.     709.09  E(vib)   ...       0.07
freq.     752.34  E(vib)   ...       0.06
freq.     844.38  E(vib)   ...       0.04
freq.     882.31  E(vib)   ...       0.04
freq.     882.34  E(vib)   ...       0.04
freq.     991.53  E(vib)   ...       0.02
freq.    1020.18  E(vib)   ...       0.02
freq.    1022.43  E(vib)   ...       0.02
freq.    1043.08  E(vib)   ...       0.02
freq.    1051.69  E(vib)   ...       0.02
freq.    1106.44  E(vib)   ...       0.02
freq.    1130.31  E(vib)   ...       0.01
freq.    1184.01  E(vib)   ...       0.01
freq.    1200.74  E(vib)   ...       0.01
freq.    1327.91  E(vib)   ...       0.01
freq.    1340.79  E(vib)   ...       0.01
freq.    1405.48  E(vib)   ...       0.00
freq.    1499.40  E(vib)   ...       0.00
freq.    1521.51  E(vib)   ...       0.00
freq.    1584.66  E(vib)   ...       0.00
freq.    1654.25  E(vib)   ...       0.00
freq.    1676.54  E(vib)   ...       0.00
freq.    3189.24  E(vib)   ...       0.00
freq.    3202.27  E(vib)   ...       0.00
freq.    3209.56  E(vib)   ...       0.00
freq.    3237.46  E(vib)   ...       0.00
freq.    3237.61  E(vib)   ...       0.00

------------
INNER ENERGY
------------

The inner energy is: U= E(el) + E(ZPE) + E(vib) + E(rot) + E(trans)
    E(el)   - is the total energy from the electronic structure calculation
              = E(kin-el) + E(nuc-el) + E(el-el) + E(nuc-nuc)
    E(ZPE)  - the the zero temperature vibrational energy from the frequency calculation
    E(vib)  - the the finite temperature correction to E(ZPE) due to population
              of excited vibrational states
    E(rot)  - is the rotational thermal energy
    E(trans)- is the translational thermal energy

Summary of contributions to the inner energy U:
Electronic energy                ...   -436.74064897 Eh
Zero point energy                ...      0.10404002 Eh      65.29 kcal/mol
Thermal vibrational correction   ...      0.00367504 Eh       2.31 kcal/mol
Thermal rotational correction    ...      0.00141627 Eh       0.89 kcal/mol
Thermal translational correction ...      0.00141627 Eh       0.89 kcal/mol
-----------------------------------------------------------------------
Total thermal energy                   -436.63010137 Eh

Summary of corrections to the electronic energy:
(perhaps to be used in another calculation)
Total thermal correction                  0.00650758 Eh       4.08 kcal/mol
Non-thermal (ZPE) correction              0.10404002 Eh      65.29 kcal/mol
-----------------------------------------------------------------------
Total correction                          0.11054760 Eh      69.37 kcal/mol

--------
ENTHALPY
--------

The enthalpy is H = U + kB*T
                kB is Boltzmann's constant
Total thermal energy              ...   -436.63010137 Eh
Thermal Enthalpy correction       ...      0.00094421 Eh       0.59 kcal/mol
-----------------------------------------------------------------------
Total Enthalpy                    ...   -436.62915716 Eh

Note: Only C1 symmetry has been detected, increase convergence thresholds
      if your molecule has a higher symmetry. Symmetry factor of 1.0 is
      used for the rotational entropy correction.

Note: Rotational entropy computed according to Herzberg
Infrared and Raman Spectra, Chapter V,1, Van Nostrand Reinhold, 1945
Point Group:  C1, Symmetry Number:   1
Rotational constants in cm-1:     0.132762     0.042930     0.032440

Vibrational entropy computed according to the QRRHO of S. Grimme
Chem.Eur.J. 2012 18 9955 using a reference frequency of 100.0 cm-1

-------
ENTROPY
-------

The entropy contributions are T*S = T*(S(el)+S(vib)+S(rot)+S(trans))
     S(el)   - electronic entropy
     S(vib)  - vibrational entropy
     S(rot)  - rotational entropy
     S(trans)- translational entropy
The entropies will be listed as multiplied by the temperature to get
units of energy

Electronic entropy                ...      0.00000000 Eh      0.00 kcal/mol
Vibrational entropy               ...      0.00580630 Eh      3.64 kcal/mol
Rotational entropy                ...      0.01356877 Eh      8.51 kcal/mol
Translational entropy             ...      0.01916571 Eh     12.03 kcal/mol
-----------------------------------------------------------------------
Final entropy term                ...      0.03854078 Eh     24.18 kcal/mol

In case the symmetry of your molecule has not been determined correctly
or in case you have a reason to use a different symmetry number we print
out the resulting rotational entropy values for sn=1,12:

 non-linear molecules -----------------------------------
|  sn= 1 | S(rot)=       0.01356877 Eh      8.51 kcal/mol|
|  sn= 2 | S(rot)=       0.01291431 Eh      8.10 kcal/mol|
|  sn= 3 | S(rot)=       0.01253148 Eh      7.86 kcal/mol|
|  sn= 4 | S(rot)=       0.01225986 Eh      7.69 kcal/mol|
|  sn= 5 | S(rot)=       0.01204917 Eh      7.56 kcal/mol|
|  sn= 6 | S(rot)=       0.01187703 Eh      7.45 kcal/mol|
|  sn= 7 | S(rot)=       0.01173148 Eh      7.36 kcal/mol|
|  sn= 8 | S(rot)=       0.01160540 Eh      7.28 kcal/mol|
|  sn= 9 | S(rot)=       0.01149419 Eh      7.21 kcal/mol|
|  sn=10 | S(rot)=       0.01139471 Eh      7.15 kcal/mol|
|  sn=11 | S(rot)=       0.01130472 Eh      7.09 kcal/mol|
|  sn=12 | S(rot)=       0.01122257 Eh      7.04 kcal/mol|
 linear molecules ---------------------------------------
|  Dinfh | S(rot)=       0.00856279 Eh      5.37 kcal/mol|
|  Cinfv | S(rot)=       0.00921725 Eh      5.78 kcal/mol|
 --------------------------------------------------------

-------------------
GIBBS FREE ENERGY
-------------------

The Gibbs free energy is G = H - T*S

                             ****ORCA TERMINATED NORMALLY****
TOTAL RUN TIME: 0 days 0 hours 28 minutes 47 seconds 138 msec
