                         Program Version 6.0.1  -  RELEASE   -
|  1> ! r2scan-3c def2/J RI DEFGRID2 scfconv6 printgap
|  2> %output
|  3>     printlevel normal
|  4> end
|  5> * xyz 0 1
|  6> C -3.8925369069 -1.2040898638 -1.0206631635
|  7> N -3.4151392639 -0.7779399869 0.2716518172
|  8> C -2.2666011878 -0.1136389019 0.5273422137
|  9> O -1.9561889316 0.2836896229 1.6214672465
| 10> O -1.5055450524 0.0285036169 -0.5879315579
| 11> C -0.2739044628 0.6626063797 -0.4182402662
| 12> C -0.1921553834 2.023133397 -0.5334267207
| 13> C 1.04941989 2.6633345736 -0.4111205295
| 14> C 2.1810410912 1.9380178631 -0.1688242606
| 15> C 2.1238856499 0.534943112 -0.0358060687
| 16> C 0.8736237345 -0.1259007045 -0.1613706765
| 17> C 0.8174924792 -1.5276023697 -0.022826628
| 18> C 1.9513033762 -2.2458625244 0.2345974251
| 19> C 3.1891086934 -1.5970292492 0.3590177064
| 20> C 3.2734319096 -0.2394683232 0.2254368795
| 21> H -4.6957447669 -0.553791549 -1.3784152137
| 22> H -4.2678583007 -2.2263732323 -0.9566402
| 23> H -3.0690216895 -1.168533558 -1.7289614001
| 24> H -4.0417698474 -0.85962787 1.0571914246
| 25> H -1.0870661567 2.5986911595 -0.715238356
| 26> H 1.0958205949 3.7378198598 -0.5058662875
| 27> H 3.1381690463 2.4292536665 -0.0694578065
| 28> H -0.1370958916 -2.0235806511 -0.1202059134
| 29> H 1.9015485946 -3.3191913564 0.344786062
| 30> H 4.0748281159 -2.1810038079 0.5625345986
| 31> H 4.2248269069 0.2641188178 0.3208667909
| 32> *
| 33>
| 34>                          ****END OF INPUT****

CARTESIAN COORDINATES (ANGSTROEM)
---------------------------------
  C     -3.892537   -1.204090   -1.020663
  N     -3.415139   -0.777940    0.271652
  C     -2.266601   -0.113639    0.527342
  O     -1.956189    0.283690    1.621467
  O     -1.505545    0.028504   -0.587932
  C     -0.273904    0.662606   -0.418240
  C     -0.192155    2.023133   -0.533427
  C      1.049420    2.663335   -0.411121
  C      2.181041    1.938018   -0.168824
  C      2.123886    0.534943   -0.035806
  C      0.873624   -0.125901   -0.161371
  C      0.817492   -1.527602   -0.022827
  C      1.951303   -2.245863    0.234597
  C      3.189109   -1.597029    0.359018
  C      3.273432   -0.239468    0.225437
  H     -4.695745   -0.553792   -1.378415
  H     -4.267858   -2.226373   -0.956640
  H     -3.069022   -1.168534   -1.728961
  H     -4.041770   -0.859628    1.057191
  H     -1.087066    2.598691   -0.715238
  H      1.095821    3.737820   -0.505866
  H      3.138169    2.429254   -0.069458
  H     -0.137096   -2.023581   -0.120206
  H      1.901549   -3.319191    0.344786
  H      4.074828   -2.181004    0.562535
  H      4.224827    0.264119    0.320867

 Total Charge           Charge          ....    0
 Multiplicity           Mult            ....    1
 Number of Electrons    NEL             ....  106
 Basis Dimension        Dim             ....  355

ORBITAL ENERGIES
----------------

  NO   OCC          E(Eh)            E(eV)
   0   2.0000     -19.004813      -517.1473
   1   2.0000     -18.914454      -514.6885
   2   2.0000     -14.192575      -386.1996
   3   2.0000     -10.173886      -276.8455
   4   2.0000     -10.100897      -274.8594
   5   2.0000     -10.072586      -274.0890
   6   2.0000     -10.050055      -273.4759
   7   2.0000     -10.049432      -273.4589
   8   2.0000     -10.040668      -273.2205
   9   2.0000     -10.039487      -273.1883
  10   2.0000     -10.038886      -273.1720
  11   2.0000     -10.038858      -273.1712
  12   2.0000     -10.038028      -273.1486
  13   2.0000     -10.037663      -273.1387
  14   2.0000     -10.037513      -273.1346
  15   2.0000      -1.082601       -29.4591
  16   2.0000      -0.984651       -26.7937
  17   2.0000      -0.902152       -24.5488
  18   2.0000      -0.848601       -23.0916
  19   2.0000      -0.796950       -21.6861
  20   2.0000      -0.747284       -20.3346
  21   2.0000      -0.718150       -19.5419
  22   2.0000      -0.700380       -19.0583
  23   2.0000      -0.681471       -18.5438
  24   2.0000      -0.626079       -17.0365
  25   2.0000      -0.594274       -16.1710
  26   2.0000      -0.591365       -16.0919
  27   2.0000      -0.546488       -14.8707
  28   2.0000      -0.509453       -13.8629
  29   2.0000      -0.492719       -13.4076
  30   2.0000      -0.475402       -12.9363
  31   2.0000      -0.468087       -12.7373
  32   2.0000      -0.466360       -12.6903
  33   2.0000      -0.443306       -12.0630
  34   2.0000      -0.426226       -11.5982
  35   2.0000      -0.420510       -11.4427
  36   2.0000      -0.401880       -10.9357
  37   2.0000      -0.398972       -10.8566
  38   2.0000      -0.384567       -10.4646
  39   2.0000      -0.382271       -10.4021
  40   2.0000      -0.376167       -10.2360
  41   2.0000      -0.372128       -10.1261
  42   2.0000      -0.360079        -9.7982
  43   2.0000      -0.348774        -9.4906
  44   2.0000      -0.318839        -8.6760
  45   2.0000      -0.311905        -8.4874
  46   2.0000      -0.307957        -8.3799
  47   2.0000      -0.279681        -7.6105
  48   2.0000      -0.265543        -7.2258
  49   2.0000      -0.242529        -6.5995
  50   2.0000      -0.236285        -6.4296
  51   2.0000      -0.231505        -6.2996
  52   2.0000      -0.203290        -5.5318
  53   0.0000      -0.069208        -1.8833
  54   0.0000      -0.039139        -1.0650
  55   0.0000      -0.001415        -0.0385
  56   0.0000       0.026386         0.7180
  57   0.0000       0.051097         1.3904

MULLIKEN ATOMIC CHARGES
-----------------------
   0 C :   -0.387616
   1 N :   -0.121288
   2 C :    0.276289
   3 O :   -0.435618
   4 O :   -0.208198
   5 C :    0.320250
   6 C :   -0.241936
   7 C :   -0.131013
   8 C :   -0.270979
   9 C :    0.188391
  10 C :    0.015226
  11 C :   -0.238892
  12 C :   -0.160958
  13 C :   -0.142720
  14 C :   -0.219152
  15 H :    0.146159
  16 H :    0.146112
  17 H :    0.181967
  18 H :    0.250183
  19 H :    0.154407
  20 H :    0.146931
  21 H :    0.144509
  22 H :    0.153322
  23 H :    0.145265
  24 H :    0.145469
  25 H :    0.143890
Sum of atomic charges:    0.0000000

LOEWDIN ATOMIC CHARGES
----------------------
   0 C :   -0.112785
   1 N :   -0.603696
   2 C :    0.451114
   3 O :   -0.385300
   4 O :   -0.527711
   5 C :    0.220498
   6 C :   -0.114986
   7 C :   -0.153404
   8 C :   -0.145692
   9 C :   -0.051728
  10 C :   -0.017155
  11 C :   -0.124484
  12 C :   -0.159554
  13 C :   -0.160929
  14 C :   -0.141301
  15 H :    0.166058
  16 H :    0.170652
  17 H :    0.200631
  18 H :    0.278032
  19 H :    0.181489
  20 H :    0.170046
  21 H :    0.171360
  22 H :    0.181021
  23 H :    0.168347
  24 H :    0.168141
  25 H :    0.171335

  Mayer bond orders larger than 0.100000
B(  0-C ,  1-N ) :   0.8749 B(  0-C , 15-H ) :   0.9585 B(  0-C , 16-H ) :   0.9676
B(  0-C , 17-H ) :   0.9627 B(  1-N ,  2-C ) :   1.2475 B(  1-N , 18-H ) :   0.9175
B(  2-C ,  3-O ) :   1.9118 B(  2-C ,  4-O ) :   1.0109 B(  4-O ,  5-C ) :   0.9548
B(  5-C ,  6-C ) :   1.5057 B(  5-C , 10-C ) :   1.3030 B(  6-C ,  7-C ) :   1.2256
B(  6-C , 19-H ) :   0.9285 B(  7-C ,  8-C ) :   1.5073 B(  7-C , 20-H ) :   0.9524
B(  8-C ,  9-C ) :   1.1751 B(  8-C , 21-H ) :   0.9438 B(  9-C , 10-C ) :   1.4085
B(  9-C , 14-C ) :   1.1821 B( 10-C , 11-C ) :   1.2647 B( 11-C , 12-C ) :   1.5003
B( 11-C , 22-H ) :   0.9544 B( 12-C , 13-C ) :   1.2654 B( 12-C , 23-H ) :   0.9505
B( 13-C , 14-C ) :   1.5135 B( 13-C , 24-H ) :   0.9489 B( 14-C , 25-H ) :   0.9499

Dispersion correction           -0.010857883
FINAL SINGLE POINT ENERGY      -668.975841883071

DIPOLE MOMENT
-------------

Method             : SCF
Type of density    : Electron Density
Multiplicity       :   1
Irrep              :   0
Energy             :  -668.9797369199455943 Eh
Relativity type    :
Basis              : AO
                                X                 Y                 Z
Electronic contribution:      2.255464658       2.679955127       2.210915994
Nuclear contribution   :     -2.756346410      -3.097694836      -2.975411121
                        -----------------------------------------
Total Dipole Moment    :     -0.500881751      -0.417739709      -0.764495127
                        -----------------------------------------
Magnitude (a.u.)       :      1.004908848
Magnitude (Debye)      :      2.554275300

Rotational constants in cm-1:             0.035909             0.014708             0.011585
Rotational constants in MHz :          1076.537902           440.935517           347.317877

                             ****ORCA TERMINATED NORMALLY****
TOTAL RUN TIME: 0 days 0 hours 0 minutes 43 seconds 285 msec
