                         Program Version 6.0.1  -  RELEASE   -
|  1> ! pbe def2-sv(p) def2/J RI DEFGRID1 loosescf d4 GCP(DFT/SV(P)) printgap
|  2> %output
|  3>     printlevel normal
|  4> end
|  5> * xyz 0 1
|  6> C -3.6051058888 -1.0337828026 0.0341098549
|  7> C -2.1099452914 -1.3258243504 -0.0069817836
|  8> C -1.2070183639 -0.1180289554 0.0210270539
|  9> C -1.7003902112 1.1596104587 0.0812963722
| 10> C -0.8525426723 2.2771066475 0.107288539
| 11> C 0.5011500827 2.1176228893 0.0726496013
| 12> C 1.0612331927 0.8247451816 0.0101528745
| 13> C 0.2049914547 -0.3092570917 -0.0161936047
| 14> C 0.8051775543 -1.5862530983 -0.0790339123
| 15> C 2.1643962743 -1.7326496991 -0.1136135247
| 16> C 3.0033260742 -0.6102454579 -0.0872452904
| 17> C 2.4591334836 0.6407641955 -0.02658574
| 18> H -3.8755834486 -0.5068469597 0.9462356298
| 19> H -4.1580276342 -1.9707277861 0.0090166125
| 20> H -3.9107936885 -0.4385737767 -0.8232715533
| 21> H -1.8934579094 -1.8963450651 -0.9156116948
| 22> H -1.8577865223 -1.9637812833 0.8458849349
| 23> H -2.7641074806 1.3336248506 0.1104737369
| 24> H -1.2878423811 3.2649417926 0.1551964686
| 25> H 1.1625621276 2.9720069504 0.0924763627
| 26> H 0.1832729436 -2.4675001964 -0.1005465625
| 27> H 2.6007821582 -2.7200173977 -0.1618215604
| 28> H 4.0750176616 -0.7432695637 -0.1151692674
| 29> H 3.093325293 1.5160529824 -0.0055685893
| 30> *
| 31>
| 32>                          ****END OF INPUT****

CARTESIAN COORDINATES (ANGSTROEM)
---------------------------------
  C     -3.605106   -1.033783    0.034110
  C     -2.109945   -1.325824   -0.006982
  C     -1.207018   -0.118029    0.021027
  C     -1.700390    1.159610    0.081296
  C     -0.852543    2.277107    0.107289
  C      0.501150    2.117623    0.072650
  C      1.061233    0.824745    0.010153
  C      0.204991   -0.309257   -0.016194
  C      0.805178   -1.586253   -0.079034
  C      2.164396   -1.732650   -0.113614
  C      3.003326   -0.610245   -0.087245
  C      2.459133    0.640764   -0.026586
  H     -3.875583   -0.506847    0.946236
  H     -4.158028   -1.970728    0.009017
  H     -3.910794   -0.438574   -0.823272
  H     -1.893458   -1.896345   -0.915612
  H     -1.857787   -1.963781    0.845885
  H     -2.764107    1.333625    0.110474
  H     -1.287842    3.264942    0.155196
  H      1.162562    2.972007    0.092476
  H      0.183273   -2.467500   -0.100547
  H      2.600782   -2.720017   -0.161822
  H      4.075018   -0.743270   -0.115169
  H      3.093325    1.516053   -0.005569

 Total Charge           Charge          ....    0
 Multiplicity           Mult            ....    1
 Number of Electrons    NEL             ....   84
 Basis Dimension        Dim             ....  192

ORBITAL ENERGIES
----------------

  NO   OCC          E(Eh)            E(eV)
   0   2.0000      -9.902863      -269.4706
   1   2.0000      -9.901096      -269.4225
   2   2.0000      -9.900303      -269.4009
   3   2.0000      -9.894224      -269.2355
   4   2.0000      -9.891046      -269.1491
   5   2.0000      -9.890866      -269.1441
   6   2.0000      -9.890044      -269.1218
   7   2.0000      -9.889488      -269.1066
   8   2.0000      -9.888888      -269.0903
   9   2.0000      -9.887981      -269.0657
  10   2.0000      -9.887081      -269.0412
  11   2.0000      -9.879981      -268.8480
  12   2.0000      -0.794234       -21.6122
  13   2.0000      -0.745433       -20.2843
  14   2.0000      -0.716516       -19.4974
  15   2.0000      -0.675032       -18.3686
  16   2.0000      -0.664000       -18.0684
  17   2.0000      -0.635065       -17.2810
  18   2.0000      -0.575786       -15.6679
  19   2.0000      -0.554560       -15.0904
  20   2.0000      -0.545169       -14.8348
  21   2.0000      -0.507418       -13.8075
  22   2.0000      -0.463222       -12.6049
  23   2.0000      -0.447287       -12.1713
  24   2.0000      -0.442352       -12.0370
  25   2.0000      -0.410683       -11.1753
  26   2.0000      -0.401637       -10.9291
  27   2.0000      -0.388322       -10.5668
  28   2.0000      -0.377547       -10.2736
  29   2.0000      -0.370606       -10.0847
  30   2.0000      -0.354206        -9.6384
  31   2.0000      -0.352307        -9.5868
  32   2.0000      -0.332304        -9.0425
  33   2.0000      -0.322801        -8.7839
  34   2.0000      -0.316929        -8.6241
  35   2.0000      -0.315744        -8.5918
  36   2.0000      -0.293134        -7.9766
  37   2.0000      -0.288778        -7.8581
  38   2.0000      -0.279581        -7.6078
  39   2.0000      -0.249293        -6.7836
  40   2.0000      -0.222818        -6.0632
  41   2.0000      -0.193351        -5.2613
  42   0.0000      -0.066615        -1.8127
  43   0.0000      -0.037172        -1.0115
  44   0.0000      -0.000091        -0.0025
  45   0.0000       0.043020         1.1706
  46   0.0000       0.050903         1.3852

MULLIKEN ATOMIC CHARGES
-----------------------
   0 C :   -0.248481
   1 C :   -0.168549
   2 C :    0.021225
   3 C :   -0.181440
   4 C :   -0.021653
   5 C :   -0.121137
   6 C :    0.131161
   7 C :    0.114626
   8 C :   -0.163486
   9 C :   -0.030435
  10 C :   -0.039019
  11 C :   -0.126852
  12 H :    0.108579
  13 H :    0.102995
  14 H :    0.108547
  15 H :    0.105198
  16 H :    0.105300
  17 H :    0.040014
  18 H :    0.046670
  19 H :    0.035560
  20 H :    0.043041
  21 H :    0.048916
  22 H :    0.050973
  23 H :    0.038248
Sum of atomic charges:   -0.0000000

LOEWDIN ATOMIC CHARGES
----------------------
   0 C :   -0.339024
   1 C :   -0.224463
   2 C :   -0.029949
   3 C :   -0.131594
   4 C :   -0.123624
   5 C :   -0.116384
   6 C :   -0.023653
   7 C :   -0.023415
   8 C :   -0.118446
   9 C :   -0.122622
  10 C :   -0.126476
  11 C :   -0.109475
  12 H :    0.121047
  13 H :    0.122792
  14 H :    0.121057
  15 H :    0.130328
  16 H :    0.130367
  17 H :    0.123513
  18 H :    0.123104
  19 H :    0.122511
  20 H :    0.124256
  21 H :    0.123301
  22 H :    0.123741
  23 H :    0.123107

  Mayer bond orders larger than 0.100000
B(  0-C ,  1-C ) :   1.1975 B(  0-C , 12-H ) :   0.9413 B(  0-C , 13-H ) :   0.9447
B(  0-C , 14-H ) :   0.9413 B(  1-C ,  2-C ) :   1.0878 B(  1-C , 15-H ) :   0.8854
B(  1-C , 16-H ) :   0.8855 B(  2-C ,  3-C ) :   1.5065 B(  2-C ,  7-C ) :   1.2501
B(  3-C ,  4-C ) :   1.2218 B(  3-C , 17-H ) :   0.9461 B(  4-C ,  5-C ) :   1.4525
B(  4-C , 18-H ) :   0.9605 B(  5-C ,  6-C ) :   1.2330 B(  5-C , 19-H ) :   0.9672
B(  6-C ,  7-C ) :   1.2519 B(  6-C , 11-C ) :   1.2433 B(  7-C ,  8-C ) :   1.2733
B(  8-C ,  9-C ) :   1.4570 B(  8-C , 20-H ) :   0.9420 B(  9-C , 10-C ) :   1.2628
B(  9-C , 21-H ) :   0.9592 B( 10-C , 11-C ) :   1.4527 B( 10-C , 22-H ) :   0.9630
B( 11-C , 23-H ) :   0.9642

Dispersion correction           -0.029227909
FINAL SINGLE POINT ENERGY      -463.480893315827

DIPOLE MOMENT
-------------

Method             : SCF
Type of density    : Electron Density
Multiplicity       :   1
Irrep              :   0
Energy             :  -463.5419237362028753 Eh
Relativity type    :
Basis              : AO
                                X                 Y                 Z
Electronic contribution:      7.971424930       3.260794180      -0.037691052
Nuclear contribution   :     -8.098876000      -3.396581069       0.034988568
                        -----------------------------------------
Total Dipole Moment    :     -0.127451070      -0.135786889      -0.002702484
                        -----------------------------------------
Magnitude (a.u.)       :      0.186250256
Magnitude (Debye)      :      0.473410529

Rotational constants in cm-1:             0.055306             0.026544             0.018057
Rotational constants in MHz :          1658.029909           795.771491           541.327640

                             ****ORCA TERMINATED NORMALLY****
TOTAL RUN TIME: 0 days 0 hours 1 minutes 10 seconds 771 msec
