                         Program Version 6.0.1  -  RELEASE   -
|  1> ! r2scan-3c def2/J RI DEFGRID2 scfconv6 printgap
|  2> %output
|  3>     printlevel normal
|  4> end
|  5> * xyz 0 1
|  6> C -1.7351622432 0.6105789278 -0.5072034623
|  7> C -0.8180907099 0.2269177886 0.6473541643
|  8> N 0.4965323439 -0.1723885984 0.1049987376
|  9> O 0.8233040641 -1.3264116664 0.2322764188
| 10> O 1.1473900821 0.6852760522 -0.4387341836
| 11> H -2.6852512011 0.9673403524 -0.12020809
| 12> H -1.2773475931 1.4010939434 -1.0974029676
| 13> H -1.9214435832 -0.2468801567 -1.1499030392
| 14> H -1.2150057629 -0.6158815644 1.2146981542
| 15> H -0.6572593147 1.0870523633 1.3008112416
| 16> *
| 17>
| 18>                          ****END OF INPUT****

CARTESIAN COORDINATES (ANGSTROEM)
---------------------------------
  C     -1.735162    0.610579   -0.507203
  C     -0.818091    0.226918    0.647354
  N      0.496532   -0.172389    0.104999
  O      0.823304   -1.326412    0.232276
  O      1.147390    0.685276   -0.438734
  H     -2.685251    0.967340   -0.120208
  H     -1.277348    1.401094   -1.097403
  H     -1.921444   -0.246880   -1.149903
  H     -1.215006   -0.615882    1.214698
  H     -0.657259    1.087052    1.300811

 Total Charge           Charge          ....    0
 Multiplicity           Mult            ....    1
 Number of Electrons    NEL             ....   40
 Basis Dimension        Dim             ....  135

ORBITAL ENERGIES
----------------

  NO   OCC          E(Eh)            E(eV)
   0   2.0000     -18.986352      -516.6449
   1   2.0000     -18.985653      -516.6259
   2   2.0000     -14.392476      -391.6392
   3   2.0000     -10.099591      -274.8238
   4   2.0000     -10.053719      -273.5756
   5   2.0000      -1.212754       -33.0007
   6   2.0000      -1.036287       -28.1988
   7   2.0000      -0.807784       -21.9809
   8   2.0000      -0.680525       -18.5180
   9   2.0000      -0.574224       -15.6254
  10   2.0000      -0.524946       -14.2845
  11   2.0000      -0.504938       -13.7401
  12   2.0000      -0.491046       -13.3621
  13   2.0000      -0.444968       -12.1082
  14   2.0000      -0.394587       -10.7373
  15   2.0000      -0.374122       -10.1804
  16   2.0000      -0.355842        -9.6830
  17   2.0000      -0.295839        -8.0502
  18   2.0000      -0.274737        -7.4760
  19   2.0000      -0.260981        -7.1017
  20   0.0000      -0.098345        -2.6761
  21   0.0000       0.079193         2.1550
  22   0.0000       0.087853         2.3906
  23   0.0000       0.105622         2.8741
  24   0.0000       0.133530         3.6335

MULLIKEN ATOMIC CHARGES
-----------------------
   0 C :   -0.450842
   1 C :   -0.241563
   2 N :    0.231982
   3 O :   -0.196679
   4 O :   -0.189290
   5 H :    0.157393
   6 H :    0.175089
   7 H :    0.159459
   8 H :    0.183201
   9 H :    0.171249
Sum of atomic charges:   -0.0000000

LOEWDIN ATOMIC CHARGES
----------------------
   0 C :   -0.364654
   1 C :    0.016146
   2 N :   -0.540961
   3 O :    0.004933
   4 O :   -0.001603
   5 H :    0.160816
   6 H :    0.171186
   7 H :    0.161997
   8 H :    0.194813
   9 H :    0.197328

  Mayer bond orders larger than 0.100000
B(  0-C ,  1-C ) :   0.9179 B(  0-C ,  5-H ) :   0.9664 B(  0-C ,  6-H ) :   0.9641
B(  0-C ,  7-H ) :   0.9662 B(  1-C ,  2-N ) :   0.8446 B(  1-C ,  8-H ) :   0.9626
B(  1-C ,  9-H ) :   0.9468 B(  2-N ,  3-O ) :   1.8595 B(  2-N ,  4-O ) :   1.8663
B(  3-O ,  4-O ) :   0.2830

Dispersion correction           -0.001894009
FINAL SINGLE POINT ENERGY      -284.281124226144

DIPOLE MOMENT
-------------

Method             : SCF
Type of density    : Electron Density
Multiplicity       :   1
Irrep              :   0
Energy             :  -284.2903306577306921 Eh
Relativity type    :
Basis              : AO
                                X                 Y                 Z
Electronic contribution:      5.945198597      -1.998119471       0.266072396
Nuclear contribution   :     -7.244816237       2.421972949       0.136362412
                        -----------------------------------------
Total Dipole Moment    :     -1.299617640       0.423853478       0.402434808
                        -----------------------------------------
Magnitude (a.u.)       :      1.424995283
Magnitude (Debye)      :      3.622050159

Rotational constants in cm-1:             0.320085             0.143620             0.115774
Rotational constants in MHz :          9595.902777          4305.626660          3470.821826

                             ****ORCA TERMINATED NORMALLY****
TOTAL RUN TIME: 0 days 0 hours 0 minutes 15 seconds 494 msec
