                         Program Version 6.0.1  -  RELEASE   -
|  1> ! r2scan-3c def2/J RI DEFGRID2 scfconv6 printgap
|  2> %output
|  3>     printlevel normal
|  4> end
|  5> * xyz 0 1
|  6> C -2.1174277797 -0.9254804311 -0.2914634815
|  7> C -1.1758434191 -0.3498173077 0.7850004737
|  8> H -1.7319848959 -0.3782485453 1.7301425546
|  9> C -0.7645170397 1.1227313445 0.5656842009
| 10> H -1.6369390249 1.6679636136 0.1877064652
| 11> C 0.3956067782 1.2964946511 -0.4325844417
| 12> H 0.8320826124 2.2874748345 -0.2467503344
| 13> C 1.5257982266 0.2853033454 -0.1160443698
| 14> H 2.1780998048 0.2219139695 -0.9976371826
| 15> C 1.0382432388 -1.141243506 0.202491018
| 16> H 1.8349645547 -1.6499822854 0.7737106925
| 17> O -0.0614580749 -1.2039630456 1.0530132516
| 18> O 0.8250627524 -1.8389705889 -1.0047320335
| 19> O 2.2113340826 0.8044175646 1.0037898623
| 20> O 0.0137784506 1.2931561389 -1.7704718716
| 21> O -0.4411693273 1.714475793 1.7979081279
| 22> O -1.6454007445 -0.8629191177 -1.6132434805
| 23> H -3.0480092141 -0.3542678778 -0.2752435919
| 24> H -2.3401626017 -1.9661753812 -0.0173392016
| 25> H 0.6611801407 -2.7686940253 -0.8015878005
| 26> H 3.0221946882 0.3066345396 1.1556468674
| 27> H -0.6617893517 0.6033637041 -1.9203231857
| 28> H 0.4492781268 1.4268656901 2.0448852993
| 29> H -0.7932173047 -1.3397286955 -1.6583982518
| 30> *
| 31>
| 32>                          ****END OF INPUT****

CARTESIAN COORDINATES (ANGSTROEM)
---------------------------------
  C     -2.117428   -0.925480   -0.291463
  C     -1.175843   -0.349817    0.785000
  H     -1.731985   -0.378249    1.730143
  C     -0.764517    1.122731    0.565684
  H     -1.636939    1.667964    0.187706
  C      0.395607    1.296495   -0.432584
  H      0.832083    2.287475   -0.246750
  C      1.525798    0.285303   -0.116044
  H      2.178100    0.221914   -0.997637
  C      1.038243   -1.141244    0.202491
  H      1.834965   -1.649982    0.773711
  O     -0.061458   -1.203963    1.053013
  O      0.825063   -1.838971   -1.004732
  O      2.211334    0.804418    1.003790
  O      0.013778    1.293156   -1.770472
  O     -0.441169    1.714476    1.797908
  O     -1.645401   -0.862919   -1.613243
  H     -3.048009   -0.354268   -0.275244
  H     -2.340163   -1.966175   -0.017339
  H      0.661180   -2.768694   -0.801588
  H      3.022195    0.306635    1.155647
  H     -0.661789    0.603364   -1.920323
  H      0.449278    1.426866    2.044885
  H     -0.793217   -1.339729   -1.658398

 Total Charge           Charge          ....    0
 Multiplicity           Mult            ....    1
 Number of Electrons    NEL             ....   96
 Basis Dimension        Dim             ....  318

ORBITAL ENERGIES
----------------

  NO   OCC          E(Eh)            E(eV)
   0   2.0000     -18.997654      -516.9524
   1   2.0000     -18.981117      -516.5024
   2   2.0000     -18.981082      -516.5015
   3   2.0000     -18.962877      -516.0061
   4   2.0000     -18.944139      -515.4962
   5   2.0000     -18.936421      -515.2862
   6   2.0000     -10.156373      -276.3690
   7   2.0000     -10.100654      -274.8528
   8   2.0000     -10.094399      -274.6826
   9   2.0000     -10.089948      -274.5615
  10   2.0000     -10.088282      -274.5161
  11   2.0000     -10.086707      -274.4732
  12   2.0000      -1.067786       -29.0559
  13   2.0000      -1.020838       -27.7784
  14   2.0000      -1.006568       -27.3901
  15   2.0000      -1.001739       -27.2587
  16   2.0000      -0.987925       -26.8828
  17   2.0000      -0.977330       -26.5945
  18   2.0000      -0.750470       -20.4213
  19   2.0000      -0.740662       -20.1544
  20   2.0000      -0.667186       -18.1551
  21   2.0000      -0.634371       -17.2621
  22   2.0000      -0.615724       -16.7547
  23   2.0000      -0.556430       -15.1412
  24   2.0000      -0.521251       -14.1839
  25   2.0000      -0.514315       -13.9952
  26   2.0000      -0.502152       -13.6643
  27   2.0000      -0.492551       -13.4030
  28   2.0000      -0.473641       -12.8884
  29   2.0000      -0.455075       -12.3832
  30   2.0000      -0.446399       -12.1471
  31   2.0000      -0.435262       -11.8441
  32   2.0000      -0.411494       -11.1973
  33   2.0000      -0.397049       -10.8042
  34   2.0000      -0.392125       -10.6703
  35   2.0000      -0.374603       -10.1935
  36   2.0000      -0.370237       -10.0747
  37   2.0000      -0.346706        -9.4343
  38   2.0000      -0.335495        -9.1293
  39   2.0000      -0.326184        -8.8759
  40   2.0000      -0.304227        -8.2784
  41   2.0000      -0.300143        -8.1673
  42   2.0000      -0.290830        -7.9139
  43   2.0000      -0.274332        -7.4650
  44   2.0000      -0.267468        -7.2782
  45   2.0000      -0.248049        -6.7498
  46   2.0000      -0.235910        -6.4194
  47   2.0000      -0.219861        -5.9827
  48   0.0000       0.016522         0.4496
  49   0.0000       0.033986         0.9248
  50   0.0000       0.064435         1.7534
  51   0.0000       0.075937         2.0663
  52   0.0000       0.080055         2.1784

MULLIKEN ATOMIC CHARGES
-----------------------
   0 C :   -0.248255
   1 C :    0.061933
   2 H :    0.168317
   3 C :   -0.174793
   4 H :    0.170823
   5 C :   -0.032293
   6 H :    0.167193
   7 C :    0.015068
   8 H :    0.149553
   9 C :   -0.088372
  10 H :    0.124957
  11 O :   -0.166142
  12 O :   -0.416430
  13 O :   -0.411120
  14 O :   -0.416306
  15 O :   -0.404750
  16 O :   -0.466773
  17 H :    0.150065
  18 H :    0.147135
  19 H :    0.318772
  20 H :    0.292617
  21 H :    0.362817
  22 H :    0.328517
  23 H :    0.367467
Sum of atomic charges:   -0.0000000

LOEWDIN ATOMIC CHARGES
----------------------
   0 C :    0.023628
   1 C :    0.099545
   2 H :    0.211167
   3 C :    0.109729
   4 H :    0.200239
   5 C :    0.122203
   6 H :    0.211100
   7 C :    0.129285
   8 H :    0.195090
   9 C :    0.287759
  10 H :    0.198979
  11 O :   -0.650070
  12 O :   -0.532651
  13 O :   -0.595216
  14 O :   -0.575092
  15 O :   -0.570523
  16 O :   -0.617882
  17 H :    0.186752
  18 H :    0.171426
  19 H :    0.277656
  20 H :    0.272456
  21 H :    0.282312
  22 H :    0.281121
  23 H :    0.280987

  Mayer bond orders larger than 0.100000
B(  0-C ,  1-C ) :   0.8866 B(  0-C , 16-O ) :   0.9845 B(  0-C , 17-H ) :   0.9751
B(  0-C , 18-H ) :   0.9827 B(  1-C ,  2-H ) :   0.9445 B(  1-C ,  3-C ) :   0.8157
B(  1-C , 11-O ) :   0.9006 B(  3-C ,  4-H ) :   0.9853 B(  3-C ,  5-C ) :   0.8580
B(  3-C , 15-O ) :   0.9791 B(  5-C ,  6-H ) :   0.9930 B(  5-C ,  7-C ) :   0.8632
B(  5-C , 14-O ) :   1.0368 B(  7-C ,  8-H ) :   0.9401 B(  7-C ,  9-C ) :   0.9347
B(  7-C , 13-O ) :   0.9147 B(  9-C , 10-H ) :   0.9714 B(  9-C , 11-O ) :   0.9929
B(  9-C , 12-O ) :   0.9017 B( 12-O , 19-H ) :   0.8857 B( 13-O , 20-H ) :   0.8983
B( 14-O , 21-H ) :   0.7869 B( 15-O , 22-H ) :   0.8459 B( 16-O , 23-H ) :   0.7940

Dispersion correction           -0.008836996
FINAL SINGLE POINT ENERGY      -687.073565995762

DIPOLE MOMENT
-------------

Method             : SCF
Type of density    : Electron Density
Multiplicity       :   1
Irrep              :   0
Energy             :  -687.0873192119501027 Eh
Relativity type    :
Basis              : AO
                                X                 Y                 Z
Electronic contribution:      1.854894174       0.277161482       0.440023540
Nuclear contribution   :     -1.144620839      -1.824142037      -0.031537348
                        -----------------------------------------
Total Dipole Moment    :      0.710273335      -1.546980555       0.408486191
                        -----------------------------------------
Magnitude (a.u.)       :      1.750570769
Magnitude (Debye)      :      4.449597280

Rotational constants in cm-1:             0.039175             0.031383             0.027829
Rotational constants in MHz :          1174.449203           940.832681           834.285811

                             ****ORCA TERMINATED NORMALLY****
TOTAL RUN TIME: 0 days 0 hours 0 minutes 40 seconds 105 msec
