                         Program Version 6.0.1  -  RELEASE   -
|  1> ! pbe def2-sv(p) def2/J RI DEFGRID1 loosescf d4 GCP(DFT/SV(P)) printgap
|  2> %output
|  3>     printlevel normal
|  4> end
|  5> * xyz 0 1
|  6> C -2.6892093631 -0.9672949944 -0.0012252917
|  7> S -1.8224513693 0.6280071863 0.000489295
|  8> C -0.1094158423 0.1895499943 0.0004333852
|  9> C 0.7950934902 1.2489063663 -0.0002227788
| 10> C 2.1525023122 1.0016806408 -0.0005681645
| 11> C 2.6240765092 -0.3023153567 -0.0003570305
| 12> C 1.7244302045 -1.3526881545 0.0003045198
| 13> C 0.3599935249 -1.1157137992 0.0007605325
| 14> H -2.4385253975 -1.5262784704 -0.8981454221
| 15> H -3.7471278161 -0.7235590441 -0.0032021233
| 16> H -2.4418591398 -1.5265263989 0.8964965866
| 17> H 0.4169545282 2.2601002347 -0.0003369836
| 18> H 2.8461773306 1.8293453068 -0.0009306038
| 19> H 3.6859218134 -0.4967815588 -0.0007497813
| 20> H 2.0815310858 -2.3723455383 0.0004438111
| 21> H -0.3190276641 -1.9534595654 0.0012858705
| 22> *
| 23>
| 24>                          ****END OF INPUT****

CARTESIAN COORDINATES (ANGSTROEM)
---------------------------------
  C     -2.689209   -0.967295   -0.001225
  S     -1.822451    0.628007    0.000489
  C     -0.109416    0.189550    0.000433
  C      0.795093    1.248906   -0.000223
  C      2.152502    1.001681   -0.000568
  C      2.624077   -0.302315   -0.000357
  C      1.724430   -1.352688    0.000305
  C      0.359994   -1.115714    0.000761
  H     -2.438525   -1.526278   -0.898145
  H     -3.747128   -0.723559   -0.003202
  H     -2.441859   -1.526526    0.896497
  H      0.416955    2.260100   -0.000337
  H      2.846177    1.829345   -0.000931
  H      3.685922   -0.496782   -0.000750
  H      2.081531   -2.372346    0.000444
  H     -0.319028   -1.953460    0.001286

 Total Charge           Charge          ....    0
 Multiplicity           Mult            ....    1
 Number of Electrons    NEL             ....   66
 Basis Dimension        Dim             ....  132

ORBITAL ENERGIES
----------------

  NO   OCC          E(Eh)            E(eV)
   0   2.0000     -88.032173     -2395.4772
   1   2.0000      -9.924219      -270.0517
   2   2.0000      -9.916572      -269.8436
   3   2.0000      -9.893691      -269.2210
   4   2.0000      -9.893615      -269.2189
   5   2.0000      -9.892440      -269.1870
   6   2.0000      -9.892299      -269.1832
   7   2.0000      -9.888269      -269.0735
   8   2.0000      -7.676160      -208.8789
   9   2.0000      -5.704799      -155.2355
  10   2.0000      -5.700274      -155.1123
  11   2.0000      -5.692984      -154.9140
  12   2.0000      -0.785014       -21.3613
  13   2.0000      -0.727730       -19.8026
  14   2.0000      -0.673384       -18.3237
  15   2.0000      -0.663400       -18.0520
  16   2.0000      -0.588969       -16.0267
  17   2.0000      -0.544612       -14.8196
  18   2.0000      -0.519057       -14.1243
  19   2.0000      -0.466736       -12.7005
  20   2.0000      -0.412972       -11.2375
  21   2.0000      -0.402821       -10.9613
  22   2.0000      -0.398531       -10.8446
  23   2.0000      -0.394237       -10.7277
  24   2.0000      -0.376591       -10.2476
  25   2.0000      -0.356499        -9.7008
  26   2.0000      -0.338873        -9.2212
  27   2.0000      -0.317317        -8.6346
  28   2.0000      -0.303434        -8.2569
  29   2.0000      -0.280431        -7.6309
  30   2.0000      -0.257100        -6.9960
  31   2.0000      -0.230805        -6.2805
  32   2.0000      -0.180303        -4.9063
  33   0.0000      -0.035583        -0.9683
  34   0.0000      -0.030107        -0.8193
  35   0.0000       0.010685         0.2907
  36   0.0000       0.034598         0.9415
  37   0.0000       0.064829         1.7641

MULLIKEN ATOMIC CHARGES
-----------------------
   0 C :   -0.376414
   1 S :   -0.018470
   2 C :    0.046655
   3 C :   -0.088703
   4 C :   -0.052886
   5 C :   -0.052913
   6 C :   -0.045007
   7 C :   -0.130456
   8 H :    0.156359
   9 H :    0.154273
  10 H :    0.156362
  11 H :    0.050110
  12 H :    0.055882
  13 H :    0.051419
  14 H :    0.052102
  15 H :    0.041685
Sum of atomic charges:    0.0000000

LOEWDIN ATOMIC CHARGES
----------------------
   0 C :   -0.455740
   1 S :    0.276875
   2 C :   -0.162653
   3 C :   -0.141682
   4 C :   -0.117374
   5 C :   -0.139420
   6 C :   -0.116133
   7 C :   -0.156790
   8 H :    0.128889
   9 H :    0.136526
  10 H :    0.128860
  11 H :    0.123795
  12 H :    0.125338
  13 H :    0.123102
  14 H :    0.123799
  15 H :    0.122608

  Mayer bond orders larger than 0.100000
B(  0-C ,  1-S ) :   1.0585 B(  0-C ,  8-H ) :   0.9343 B(  0-C ,  9-H ) :   0.9440
B(  0-C , 10-H ) :   0.9343 B(  1-S ,  2-C ) :   1.0190 B(  2-C ,  3-C ) :   1.3650
B(  2-C ,  7-C ) :   1.3803 B(  3-C ,  4-C ) :   1.4241 B(  3-C , 11-H ) :   0.9588
B(  4-C ,  5-C ) :   1.3591 B(  4-C , 12-H ) :   0.9631 B(  5-C ,  6-C ) :   1.3901
B(  5-C , 13-H ) :   0.9656 B(  6-C ,  7-C ) :   1.3835 B(  6-C , 14-H ) :   0.9600
B(  7-C , 15-H ) :   0.9544

Dispersion correction           -0.017577540
FINAL SINGLE POINT ENERGY      -668.835778498062

DIPOLE MOMENT
-------------

Method             : SCF
Type of density    : Electron Density
Multiplicity       :   1
Irrep              :   0
Energy             :  -668.8767429747698543 Eh
Relativity type    :
Basis              : AO
                                X                 Y                 Z
Electronic contribution:     -0.286525170       3.753012630       0.004193959
Nuclear contribution   :      0.131606913      -4.248864473      -0.004835090
                        -----------------------------------------
Total Dipole Moment    :     -0.154918257      -0.495851843      -0.000641131
                        -----------------------------------------
Magnitude (a.u.)       :      0.519489295
Magnitude (Debye)      :      1.320436851

Rotational constants in cm-1:             0.142541             0.039113             0.030874
Rotational constants in MHz :          4273.281011          1172.587125           925.580379

                             ****ORCA TERMINATED NORMALLY****
TOTAL RUN TIME: 0 days 0 hours 0 minutes 5 seconds 980 msec
