                         Program Version 6.0.1  -  RELEASE   -
|  1> ! r2scan-3c def2/J RI DEFGRID2 scfconv6 printgap
|  2> %output
|  3>     printlevel normal
|  4> end
|  5> * xyz 0 1
|  6> C 3.7256175255 -0.1637604656 -0.0828707021
|  7> C 2.257173373 -0.3087871875 0.3049640244
|  8> H 2.1971820756 -0.5039674676 1.3822172893
|  9> C 1.6031358943 -1.4730402819 -0.4362367464
| 10> C 0.1280099905 -1.5919960479 -0.0688058259
| 11> C -0.6442853134 -0.3073856967 -0.3899914126
| 12> H -0.5212274942 -0.0934218521 -1.457578663
| 13> C 0.0096695011 0.8541348087 0.3819724909
| 14> H -0.0535753495 0.6468642219 1.4623883304
| 15> C 1.4859516619 0.9712461 -0.0009426837
| 16> O -0.5713113609 2.1126506152 0.1053159246
| 17> C -2.1569696133 -0.5095582608 -0.1330743918
| 18> C -2.5699510195 -0.3140430788 1.3263955829
| 19> C -3.0172064766 0.3516217904 -1.0610561243
| 20> H 4.2731154604 -1.0757554631 0.1450606809
| 21> H 3.8184836861 0.0351164979 -1.1483295361
| 22> H 4.1852445231 0.6586246691 0.4601927775
| 23> H 1.6967828778 -1.3105804783 -1.5124737086
| 24> H 2.1179526461 -2.4052724838 -0.1930913993
| 25> H -0.3143688733 -2.4268494899 -0.6172286832
| 26> H 0.0390797328 -1.811178504 0.9980281457
| 27> H 1.546779074 1.2001730947 -1.0663837287
| 28> H 1.9127594183 1.8156636527 0.5426487933
| 29> H -1.4750752742 2.1136774445 0.4360413253
| 30> H -2.3745051982 -1.5551289511 -0.385790765
| 31> H -1.9457605523 -0.9094994204 1.9883038226
| 32> H -3.6017098027 -0.6335822522 1.4600865052
| 33> H -2.505319644 0.7273419074 1.6355813512
| 34> H -2.8196590483 0.0962559861 -2.0999347932
| 35> H -2.819843127 1.4127768564 -0.9358475535
| 36> H -4.0728148369 0.1741987617 -0.8631986897
| 37> *
| 38>
| 39>                          ****END OF INPUT****

CARTESIAN COORDINATES (ANGSTROEM)
---------------------------------
  C      3.725618   -0.163760   -0.082871
  C      2.257173   -0.308787    0.304964
  H      2.197182   -0.503967    1.382217
  C      1.603136   -1.473040   -0.436237
  C      0.128010   -1.591996   -0.068806
  C     -0.644285   -0.307386   -0.389991
  H     -0.521227   -0.093422   -1.457579
  C      0.009670    0.854135    0.381972
  H     -0.053575    0.646864    1.462388
  C      1.485952    0.971246   -0.000943
  O     -0.571311    2.112651    0.105316
  C     -2.156970   -0.509558   -0.133074
  C     -2.569951   -0.314043    1.326396
  C     -3.017206    0.351622   -1.061056
  H      4.273115   -1.075755    0.145061
  H      3.818484    0.035116   -1.148330
  H      4.185245    0.658625    0.460193
  H      1.696783   -1.310580   -1.512474
  H      2.117953   -2.405272   -0.193091
  H     -0.314369   -2.426849   -0.617229
  H      0.039080   -1.811179    0.998028
  H      1.546779    1.200173   -1.066384
  H      1.912759    1.815664    0.542649
  H     -1.475075    2.113677    0.436041
  H     -2.374505   -1.555129   -0.385791
  H     -1.945761   -0.909499    1.988304
  H     -3.601710   -0.633582    1.460087
  H     -2.505320    0.727342    1.635581
  H     -2.819659    0.096256   -2.099935
  H     -2.819843    1.412777   -0.935848
  H     -4.072815    0.174199   -0.863199

 Total Charge           Charge          ....    0
 Multiplicity           Mult            ....    1
 Number of Electrons    NEL             ....   88
 Basis Dimension        Dim             ....  314

ORBITAL ENERGIES
----------------

  NO   OCC          E(Eh)            E(eV)
   0   2.0000     -18.942705      -515.4572
   1   2.0000     -10.074533      -274.1420
   2   2.0000     -10.037060      -273.1223
   3   2.0000     -10.031089      -272.9598
   4   2.0000     -10.027538      -272.8632
   5   2.0000     -10.024417      -272.7782
   6   2.0000     -10.023751      -272.7601
   7   2.0000     -10.021528      -272.6996
   8   2.0000     -10.017035      -272.5774
   9   2.0000     -10.016811      -272.5713
  10   2.0000     -10.014070      -272.4967
  11   2.0000      -0.983482       -26.7619
  12   2.0000      -0.806102       -21.9352
  13   2.0000      -0.770128       -20.9563
  14   2.0000      -0.715255       -19.4631
  15   2.0000      -0.698206       -18.9991
  16   2.0000      -0.655856       -17.8467
  17   2.0000      -0.640966       -17.4416
  18   2.0000      -0.572236       -15.5713
  19   2.0000      -0.567755       -15.4494
  20   2.0000      -0.534473       -14.5438
  21   2.0000      -0.519838       -14.1455
  22   2.0000      -0.472453       -12.8561
  23   2.0000      -0.440489       -11.9863
  24   2.0000      -0.426966       -11.6183
  25   2.0000      -0.421440       -11.4680
  26   2.0000      -0.412258       -11.2181
  27   2.0000      -0.385282       -10.4841
  28   2.0000      -0.385153       -10.4805
  29   2.0000      -0.382840       -10.4176
  30   2.0000      -0.365653        -9.9499
  31   2.0000      -0.359452        -9.7812
  32   2.0000      -0.345483        -9.4011
  33   2.0000      -0.340872        -9.2756
  34   2.0000      -0.328707        -8.9446
  35   2.0000      -0.322409        -8.7732
  36   2.0000      -0.315154        -8.5758
  37   2.0000      -0.304453        -8.2846
  38   2.0000      -0.293745        -7.9932
  39   2.0000      -0.292746        -7.9660
  40   2.0000      -0.281323        -7.6552
  41   2.0000      -0.274725        -7.4756
  42   2.0000      -0.260756        -7.0955
  43   2.0000      -0.226400        -6.1607
  44   0.0000       0.049817         1.3556
  45   0.0000       0.082263         2.2385
  46   0.0000       0.091976         2.5028
  47   0.0000       0.100669         2.7393
  48   0.0000       0.109920         2.9911

MULLIKEN ATOMIC CHARGES
-----------------------
   0 C :   -0.501051
   1 C :   -0.038566
   2 H :    0.160026
   3 C :   -0.332846
   4 C :   -0.355136
   5 C :   -0.038329
   6 H :    0.173192
   7 C :   -0.068606
   8 H :    0.157660
   9 C :   -0.386700
  10 O :   -0.408390
  11 C :   -0.038013
  12 C :   -0.514914
  13 C :   -0.500587
  14 H :    0.146727
  15 H :    0.151063
  16 H :    0.148428
  17 H :    0.157198
  18 H :    0.146397
  19 H :    0.146302
  20 H :    0.155395
  21 H :    0.165182
  22 H :    0.155945
  23 H :    0.274195
  24 H :    0.150113
  25 H :    0.163842
  26 H :    0.154794
  27 H :    0.130877
  28 H :    0.151061
  29 H :    0.148695
  30 H :    0.146044
Sum of atomic charges:    0.0000000

LOEWDIN ATOMIC CHARGES
----------------------
   0 C :   -0.411982
   1 C :   -0.233020
   2 H :    0.158100
   3 C :   -0.293295
   4 C :   -0.288530
   5 C :   -0.198186
   6 H :    0.172441
   7 C :    0.069209
   8 H :    0.168661
   9 C :   -0.251779
  10 O :   -0.606538
  11 C :   -0.237182
  12 C :   -0.410620
  13 C :   -0.411033
  14 H :    0.152833
  15 H :    0.154391
  16 H :    0.153978
  17 H :    0.159089
  18 H :    0.157915
  19 H :    0.158280
  20 H :    0.159197
  21 H :    0.168824
  22 H :    0.169163
  23 H :    0.260252
  24 H :    0.161061
  25 H :    0.155860
  26 H :    0.155639
  27 H :    0.146011
  28 H :    0.155940
  29 H :    0.154014
  30 H :    0.151308

  Mayer bond orders larger than 0.100000
B(  0-C ,  1-C ) :   0.8867 B(  0-C , 14-H ) :   0.9771 B(  0-C , 15-H ) :   0.9964
B(  0-C , 16-H ) :   0.9768 B(  1-C ,  2-H ) :   0.9550 B(  1-C ,  3-C ) :   0.9106
B(  1-C ,  9-C ) :   0.9037 B(  3-C ,  4-C ) :   0.8826 B(  3-C , 17-H ) :   1.0167
B(  3-C , 18-H ) :   0.9459 B(  4-C ,  5-C ) :   0.9154 B(  4-C , 19-H ) :   0.9461
B(  4-C , 20-H ) :   0.9925 B(  5-C ,  6-H ) :   1.0133 B(  5-C ,  7-C ) :   0.8492
B(  5-C , 11-C ) :   0.8287 B(  7-C ,  8-H ) :   0.9839 B(  7-C ,  9-C ) :   0.9124
B(  7-C , 10-O ) :   0.8818 B(  9-C , 21-H ) :   1.0227 B(  9-C , 22-H ) :   0.9425
B( 10-O , 23-H ) :   0.8864 B( 11-C , 12-C ) :   0.8821 B( 11-C , 13-C ) :   0.9281
B( 11-C , 24-H ) :   0.9900 B( 12-C , 25-H ) :   0.9893 B( 12-C , 26-H ) :   0.9681
B( 12-C , 27-H ) :   0.9634 B( 13-C , 28-H ) :   0.9807 B( 13-C , 29-H ) :   0.9745
B( 13-C , 30-H ) :   0.9790

Dispersion correction           -0.010885778
FINAL SINGLE POINT ENERGY      -468.206567611829

DIPOLE MOMENT
-------------

Method             : SCF
Type of density    : Electron Density
Multiplicity       :   1
Irrep              :   0
Energy             :  -468.2111023978068260 Eh
Relativity type    :
Basis              : AO
                                X                 Y                 Z
Electronic contribution:      0.425400599       3.005775275      -0.001604306
Nuclear contribution   :     -0.680652508      -3.575467462       0.217989164
                        -----------------------------------------
Total Dipole Moment    :     -0.255251909      -0.569692186       0.216384858
                        -----------------------------------------
Magnitude (a.u.)       :      0.660700485
Magnitude (Debye)      :      1.679367171

Rotational constants in cm-1:             0.065409             0.022566             0.019481
Rotational constants in MHz :          1960.908198           676.517789           584.036439

                             ****ORCA TERMINATED NORMALLY****
TOTAL RUN TIME: 0 days 0 hours 0 minutes 39 seconds 352 msec
