                         Program Version 6.0.1  -  RELEASE   -
|  1> ! pbe def2-sv(p) def2/J RI DEFGRID1 loosescf d4 GCP(DFT/SV(P)) printgap
|  2> %output
|  3>     printlevel normal
|  4> end
|  5> * xyz 0 1
|  6> C -3.4810513896 0.4282107775 0.1001676459
|  7> O -2.2013389173 0.4741783186 -0.5168613296
|  8> C -1.2239006621 -0.2617069913 0.0324473587
|  9> O -1.3792326918 -0.9719675049 0.9900991686
| 10> C 0.0794883438 -0.0384769696 -0.7044779592
| 11> C 1.0256159674 -1.2380970342 -0.5476897019
| 12> C 1.954379973 -1.0468909021 0.6455940816
| 13> C 2.8940755859 0.1426110262 0.4188459519
| 14> C 2.2109617903 1.2488115904 -0.3951420382
| 15> C 0.7090581261 1.2501960104 -0.1370776658
| 16> H -4.2221955744 0.5076311162 -0.6925607413
| 17> H -3.5833017499 1.2660853506 0.7925886295
| 18> H -3.5986027565 -0.5095379619 0.6464838983
| 19> H -0.160033225 0.1182578213 -1.7596342091
| 20> H 0.4342829418 -2.1445520673 -0.4095502278
| 21> H 1.6204263013 -1.3570750061 -1.4548601153
| 22> H 1.3432318426 -0.8876088061 1.5341822167
| 23> H 2.5392009973 -1.9532856244 0.8089718729
| 24> H 3.2118434896 0.5357117808 1.3861306951
| 25> H 3.7906779465 -0.1881150579 -0.1087911055
| 26> H 2.6336683439 2.2199810833 -0.1327516328
| 27> H 2.3833875693 1.0932660762 -1.4617535217
| 28> H 0.5318733844 1.308032756 0.938867646
| 29> H 0.2365779727 2.1175176837 -0.600343448
| 30> *
| 31>
| 32>                          ****END OF INPUT****

CARTESIAN COORDINATES (ANGSTROEM)
---------------------------------
  C     -3.481051    0.428211    0.100168
  O     -2.201339    0.474178   -0.516861
  C     -1.223901   -0.261707    0.032447
  O     -1.379233   -0.971968    0.990099
  C      0.079488   -0.038477   -0.704478
  C      1.025616   -1.238097   -0.547690
  C      1.954380   -1.046891    0.645594
  C      2.894076    0.142611    0.418846
  C      2.210962    1.248812   -0.395142
  C      0.709058    1.250196   -0.137078
  H     -4.222196    0.507631   -0.692561
  H     -3.583302    1.266085    0.792589
  H     -3.598603   -0.509538    0.646484
  H     -0.160033    0.118258   -1.759634
  H      0.434283   -2.144552   -0.409550
  H      1.620426   -1.357075   -1.454860
  H      1.343232   -0.887609    1.534182
  H      2.539201   -1.953286    0.808972
  H      3.211843    0.535712    1.386131
  H      3.790678   -0.188115   -0.108791
  H      2.633668    2.219981   -0.132752
  H      2.383388    1.093266   -1.461754
  H      0.531873    1.308033    0.938868
  H      0.236578    2.117518   -0.600343

 Total Charge           Charge          ....    0
 Multiplicity           Mult            ....    1
 Number of Electrons    NEL             ....   78
 Basis Dimension        Dim             ....  168

ORBITAL ENERGIES
----------------

  NO   OCC          E(Eh)            E(eV)
   0   2.0000     -18.795147      -511.4419
   1   2.0000     -18.737283      -509.8674
   2   2.0000     -10.002677      -272.1867
   3   2.0000      -9.936785      -270.3937
   4   2.0000      -9.902266      -269.4544
   5   2.0000      -9.891267      -269.1551
   6   2.0000      -9.884833      -268.9800
   7   2.0000      -9.882315      -268.9115
   8   2.0000      -9.880533      -268.8630
   9   2.0000      -9.876674      -268.7580
  10   2.0000      -1.003336       -27.3021
  11   2.0000      -0.915509       -24.9123
  12   2.0000      -0.760901       -20.7052
  13   2.0000      -0.691153       -18.8072
  14   2.0000      -0.664657       -18.0862
  15   2.0000      -0.647212       -17.6115
  16   2.0000      -0.558382       -15.1943
  17   2.0000      -0.554690       -15.0939
  18   2.0000      -0.502622       -13.6770
  19   2.0000      -0.471723       -12.8362
  20   2.0000      -0.456956       -12.4344
  21   2.0000      -0.440626       -11.9900
  22   2.0000      -0.432805       -11.7772
  23   2.0000      -0.412605       -11.2276
  24   2.0000      -0.407863       -11.0985
  25   2.0000      -0.382213       -10.4006
  26   2.0000      -0.362308        -9.8589
  27   2.0000      -0.357875        -9.7383
  28   2.0000      -0.333099        -9.0641
  29   2.0000      -0.332298        -9.0423
  30   2.0000      -0.328278        -8.9329
  31   2.0000      -0.322361        -8.7719
  32   2.0000      -0.311036        -8.4637
  33   2.0000      -0.298721        -8.1286
  34   2.0000      -0.271261        -7.3814
  35   2.0000      -0.265998        -7.2382
  36   2.0000      -0.260766        -7.0958
  37   2.0000      -0.253797        -6.9062
  38   2.0000      -0.219960        -5.9854
  39   0.0000      -0.015964        -0.4344
  40   0.0000       0.029787         0.8105
  41   0.0000       0.049635         1.3506
  42   0.0000       0.058252         1.5851
  43   0.0000       0.078430         2.1342

MULLIKEN ATOMIC CHARGES
-----------------------
   0 C :   -0.126654
   1 O :   -0.248802
   2 C :    0.133582
   3 O :   -0.186564
   4 C :   -0.174594
   5 C :   -0.100533
   6 C :   -0.156492
   7 C :   -0.165612
   8 C :   -0.126719
   9 C :   -0.144637
  10 H :    0.120148
  11 H :    0.116944
  12 H :    0.128950
  13 H :    0.081885
  14 H :    0.093818
  15 H :    0.074972
  16 H :    0.089606
  17 H :    0.085342
  18 H :    0.082386
  19 H :    0.080473
  20 H :    0.087459
  21 H :    0.075554
  22 H :    0.087196
  23 H :    0.092290
Sum of atomic charges:    0.0000000

LOEWDIN ATOMIC CHARGES
----------------------
   0 C :   -0.211742
   1 O :   -0.079209
   2 C :    0.047720
   3 O :   -0.155333
   4 C :   -0.164970
   5 C :   -0.215546
   6 C :   -0.230001
   7 C :   -0.229878
   8 C :   -0.227627
   9 C :   -0.209965
  10 H :    0.119216
  11 H :    0.116991
  12 H :    0.121707
  13 H :    0.129583
  14 H :    0.125171
  15 H :    0.116229
  16 H :    0.119608
  17 H :    0.118887
  18 H :    0.116688
  19 H :    0.115408
  20 H :    0.119505
  21 H :    0.115402
  22 H :    0.120485
  23 H :    0.121673

  Mayer bond orders larger than 0.100000
B(  0-C ,  1-O ) :   0.9472 B(  0-C , 10-H ) :   0.9608 B(  0-C , 11-H ) :   0.9586
B(  0-C , 12-H ) :   0.9338 B(  1-O ,  2-C ) :   1.2015 B(  2-C ,  3-O ) :   2.0782
B(  2-C ,  4-C ) :   0.9504 B(  4-C ,  5-C ) :   1.0846 B(  4-C ,  9-C ) :   1.0935
B(  4-C , 13-H ) :   0.8741 B(  5-C ,  6-C ) :   1.1762 B(  5-C , 14-H ) :   0.9115
B(  5-C , 15-H ) :   0.9055 B(  6-C ,  7-C ) :   1.1442 B(  6-C , 16-H ) :   0.9041
B(  6-C , 17-H ) :   0.9205 B(  7-C ,  8-C ) :   1.1393 B(  7-C , 18-H ) :   0.9219
B(  7-C , 19-H ) :   0.9223 B(  8-C ,  9-C ) :   1.1797 B(  8-C , 20-H ) :   0.9205
B(  8-C , 21-H ) :   0.9053 B(  9-C , 22-H ) :   0.9018 B(  9-C , 23-H ) :   0.9159

Dispersion correction           -0.022988595
FINAL SINGLE POINT ENERGY      -462.697876642413

DIPOLE MOMENT
-------------

Method             : SCF
Type of density    : Electron Density
Multiplicity       :   1
Irrep              :   0
Energy             :  -462.7859008472868254 Eh
Relativity type    :
Basis              : AO
                                X                 Y                 Z
Electronic contribution:     -6.816050896      -1.511648358       0.078137993
Nuclear contribution   :      6.665163461       1.987453023      -0.474282177
                        -----------------------------------------
Total Dipole Moment    :     -0.150887435       0.475804665      -0.396144184
                        -----------------------------------------
Magnitude (a.u.)       :      0.637249803
Magnitude (Debye)      :      1.619760276

Rotational constants in cm-1:             0.098414             0.026639             0.023557
Rotational constants in MHz :          2950.385287           798.613111           706.207067

                             ****ORCA TERMINATED NORMALLY****
TOTAL RUN TIME: 0 days 0 hours 0 minutes 8 seconds 328 msec
