                         Program Version 6.0.1  -  RELEASE   -
|  1> ! pbe def2-sv(p) def2/J RI DEFGRID1 loosescf d4 GCP(DFT/SV(P)) printgap
|  2> %output
|  3>     printlevel normal
|  4> end
|  5> * xyz 0 1
|  6> C -2.4689391653 -0.4421357271 1.3821517136
|  7> C -2.0513303715 -0.4577505114 -0.094096415
|  8> H -2.9650535177 -0.4946288444 -0.6955083387
|  9> C -1.1518595018 -1.6641360849 -0.4288828705
| 10> C 0.2712591858 -1.247564771 -0.7930682514
| 11> C 0.7985900775 -0.2781615722 0.2637121988
| 12> H 0.5847752418 -0.7086824697 1.2483015064
| 13> C 0.0323428617 1.0446867653 0.1070441855
| 14> C -1.3834080479 0.8711039994 -0.3918648864
| 15> O -1.9678061361 1.7621119017 -0.957673197
| 16> C 2.2847964269 -0.0125707311 0.1941208284
| 17> C 2.991817171 -0.1020695574 -0.9204128564
| 18> C 2.9057823652 0.3995880081 1.4956007768
| 19> H -3.0930615712 0.4251332831 1.5876972102
| 20> H -3.0404318026 -1.3383764788 1.6138253051
| 21> H -1.6007260019 -0.4064703999 2.0353184148
| 22> H -1.1163176617 -2.3354174587 0.4319534112
| 23> H -1.5842755818 -2.2233607813 -1.2599253682
| 24> H 0.9090025153 -2.1310099949 -0.851329019
| 25> H 0.271123721 -0.7596528791 -1.7695156058
| 26> H -0.0216444771 1.5840496107 1.0564755287
| 27> H 0.5514242292 1.6982355726 -0.5989188586
| 28> H 4.0468798427 0.1138001399 -0.9340217925
| 29> H 2.5597477897 -0.3921128182 -1.8614041333
| 30> H 3.9569290336 0.6427231096 1.3677247985
| 31> H 2.3933623311 1.2708364979 1.9020365525
| 32> H 2.8219298792 -0.4057584809 2.2254411192
| 33> *
| 34>
| 35>                          ****END OF INPUT****

CARTESIAN COORDINATES (ANGSTROEM)
---------------------------------
  C     -2.468939   -0.442136    1.382152
  C     -2.051330   -0.457751   -0.094096
  H     -2.965054   -0.494629   -0.695508
  C     -1.151860   -1.664136   -0.428883
  C      0.271259   -1.247565   -0.793068
  C      0.798590   -0.278162    0.263712
  H      0.584775   -0.708682    1.248302
  C      0.032343    1.044687    0.107044
  C     -1.383408    0.871104   -0.391865
  O     -1.967806    1.762112   -0.957673
  C      2.284796   -0.012571    0.194121
  C      2.991817   -0.102070   -0.920413
  C      2.905782    0.399588    1.495601
  H     -3.093062    0.425133    1.587697
  H     -3.040432   -1.338376    1.613825
  H     -1.600726   -0.406470    2.035318
  H     -1.116318   -2.335417    0.431953
  H     -1.584276   -2.223361   -1.259925
  H      0.909003   -2.131010   -0.851329
  H      0.271124   -0.759653   -1.769516
  H     -0.021644    1.584050    1.056476
  H      0.551424    1.698236   -0.598919
  H      4.046880    0.113800   -0.934022
  H      2.559748   -0.392113   -1.861404
  H      3.956929    0.642723    1.367725
  H      2.393362    1.270836    1.902037
  H      2.821930   -0.405758    2.225441

 Total Charge           Charge          ....    0
 Multiplicity           Mult            ....    1
 Number of Electrons    NEL             ....   84
 Basis Dimension        Dim             ....  186

ORBITAL ENERGIES
----------------

  NO   OCC          E(Eh)            E(eV)
   0   2.0000     -18.732507      -509.7374
   1   2.0000      -9.969025      -271.2710
   2   2.0000      -9.908334      -269.6195
   3   2.0000      -9.903201      -269.4798
   4   2.0000      -9.901355      -269.4296
   5   2.0000      -9.895463      -269.2692
   6   2.0000      -9.894680      -269.2479
   7   2.0000      -9.892515      -269.1890
   8   2.0000      -9.890918      -269.1456
   9   2.0000      -9.884977      -268.9839
  10   2.0000      -9.871242      -268.6101
  11   2.0000      -0.936024       -25.4705
  12   2.0000      -0.773997       -21.0615
  13   2.0000      -0.729799       -19.8588
  14   2.0000      -0.683603       -18.6018
  15   2.0000      -0.664895       -18.0927
  16   2.0000      -0.618118       -16.8198
  17   2.0000      -0.601546       -16.3689
  18   2.0000      -0.555790       -15.1238
  19   2.0000      -0.542375       -14.7588
  20   2.0000      -0.477820       -13.0021
  21   2.0000      -0.461126       -12.5479
  22   2.0000      -0.439165       -11.9503
  23   2.0000      -0.418855       -11.3976
  24   2.0000      -0.416123       -11.3233
  25   2.0000      -0.401995       -10.9388
  26   2.0000      -0.389960       -10.6113
  27   2.0000      -0.379561       -10.3284
  28   2.0000      -0.369509       -10.0548
  29   2.0000      -0.364775        -9.9260
  30   2.0000      -0.356494        -9.7007
  31   2.0000      -0.351097        -9.5538
  32   2.0000      -0.345324        -9.3968
  33   2.0000      -0.326864        -8.8944
  34   2.0000      -0.319232        -8.6868
  35   2.0000      -0.312991        -8.5169
  36   2.0000      -0.302840        -8.2407
  37   2.0000      -0.294840        -8.0230
  38   2.0000      -0.279300        -7.6001
  39   2.0000      -0.275345        -7.4925
  40   2.0000      -0.222509        -6.0548
  41   2.0000      -0.187733        -5.1085
  42   0.0000      -0.049160        -1.3377
  43   0.0000      -0.014180        -0.3859
  44   0.0000       0.023906         0.6505
  45   0.0000       0.044016         1.1977
  46   0.0000       0.055678         1.5151

MULLIKEN ATOMIC CHARGES
-----------------------
   0 C :   -0.279264
   1 C :   -0.137421
   2 H :    0.073114
   3 C :   -0.078010
   4 C :   -0.143202
   5 C :   -0.157170
   6 H :    0.061765
   7 C :   -0.116011
   8 C :   -0.005377
   9 O :   -0.147373
  10 C :   -0.034098
  11 C :   -0.234461
  12 C :   -0.216575
  13 H :    0.117359
  14 H :    0.117587
  15 H :    0.110530
  16 H :    0.073674
  17 H :    0.089290
  18 H :    0.094393
  19 H :    0.096946
  20 H :    0.116184
  21 H :    0.104718
  22 H :    0.082758
  23 H :    0.092683
  24 H :    0.098704
  25 H :    0.109553
  26 H :    0.109703
Sum of atomic charges:    0.0000000

LOEWDIN ATOMIC CHARGES
----------------------
   0 C :   -0.320792
   1 C :   -0.171128
   2 H :    0.129099
   3 C :   -0.211898
   4 C :   -0.215712
   5 C :   -0.135400
   6 H :    0.117450
   7 C :   -0.233819
   8 C :    0.045618
   9 O :   -0.122301
  10 C :   -0.049827
  11 C :   -0.267251
  12 C :   -0.322470
  13 H :    0.125773
  14 H :    0.125487
  15 H :    0.117053
  16 H :    0.116630
  17 H :    0.123892
  18 H :    0.122979
  19 H :    0.121573
  20 H :    0.143592
  21 H :    0.142614
  22 H :    0.119450
  23 H :    0.118985
  24 H :    0.124924
  25 H :    0.126700
  26 H :    0.128778

  Mayer bond orders larger than 0.100000
B(  0-C ,  1-C ) :   1.0847 B(  0-C , 13-H ) :   0.9449 B(  0-C , 14-H ) :   0.9431
B(  0-C , 15-H ) :   0.9453 B(  1-C ,  2-H ) :   0.8744 B(  1-C ,  3-C ) :   1.0265
B(  1-C ,  8-C ) :   1.0112 B(  3-C ,  4-C ) :   1.1809 B(  3-C , 16-H ) :   0.9068
B(  3-C , 17-H ) :   0.9095 B(  4-C ,  5-C ) :   1.1347 B(  4-C , 18-H ) :   0.9178
B(  4-C , 19-H ) :   0.8792 B(  5-C ,  6-H ) :   0.8627 B(  5-C ,  7-C ) :   1.0424
B(  5-C , 10-C ) :   1.0009 B(  7-C ,  8-C ) :   1.0006 B(  7-C , 20-H ) :   0.8782
B(  7-C , 21-H ) :   0.8867 B(  8-C ,  9-O ) :   2.2049 B( 10-C , 11-C ) :   2.0471
B( 10-C , 12-C ) :   1.1238 B( 11-C , 22-H ) :   0.8996 B( 11-C , 23-H ) :   0.9031
B( 12-C , 24-H ) :   0.9385 B( 12-C , 25-H ) :   0.9329 B( 12-C , 26-H ) :   0.9280

Dispersion correction           -0.028588856
FINAL SINGLE POINT ENERGY      -464.821955745561

DIPOLE MOMENT
-------------

Method             : SCF
Type of density    : Electron Density
Multiplicity       :   1
Irrep              :   0
Energy             :  -464.9074028905806699 Eh
Relativity type    :
Basis              : AO
                                X                 Y                 Z
Electronic contribution:     -3.963174939       4.345563449      -4.484925448
Nuclear contribution   :      4.355495026      -5.096908957       5.143979960
                        -----------------------------------------
Total Dipole Moment    :      0.392320087      -0.751345508       0.659054512
                        -----------------------------------------
Magnitude (a.u.)       :      1.073679642
Magnitude (Debye)      :      2.729076767

Rotational constants in cm-1:             0.060672             0.023596             0.022391
Rotational constants in MHz :          1818.899087           707.398635           671.253866

                             ****ORCA TERMINATED NORMALLY****
TOTAL RUN TIME: 0 days 0 hours 0 minutes 26 seconds 136 msec
