                         Program Version 6.0.1  -  RELEASE   -
|  1> ! pbe def2-sv(p) def2/J RI DEFGRID1 loosescf d4 GCP(DFT/SV(P)) printgap
|  2> %output
|  3>     printlevel normal
|  4> end
|  5> * xyz 0 1
|  6> C -2.4637057646 -1.2375542444 -0.1929222109
|  7> C -1.7884711451 0.0945080344 0.0073978821
|  8> O -2.4011998801 1.0630899245 0.3852684717
|  9> C -0.299541818 0.1879546507 -0.2982920121
| 10> C 0.4124121068 -1.1261047695 -0.6095141563
| 11> C 1.8800495967 -0.8607267012 -0.94326514
| 12> C 2.5795849509 -0.1525477229 0.2124570298
| 13> C 1.8688178056 1.156978304 0.53974199
| 14> C 0.4031759708 0.8984439683 0.8679680858
| 15> H -3.5161803518 -1.1531833336 0.0654296179
| 16> H -2.3703781776 -1.5496042897 -1.2304654794
| 17> H -1.9948604608 -1.9928526355 0.4326488234
| 18> H -0.2236196787 0.8419746857 -1.1776004277
| 19> H 0.3611551201 -1.788817687 0.257189497
| 20> H -0.0599094786 -1.6308215799 -1.45406553
| 21> H 2.3829258972 -1.805691091 -1.1598702441
| 22> H 1.9408580428 -0.2380269823 -1.8390616936
| 23> H 2.5704230287 -0.7996870681 1.0926910869
| 24> H 3.6217776774 0.0426947843 -0.0478673914
| 25> H 2.3547513454 1.6436633808 1.3875963883
| 26> H 1.9367284018 1.8311439131 -0.3171694395
| 27> H 0.3337482211 0.269803672 1.7594819687
| 28> H -0.1131102448 1.8361116065 1.0778320513
| 29> *
| 30>
| 31>                          ****END OF INPUT****

CARTESIAN COORDINATES (ANGSTROEM)
---------------------------------
  C     -2.463706   -1.237554   -0.192922
  C     -1.788471    0.094508    0.007398
  O     -2.401200    1.063090    0.385268
  C     -0.299542    0.187955   -0.298292
  C      0.412412   -1.126105   -0.609514
  C      1.880050   -0.860727   -0.943265
  C      2.579585   -0.152548    0.212457
  C      1.868818    1.156978    0.539742
  C      0.403176    0.898444    0.867968
  H     -3.516180   -1.153183    0.065430
  H     -2.370378   -1.549604   -1.230465
  H     -1.994860   -1.992853    0.432649
  H     -0.223620    0.841975   -1.177600
  H      0.361155   -1.788818    0.257189
  H     -0.059909   -1.630822   -1.454066
  H      2.382926   -1.805691   -1.159870
  H      1.940858   -0.238027   -1.839062
  H      2.570423   -0.799687    1.092691
  H      3.621778    0.042695   -0.047867
  H      2.354751    1.643663    1.387596
  H      1.936728    1.831144   -0.317169
  H      0.333748    0.269804    1.759482
  H     -0.113110    1.836112    1.077832

 Total Charge           Charge          ....    0
 Multiplicity           Mult            ....    1
 Number of Electrons    NEL             ....   70
 Basis Dimension        Dim             ....  154

ORBITAL ENERGIES
----------------

  NO   OCC          E(Eh)            E(eV)
   0   2.0000     -18.733232      -509.7571
   1   2.0000      -9.970101      -271.3002
   2   2.0000      -9.899563      -269.3808
   3   2.0000      -9.892171      -269.1796
   4   2.0000      -9.887998      -269.0661
   5   2.0000      -9.885431      -268.9963
   6   2.0000      -9.884973      -268.9838
   7   2.0000      -9.884770      -268.9783
   8   2.0000      -9.884282      -268.9650
   9   2.0000      -0.936876       -25.4937
  10   2.0000      -0.763881       -20.7863
  11   2.0000      -0.692445       -18.8424
  12   2.0000      -0.671464       -18.2715
  13   2.0000      -0.653436       -17.7809
  14   2.0000      -0.562549       -15.3077
  15   2.0000      -0.544847       -14.8260
  16   2.0000      -0.505806       -13.7637
  17   2.0000      -0.471513       -12.8305
  18   2.0000      -0.436736       -11.8842
  19   2.0000      -0.416321       -11.3287
  20   2.0000      -0.403023       -10.9668
  21   2.0000      -0.395293       -10.7565
  22   2.0000      -0.386528       -10.5180
  23   2.0000      -0.374195       -10.1824
  24   2.0000      -0.367915       -10.0115
  25   2.0000      -0.341060        -9.2807
  26   2.0000      -0.336777        -9.1642
  27   2.0000      -0.331634        -9.0242
  28   2.0000      -0.320366        -8.7176
  29   2.0000      -0.306867        -8.3503
  30   2.0000      -0.297468        -8.0945
  31   2.0000      -0.286692        -7.8013
  32   2.0000      -0.271649        -7.3919
  33   2.0000      -0.262345        -7.1388
  34   2.0000      -0.191605        -5.2138
  35   0.0000      -0.046614        -1.2684
  36   0.0000       0.028471         0.7747
  37   0.0000       0.040867         1.1120
  38   0.0000       0.051549         1.4027
  39   0.0000       0.071317         1.9406

MULLIKEN ATOMIC CHARGES
-----------------------
   0 C :   -0.234444
   1 C :    0.016079
   2 O :   -0.161809
   3 C :   -0.206843
   4 C :   -0.119540
   5 C :   -0.126982
   6 C :   -0.165034
   7 C :   -0.124195
   8 C :   -0.146443
   9 H :    0.115123
  10 H :    0.123182
  11 H :    0.122537
  12 H :    0.090270
  13 H :    0.076076
  14 H :    0.082413
  15 H :    0.085552
  16 H :    0.074448
  17 H :    0.075053
  18 H :    0.086960
  19 H :    0.087868
  20 H :    0.073774
  21 H :    0.073517
  22 H :    0.102438
Sum of atomic charges:    0.0000000

LOEWDIN ATOMIC CHARGES
----------------------
   0 C :   -0.363038
   1 C :    0.048234
   2 O :   -0.122498
   3 C :   -0.172948
   4 C :   -0.222308
   5 C :   -0.223316
   6 C :   -0.228093
   7 C :   -0.225806
   8 C :   -0.210636
   9 H :    0.132982
  10 H :    0.141271
  11 H :    0.140578
  12 H :    0.138407
  13 H :    0.115451
  14 H :    0.115997
  15 H :    0.116893
  16 H :    0.115050
  17 H :    0.114188
  18 H :    0.116894
  19 H :    0.118161
  20 H :    0.115249
  21 H :    0.115000
  22 H :    0.124287

  Mayer bond orders larger than 0.100000
B(  0-C ,  1-C ) :   1.1241 B(  0-C ,  9-H ) :   0.9290 B(  0-C , 10-H ) :   0.9163
B(  0-C , 11-H ) :   0.9154 B(  1-C ,  2-O ) :   2.1852 B(  1-C ,  3-C ) :   0.9002
B(  3-C ,  4-C ) :   1.1019 B(  3-C ,  8-C ) :   1.0989 B(  3-C , 12-H ) :   0.8564
B(  4-C ,  5-C ) :   1.1240 B(  4-C , 13-H ) :   0.9005 B(  4-C , 14-H ) :   0.8997
B(  5-C ,  6-C ) :   1.1389 B(  5-C , 15-H ) :   0.9183 B(  5-C , 16-H ) :   0.9115
B(  6-C ,  7-C ) :   1.1310 B(  6-C , 17-H ) :   0.9146 B(  6-C , 18-H ) :   0.9197
B(  7-C ,  8-C ) :   1.1392 B(  7-C , 19-H ) :   0.9185 B(  7-C , 20-H ) :   0.9109
B(  8-C , 21-H ) :   0.9144 B(  8-C , 22-H ) :   0.9041

Dispersion correction           -0.021855140
FINAL SINGLE POINT ENERGY      -387.607889389796

DIPOLE MOMENT
-------------

Method             : SCF
Type of density    : Electron Density
Multiplicity       :   1
Irrep              :   0
Energy             :  -387.6858688331960252 Eh
Relativity type    :
Basis              : AO
                                X                 Y                 Z
Electronic contribution:     -6.133973727       3.459891863       0.760473860
Nuclear contribution   :      6.741989239      -4.199687694      -1.076207989
                        -----------------------------------------
Total Dipole Moment    :      0.608015512      -0.739795830      -0.315734130
                        -----------------------------------------
Magnitude (a.u.)       :      1.008299942
Magnitude (Debye)      :      2.562894777

Rotational constants in cm-1:             0.102373             0.036963             0.029194
Rotational constants in MHz :          3069.055244          1108.124729           875.228598

                             ****ORCA TERMINATED NORMALLY****
TOTAL RUN TIME: 0 days 0 hours 0 minutes 11 seconds 328 msec
