                         Program Version 6.0.1  -  RELEASE   -
|  1> ! pbe def2-sv(p) def2/J RI DEFGRID1 loosescf d4 GCP(DFT/SV(P)) printgap
|  2> %output
|  3>     printlevel normal
|  4> end
|  5> * xyz 0 1
|  6> C -3.6975840254 0.1508739904 -0.2907395125
|  7> C -2.2608141007 0.1106879597 0.2203880014
|  8> H -2.2772581344 -0.0611548347 1.302518872
|  9> C -1.533627667 1.424661593 -0.0563105259
| 10> C -0.0867684455 1.3783657143 0.4262602827
| 11> C 0.6898613406 0.2351559017 -0.2506891726
| 12> H 0.6399359102 0.3872480294 -1.3348295856
| 13> C -0.0691490688 -1.0349585832 0.0900981965
| 14> O 0.3722318114 -1.9229023272 0.7751923819
| 15> C -1.484604722 -1.0406867287 -0.435493576
| 16> C 2.1652348346 0.1408704301 0.1722914163
| 17> C 2.8828810391 -0.8868148265 -0.7033945132
| 18> C 2.8889564843 1.482630745 0.0783540597
| 19> H -4.2500721106 0.9533701308 0.1926367858
| 20> H -3.7152979443 0.3205026164 -1.3654402014
| 21> H -4.2045449037 -0.7882303832 -0.0827263702
| 22> H -1.5523912073 1.6273121763 -1.1303981166
| 23> H -2.0553664804 2.2431057073 0.4445817177
| 24> H 0.3926396601 2.3308414386 0.2002630655
| 25> H -0.061238191 1.2336208481 1.5089635269
| 26> H -1.4779134024 -0.9011201601 -1.5182404799
| 27> H -1.9542131865 -1.9977138412 -0.2031083603
| 28> H 2.1964742236 -0.2084054642 1.209324052
| 29> H 2.8760496373 -0.5704725374 -1.7453916877
| 30> H 2.4011525405 -1.8573783884 -0.6289521114
| 31> H 3.9171011456 -0.9962386011 -0.3859362541
| 32> H 3.9529279715 1.3368673317 0.250307609
| 33> H 2.5263415987 2.1880483453 0.8210653177
| 34> H 2.7622003875 1.9175319828 -0.9115077911
| 35> *
| 36>
| 37>                          ****END OF INPUT****

CARTESIAN COORDINATES (ANGSTROEM)
---------------------------------
  C     -3.697584    0.150874   -0.290740
  C     -2.260814    0.110688    0.220388
  H     -2.277258   -0.061155    1.302519
  C     -1.533628    1.424662   -0.056311
  C     -0.086768    1.378366    0.426260
  C      0.689861    0.235156   -0.250689
  H      0.639936    0.387248   -1.334830
  C     -0.069149   -1.034959    0.090098
  O      0.372232   -1.922902    0.775192
  C     -1.484605   -1.040687   -0.435494
  C      2.165235    0.140870    0.172291
  C      2.882881   -0.886815   -0.703395
  C      2.888956    1.482631    0.078354
  H     -4.250072    0.953370    0.192637
  H     -3.715298    0.320503   -1.365440
  H     -4.204545   -0.788230   -0.082726
  H     -1.552391    1.627312   -1.130398
  H     -2.055366    2.243106    0.444582
  H      0.392640    2.330841    0.200263
  H     -0.061238    1.233621    1.508964
  H     -1.477913   -0.901120   -1.518240
  H     -1.954213   -1.997714   -0.203108
  H      2.196474   -0.208405    1.209324
  H      2.876050   -0.570473   -1.745392
  H      2.401153   -1.857378   -0.628952
  H      3.917101   -0.996239   -0.385936
  H      3.952928    1.336867    0.250308
  H      2.526342    2.188048    0.821065
  H      2.762200    1.917532   -0.911508

 Total Charge           Charge          ....    0
 Multiplicity           Mult            ....    1
 Number of Electrons    NEL             ....   86
 Basis Dimension        Dim             ....  190

ORBITAL ENERGIES
----------------

  NO   OCC          E(Eh)            E(eV)
   0   2.0000     -18.734862      -509.8015
   1   2.0000      -9.967161      -271.2202
   2   2.0000      -9.909007      -269.6378
   3   2.0000      -9.898213      -269.3441
   4   2.0000      -9.895884      -269.2807
   5   2.0000      -9.892428      -269.1867
   6   2.0000      -9.890784      -269.1419
   7   2.0000      -9.888582      -269.0820
   8   2.0000      -9.880841      -268.8714
   9   2.0000      -9.871784      -268.6249
  10   2.0000      -9.863882      -268.4099
  11   2.0000      -0.938541       -25.5390
  12   2.0000      -0.769408       -20.9367
  13   2.0000      -0.728976       -19.8365
  14   2.0000      -0.679070       -18.4784
  15   2.0000      -0.655841       -17.8463
  16   2.0000      -0.613438       -16.6925
  17   2.0000      -0.606161       -16.4945
  18   2.0000      -0.547819       -14.9069
  19   2.0000      -0.521647       -14.1947
  20   2.0000      -0.502907       -13.6848
  21   2.0000      -0.475691       -12.9442
  22   2.0000      -0.440816       -11.9952
  23   2.0000      -0.418350       -11.3839
  24   2.0000      -0.399879       -10.8813
  25   2.0000      -0.395739       -10.7686
  26   2.0000      -0.391521       -10.6538
  27   2.0000      -0.381883       -10.3916
  28   2.0000      -0.372272       -10.1300
  29   2.0000      -0.353141        -9.6095
  30   2.0000      -0.349942        -9.5224
  31   2.0000      -0.349551        -9.5118
  32   2.0000      -0.335867        -9.1394
  33   2.0000      -0.332866        -9.0578
  34   2.0000      -0.317432        -8.6378
  35   2.0000      -0.308300        -8.3893
  36   2.0000      -0.306538        -8.3413
  37   2.0000      -0.295266        -8.0346
  38   2.0000      -0.290999        -7.9185
  39   2.0000      -0.282758        -7.6942
  40   2.0000      -0.273551        -7.4437
  41   2.0000      -0.267434        -7.2773
  42   2.0000      -0.189313        -5.1515
  43   0.0000      -0.047789        -1.3004
  44   0.0000       0.034883         0.9492
  45   0.0000       0.039514         1.0752
  46   0.0000       0.045541         1.2392
  47   0.0000       0.066481         1.8090

MULLIKEN ATOMIC CHARGES
-----------------------
   0 C :   -0.194314
   1 C :   -0.236127
   2 H :    0.079009
   3 C :   -0.113079
   4 C :   -0.101293
   5 C :   -0.173747
   6 H :    0.069388
   7 C :    0.006269
   8 O :   -0.154893
   9 C :   -0.039795
  10 C :   -0.115082
  11 C :   -0.252732
  12 C :   -0.238755
  13 H :    0.101089
  14 H :    0.092233
  15 H :    0.102884
  16 H :    0.071236
  17 H :    0.086221
  18 H :    0.098179
  19 H :    0.082595
  20 H :    0.082270
  21 H :    0.082775
  22 H :    0.073809
  23 H :    0.083706
  24 H :    0.116188
  25 H :    0.097553
  26 H :    0.098609
  27 H :    0.107559
  28 H :    0.088244
Sum of atomic charges:    0.0000000

LOEWDIN ATOMIC CHARGES
----------------------
   0 C :   -0.326852
   1 C :   -0.144860
   2 H :    0.120741
   3 C :   -0.217290
   4 C :   -0.207676
   5 C :   -0.161666
   6 H :    0.125919
   7 C :    0.054851
   8 O :   -0.116744
   9 C :   -0.233665
  10 C :   -0.148028
  11 C :   -0.332157
  12 C :   -0.330361
  13 H :    0.120124
  14 H :    0.117743
  15 H :    0.120904
  16 H :    0.115545
  17 H :    0.120261
  18 H :    0.122962
  19 H :    0.121660
  20 H :    0.128799
  21 H :    0.126431
  22 H :    0.120591
  23 H :    0.111472
  24 H :    0.122592
  25 H :    0.117661
  26 H :    0.119791
  27 H :    0.116442
  28 H :    0.114811

  Mayer bond orders larger than 0.100000
B(  0-C ,  1-C ) :   1.1150 B(  0-C , 13-H ) :   0.9472 B(  0-C , 14-H ) :   0.9452
B(  0-C , 15-H ) :   0.9471 B(  1-C ,  2-H ) :   0.8918 B(  1-C ,  3-C ) :   1.0938
B(  1-C ,  9-C ) :   1.0789 B(  3-C ,  4-C ) :   1.1403 B(  3-C , 16-H ) :   0.9041
B(  3-C , 17-H ) :   0.9095 B(  4-C ,  5-C ) :   1.0816 B(  4-C , 18-H ) :   0.9002
B(  4-C , 19-H ) :   0.9006 B(  5-C ,  6-H ) :   0.8633 B(  5-C ,  7-C ) :   0.9283
B(  5-C , 10-C ) :   1.0417 B(  7-C ,  8-O ) :   2.1747 B(  7-C ,  9-C ) :   1.0505
B(  9-C , 20-H ) :   0.8816 B(  9-C , 21-H ) :   0.8887 B( 10-C , 11-C ) :   1.1148
B( 10-C , 12-C ) :   1.1192 B( 10-C , 22-H ) :   0.8819 B( 11-C , 23-H ) :   0.9465
B( 11-C , 24-H ) :   0.9439 B( 11-C , 25-H ) :   0.9498 B( 12-C , 26-H ) :   0.9484
B( 12-C , 27-H ) :   0.9393 B( 12-C , 28-H ) :   0.9449

Dispersion correction           -0.029660671
FINAL SINGLE POINT ENERGY      -466.036417950331

DIPOLE MOMENT
-------------

Method             : SCF
Type of density    : Electron Density
Multiplicity       :   1
Irrep              :   0
Energy             :  -466.1333774058400650 Eh
Relativity type    :
Basis              : AO
                                X                 Y                 Z
Electronic contribution:     -0.596879037      -5.875734972       2.757522653
Nuclear contribution   :      0.114843451       6.686616521      -3.156564277
                        -----------------------------------------
Total Dipole Moment    :     -0.482035586       0.810881549      -0.399041625
                        -----------------------------------------
Magnitude (a.u.)       :      1.024266279
Magnitude (Debye)      :      2.603477980

Rotational constants in cm-1:             0.068193             0.023451             0.019078
Rotational constants in MHz :          2044.369691           703.037809           571.954931

                             ****ORCA TERMINATED NORMALLY****
TOTAL RUN TIME: 0 days 0 hours 0 minutes 18 seconds 269 msec
