                         Program Version 6.0.0  -   RELEASE  -
|  1> ! r2SCAN-3c DEF2-TZVP FREQ
|  2> * xyzfile 0 1 censo.xyz
|  3>
|  4>                          ****END OF INPUT****

CARTESIAN COORDINATES (ANGSTROEM)
---------------------------------
  C     -0.336308   -1.216430   -0.000229
  C      1.046727   -1.215593   -0.000030
  C      1.738502   -0.000154    0.000020
  C      1.047344    1.215733   -0.000075
  C     -0.334574    1.216447   -0.000274
  C     -1.037481   -0.000171   -0.000338
  C     -2.453163   -0.000300    0.000058
  N     -3.615581   -0.001131    0.000837
  O      3.099544    0.056310    0.000178
  H     -0.881850   -2.153500   -0.000230
  H      1.599215   -2.150429    0.000116
  H      1.603663    2.146703    0.000034
  H     -0.880700    2.153160   -0.000314
  H      3.460546   -0.842469    0.000213

 Total Charge           Charge          ....    0
 Multiplicity           Mult            ....    1
 Number of Electrons    NEL             ....   62
 Basis Dimension        Dim             ....  309

ORBITAL ENERGIES
----------------

  NO   OCC          E(Eh)            E(eV)
   0   2.0000     -19.014898      -517.4217
   1   2.0000     -14.153065      -385.1245
   2   2.0000     -10.130283      -275.6590
   3   2.0000     -10.085161      -274.4312
   4   2.0000     -10.074568      -274.1429
   5   2.0000     -10.072201      -274.0785
   6   2.0000     -10.068217      -273.9701
   7   2.0000     -10.066811      -273.9319
   8   2.0000     -10.061092      -273.7762
   9   2.0000      -1.056687       -28.7539
  10   2.0000      -0.872118       -23.7315
  11   2.0000      -0.846553       -23.0359
  12   2.0000      -0.752126       -20.4664
  13   2.0000      -0.750448       -20.4207
  14   2.0000      -0.635925       -17.3044
  15   2.0000      -0.615244       -16.7417
  16   2.0000      -0.544278       -14.8106
  17   2.0000      -0.537940       -14.6381
  18   2.0000      -0.474985       -12.9250
  19   2.0000      -0.439902       -11.9703
  20   2.0000      -0.424625       -11.5546
  21   2.0000      -0.412982       -11.2378
  22   2.0000      -0.403855       -10.9895
  23   2.0000      -0.379276       -10.3206
  24   2.0000      -0.366603        -9.9758
  25   2.0000      -0.342401        -9.3172
  26   2.0000      -0.324310        -8.8249
  27   2.0000      -0.308767        -8.4020
  28   2.0000      -0.304841        -8.2951
  29   2.0000      -0.270154        -7.3513
  30   2.0000      -0.230903        -6.2832
  31   0.0000      -0.073969        -2.0128
  32   0.0000      -0.064301        -1.7497
  33   0.0000       0.005425         0.1476
  34   0.0000       0.016700         0.4544
  35   0.0000       0.039514         1.0752

MULLIKEN ATOMIC CHARGES
-----------------------
   0 C :   -0.234356
   1 C :   -0.183229
   2 C :    0.303024
   3 C :   -0.186425
   4 C :   -0.204115
   5 C :    0.285324
   6 C :   -0.144195
   7 N :   -0.077274
   8 O :   -0.381269
   9 H :    0.134622
  10 H :    0.110507
  11 H :    0.124681
  12 H :    0.132285
  13 H :    0.320420
Sum of atomic charges:   -0.0000000

LOEWDIN ATOMIC CHARGES
----------------------
   0 C :   -0.073587
   1 C :   -0.133126
   2 C :   -0.258055
   3 C :   -0.106553
   4 C :   -0.070853
   5 C :   -0.161694
   6 C :   -0.163630
   7 N :    0.055438
   8 O :    0.100725
   9 H :    0.157672
  10 H :    0.146644
  11 H :    0.154956
  12 H :    0.158039
  13 H :    0.194023

  Mayer bond orders larger than 0.100000
B(  0-C ,  1-C ) :   1.4437 B(  0-C ,  5-C ) :   1.3127 B(  0-C ,  9-H ) :   0.9606
B(  1-C ,  2-C ) :   1.3062 B(  1-C , 10-H ) :   0.9602 B(  2-C ,  3-C ) :   1.3401
B(  2-C ,  8-O ) :   1.1380 B(  3-C ,  4-C ) :   1.4598 B(  3-C , 11-H ) :   0.9790
B(  4-C ,  5-C ) :   1.2952 B(  4-C , 12-H ) :   0.9770 B(  5-C ,  6-C ) :   0.9255
B(  6-C ,  7-N ) :   2.9919 B(  8-O , 13-H ) :   0.8790

Dispersion correction           -0.004681655
FINAL SINGLE POINT ENERGY      -399.654957835951

DIPOLE MOMENT
-------------

Method             : SCF
Type of density    : Electron Density
Multiplicity       :   1
Irrep              :   0
Energy             :  -399.6541185870327126 Eh
Relativity type    :
Basis              : AO
                                X                 Y                 Z
Electronic contribution:     -2.548040879       0.270921051      -0.000167645
Nuclear contribution   :      4.626378057      -0.794407076      -0.000318473
                        -----------------------------------------
Total Dipole Moment    :      2.078337179      -0.523486025      -0.000486118
                        -----------------------------------------
Magnitude (a.u.)       :      2.143250635
Magnitude (Debye)      :      5.447710176

VIBRATIONAL FREQUENCIES
-----------------------

Scaling factor for frequencies =  1.000000000  (already applied!)

     0:       0.00 cm**-1
     1:       0.00 cm**-1
     2:       0.00 cm**-1
     3:       0.00 cm**-1
     4:       0.00 cm**-1
     5:       0.00 cm**-1
     6:     113.21 cm**-1
     7:     166.51 cm**-1
     8:     268.00 cm**-1
     9:     414.87 cm**-1
    10:     417.07 cm**-1
    11:     422.00 cm**-1
    12:     465.81 cm**-1
    13:     484.41 cm**-1
    14:     554.86 cm**-1
    15:     566.27 cm**-1
    16:     668.44 cm**-1
    17:     716.43 cm**-1
    18:     734.04 cm**-1
    19:     810.14 cm**-1
    20:     845.52 cm**-1
    21:     848.98 cm**-1
    22:     937.35 cm**-1
    23:     963.69 cm**-1
    24:    1029.29 cm**-1
    25:    1129.52 cm**-1
    26:    1187.59 cm**-1
    27:    1204.36 cm**-1
    28:    1237.67 cm**-1
    29:    1289.85 cm**-1
    30:    1320.98 cm**-1
    31:    1376.70 cm**-1
    32:    1465.40 cm**-1
    33:    1530.95 cm**-1
    34:    1612.48 cm**-1
    35:    1643.75 cm**-1
    36:    2270.70 cm**-1
    37:    3162.24 cm**-1
    38:    3182.32 cm**-1
    39:    3190.92 cm**-1
    40:    3196.03 cm**-1
    41:    3745.85 cm**-1

IR SPECTRUM
-----------

 Mode   freq       eps      Int      T**2         TX        TY        TZ
       cm**-1   L/(mol*cm) km/mol    a.u.
----------------------------------------------------------------------------
  6:    113.21   0.000417    2.11  0.001149  ( 0.000059 -0.000001 -0.033899)
  7:    166.51   0.001002    5.06  0.001877  (-0.008706  0.042441  0.000003)
  8:    268.00   0.000268    1.35  0.000312  (-0.000010  0.000002  0.017658)
  9:    414.87   0.000041    0.21  0.000031  ( 0.000094  0.000060 -0.005545)
 10:    417.07   0.001901    9.61  0.001422  (-0.037698 -0.001113 -0.000029)
 11:    422.00   0.000006    0.03  0.000004  (-0.001282 -0.001671 -0.000016)
 12:    465.81   0.019103   96.54  0.012798  ( 0.000022  0.000006  0.113128)
 13:    484.41   0.000671    3.39  0.000432  ( 0.000018 -0.000003  0.020792)
 14:    554.86   0.005382   27.20  0.003027  (-0.000067 -0.000005  0.055018)
 15:    566.27   0.000115    0.58  0.000063  ( 0.006839 -0.004073  0.000003)
 16:    668.44   0.000127    0.64  0.000060  ( 0.007512  0.001754  0.000000)
 17:    716.43   0.003385   17.11  0.001475  (-0.038340 -0.002166 -0.000022)
 18:    734.04   0.000042    0.21  0.000018  ( 0.000062  0.000007 -0.004248)
 19:    810.14   0.002985   15.09  0.001150  ( 0.000011 -0.000015  0.033910)
 20:    845.52   0.008553   43.22  0.003157  ( 0.000021 -0.000006 -0.056184)
 21:    848.98   0.001225    6.19  0.000450  (-0.021152  0.001646 -0.000127)
 22:    937.35   0.000231    1.17  0.000077  (-0.000005  0.000010  0.008775)
 23:    963.69   0.000010    0.05  0.000003  (-0.000010 -0.000014  0.001839)
 24:   1029.29   0.000001    0.00  0.000000  (-0.000404 -0.000005 -0.000000)
 25:   1129.52   0.002459   12.43  0.000679  (-0.015248  0.021137 -0.000002)
 26:   1187.59   0.012940   65.39  0.003400  ( 0.058257 -0.002536  0.000005)
 27:   1204.36   0.027530  139.12  0.007133  (-0.084301 -0.005152 -0.000008)
 28:   1237.67   0.000147    0.75  0.000037  (-0.005755  0.002016  0.000005)
 29:   1289.85   0.021941  110.88  0.005308  ( 0.072830 -0.002048  0.000004)
 30:   1320.98   0.000223    1.12  0.000053  ( 0.003644  0.006268  0.000000)
 31:   1376.70   0.007489   37.85  0.001698  (-0.041193  0.000796 -0.000004)
 32:   1465.40   0.003384   17.10  0.000721  (-0.026160  0.006028 -0.000002)
 33:   1530.95   0.015992   80.82  0.003260  (-0.057041 -0.002456 -0.000003)
 34:   1612.48   0.004317   21.82  0.000836  ( 0.026323  0.011941  0.000002)
 35:   1643.75   0.022233  112.35  0.004221  (-0.064840  0.004075 -0.000006)
 36:   2270.70   0.012557   63.46  0.001726  (-0.041540  0.000421  0.000001)
 37:   3162.24   0.002004   10.13  0.000198  (-0.012770  0.005889 -0.000001)
 38:   3182.32   0.000353    1.78  0.000035  ( 0.005859 -0.000534  0.000001)
 39:   3190.92   0.000354    1.79  0.000035  ( 0.000209 -0.005878 -0.000001)
 40:   3196.03   0.000177    0.89  0.000017  ( 0.002392  0.003394 -0.000001)
 41:   3745.85   0.016049   81.10  0.001337  (-0.030730  0.019815 -0.000002)

--------------------------
THERMOCHEMISTRY AT 298.15K
--------------------------

Temperature         ...   298.15 K
Pressure            ...     1.00 atm
Total Mass          ...   119.12 AMU
Quasi RRHO          ...     True
Cut-Off Frequency   ...     1.00 cm^-1

Throughout the following assumptions are being made:
  (1) The electronic state is orbitally nondegenerate
  (2) There are no thermally accessible electronically excited states
  (3) Hindered rotations indicated by low frequency modes are not
      treated as such but are treated as vibrations and this may
      cause some error
  (4) All equations used are the standard statistical mechanics
      equations for an ideal gas
  (5) All vibrations are strictly harmonic

freq.     113.21  E(vib)   ...       0.45
freq.     166.51  E(vib)   ...       0.39
freq.     268.00  E(vib)   ...       0.29
freq.     414.87  E(vib)   ...       0.19
freq.     417.07  E(vib)   ...       0.18
freq.     422.00  E(vib)   ...       0.18
freq.     465.81  E(vib)   ...       0.16
freq.     484.41  E(vib)   ...       0.15
freq.     554.86  E(vib)   ...       0.12
freq.     566.27  E(vib)   ...       0.11
freq.     668.44  E(vib)   ...       0.08
freq.     716.43  E(vib)   ...       0.07
freq.     734.04  E(vib)   ...       0.06
freq.     810.14  E(vib)   ...       0.05
freq.     845.52  E(vib)   ...       0.04
freq.     848.98  E(vib)   ...       0.04
freq.     937.35  E(vib)   ...       0.03
freq.     963.69  E(vib)   ...       0.03
freq.    1029.29  E(vib)   ...       0.02
freq.    1129.52  E(vib)   ...       0.01
freq.    1187.59  E(vib)   ...       0.01
freq.    1204.36  E(vib)   ...       0.01
freq.    1237.67  E(vib)   ...       0.01
freq.    1289.85  E(vib)   ...       0.01
freq.    1320.98  E(vib)   ...       0.01
freq.    1376.70  E(vib)   ...       0.01
freq.    1465.40  E(vib)   ...       0.00
freq.    1530.95  E(vib)   ...       0.00
freq.    1612.48  E(vib)   ...       0.00
freq.    1643.75  E(vib)   ...       0.00
freq.    2270.70  E(vib)   ...       0.00
freq.    3162.24  E(vib)   ...       0.00
freq.    3182.32  E(vib)   ...       0.00
freq.    3190.92  E(vib)   ...       0.00
freq.    3196.03  E(vib)   ...       0.00
freq.    3745.85  E(vib)   ...       0.00

------------
INNER ENERGY
------------

The inner energy is: U= E(el) + E(ZPE) + E(vib) + E(rot) + E(trans)
    E(el)   - is the total energy from the electronic structure calculation
              = E(kin-el) + E(nuc-el) + E(el-el) + E(nuc-nuc)
    E(ZPE)  - the the zero temperature vibrational energy from the frequency calculation
    E(vib)  - the the finite temperature correction to E(ZPE) due to population
              of excited vibrational states
    E(rot)  - is the rotational thermal energy
    E(trans)- is the translational thermal energy

Summary of contributions to the inner energy U:
Electronic energy                ...   -399.65495784 Eh
Zero point energy                ...      0.10291441 Eh      64.58 kcal/mol
Thermal vibrational correction   ...      0.00429417 Eh       2.69 kcal/mol
Thermal rotational correction    ...      0.00141627 Eh       0.89 kcal/mol
Thermal translational correction ...      0.00141627 Eh       0.89 kcal/mol
-----------------------------------------------------------------------
Total thermal energy                   -399.54491672 Eh

Summary of corrections to the electronic energy:
(perhaps to be used in another calculation)
Total thermal correction                  0.00712671 Eh       4.47 kcal/mol
Non-thermal (ZPE) correction              0.10291441 Eh      64.58 kcal/mol
-----------------------------------------------------------------------
Total correction                          0.11004111 Eh      69.05 kcal/mol

--------
ENTHALPY
--------

The enthalpy is H = U + kB*T
                kB is Boltzmann's constant
Total thermal energy              ...   -399.54491672 Eh
Thermal Enthalpy correction       ...      0.00094421 Eh       0.59 kcal/mol
-----------------------------------------------------------------------
Total Enthalpy                    ...   -399.54397251 Eh

Note: Only C1 symmetry has been detected, increase convergence thresholds
      if your molecule has a higher symmetry. Symmetry factor of 1.0 is
      used for the rotational entropy correction.

Note: Rotational entropy computed according to Herzberg
Infrared and Raman Spectra, Chapter V,1, Van Nostrand Reinhold, 1945
Point Group:  C1, Symmetry Number:   1
Rotational constants in cm-1:     0.186340     0.033304     0.028255

Vibrational entropy computed according to the QRRHO of S. Grimme
Chem.Eur.J. 2012 18 9955 using a reference frequency of 100.0 cm-1

-------
ENTROPY
-------

The entropy contributions are T*S = T*(S(el)+S(vib)+S(rot)+S(trans))
     S(el)   - electronic entropy
     S(vib)  - vibrational entropy
     S(rot)  - rotational entropy
     S(trans)- translational entropy
The entropies will be listed as multiplied by the temperature to get
units of energy

Electronic entropy                ...      0.00000000 Eh      0.00 kcal/mol
Vibrational entropy               ...      0.00681728 Eh      4.28 kcal/mol
Rotational entropy                ...      0.01359380 Eh      8.53 kcal/mol
Translational entropy             ...      0.01911907 Eh     12.00 kcal/mol
-----------------------------------------------------------------------
Final entropy term                ...      0.03953015 Eh     24.81 kcal/mol

In case the symmetry of your molecule has not been determined correctly
or in case you have a reason to use a different symmetry number we print
out the resulting rotational entropy values for sn=1,12:

 non-linear molecules -----------------------------------
|  sn= 1 | S(rot)=       0.01359380 Eh      8.53 kcal/mol|
|  sn= 2 | S(rot)=       0.01293935 Eh      8.12 kcal/mol|
|  sn= 3 | S(rot)=       0.01255651 Eh      7.88 kcal/mol|
|  sn= 4 | S(rot)=       0.01228489 Eh      7.71 kcal/mol|
|  sn= 5 | S(rot)=       0.01207420 Eh      7.58 kcal/mol|
|  sn= 6 | S(rot)=       0.01190206 Eh      7.47 kcal/mol|
|  sn= 7 | S(rot)=       0.01175651 Eh      7.38 kcal/mol|
|  sn= 8 | S(rot)=       0.01163043 Eh      7.30 kcal/mol|
|  sn= 9 | S(rot)=       0.01151922 Eh      7.23 kcal/mol|
|  sn=10 | S(rot)=       0.01141974 Eh      7.17 kcal/mol|
|  sn=11 | S(rot)=       0.01132975 Eh      7.11 kcal/mol|
|  sn=12 | S(rot)=       0.01124760 Eh      7.06 kcal/mol|
 linear molecules ---------------------------------------
|  Dinfh | S(rot)=       0.00869323 Eh      5.46 kcal/mol|
|  Cinfv | S(rot)=       0.00934769 Eh      5.87 kcal/mol|
 --------------------------------------------------------

-------------------
GIBBS FREE ENERGY
-------------------

The Gibbs free energy is G = H - T*S

                             ****ORCA TERMINATED NORMALLY****
TOTAL RUN TIME: 0 days 0 hours 10 minutes 15 seconds 449 msec
