                         Program Version 6.0.0  -   RELEASE  -
|  1> ! r2SCAN-3c DEF2-TZVP FREQ
|  2> * xyzfile 0 1 vacuum_censo.xyz
|  3>
|  4>                          ****END OF INPUT****

CARTESIAN COORDINATES (ANGSTROEM)
---------------------------------
  C     -0.338176   -1.212167   -0.000019
  C      1.046733   -1.213065    0.000034
  C      1.743562   -0.001687    0.000048
  C      1.049991    1.210996    0.000037
  C     -0.332468    1.210117   -0.000019
  C     -1.042484   -0.000743   -0.000080
  C     -2.463995    0.000072   -0.000626
  N     -3.622693   -0.001183    0.000608
  O      3.101132    0.062217    0.000053
  H     -0.884491   -2.148647   -0.000088
  H      1.588943   -2.155041    0.000016
  H      1.610792    2.138826    0.000022
  H     -0.877868    2.147181   -0.000088
  H      3.467889   -0.829673    0.000066

 Total Charge           Charge          ....    0
 Multiplicity           Mult            ....    1
 Number of Electrons    NEL             ....   62
 Basis Dimension        Dim             ....  309

ORBITAL ENERGIES
----------------

  NO   OCC          E(Eh)            E(eV)
   0   2.0000     -19.015020      -517.4250
   1   2.0000     -14.152820      -385.1178
   2   2.0000     -10.129783      -275.6454
   3   2.0000     -10.085321      -274.4355
   4   2.0000     -10.073991      -274.1272
   5   2.0000     -10.071644      -274.0634
   6   2.0000     -10.068322      -273.9730
   7   2.0000     -10.066564      -273.9251
   8   2.0000     -10.060441      -273.7585
   9   2.0000      -1.058702       -28.8087
  10   2.0000      -0.873048       -23.7568
  11   2.0000      -0.847248       -23.0548
  12   2.0000      -0.752510       -20.4768
  13   2.0000      -0.749442       -20.3933
  14   2.0000      -0.636242       -17.3130
  15   2.0000      -0.614834       -16.7305
  16   2.0000      -0.544558       -14.8182
  17   2.0000      -0.538401       -14.6506
  18   2.0000      -0.475100       -12.9281
  19   2.0000      -0.439469       -11.9586
  20   2.0000      -0.422919       -11.5082
  21   2.0000      -0.413514       -11.2523
  22   2.0000      -0.404317       -11.0020
  23   2.0000      -0.379467       -10.3258
  24   2.0000      -0.366910        -9.9841
  25   2.0000      -0.341764        -9.2999
  26   2.0000      -0.324590        -8.8325
  27   2.0000      -0.309627        -8.4254
  28   2.0000      -0.306144        -8.3306
  29   2.0000      -0.269279        -7.3274
  30   2.0000      -0.231527        -6.3002
  31   0.0000      -0.073104        -1.9893
  32   0.0000      -0.063942        -1.7400
  33   0.0000       0.006053         0.1647
  34   0.0000       0.017761         0.4833
  35   0.0000       0.039477         1.0742

MULLIKEN ATOMIC CHARGES
-----------------------
   0 C :   -0.233635
   1 C :   -0.185221
   2 C :    0.301458
   3 C :   -0.182646
   4 C :   -0.206211
   5 C :    0.285380
   6 C :   -0.150010
   7 N :   -0.069878
   8 O :   -0.380348
   9 H :    0.134268
  10 H :    0.111214
  11 H :    0.124342
  12 H :    0.131220
  13 H :    0.320069
Sum of atomic charges:    0.0000000

LOEWDIN ATOMIC CHARGES
----------------------
   0 C :   -0.074665
   1 C :   -0.132813
   2 C :   -0.261998
   3 C :   -0.106378
   4 C :   -0.071743
   5 C :   -0.161864
   6 C :   -0.163003
   7 N :    0.057348
   8 O :    0.105938
   9 H :    0.157501
  10 H :    0.146994
  11 H :    0.154928
  12 H :    0.157857
  13 H :    0.191898

  Mayer bond orders larger than 0.100000
B(  0-C ,  1-C ) :   1.4416 B(  0-C ,  5-C ) :   1.3172 B(  0-C ,  9-H ) :   0.9601
B(  1-C ,  2-C ) :   1.3066 B(  1-C , 10-H ) :   0.9597 B(  2-C ,  3-C ) :   1.3395
B(  2-C ,  8-O ) :   1.1418 B(  3-C ,  4-C ) :   1.4597 B(  3-C , 11-H ) :   0.9792
B(  4-C ,  5-C ) :   1.2953 B(  4-C , 12-H ) :   0.9776 B(  5-C ,  6-C ) :   0.9244
B(  6-C ,  7-N ) :   2.9956 B(  8-O , 13-H ) :   0.8798

Dispersion correction           -0.004679289
FINAL SINGLE POINT ENERGY      -399.655162256806

DIPOLE MOMENT
-------------

Method             : SCF
Type of density    : Electron Density
Multiplicity       :   1
Irrep              :   0
Energy             :  -399.6543088764252047 Eh
Relativity type    :
Basis              : AO
                                X                 Y                 Z
Electronic contribution:     -2.555314382       0.271609026      -0.000404112
Nuclear contribution   :      4.636987346      -0.795908009      -0.000135314
                        -----------------------------------------
Total Dipole Moment    :      2.081672964      -0.524298983      -0.000539427
                        -----------------------------------------
Magnitude (a.u.)       :      2.146683964
Magnitude (Debye)      :      5.456437007

VIBRATIONAL FREQUENCIES
-----------------------

Scaling factor for frequencies =  1.000000000  (already applied!)

     0:       0.00 cm**-1
     1:       0.00 cm**-1
     2:       0.00 cm**-1
     3:       0.00 cm**-1
     4:       0.00 cm**-1
     5:       0.00 cm**-1
     6:     106.01 cm**-1
     7:     151.41 cm**-1
     8:     262.07 cm**-1
     9:     399.02 cm**-1
    10:     410.84 cm**-1
    11:     416.02 cm**-1
    12:     420.52 cm**-1
    13:     480.07 cm**-1
    14:     551.52 cm**-1
    15:     561.51 cm**-1
    16:     667.48 cm**-1
    17:     715.43 cm**-1
    18:     733.42 cm**-1
    19:     812.44 cm**-1
    20:     845.94 cm**-1
    21:     851.49 cm**-1
    22:     938.91 cm**-1
    23:     963.82 cm**-1
    24:    1033.03 cm**-1
    25:    1127.91 cm**-1
    26:    1188.63 cm**-1
    27:    1194.36 cm**-1
    28:    1230.33 cm**-1
    29:    1296.93 cm**-1
    30:    1325.79 cm**-1
    31:    1375.35 cm**-1
    32:    1462.86 cm**-1
    33:    1535.65 cm**-1
    34:    1615.70 cm**-1
    35:    1644.95 cm**-1
    36:    2291.85 cm**-1
    37:    3153.66 cm**-1
    38:    3183.87 cm**-1
    39:    3191.01 cm**-1
    40:    3197.48 cm**-1
    41:    3801.50 cm**-1

IR SPECTRUM
-----------

 Mode   freq       eps      Int      T**2         TX        TY        TZ
       cm**-1   L/(mol*cm) km/mol    a.u.
----------------------------------------------------------------------------
  6:    106.01   0.000388    1.96  0.001143  (-0.000113 -0.000001  0.033803)
  7:    151.41   0.001007    5.09  0.002075  ( 0.009397 -0.044575 -0.000001)
  8:    262.07   0.000378    1.91  0.000450  ( 0.000034  0.000002  0.021206)
  9:    399.02   0.019279   97.43  0.015078  ( 0.000000  0.000008  0.122791)
 10:    410.84   0.001904    9.62  0.001447  ( 0.038017  0.001123  0.000055)
 11:    416.02   0.000743    3.76  0.000558  ( 0.000044  0.000053 -0.023613)
 12:    420.52   0.000088    0.44  0.000065  ( 0.007891  0.001678 -0.000019)
 13:    480.07   0.000299    1.51  0.000194  ( 0.000080  0.000001 -0.013938)
 14:    551.52   0.004973   25.13  0.002814  (-0.000069 -0.000000 -0.053047)
 15:    561.51   0.000135    0.68  0.000075  ( 0.007788 -0.003809 -0.000008)
 16:    667.48   0.000120    0.61  0.000056  ( 0.007221  0.002035  0.000002)
 17:    715.43   0.003150   15.92  0.001374  (-0.037007 -0.002109  0.000023)
 18:    733.42   0.000022    0.11  0.000009  ( 0.000072 -0.000004  0.003050)
 19:    812.44   0.002598   13.13  0.000998  (-0.000025 -0.000017 -0.031590)
 20:    845.94   0.008973   45.35  0.003310  ( 0.000069 -0.000004  0.057533)
 21:    851.49   0.001291    6.53  0.000473  (-0.021709  0.001421 -0.000010)
 22:    938.91   0.000192    0.97  0.000064  ( 0.000032 -0.000001  0.007987)
 23:    963.82   0.000014    0.07  0.000005  ( 0.000027 -0.000001  0.002140)
 24:   1033.03   0.000000    0.00  0.000000  ( 0.000318 -0.000205  0.000001)
 25:   1127.91   0.002957   14.94  0.000818  (-0.019710  0.020729 -0.000000)
 26:   1188.63   0.028742  145.25  0.007546  (-0.086860 -0.001176  0.000003)
 27:   1194.36   0.010971   55.45  0.002867  (-0.053130 -0.006623 -0.000001)
 28:   1230.33   0.000103    0.52  0.000026  (-0.004737  0.001900 -0.000006)
 29:   1296.93   0.022221  112.30  0.005347  (-0.073107  0.001491  0.000001)
 30:   1325.79   0.000200    1.01  0.000047  ( 0.003199  0.006075  0.000000)
 31:   1375.35   0.006654   33.63  0.001510  ( 0.038855 -0.000416  0.000001)
 32:   1462.86   0.002912   14.71  0.000621  ( 0.024236 -0.005808  0.000001)
 33:   1535.65   0.016379   82.77  0.003328  (-0.057647 -0.002297 -0.000005)
 34:   1615.70   0.004810   24.31  0.000929  ( 0.028010  0.012019 -0.000001)
 35:   1644.95   0.022835  115.40  0.004332  ( 0.065667 -0.004460 -0.000002)
 36:   2291.85   0.012023   60.76  0.001637  ( 0.040458 -0.000443  0.000027)
 37:   3153.66   0.002102   10.62  0.000208  (-0.012947  0.006354 -0.000000)
 38:   3183.87   0.000329    1.66  0.000032  (-0.005470  0.001539 -0.000000)
 39:   3191.01   0.000344    1.74  0.000034  ( 0.000624  0.005763  0.000000)
 40:   3197.48   0.000240    1.21  0.000023  ( 0.002859  0.003906  0.000000)
 41:   3801.50   0.016421   82.98  0.001348  (-0.030981  0.019701 -0.000001)

--------------------------
THERMOCHEMISTRY AT 298.15K
--------------------------

Temperature         ...   298.15 K
Pressure            ...     1.00 atm
Total Mass          ...   119.12 AMU
Quasi RRHO          ...     True
Cut-Off Frequency   ...     1.00 cm^-1

Throughout the following assumptions are being made:
  (1) The electronic state is orbitally nondegenerate
  (2) There are no thermally accessible electronically excited states
  (3) Hindered rotations indicated by low frequency modes are not
      treated as such but are treated as vibrations and this may
      cause some error
  (4) All equations used are the standard statistical mechanics
      equations for an ideal gas
  (5) All vibrations are strictly harmonic

freq.     106.01  E(vib)   ...       0.45
freq.     151.41  E(vib)   ...       0.40
freq.     262.07  E(vib)   ...       0.29
freq.     399.02  E(vib)   ...       0.19
freq.     410.84  E(vib)   ...       0.19
freq.     416.02  E(vib)   ...       0.18
freq.     420.52  E(vib)   ...       0.18
freq.     480.07  E(vib)   ...       0.15
freq.     551.52  E(vib)   ...       0.12
freq.     561.51  E(vib)   ...       0.11
freq.     667.48  E(vib)   ...       0.08
freq.     715.43  E(vib)   ...       0.07
freq.     733.42  E(vib)   ...       0.06
freq.     812.44  E(vib)   ...       0.05
freq.     845.94  E(vib)   ...       0.04
freq.     851.49  E(vib)   ...       0.04
freq.     938.91  E(vib)   ...       0.03
freq.     963.82  E(vib)   ...       0.03
freq.    1033.03  E(vib)   ...       0.02
freq.    1127.91  E(vib)   ...       0.01
freq.    1188.63  E(vib)   ...       0.01
freq.    1194.36  E(vib)   ...       0.01
freq.    1230.33  E(vib)   ...       0.01
freq.    1296.93  E(vib)   ...       0.01
freq.    1325.79  E(vib)   ...       0.01
freq.    1375.35  E(vib)   ...       0.01
freq.    1462.86  E(vib)   ...       0.00
freq.    1535.65  E(vib)   ...       0.00
freq.    1615.70  E(vib)   ...       0.00
freq.    1644.95  E(vib)   ...       0.00
freq.    2291.85  E(vib)   ...       0.00
freq.    3153.66  E(vib)   ...       0.00
freq.    3183.87  E(vib)   ...       0.00
freq.    3191.01  E(vib)   ...       0.00
freq.    3197.48  E(vib)   ...       0.00
freq.    3801.50  E(vib)   ...       0.00

------------
INNER ENERGY
------------

The inner energy is: U= E(el) + E(ZPE) + E(vib) + E(rot) + E(trans)
    E(el)   - is the total energy from the electronic structure calculation
              = E(kin-el) + E(nuc-el) + E(el-el) + E(nuc-nuc)
    E(ZPE)  - the the zero temperature vibrational energy from the frequency calculation
    E(vib)  - the the finite temperature correction to E(ZPE) due to population
              of excited vibrational states
    E(rot)  - is the rotational thermal energy
    E(trans)- is the translational thermal energy

Summary of contributions to the inner energy U:
Electronic energy                ...   -399.65516226 Eh
Zero point energy                ...      0.10283371 Eh      64.53 kcal/mol
Thermal vibrational correction   ...      0.00441521 Eh       2.77 kcal/mol
Thermal rotational correction    ...      0.00141627 Eh       0.89 kcal/mol
Thermal translational correction ...      0.00141627 Eh       0.89 kcal/mol
-----------------------------------------------------------------------
Total thermal energy                   -399.54508079 Eh

Summary of corrections to the electronic energy:
(perhaps to be used in another calculation)
Total thermal correction                  0.00724776 Eh       4.55 kcal/mol
Non-thermal (ZPE) correction              0.10283371 Eh      64.53 kcal/mol
-----------------------------------------------------------------------
Total correction                          0.11008147 Eh      69.08 kcal/mol

--------
ENTHALPY
--------

The enthalpy is H = U + kB*T
                kB is Boltzmann's constant
Total thermal energy              ...   -399.54508079 Eh
Thermal Enthalpy correction       ...      0.00094421 Eh       0.59 kcal/mol
-----------------------------------------------------------------------
Total Enthalpy                    ...   -399.54413658 Eh

Note: Only C1 symmetry has been detected, increase convergence thresholds
      if your molecule has a higher symmetry. Symmetry factor of 1.0 is
      used for the rotational entropy correction.

Note: Rotational entropy computed according to Herzberg
Infrared and Raman Spectra, Chapter V,1, Van Nostrand Reinhold, 1945
Point Group:  C1, Symmetry Number:   1
Rotational constants in cm-1:     0.187568     0.033176     0.028190

Vibrational entropy computed according to the QRRHO of S. Grimme
Chem.Eur.J. 2012 18 9955 using a reference frequency of 100.0 cm-1

-------
ENTROPY
-------

The entropy contributions are T*S = T*(S(el)+S(vib)+S(rot)+S(trans))
     S(el)   - electronic entropy
     S(vib)  - vibrational entropy
     S(rot)  - rotational entropy
     S(trans)- translational entropy
The entropies will be listed as multiplied by the temperature to get
units of energy

Electronic entropy                ...      0.00000000 Eh      0.00 kcal/mol
Vibrational entropy               ...      0.00707202 Eh      4.44 kcal/mol
Rotational entropy                ...      0.01359361 Eh      8.53 kcal/mol
Translational entropy             ...      0.01911907 Eh     12.00 kcal/mol
-----------------------------------------------------------------------
Final entropy term                ...      0.03978469 Eh     24.97 kcal/mol

In case the symmetry of your molecule has not been determined correctly
or in case you have a reason to use a different symmetry number we print
out the resulting rotational entropy values for sn=1,12:

 non-linear molecules -----------------------------------
|  sn= 1 | S(rot)=       0.01359361 Eh      8.53 kcal/mol|
|  sn= 2 | S(rot)=       0.01293915 Eh      8.12 kcal/mol|
|  sn= 3 | S(rot)=       0.01255632 Eh      7.88 kcal/mol|
|  sn= 4 | S(rot)=       0.01228470 Eh      7.71 kcal/mol|
|  sn= 5 | S(rot)=       0.01207401 Eh      7.58 kcal/mol|
|  sn= 6 | S(rot)=       0.01190186 Eh      7.47 kcal/mol|
|  sn= 7 | S(rot)=       0.01175632 Eh      7.38 kcal/mol|
|  sn= 8 | S(rot)=       0.01163024 Eh      7.30 kcal/mol|
|  sn= 9 | S(rot)=       0.01151903 Eh      7.23 kcal/mol|
|  sn=10 | S(rot)=       0.01141955 Eh      7.17 kcal/mol|
|  sn=11 | S(rot)=       0.01132956 Eh      7.11 kcal/mol|
|  sn=12 | S(rot)=       0.01124741 Eh      7.06 kcal/mol|
 linear molecules ---------------------------------------
|  Dinfh | S(rot)=       0.00869539 Eh      5.46 kcal/mol|
|  Cinfv | S(rot)=       0.00934985 Eh      5.87 kcal/mol|
 --------------------------------------------------------

-------------------
GIBBS FREE ENERGY
-------------------

The Gibbs free energy is G = H - T*S

                             ****ORCA TERMINATED NORMALLY****
TOTAL RUN TIME: 0 days 0 hours 10 minutes 6 seconds 381 msec
