                         Program Version 6.0.1  -  RELEASE   -
|  1> ! r2scan-3c def2/J RI DEFGRID2 scfconv6 printgap
|  2> %output
|  3>     printlevel normal
|  4> end
|  5> * xyz 0 1
|  6> C -2.744829833 0.0007095725 -0.7349144521
|  7> C -1.9714993064 -0.0009057418 0.585268712
|  8> C -0.4916407898 -0.0004691947 0.326148964
|  9> C 0.201739925 -1.1950454129 0.1803095444
| 10> C 1.5564755379 -1.1964514058 -0.1001378637
| 11> C 2.2374134687 0.0004971482 -0.2411252706
| 12> C 1.5557484682 1.1969718899 -0.0995521875
| 13> C 0.2010354794 1.1946098345 0.180925711
| 14> H -2.4926003947 0.8826379978 -1.3195742679
| 15> H -3.8166534146 0.0010587217 -0.5495937514
| 16> H -2.4934197605 -0.88035986 -1.3212588096
| 17> H -2.2466419232 -0.8863272357 1.1621575612
| 18> H -2.2467452713 0.883081558 1.1643214772
| 19> H -0.3252224468 -2.1326078038 0.2909150402
| 20> H 2.0827857771 -2.1339810515 -0.2081377609
| 21> H 3.2954005802 0.0008606509 -0.4589655537
| 22> H 2.081531692 2.1348359835 -0.2069791439
| 23> H -0.3264835263 2.1317938329 0.2920958167
| 24> *
| 25>
| 26>                          ****END OF INPUT****

CARTESIAN COORDINATES (ANGSTROEM)
---------------------------------
  C     -2.744830    0.000710   -0.734914
  C     -1.971499   -0.000906    0.585269
  C     -0.491641   -0.000469    0.326149
  C      0.201740   -1.195045    0.180310
  C      1.556476   -1.196451   -0.100138
  C      2.237413    0.000497   -0.241125
  C      1.555748    1.196972   -0.099552
  C      0.201035    1.194610    0.180926
  H     -2.492600    0.882638   -1.319574
  H     -3.816653    0.001059   -0.549594
  H     -2.493420   -0.880360   -1.321259
  H     -2.246642   -0.886327    1.162158
  H     -2.246745    0.883082    1.164321
  H     -0.325222   -2.132608    0.290915
  H      2.082786   -2.133981   -0.208138
  H      3.295401    0.000861   -0.458966
  H      2.081532    2.134836   -0.206979
  H     -0.326484    2.131794    0.292096

 Total Charge           Charge          ....    0
 Multiplicity           Mult            ....    1
 Number of Electrons    NEL             ....   58
 Basis Dimension        Dim             ....  202

ORBITAL ENERGIES
----------------

  NO   OCC          E(Eh)            E(eV)
   0   2.0000     -10.039649      -273.1927
   1   2.0000     -10.033745      -273.0321
   2   2.0000     -10.031721      -272.9770
   3   2.0000     -10.031683      -272.9760
   4   2.0000     -10.029713      -272.9224
   5   2.0000     -10.029704      -272.9221
   6   2.0000     -10.029276      -272.9105
   7   2.0000     -10.021347      -272.6947
   8   2.0000      -0.827719       -22.5234
   9   2.0000      -0.756510       -20.5857
  10   2.0000      -0.713412       -19.4129
  11   2.0000      -0.690281       -18.7835
  12   2.0000      -0.600303       -16.3351
  13   2.0000      -0.574038       -15.6204
  14   2.0000      -0.544574       -14.8186
  15   2.0000      -0.480350       -13.0710
  16   2.0000      -0.437783       -11.9127
  17   2.0000      -0.426198       -11.5974
  18   2.0000      -0.399179       -10.8622
  19   2.0000      -0.392296       -10.6749
  20   2.0000      -0.384211       -10.4549
  21   2.0000      -0.366386        -9.9699
  22   2.0000      -0.341917        -9.3040
  23   2.0000      -0.327076        -8.9002
  24   2.0000      -0.320798        -8.7293
  25   2.0000      -0.301656        -8.2085
  26   2.0000      -0.298372        -8.1191
  27   2.0000      -0.234569        -6.3829
  28   2.0000      -0.224744        -6.1156
  29   0.0000      -0.029138        -0.7929
  30   0.0000      -0.026536        -0.7221
  31   0.0000       0.077216         2.1012
  32   0.0000       0.102306         2.7839
  33   0.0000       0.114162         3.1065

MULLIKEN ATOMIC CHARGES
-----------------------
   0 C :   -0.458142
   1 C :   -0.314503
   2 C :    0.220221
   3 C :   -0.227727
   4 C :   -0.155361
   5 C :   -0.151613
   6 C :   -0.155368
   7 C :   -0.227692
   8 H :    0.149830
   9 H :    0.146652
  10 H :    0.149814
  11 H :    0.146556
  12 H :    0.146577
  13 H :    0.147590
  14 H :    0.144773
  15 H :    0.146029
  16 H :    0.144771
  17 H :    0.147596
Sum of atomic charges:    0.0000000

LOEWDIN ATOMIC CHARGES
----------------------
   0 C :   -0.405733
   1 C :   -0.289098
   2 C :   -0.093593
   3 C :   -0.164175
   4 C :   -0.161828
   5 C :   -0.174479
   6 C :   -0.161823
   7 C :   -0.164173
   8 H :    0.153876
   9 H :    0.148928
  10 H :    0.153876
  11 H :    0.161055
  12 H :    0.161067
  13 H :    0.168542
  14 H :    0.166385
  15 H :    0.166244
  16 H :    0.166382
  17 H :    0.168547

  Mayer bond orders larger than 0.100000
B(  0-C ,  1-C ) :   0.9236 B(  0-C ,  8-H ) :   0.9788 B(  0-C ,  9-H ) :   0.9718
B(  0-C , 10-H ) :   0.9787 B(  1-C ,  2-C ) :   0.7937 B(  1-C , 11-H ) :   0.9924
B(  1-C , 12-H ) :   0.9925 B(  2-C ,  3-C ) :   1.4050 B(  2-C ,  7-C ) :   1.4049
B(  3-C ,  4-C ) :   1.4488 B(  3-C , 13-H ) :   0.9448 B(  4-C ,  5-C ) :   1.4314
B(  4-C , 14-H ) :   0.9477 B(  5-C ,  6-C ) :   1.4313 B(  5-C , 15-H ) :   0.9479
B(  6-C ,  7-C ) :   1.4489 B(  6-C , 16-H ) :   0.9477 B(  7-C , 17-H ) :   0.9448

Dispersion correction           -0.005639052
FINAL SINGLE POINT ENERGY      -310.780152991834

DIPOLE MOMENT
-------------

Method             : SCF
Type of density    : Electron Density
Multiplicity       :   1
Irrep              :   0
Energy             :  -310.7799128253020626 Eh
Relativity type    :
Basis              : AO
                                X                 Y                 Z
Electronic contribution:      5.921915565      -0.000907199       1.077406236
Nuclear contribution   :     -6.086876934       0.000931407      -1.083601747
                        -----------------------------------------
Total Dipole Moment    :     -0.164961369       0.000024208      -0.006195511
                        -----------------------------------------
Magnitude (a.u.)       :      0.165077673
Magnitude (Debye)      :      0.419594099

Rotational constants in cm-1:             0.152133             0.049984             0.041437
Rotational constants in MHz :          4560.823823          1498.494545          1242.236234

                             ****ORCA TERMINATED NORMALLY****
TOTAL RUN TIME: 0 days 0 hours 0 minutes 20 seconds 890 msec
