                         Program Version 6.0.1  -  RELEASE   -
|  1> ! r2scan-3c def2/J RI DEFGRID2 scfconv6 printgap
|  2> %output
|  3>     printlevel normal
|  4> end
|  5> * xyz 0 1
|  6> C -1.9543390999 0.152352074 -0.0301479716
|  7> C -0.5889583127 -0.5212192576 0.0233345805
|  8> C 0.5436093353 0.4985557357 -0.0226329404
|  9> O 1.8294112236 -0.0899164567 0.0251466964
| 10> H -2.7460011423 -0.5919734123 0.0036401578
| 11> H -2.079130514 0.8274910549 0.8131838319
| 12> H -2.0597527427 0.7269595623 -0.9473741496
| 13> H -0.4872607559 -1.2065216544 -0.82331507
| 14> H -0.5066156062 -1.1053244917 0.9446700545
| 15> H 0.4769300636 1.0874058894 -0.9467677453
| 16> H 0.4572590841 1.1891725299 0.8264161158
| 17> H 1.7345027241 -1.045355962 0.081275977
| 18> *
| 19>
| 20>                          ****END OF INPUT****

CARTESIAN COORDINATES (ANGSTROEM)
---------------------------------
  C     -1.954339    0.152352   -0.030148
  C     -0.588958   -0.521219    0.023335
  C      0.543609    0.498556   -0.022633
  O      1.829411   -0.089916    0.025147
  H     -2.746001   -0.591973    0.003640
  H     -2.079131    0.827491    0.813184
  H     -2.059753    0.726960   -0.947374
  H     -0.487261   -1.206522   -0.823315
  H     -0.506616   -1.105324    0.944670
  H      0.476930    1.087406   -0.946768
  H      0.457259    1.189173    0.826416
  H      1.734503   -1.045356    0.081276

 Total Charge           Charge          ....    0
 Multiplicity           Mult            ....    1
 Number of Electrons    NEL             ....   34
 Basis Dimension        Dim             ....  121

ORBITAL ENERGIES
----------------

  NO   OCC          E(Eh)            E(eV)
   0   2.0000     -18.941689      -515.4296
   1   2.0000     -10.072372      -274.0832
   2   2.0000     -10.036418      -273.1048
   3   2.0000     -10.026862      -272.8448
   4   2.0000      -0.980499       -26.6807
   5   2.0000      -0.751646       -20.4533
   6   2.0000      -0.641091       -17.4450
   7   2.0000      -0.573821       -15.6145
   8   2.0000      -0.458431       -12.4745
   9   2.0000      -0.448665       -12.2088
  10   2.0000      -0.393252       -10.7009
  11   2.0000      -0.378201       -10.2914
  12   2.0000      -0.374968       -10.2034
  13   2.0000      -0.329054        -8.9540
  14   2.0000      -0.315332        -8.5806
  15   2.0000      -0.284397        -7.7388
  16   2.0000      -0.231523        -6.3001
  17   0.0000       0.065199         1.7742
  18   0.0000       0.094951         2.5838
  19   0.0000       0.121988         3.3195
  20   0.0000       0.140264         3.8168
  21   0.0000       0.143454         3.9036

MULLIKEN ATOMIC CHARGES
-----------------------
   0 C :   -0.469677
   1 C :   -0.263015
   2 C :   -0.095655
   3 O :   -0.441359
   4 H :    0.148664
   5 H :    0.145094
   6 H :    0.145074
   7 H :    0.139269
   8 H :    0.139104
   9 H :    0.125302
  10 H :    0.125246
  11 H :    0.301954
Sum of atomic charges:   -0.0000000

LOEWDIN ATOMIC CHARGES
----------------------
   0 C :   -0.419347
   1 C :   -0.308058
   2 C :   -0.001111
   3 O :   -0.619331
   4 H :    0.153254
   5 H :    0.152282
   6 H :    0.152284
   7 H :    0.153057
   8 H :    0.153014
   9 H :    0.160611
  10 H :    0.160519
  11 H :    0.262828

  Mayer bond orders larger than 0.100000
B(  0-C ,  1-C ) :   0.9230 B(  0-C ,  4-H ) :   0.9687 B(  0-C ,  5-H ) :   0.9799
B(  0-C ,  6-H ) :   0.9799 B(  1-C ,  2-C ) :   0.9417 B(  1-C ,  7-H ) :   0.9570
B(  1-C ,  8-H ) :   0.9569 B(  2-C ,  3-O ) :   0.9109 B(  2-C ,  9-H ) :   0.9704
B(  2-C , 10-H ) :   0.9703 B(  3-O , 11-H ) :   0.8948

Dispersion correction           -0.002075708
FINAL SINGLE POINT ENERGY      -194.296891327793

DIPOLE MOMENT
-------------

Method             : SCF
Type of density    : Electron Density
Multiplicity       :   1
Irrep              :   0
Energy             :  -194.3017898005596749 Eh
Relativity type    :
Basis              : AO
                                X                 Y                 Z
Electronic contribution:      4.198269597      -0.249733509       0.059605149
Nuclear contribution   :     -4.860751285      -0.112175069      -0.044912788
                        -----------------------------------------
Total Dipole Moment    :     -0.662481687      -0.361908578       0.014692362
                        -----------------------------------------
Magnitude (a.u.)       :      0.755033556
Magnitude (Debye)      :      1.919142781

Rotational constants in cm-1:             0.868078             0.127616             0.118683
Rotational constants in MHz :         26024.335597          3825.831914          3558.019670

                             ****ORCA TERMINATED NORMALLY****
TOTAL RUN TIME: 0 days 0 hours 0 minutes 6 seconds 962 msec
