                         Program Version 6.0.0  -   RELEASE  -
|  1> ! r2SCAN-3c DEF2-TZVP FREQ
|  2> * xyzfile 0 1 censo.xyz
|  3>
|  4>                          ****END OF INPUT****

CARTESIAN COORDINATES (ANGSTROEM)
---------------------------------
  C     -2.768320   -0.781049   -0.006639
  O     -1.798871    0.275181   -0.025366
  C     -0.471831   -0.090169   -0.015870
  C     -0.012277   -1.402062   -0.010001
  C      1.361475   -1.663789   -0.000672
  C      2.265615   -0.609246    0.006251
  C      1.803838    0.706176    0.003731
  C      0.437370    0.991930   -0.010330
  N     -0.038483    2.299001   -0.083375
  H     -3.741708   -0.289218   -0.005956
  H     -2.665231   -1.393200    0.896597
  H     -2.677382   -1.413684   -0.897024
  H     -0.712690   -2.228587   -0.011682
  H      1.708413   -2.691602    0.003281
  H      3.333741   -0.800806    0.017510
  H      2.507296    1.534539    0.011822
  H      0.613437    2.984023    0.273440
  H     -0.963602    2.422936    0.303897

 Total Charge           Charge          ....    0
 Multiplicity           Mult            ....    1
 Number of Electrons    NEL             ....   66
 Basis Dimension        Dim             ....  333

ORBITAL ENERGIES
----------------

  NO   OCC          E(Eh)            E(eV)
   0   2.0000     -18.986770      -516.6563
   1   2.0000     -14.162298      -385.3757
   2   2.0000     -10.088260      -274.5155
   3   2.0000     -10.084890      -274.4238
   4   2.0000     -10.067463      -273.9496
   5   2.0000     -10.027771      -272.8695
   6   2.0000     -10.024123      -272.7703
   7   2.0000     -10.022338      -272.7217
   8   2.0000     -10.021130      -272.6888
   9   2.0000      -1.025278       -27.8992
  10   2.0000      -0.880284       -23.9537
  11   2.0000      -0.796748       -21.6806
  12   2.0000      -0.713331       -19.4107
  13   2.0000      -0.695805       -18.9338
  14   2.0000      -0.657520       -17.8920
  15   2.0000      -0.572852       -15.5881
  16   2.0000      -0.557105       -15.1596
  17   2.0000      -0.500457       -13.6181
  18   2.0000      -0.478121       -13.0103
  19   2.0000      -0.463895       -12.6232
  20   2.0000      -0.435229       -11.8432
  21   2.0000      -0.422467       -11.4959
  22   2.0000      -0.413162       -11.2427
  23   2.0000      -0.396961       -10.8019
  24   2.0000      -0.376393       -10.2422
  25   2.0000      -0.360657        -9.8140
  26   2.0000      -0.340745        -9.2721
  27   2.0000      -0.316927        -8.6240
  28   2.0000      -0.300937        -8.1889
  29   2.0000      -0.292819        -7.9680
  30   2.0000      -0.282779        -7.6948
  31   2.0000      -0.211743        -5.7618
  32   2.0000      -0.174526        -4.7491
  33   0.0000      -0.018325        -0.4987
  34   0.0000      -0.005633        -0.1533
  35   0.0000       0.040444         1.1005
  36   0.0000       0.053913         1.4670
  37   0.0000       0.064286         1.7493

MULLIKEN ATOMIC CHARGES
-----------------------
   0 C :   -0.170985
   1 O :   -0.315629
   2 C :    0.228828
   3 C :   -0.210649
   4 C :   -0.161493
   5 C :   -0.111966
   6 C :   -0.232983
   7 C :    0.210313
   8 N :   -0.439491
   9 H :    0.123116
  10 H :    0.113571
  11 H :    0.115367
  12 H :    0.102156
  13 H :    0.101878
  14 H :    0.100103
  15 H :    0.084493
  16 H :    0.223659
  17 H :    0.239711
Sum of atomic charges:   -0.0000000

LOEWDIN ATOMIC CHARGES
----------------------
   0 C :   -0.313389
   1 O :    0.209361
   2 C :   -0.229868
   3 C :   -0.151917
   4 C :   -0.168514
   5 C :   -0.163605
   6 C :   -0.140299
   7 C :   -0.224533
   8 N :   -0.041409
   9 H :    0.112722
  10 H :    0.107051
  11 H :    0.107928
  12 H :    0.145632
  13 H :    0.139950
  14 H :    0.140998
  15 H :    0.140928
  16 H :    0.163253
  17 H :    0.165711

  Mayer bond orders larger than 0.100000
B(  0-C ,  1-O ) :   0.9424 B(  0-C ,  9-H ) :   0.9759 B(  0-C , 10-H ) :   0.9675
B(  0-C , 11-H ) :   0.9668 B(  1-O ,  2-C ) :   1.0630 B(  2-C ,  3-C ) :   1.3602
B(  2-C ,  7-C ) :   1.3253 B(  3-C ,  4-C ) :   1.3488 B(  3-C , 12-H ) :   0.9745
B(  4-C ,  5-C ) :   1.4318 B(  4-C , 13-H ) :   0.9706 B(  5-C ,  6-C ) :   1.4004
B(  5-C , 14-H ) :   0.9752 B(  6-C ,  7-C ) :   1.3829 B(  6-C , 15-H ) :   0.9824
B(  7-C ,  8-N ) :   1.0781 B(  8-N , 16-H ) :   0.9217 B(  8-N , 17-H ) :   0.9071

Dispersion correction           -0.005804320
FINAL SINGLE POINT ENERGY      -402.060647984807

DIPOLE MOMENT
-------------

Method             : SCF
Type of density    : Electron Density
Multiplicity       :   1
Irrep              :   0
Energy             :  -402.0650260419125743 Eh
Relativity type    :
Basis              : AO
                                X                 Y                 Z
Electronic contribution:      1.908841435       1.864928969      -0.249122720
Nuclear contribution   :     -2.428308691      -1.777571798       0.649284231
                        -----------------------------------------
Total Dipole Moment    :     -0.519467256       0.087357171       0.400161511
                        -----------------------------------------
Magnitude (a.u.)       :      0.661518511
Magnitude (Debye)      :      1.681446428

VIBRATIONAL FREQUENCIES
-----------------------

Scaling factor for frequencies =  1.000000000  (already applied!)

     0:       0.00 cm**-1
     1:       0.00 cm**-1
     2:       0.00 cm**-1
     3:       0.00 cm**-1
     4:       0.00 cm**-1
     5:       0.00 cm**-1
     6:     114.06 cm**-1
     7:     182.22 cm**-1
     8:     246.41 cm**-1
     9:     255.03 cm**-1
    10:     313.57 cm**-1
    11:     349.49 cm**-1
    12:     384.42 cm**-1
    13:     459.87 cm**-1
    14:     512.80 cm**-1
    15:     520.13 cm**-1
    16:     572.78 cm**-1
    17:     601.24 cm**-1
    18:     670.22 cm**-1
    19:     733.43 cm**-1
    20:     737.52 cm**-1
    21:     764.91 cm**-1
    22:     828.18 cm**-1
    23:     858.86 cm**-1
    24:     881.41 cm**-1
    25:     918.64 cm**-1
    26:    1023.41 cm**-1
    27:    1060.83 cm**-1
    28:    1094.17 cm**-1
    29:    1159.90 cm**-1
    30:    1166.95 cm**-1
    31:    1181.85 cm**-1
    32:    1199.73 cm**-1
    33:    1234.02 cm**-1
    34:    1299.65 cm**-1
    35:    1331.99 cm**-1
    36:    1383.34 cm**-1
    37:    1460.02 cm**-1
    38:    1482.37 cm**-1
    39:    1486.82 cm**-1
    40:    1497.12 cm**-1
    41:    1533.22 cm**-1
    42:    1620.68 cm**-1
    43:    1627.37 cm**-1
    44:    1656.44 cm**-1
    45:    2993.90 cm**-1
    46:    3068.32 cm**-1
    47:    3124.93 cm**-1
    48:    3149.18 cm**-1
    49:    3165.33 cm**-1
    50:    3179.65 cm**-1
    51:    3196.70 cm**-1
    52:    3525.87 cm**-1
    53:    3630.21 cm**-1

IR SPECTRUM
-----------

 Mode   freq       eps      Int      T**2         TX        TY        TZ
       cm**-1   L/(mol*cm) km/mol    a.u.
----------------------------------------------------------------------------
  6:    114.06   0.000688    3.48  0.001883  (-0.006264 -0.002628  0.042864)
  7:    182.22   0.000777    3.93  0.001331  ( 0.002956 -0.010874  0.034700)
  8:    246.41   0.000718    3.63  0.000910  (-0.027306  0.011591 -0.005452)
  9:    255.03   0.000346    1.75  0.000423  (-0.003104 -0.010506  0.017401)
 10:    313.57   0.000527    2.66  0.000525  (-0.004145 -0.015432  0.016412)
 11:    349.49   0.000055    0.28  0.000049  ( 0.005333  0.002756  0.003630)
 12:    384.42   0.004345   21.96  0.003527  (-0.056052 -0.019395 -0.002971)
 13:    459.87   0.002433   12.30  0.001651  (-0.005315  0.018374 -0.035851)
 14:    512.80   0.000290    1.47  0.000177  (-0.007992 -0.002201  0.010392)
 15:    520.13   0.000260    1.31  0.000156  (-0.012250 -0.001584 -0.001786)
 16:    572.78   0.001863    9.42  0.001015  ( 0.008730 -0.023065  0.020173)
 17:    601.24   0.000918    4.64  0.000476  (-0.017171  0.012955 -0.003715)
 18:    670.22   0.049986  252.61  0.023274  (-0.036399  0.129904 -0.071233)
 19:    733.43   0.002239   11.32  0.000953  ( 0.007695 -0.022992 -0.019105)
 20:    737.52   0.022107  111.72  0.009354  ( 0.007714 -0.031128  0.091245)
 21:    764.91   0.002207   11.15  0.000900  (-0.027626  0.011294  0.003120)
 22:    828.18   0.000369    1.86  0.000139  ( 0.002338  0.009215 -0.006967)
 23:    858.86   0.001325    6.70  0.000481  ( 0.014864 -0.008847  0.013500)
 24:    881.41   0.001451    7.33  0.000514  (-0.002869  0.006141 -0.021626)
 25:    918.64   0.000001    0.00  0.000000  (-0.000374  0.000111 -0.000182)
 26:   1023.41   0.013640   68.93  0.004159  ( 0.049464  0.041331  0.002055)
 27:   1060.83   0.004072   20.58  0.001198  ( 0.034594  0.001012 -0.000187)
 28:   1094.17   0.002689   13.59  0.000767  ( 0.009037  0.026170  0.000569)
 29:   1159.90   0.000162    0.82  0.000044  ( 0.003244  0.002440 -0.005217)
 30:   1166.95   0.002647   13.38  0.000708  ( 0.022486  0.014178  0.001111)
 31:   1181.85   0.000072    0.36  0.000019  (-0.000666 -0.004302  0.000013)
 32:   1199.73   0.005413   27.35  0.001408  ( 0.034184  0.015459  0.000602)
 33:   1234.02   0.037029  187.13  0.009364  ( 0.096664  0.004412  0.000762)
 34:   1299.65   0.013390   67.67  0.003215  (-0.038907  0.041248  0.000210)
 35:   1331.99   0.002638   13.33  0.000618  (-0.015549  0.019400 -0.000030)
 36:   1383.34   0.000950    4.80  0.000214  ( 0.014392 -0.002566  0.000773)
 37:   1460.02   0.000418    2.11  0.000089  (-0.008490  0.004018 -0.001042)
 38:   1482.37   0.001628    8.23  0.000343  (-0.001279  0.001026  0.018438)
 39:   1486.82   0.001759    8.89  0.000369  (-0.005901  0.018141 -0.002282)
 40:   1497.12   0.007254   36.66  0.001512  ( 0.038856  0.001369  0.000617)
 41:   1533.22   0.025292  127.82  0.005148  (-0.058442  0.041616 -0.000678)
 42:   1620.68   0.003646   18.43  0.000702  ( 0.023938  0.009085 -0.006818)
 43:   1627.37   0.001226    6.20  0.000235  ( 0.008070 -0.011050  0.006925)
 44:   1656.44   0.020760  104.91  0.003911  ( 0.001174 -0.059960 -0.017737)
 45:   2993.90   0.010926   55.22  0.001139  ( 0.026686  0.020644 -0.000738)
 46:   3068.32   0.006927   35.00  0.000704  ( 0.000203  0.000157  0.026541)
 47:   3124.93   0.003921   19.82  0.000392  (-0.017665  0.008916 -0.000157)
 48:   3149.18   0.002361   11.93  0.000234  (-0.002961 -0.015007 -0.000106)
 49:   3165.33   0.001604    8.11  0.000158  (-0.005748 -0.011184 -0.000090)
 50:   3179.65   0.004140   20.92  0.000406  (-0.019584  0.004778 -0.000109)
 51:   3196.70   0.001358    6.86  0.000133  ( 0.004193  0.010721  0.000093)
 52:   3525.87   0.002928   14.80  0.000259  ( 0.008201 -0.012582 -0.005796)
 53:   3630.21   0.003670   18.54  0.000315  (-0.017075 -0.004784  0.000990)

--------------------------
THERMOCHEMISTRY AT 298.15K
--------------------------

Temperature         ...   298.15 K
Pressure            ...     1.00 atm
Total Mass          ...   123.15 AMU
Quasi RRHO          ...     True
Cut-Off Frequency   ...     1.00 cm^-1

Throughout the following assumptions are being made:
  (1) The electronic state is orbitally nondegenerate
  (2) There are no thermally accessible electronically excited states
  (3) Hindered rotations indicated by low frequency modes are not
      treated as such but are treated as vibrations and this may
      cause some error
  (4) All equations used are the standard statistical mechanics
      equations for an ideal gas
  (5) All vibrations are strictly harmonic

freq.     114.06  E(vib)   ...       0.44
freq.     182.22  E(vib)   ...       0.37
freq.     246.41  E(vib)   ...       0.31
freq.     255.03  E(vib)   ...       0.30
freq.     313.57  E(vib)   ...       0.25
freq.     349.49  E(vib)   ...       0.23
freq.     384.42  E(vib)   ...       0.20
freq.     459.87  E(vib)   ...       0.16
freq.     512.80  E(vib)   ...       0.13
freq.     520.13  E(vib)   ...       0.13
freq.     572.78  E(vib)   ...       0.11
freq.     601.24  E(vib)   ...       0.10
freq.     670.22  E(vib)   ...       0.08
freq.     733.43  E(vib)   ...       0.06
freq.     737.52  E(vib)   ...       0.06
freq.     764.91  E(vib)   ...       0.06
freq.     828.18  E(vib)   ...       0.04
freq.     858.86  E(vib)   ...       0.04
freq.     881.41  E(vib)   ...       0.04
freq.     918.64  E(vib)   ...       0.03
freq.    1023.41  E(vib)   ...       0.02
freq.    1060.83  E(vib)   ...       0.02
freq.    1094.17  E(vib)   ...       0.02
freq.    1159.90  E(vib)   ...       0.01
freq.    1166.95  E(vib)   ...       0.01
freq.    1181.85  E(vib)   ...       0.01
freq.    1199.73  E(vib)   ...       0.01
freq.    1234.02  E(vib)   ...       0.01
freq.    1299.65  E(vib)   ...       0.01
freq.    1331.99  E(vib)   ...       0.01
freq.    1383.34  E(vib)   ...       0.00
freq.    1460.02  E(vib)   ...       0.00
freq.    1482.37  E(vib)   ...       0.00
freq.    1486.82  E(vib)   ...       0.00
freq.    1497.12  E(vib)   ...       0.00
freq.    1533.22  E(vib)   ...       0.00
freq.    1620.68  E(vib)   ...       0.00
freq.    1627.37  E(vib)   ...       0.00
freq.    1656.44  E(vib)   ...       0.00
freq.    2993.90  E(vib)   ...       0.00
freq.    3068.32  E(vib)   ...       0.00
freq.    3124.93  E(vib)   ...       0.00
freq.    3149.18  E(vib)   ...       0.00
freq.    3165.33  E(vib)   ...       0.00
freq.    3179.65  E(vib)   ...       0.00
freq.    3196.70  E(vib)   ...       0.00
freq.    3525.87  E(vib)   ...       0.00
freq.    3630.21  E(vib)   ...       0.00

------------
INNER ENERGY
------------

The inner energy is: U= E(el) + E(ZPE) + E(vib) + E(rot) + E(trans)
    E(el)   - is the total energy from the electronic structure calculation
              = E(kin-el) + E(nuc-el) + E(el-el) + E(nuc-nuc)
    E(ZPE)  - the the zero temperature vibrational energy from the frequency calculation
    E(vib)  - the the finite temperature correction to E(ZPE) due to population
              of excited vibrational states
    E(rot)  - is the rotational thermal energy
    E(trans)- is the translational thermal energy

Summary of contributions to the inner energy U:
Electronic energy                ...   -402.06064798 Eh
Zero point energy                ...      0.14908131 Eh      93.55 kcal/mol
Thermal vibrational correction   ...      0.00526752 Eh       3.31 kcal/mol
Thermal rotational correction    ...      0.00141627 Eh       0.89 kcal/mol
Thermal translational correction ...      0.00141627 Eh       0.89 kcal/mol
-----------------------------------------------------------------------
Total thermal energy                   -401.90346660 Eh

Summary of corrections to the electronic energy:
(perhaps to be used in another calculation)
Total thermal correction                  0.00810007 Eh       5.08 kcal/mol
Non-thermal (ZPE) correction              0.14908131 Eh      93.55 kcal/mol
-----------------------------------------------------------------------
Total correction                          0.15718138 Eh      98.63 kcal/mol

--------
ENTHALPY
--------

The enthalpy is H = U + kB*T
                kB is Boltzmann's constant
Total thermal energy              ...   -401.90346660 Eh
Thermal Enthalpy correction       ...      0.00094421 Eh       0.59 kcal/mol
-----------------------------------------------------------------------
Total Enthalpy                    ...   -401.90252240 Eh

Note: Only C1 symmetry has been detected, increase convergence thresholds
      if your molecule has a higher symmetry. Symmetry factor of 1.0 is
      used for the rotational entropy correction.

Note: Rotational entropy computed according to Herzberg
Infrared and Raman Spectra, Chapter V,1, Van Nostrand Reinhold, 1945
Point Group:  C1, Symmetry Number:   1
Rotational constants in cm-1:     0.085160     0.051949     0.032500

Vibrational entropy computed according to the QRRHO of S. Grimme
Chem.Eur.J. 2012 18 9955 using a reference frequency of 100.0 cm-1

-------
ENTROPY
-------

The entropy contributions are T*S = T*(S(el)+S(vib)+S(rot)+S(trans))
     S(el)   - electronic entropy
     S(vib)  - vibrational entropy
     S(rot)  - rotational entropy
     S(trans)- translational entropy
The entropies will be listed as multiplied by the temperature to get
units of energy

Electronic entropy                ...      0.00000000 Eh      0.00 kcal/mol
Vibrational entropy               ...      0.00837238 Eh      5.25 kcal/mol
Rotational entropy                ...      0.01368750 Eh      8.59 kcal/mol
Translational entropy             ...      0.01916621 Eh     12.03 kcal/mol
-----------------------------------------------------------------------
Final entropy term                ...      0.04122610 Eh     25.87 kcal/mol

In case the symmetry of your molecule has not been determined correctly
or in case you have a reason to use a different symmetry number we print
out the resulting rotational entropy values for sn=1,12:

 non-linear molecules -----------------------------------
|  sn= 1 | S(rot)=       0.01368750 Eh      8.59 kcal/mol|
|  sn= 2 | S(rot)=       0.01303305 Eh      8.18 kcal/mol|
|  sn= 3 | S(rot)=       0.01265021 Eh      7.94 kcal/mol|
|  sn= 4 | S(rot)=       0.01237859 Eh      7.77 kcal/mol|
|  sn= 5 | S(rot)=       0.01216790 Eh      7.64 kcal/mol|
|  sn= 6 | S(rot)=       0.01199576 Eh      7.53 kcal/mol|
|  sn= 7 | S(rot)=       0.01185021 Eh      7.44 kcal/mol|
|  sn= 8 | S(rot)=       0.01172413 Eh      7.36 kcal/mol|
|  sn= 9 | S(rot)=       0.01161292 Eh      7.29 kcal/mol|
|  sn=10 | S(rot)=       0.01151344 Eh      7.22 kcal/mol|
|  sn=11 | S(rot)=       0.01142345 Eh      7.17 kcal/mol|
|  sn=12 | S(rot)=       0.01134130 Eh      7.12 kcal/mol|

                             ****ORCA TERMINATED NORMALLY****
TOTAL RUN TIME: 0 days 0 hours 24 minutes 46 seconds 310 msec
