                         Program Version 6.0.0  -   RELEASE  -
|  1> ! r2SCAN-3c DEF2-TZVP FREQ
|  2> * xyzfile 0 1 vacuum_censo.xyz
|  3>
|  4>                          ****END OF INPUT****

CARTESIAN COORDINATES (ANGSTROEM)
---------------------------------
  C     -2.756367   -0.769890    0.005894
  O     -1.789988    0.272891    0.003062
  C     -0.466574   -0.095128    0.008033
  C     -0.003334   -1.404328    0.006872
  C      1.369893   -1.662088    0.000930
  C      2.269246   -0.606107   -0.006109
  C      1.804680    0.706950   -0.003364
  C      0.439153    0.987558    0.005770
  N     -0.050298    2.289618    0.075804
  H     -2.665711   -1.392544    0.905546
  H     -2.663455   -1.402637   -0.886742
  H     -3.730226   -0.278025    0.002348
  H     -0.700152   -2.233670    0.007229
  H      1.721176   -2.687932    0.000513
  H      3.337341   -0.795312   -0.012554
  H      2.509319    1.534235    0.000260
  H      0.561074    2.986984   -0.319296
  H     -1.003599    2.387285   -0.239087

 Total Charge           Charge          ....    0
 Multiplicity           Mult            ....    1
 Number of Electrons    NEL             ....   66
 Basis Dimension        Dim             ....  333

ORBITAL ENERGIES
----------------

  NO   OCC          E(Eh)            E(eV)
   0   2.0000     -18.987753      -516.6830
   1   2.0000     -14.161364      -385.3503
   2   2.0000     -10.088068      -274.5103
   3   2.0000     -10.084459      -274.4121
   4   2.0000     -10.067022      -273.9376
   5   2.0000     -10.027501      -272.8622
   6   2.0000     -10.023339      -272.7489
   7   2.0000     -10.021652      -272.7030
   8   2.0000     -10.020386      -272.6686
   9   2.0000      -1.029942       -28.0262
  10   2.0000      -0.880047       -23.9473
  11   2.0000      -0.797470       -21.7003
  12   2.0000      -0.714639       -19.4463
  13   2.0000      -0.696144       -18.9430
  14   2.0000      -0.657611       -17.8945
  15   2.0000      -0.572937       -15.5904
  16   2.0000      -0.557483       -15.1699
  17   2.0000      -0.501864       -13.6564
  18   2.0000      -0.479830       -13.0568
  19   2.0000      -0.464821       -12.6484
  20   2.0000      -0.436664       -11.8822
  21   2.0000      -0.423327       -11.5193
  22   2.0000      -0.413018       -11.2388
  23   2.0000      -0.397179       -10.8078
  24   2.0000      -0.377346       -10.2681
  25   2.0000      -0.360520        -9.8102
  26   2.0000      -0.340576        -9.2675
  27   2.0000      -0.316714        -8.6182
  28   2.0000      -0.301288        -8.1985
  29   2.0000      -0.292554        -7.9608
  30   2.0000      -0.282732        -7.6935
  31   2.0000      -0.211808        -5.7636
  32   2.0000      -0.174238        -4.7412
  33   0.0000      -0.017868        -0.4862
  34   0.0000      -0.005049        -0.1374
  35   0.0000       0.041713         1.1351
  36   0.0000       0.053948         1.4680
  37   0.0000       0.065620         1.7856

MULLIKEN ATOMIC CHARGES
-----------------------
   0 C :   -0.169794
   1 O :   -0.317844
   2 C :    0.238473
   3 C :   -0.209711
   4 C :   -0.163306
   5 C :   -0.108278
   6 C :   -0.241472
   7 C :    0.212186
   8 N :   -0.443681
   9 H :    0.113910
  10 H :    0.111834
  11 H :    0.121928
  12 H :    0.102270
  13 H :    0.101623
  14 H :    0.099929
  15 H :    0.086010
  16 H :    0.225824
  17 H :    0.240100
Sum of atomic charges:   -0.0000000

LOEWDIN ATOMIC CHARGES
----------------------
   0 C :   -0.321637
   1 O :    0.216259
   2 C :   -0.231152
   3 C :   -0.151558
   4 C :   -0.169036
   5 C :   -0.163595
   6 C :   -0.139694
   7 C :   -0.223721
   8 N :   -0.039408
   9 H :    0.108162
  10 H :    0.107119
  11 H :    0.112773
  12 H :    0.145718
  13 H :    0.140039
  14 H :    0.141083
  15 H :    0.141435
  16 H :    0.162117
  17 H :    0.165097

  Mayer bond orders larger than 0.100000
B(  0-C ,  1-O ) :   0.9454 B(  0-C ,  9-H ) :   0.9671 B(  0-C , 10-H ) :   0.9676
B(  0-C , 11-H ) :   0.9762 B(  1-O ,  2-C ) :   1.0446 B(  2-C ,  3-C ) :   1.3631
B(  2-C ,  7-C ) :   1.3200 B(  3-C ,  4-C ) :   1.3492 B(  3-C , 12-H ) :   0.9744
B(  4-C ,  5-C ) :   1.4330 B(  4-C , 13-H ) :   0.9710 B(  5-C ,  6-C ) :   1.3988
B(  5-C , 14-H ) :   0.9751 B(  6-C ,  7-C ) :   1.3839 B(  6-C , 15-H ) :   0.9834
B(  7-C ,  8-N ) :   1.0780 B(  8-N , 16-H ) :   0.9214 B(  8-N , 17-H ) :   0.9083

Dispersion correction           -0.005813646
FINAL SINGLE POINT ENERGY      -402.060959157533

DIPOLE MOMENT
-------------

Method             : SCF
Type of density    : Electron Density
Multiplicity       :   1
Irrep              :   0
Energy             :  -402.0654062214849205 Eh
Relativity type    :
Basis              : AO
                                X                 Y                 Z
Electronic contribution:      1.948217069       1.876317271       0.188147638
Nuclear contribution   :     -2.492058942      -1.775606744      -0.561511880
                        -----------------------------------------
Total Dipole Moment    :     -0.543841873       0.100710527      -0.373364242
                        -----------------------------------------
Magnitude (a.u.)       :      0.667313607
Magnitude (Debye)      :      1.696176392

VIBRATIONAL FREQUENCIES
-----------------------

Scaling factor for frequencies =  1.000000000  (already applied!)

     0:       0.00 cm**-1
     1:       0.00 cm**-1
     2:       0.00 cm**-1
     3:       0.00 cm**-1
     4:       0.00 cm**-1
     5:       0.00 cm**-1
     6:      96.22 cm**-1
     7:     179.57 cm**-1
     8:     244.69 cm**-1
     9:     260.66 cm**-1
    10:     313.39 cm**-1
    11:     350.46 cm**-1
    12:     361.63 cm**-1
    13:     455.98 cm**-1
    14:     513.40 cm**-1
    15:     519.82 cm**-1
    16:     570.24 cm**-1
    17:     600.99 cm**-1
    18:     629.08 cm**-1
    19:     732.00 cm**-1
    20:     734.31 cm**-1
    21:     768.81 cm**-1
    22:     828.37 cm**-1
    23:     858.82 cm**-1
    24:     881.15 cm**-1
    25:     918.85 cm**-1
    26:    1046.25 cm**-1
    27:    1067.30 cm**-1
    28:    1093.33 cm**-1
    29:    1166.29 cm**-1
    30:    1169.99 cm**-1
    31:    1182.90 cm**-1
    32:    1207.42 cm**-1
    33:    1243.38 cm**-1
    34:    1300.20 cm**-1
    35:    1332.65 cm**-1
    36:    1390.41 cm**-1
    37:    1467.95 cm**-1
    38:    1483.24 cm**-1
    39:    1489.94 cm**-1
    40:    1500.94 cm**-1
    41:    1536.90 cm**-1
    42:    1625.28 cm**-1
    43:    1630.92 cm**-1
    44:    1653.84 cm**-1
    45:    2978.60 cm**-1
    46:    3046.65 cm**-1
    47:    3117.61 cm**-1
    48:    3150.56 cm**-1
    49:    3169.00 cm**-1
    50:    3183.28 cm**-1
    51:    3198.28 cm**-1
    52:    3551.57 cm**-1
    53:    3659.00 cm**-1

IR SPECTRUM
-----------

 Mode   freq       eps      Int      T**2         TX        TY        TZ
       cm**-1   L/(mol*cm) km/mol    a.u.
----------------------------------------------------------------------------
  6:     96.22   0.000779    3.94  0.002526  (-0.007059 -0.005021 -0.049505)
  7:    179.57   0.000728    3.68  0.001266  ( 0.003750 -0.012811 -0.032978)
  8:    244.69   0.000658    3.32  0.000839  (-0.026595  0.010942  0.003421)
  9:    260.66   0.000507    2.56  0.000607  (-0.002089 -0.014691 -0.019670)
 10:    313.39   0.000786    3.97  0.000783  ( 0.006718  0.020628  0.017672)
 11:    350.46   0.000382    1.93  0.000340  ( 0.014316  0.011278 -0.002805)
 12:    361.63   0.004373   22.10  0.003774  (-0.049352 -0.036510 -0.002236)
 13:    455.98   0.002834   14.32  0.001939  (-0.006516  0.019853  0.038765)
 14:    513.40   0.000409    2.07  0.000248  (-0.006670 -0.005992 -0.012965)
 15:    519.82   0.000355    1.80  0.000213  (-0.013405  0.002509  0.005231)
 16:    570.24   0.004307   21.77  0.002357  ( 0.011641 -0.036760 -0.029500)
 17:    600.99   0.001550    7.84  0.000805  (-0.018748  0.019642  0.008232)
 18:    629.08   0.050552  255.47  0.025077  (-0.035232  0.130853  0.081935)
 19:    732.00   0.000965    4.88  0.000411  ( 0.005313 -0.018540 -0.006275)
 20:    734.31   0.018208   92.01  0.007738  ( 0.001650 -0.012324 -0.087082)
 21:    768.81   0.002401   12.14  0.000975  (-0.028601  0.012304 -0.002312)
 22:    828.37   0.000200    1.01  0.000075  ( 0.001600  0.006384  0.005671)
 23:    858.82   0.000855    4.32  0.000311  (-0.014282  0.001451  0.010219)
 24:    881.15   0.001266    6.40  0.000448  (-0.002504  0.003451  0.020738)
 25:    918.85   0.000001    0.01  0.000000  (-0.000156  0.000207 -0.000545)
 26:   1046.25   0.006566   33.18  0.001959  ( 0.026768  0.035207 -0.001593)
 27:   1067.30   0.007574   38.28  0.002215  (-0.044730 -0.014604  0.000707)
 28:   1093.33   0.003671   18.55  0.001048  ( 0.010533  0.030591 -0.001083)
 29:   1166.29   0.003200   16.17  0.000856  (-0.023687 -0.017150 -0.000972)
 30:   1169.99   0.000208    1.05  0.000056  (-0.004446 -0.002992  0.005176)
 31:   1182.90   0.000061    0.31  0.000016  ( 0.000308 -0.003983 -0.000038)
 32:   1207.42   0.004724   23.87  0.001221  ( 0.030643  0.016789 -0.000139)
 33:   1243.38   0.037934  191.70  0.009521  ( 0.097026  0.010323 -0.000124)
 34:   1300.20   0.015369   77.67  0.003689  (-0.044733  0.041081  0.000119)
 35:   1332.65   0.002950   14.91  0.000691  (-0.018377  0.018787 -0.000202)
 36:   1390.41   0.000968    4.89  0.000217  ( 0.014577 -0.002164 -0.000040)
 37:   1467.95   0.000532    2.69  0.000113  (-0.010062  0.003388  0.000678)
 38:   1483.24   0.001640    8.29  0.000345  ( 0.000051  0.000328 -0.018574)
 39:   1489.94   0.001890    9.55  0.000396  (-0.006877  0.018629  0.001273)
 40:   1500.94   0.007296   36.87  0.001517  (-0.038922 -0.001380  0.000147)
 41:   1536.90   0.026129  132.04  0.005305  (-0.059694  0.041729  0.000826)
 42:   1625.28   0.002449   12.38  0.000470  ( 0.018054  0.003954  0.011340)
 43:   1630.92   0.001749    8.84  0.000335  ( 0.017231  0.003795 -0.004840)
 44:   1653.84   0.022034  111.35  0.004158  ( 0.003485 -0.062635  0.014909)
 45:   2978.60   0.011568   58.46  0.001212  ( 0.027272  0.021619  0.000925)
 46:   3046.65   0.007471   37.76  0.000765  ( 0.000699 -0.000023 -0.027654)
 47:   3117.61   0.004288   21.67  0.000429  (-0.018861  0.008569 -0.000132)
 48:   3150.56   0.002488   12.57  0.000246  (-0.003523 -0.015297  0.000063)
 49:   3169.00   0.001347    6.81  0.000133  (-0.005513 -0.010113  0.000082)
 50:   3183.28   0.004218   21.32  0.000413  (-0.019875  0.004300  0.000057)
 51:   3198.28   0.001408    7.11  0.000137  ( 0.003099  0.011303 -0.000078)
 52:   3551.57   0.003650   18.44  0.000321  ( 0.010328 -0.013406  0.005857)
 53:   3659.00   0.004288   21.67  0.000366  (-0.017941 -0.006586  0.000636)

--------------------------
THERMOCHEMISTRY AT 298.15K
--------------------------

Temperature         ...   298.15 K
Pressure            ...     1.00 atm
Total Mass          ...   123.15 AMU
Quasi RRHO          ...     True
Cut-Off Frequency   ...     1.00 cm^-1

Throughout the following assumptions are being made:
  (1) The electronic state is orbitally nondegenerate
  (2) There are no thermally accessible electronically excited states
  (3) Hindered rotations indicated by low frequency modes are not
      treated as such but are treated as vibrations and this may
      cause some error
  (4) All equations used are the standard statistical mechanics
      equations for an ideal gas
  (5) All vibrations are strictly harmonic

freq.      96.22  E(vib)   ...       0.47
freq.     179.57  E(vib)   ...       0.37
freq.     244.69  E(vib)   ...       0.31
freq.     260.66  E(vib)   ...       0.30
freq.     313.39  E(vib)   ...       0.25
freq.     350.46  E(vib)   ...       0.23
freq.     361.63  E(vib)   ...       0.22
freq.     455.98  E(vib)   ...       0.16
freq.     513.40  E(vib)   ...       0.13
freq.     519.82  E(vib)   ...       0.13
freq.     570.24  E(vib)   ...       0.11
freq.     600.99  E(vib)   ...       0.10
freq.     629.08  E(vib)   ...       0.09
freq.     732.00  E(vib)   ...       0.06
freq.     734.31  E(vib)   ...       0.06
freq.     768.81  E(vib)   ...       0.06
freq.     828.37  E(vib)   ...       0.04
freq.     858.82  E(vib)   ...       0.04
freq.     881.15  E(vib)   ...       0.04
freq.     918.85  E(vib)   ...       0.03
freq.    1046.25  E(vib)   ...       0.02
freq.    1067.30  E(vib)   ...       0.02
freq.    1093.33  E(vib)   ...       0.02
freq.    1166.29  E(vib)   ...       0.01
freq.    1169.99  E(vib)   ...       0.01
freq.    1182.90  E(vib)   ...       0.01
freq.    1207.42  E(vib)   ...       0.01
freq.    1243.38  E(vib)   ...       0.01
freq.    1300.20  E(vib)   ...       0.01
freq.    1332.65  E(vib)   ...       0.01
freq.    1390.41  E(vib)   ...       0.00
freq.    1467.95  E(vib)   ...       0.00
freq.    1483.24  E(vib)   ...       0.00
freq.    1489.94  E(vib)   ...       0.00
freq.    1500.94  E(vib)   ...       0.00
freq.    1536.90  E(vib)   ...       0.00
freq.    1625.28  E(vib)   ...       0.00
freq.    1630.92  E(vib)   ...       0.00
freq.    1653.84  E(vib)   ...       0.00
freq.    2978.60  E(vib)   ...       0.00
freq.    3046.65  E(vib)   ...       0.00
freq.    3117.61  E(vib)   ...       0.00
freq.    3150.56  E(vib)   ...       0.00
freq.    3169.00  E(vib)   ...       0.00
freq.    3183.28  E(vib)   ...       0.00
freq.    3198.28  E(vib)   ...       0.00
freq.    3551.57  E(vib)   ...       0.00
freq.    3659.00  E(vib)   ...       0.00

------------
INNER ENERGY
------------

The inner energy is: U= E(el) + E(ZPE) + E(vib) + E(rot) + E(trans)
    E(el)   - is the total energy from the electronic structure calculation
              = E(kin-el) + E(nuc-el) + E(el-el) + E(nuc-nuc)
    E(ZPE)  - the the zero temperature vibrational energy from the frequency calculation
    E(vib)  - the the finite temperature correction to E(ZPE) due to population
              of excited vibrational states
    E(rot)  - is the rotational thermal energy
    E(trans)- is the translational thermal energy

Summary of contributions to the inner energy U:
Electronic energy                ...   -402.06095916 Eh
Zero point energy                ...      0.14913368 Eh      93.58 kcal/mol
Thermal vibrational correction   ...      0.00534163 Eh       3.35 kcal/mol
Thermal rotational correction    ...      0.00141627 Eh       0.89 kcal/mol
Thermal translational correction ...      0.00141627 Eh       0.89 kcal/mol
-----------------------------------------------------------------------
Total thermal energy                   -401.90365131 Eh

Summary of corrections to the electronic energy:
(perhaps to be used in another calculation)
Total thermal correction                  0.00817417 Eh       5.13 kcal/mol
Non-thermal (ZPE) correction              0.14913368 Eh      93.58 kcal/mol
-----------------------------------------------------------------------
Total correction                          0.15730785 Eh      98.71 kcal/mol

--------
ENTHALPY
--------

The enthalpy is H = U + kB*T
                kB is Boltzmann's constant
Total thermal energy              ...   -401.90365131 Eh
Thermal Enthalpy correction       ...      0.00094421 Eh       0.59 kcal/mol
-----------------------------------------------------------------------
Total Enthalpy                    ...   -401.90270710 Eh

Note: Only C1 symmetry has been detected, increase convergence thresholds
      if your molecule has a higher symmetry. Symmetry factor of 1.0 is
      used for the rotational entropy correction.

Note: Rotational entropy computed according to Herzberg
Infrared and Raman Spectra, Chapter V,1, Van Nostrand Reinhold, 1945
Point Group:  C1, Symmetry Number:   1
Rotational constants in cm-1:     0.085670     0.052098     0.032629

Vibrational entropy computed according to the QRRHO of S. Grimme
Chem.Eur.J. 2012 18 9955 using a reference frequency of 100.0 cm-1

-------
ENTROPY
-------

The entropy contributions are T*S = T*(S(el)+S(vib)+S(rot)+S(trans))
     S(el)   - electronic entropy
     S(vib)  - vibrational entropy
     S(rot)  - rotational entropy
     S(trans)- translational entropy
The entropies will be listed as multiplied by the temperature to get
units of energy

Electronic entropy                ...      0.00000000 Eh      0.00 kcal/mol
Vibrational entropy               ...      0.00852209 Eh      5.35 kcal/mol
Rotational entropy                ...      0.01368146 Eh      8.59 kcal/mol
Translational entropy             ...      0.01916621 Eh     12.03 kcal/mol
-----------------------------------------------------------------------
Final entropy term                ...      0.04136977 Eh     25.96 kcal/mol

In case the symmetry of your molecule has not been determined correctly
or in case you have a reason to use a different symmetry number we print
out the resulting rotational entropy values for sn=1,12:

 non-linear molecules -----------------------------------
|  sn= 1 | S(rot)=       0.01368146 Eh      8.59 kcal/mol|
|  sn= 2 | S(rot)=       0.01302701 Eh      8.17 kcal/mol|
|  sn= 3 | S(rot)=       0.01264417 Eh      7.93 kcal/mol|
|  sn= 4 | S(rot)=       0.01237255 Eh      7.76 kcal/mol|
|  sn= 5 | S(rot)=       0.01216186 Eh      7.63 kcal/mol|
|  sn= 6 | S(rot)=       0.01198972 Eh      7.52 kcal/mol|
|  sn= 7 | S(rot)=       0.01184417 Eh      7.43 kcal/mol|
|  sn= 8 | S(rot)=       0.01171809 Eh      7.35 kcal/mol|
|  sn= 9 | S(rot)=       0.01160688 Eh      7.28 kcal/mol|
|  sn=10 | S(rot)=       0.01150740 Eh      7.22 kcal/mol|
|  sn=11 | S(rot)=       0.01141741 Eh      7.16 kcal/mol|
|  sn=12 | S(rot)=       0.01133526 Eh      7.11 kcal/mol|

                             ****ORCA TERMINATED NORMALLY****
TOTAL RUN TIME: 0 days 0 hours 24 minutes 35 seconds 369 msec
