                         Program Version 6.0.1  -  RELEASE   -
|  1> ! pbe def2-sv(p) def2/J RI DEFGRID1 loosescf d4 GCP(DFT/SV(P)) printgap
|  2> %output
|  3>     printlevel normal
|  4> end
|  5> * xyz 0 1
|  6> C -2.8092425279 0.799987959 0.6907863156
|  7> O -2.101482988 0.5113335663 -0.4927510909
|  8> C -0.8316212394 -0.000488327 -0.269519148
|  9> C -0.6386275897 -1.3743713012 -0.204037026
| 10> C 0.6417043208 -1.8681087837 -0.0232557437
| 11> C 1.7184385875 -1.0125750916 0.0962361192
| 12> C 1.5318609052 0.3690029461 0.0334006684
| 13> C 0.2422771589 0.8658037135 -0.1478911615
| 14> N 2.5924217075 1.2325335413 0.2205287339
| 15> H -2.2863759416 1.5487449088 1.2975180657
| 16> H -2.9581838399 -0.1013780056 1.2969190522
| 17> H -3.7761324458 1.1934443809 0.3816575953
| 18> H -1.4835934472 -2.0368969583 -0.3074032929
| 19> H 0.8018198422 -2.9353304948 0.0226278859
| 20> H 2.7149291965 -1.4059486409 0.236992259
| 21> H 0.074897753 1.9316833725 -0.2062146464
| 22> H 3.5104357019 0.8517281952 0.0577714326
| 23> H 2.464923409 2.172979974 -0.1166390833
| 24> *
| 25>
| 26>                          ****END OF INPUT****

CARTESIAN COORDINATES (ANGSTROEM)
---------------------------------
  C     -2.809243    0.799988    0.690786
  O     -2.101483    0.511334   -0.492751
  C     -0.831621   -0.000488   -0.269519
  C     -0.638628   -1.374371   -0.204037
  C      0.641704   -1.868109   -0.023256
  C      1.718439   -1.012575    0.096236
  C      1.531861    0.369003    0.033401
  C      0.242277    0.865804   -0.147891
  N      2.592422    1.232534    0.220529
  H     -2.286376    1.548745    1.297518
  H     -2.958184   -0.101378    1.296919
  H     -3.776132    1.193444    0.381658
  H     -1.483593   -2.036897   -0.307403
  H      0.801820   -2.935330    0.022628
  H      2.714929   -1.405949    0.236992
  H      0.074898    1.931683   -0.206215
  H      3.510436    0.851728    0.057771
  H      2.464923    2.172980   -0.116639

 Total Charge           Charge          ....    0
 Multiplicity           Mult            ....    1
 Number of Electrons    NEL             ....   66
 Basis Dimension        Dim             ....  144

ORBITAL ENERGIES
----------------

  NO   OCC          E(Eh)            E(eV)
   0   2.0000     -18.756000      -510.3767
   1   2.0000     -13.995955      -380.8493
   2   2.0000      -9.933917      -270.3156
   3   2.0000      -9.930056      -270.2106
   4   2.0000      -9.925765      -270.0938
   5   2.0000      -9.886811      -269.0338
   6   2.0000      -9.879566      -268.8367
   7   2.0000      -9.877385      -268.7773
   8   2.0000      -9.872332      -268.6398
   9   2.0000      -0.941888       -25.6301
  10   2.0000      -0.836155       -22.7529
  11   2.0000      -0.751612       -20.4524
  12   2.0000      -0.666920       -18.1478
  13   2.0000      -0.650429       -17.6991
  14   2.0000      -0.608108       -16.5475
  15   2.0000      -0.544159       -14.8073
  16   2.0000      -0.530501       -14.4357
  17   2.0000      -0.476183       -12.9576
  18   2.0000      -0.468288       -12.7428
  19   2.0000      -0.429592       -11.6898
  20   2.0000      -0.413080       -11.2405
  21   2.0000      -0.403856       -10.9895
  22   2.0000      -0.401824       -10.9342
  23   2.0000      -0.374356       -10.1868
  24   2.0000      -0.369438       -10.0529
  25   2.0000      -0.339561        -9.2399
  26   2.0000      -0.322651        -8.7798
  27   2.0000      -0.310792        -8.4571
  28   2.0000      -0.291448        -7.9307
  29   2.0000      -0.263139        -7.1604
  30   2.0000      -0.213618        -5.8128
  31   2.0000      -0.209058        -5.6888
  32   2.0000      -0.173094        -4.7101
  33   0.0000      -0.023533        -0.6404
  34   0.0000      -0.008080        -0.2199
  35   0.0000       0.033060         0.8996
  36   0.0000       0.056046         1.5251
  37   0.0000       0.063123         1.7177

MULLIKEN ATOMIC CHARGES
-----------------------
   0 C :   -0.078445
   1 O :   -0.308588
   2 C :    0.207105
   3 C :   -0.116207
   4 C :   -0.064461
   5 C :   -0.121806
   6 C :    0.170592
   7 C :   -0.193755
   8 N :   -0.341238
   9 H :    0.088031
  10 H :    0.089521
  11 H :    0.113896
  12 H :    0.031383
  13 H :    0.048620
  14 H :    0.019440
  15 H :    0.010885
  16 H :    0.222352
  17 H :    0.222676
Sum of atomic charges:   -0.0000000

LOEWDIN ATOMIC CHARGES
----------------------
   0 C :   -0.197731
   1 O :   -0.133738
   2 C :    0.035699
   3 C :   -0.174213
   4 C :   -0.112822
   5 C :   -0.171964
   6 C :   -0.003327
   7 C :   -0.178235
   8 N :   -0.315528
   9 H :    0.098480
  10 H :    0.099873
  11 H :    0.114559
  12 H :    0.125220
  13 H :    0.122973
  14 H :    0.117625
  15 H :    0.122923
  16 H :    0.225060
  17 H :    0.225147

  Mayer bond orders larger than 0.100000
B(  0-C ,  1-O ) :   0.9952 B(  0-C ,  9-H ) :   0.9429 B(  0-C , 10-H ) :   0.9430
B(  0-C , 11-H ) :   0.9623 B(  1-O ,  2-C ) :   1.0214 B(  2-C ,  3-C ) :   1.3810
B(  2-C ,  7-C ) :   1.3799 B(  3-C ,  4-C ) :   1.3226 B(  3-C , 12-H ) :   0.9660
B(  4-C ,  5-C ) :   1.3830 B(  4-C , 13-H ) :   0.9580 B(  5-C ,  6-C ) :   1.3299
B(  5-C , 14-H ) :   0.9635 B(  6-C ,  7-C ) :   1.2674 B(  6-C ,  8-N ) :   1.2279
B(  7-C , 15-H ) :   0.9624 B(  8-N , 16-H ) :   0.8835 B(  8-N , 17-H ) :   0.8837

Dispersion correction           -0.017665862
FINAL SINGLE POINT ENERGY      -401.245845619859

DIPOLE MOMENT
-------------

Method             : SCF
Type of density    : Electron Density
Multiplicity       :   1
Irrep              :   0
Energy             :  -401.3055693798648917 Eh
Relativity type    :
Basis              : AO
                                X                 Y                 Z
Electronic contribution:      1.549950238      -0.736444152      -2.292444002
Nuclear contribution   :     -0.896242446       1.157991797       2.492469427
                        -----------------------------------------
Total Dipole Moment    :      0.653707793       0.421547645       0.200025426
                        -----------------------------------------
Magnitude (a.u.)       :      0.803147848
Magnitude (Debye)      :      2.041439595

Rotational constants in cm-1:             0.103225             0.040553             0.030717
Rotational constants in MHz :          3094.613379          1215.751981           920.885440

                             ****ORCA TERMINATED NORMALLY****
TOTAL RUN TIME: 0 days 0 hours 0 minutes 30 seconds 536 msec
