                         Program Version 6.0.1  -  RELEASE   -
|  1> ! r2scan-3c def2/J RI DEFGRID2 scfconv6 printgap
|  2> %output
|  3>     printlevel normal
|  4> end
|  5> * xyz 0 1
|  6> C -2.8407046463 -0.5991401181 0.0535170298
|  7> O -1.4840744225 -0.9172323617 0.3557334456
|  8> C -0.5356488778 -0.0994730016 -0.1097979683
|  9> O -0.7310564367 0.8900527217 -0.7522005702
| 10> C 0.8236298232 -0.6436850742 0.2995876558
| 11> Cl 2.0820752281 0.5815953366 0.0687939612
| 12> H -2.8917299013 0.3566274326 -0.4702111955
| 13> H -3.3896925514 -0.5466215397 0.9928953414
| 14> H -3.2495574195 -1.3925489644 -0.5722794729
| 15> H 1.0691991356 -1.50520999 -0.3234353965
| 16> H 0.8079618844 -0.9425058202 1.3472611308
| 17> *
| 18>
| 19>                          ****END OF INPUT****

CARTESIAN COORDINATES (ANGSTROEM)
---------------------------------
  C     -2.840705   -0.599140    0.053517
  O     -1.484074   -0.917232    0.355733
  C     -0.535649   -0.099473   -0.109798
  O     -0.731056    0.890053   -0.752201
  C      0.823630   -0.643685    0.299588
  Cl     2.082075    0.581595    0.068794
  H     -2.891730    0.356627   -0.470211
  H     -3.389693   -0.546622    0.992895
  H     -3.249557   -1.392549   -0.572279
  H      1.069199   -1.505210   -0.323435
  H      0.807962   -0.942506    1.347261

 Total Charge           Charge          ....    0
 Multiplicity           Mult            ....    1
 Number of Electrons    NEL             ....   56
 Basis Dimension        Dim             ....  157

ORBITAL ENERGIES
----------------

  NO   OCC          E(Eh)            E(eV)
   0   2.0000    -101.211319     -2754.1000
   1   2.0000     -19.016552      -517.4667
   2   2.0000     -18.949933      -515.6539
   3   2.0000     -10.174951      -276.8745
   4   2.0000     -10.114031      -275.2168
   5   2.0000     -10.096402      -274.7371
   6   2.0000      -9.367181      -254.8940
   7   2.0000      -7.113990      -193.5815
   8   2.0000      -7.102949      -193.2811
   9   2.0000      -7.102879      -193.2792
  10   2.0000      -1.091544       -29.7024
  11   2.0000      -1.003370       -27.3031
  12   2.0000      -0.833298       -22.6752
  13   2.0000      -0.733132       -19.9495
  14   2.0000      -0.658275       -17.9126
  15   2.0000      -0.548298       -14.9200
  16   2.0000      -0.494631       -13.4596
  17   2.0000      -0.479938       -13.0598
  18   2.0000      -0.458581       -12.4786
  19   2.0000      -0.436595       -11.8803
  20   2.0000      -0.408389       -11.1128
  21   2.0000      -0.394407       -10.7323
  22   2.0000      -0.371591       -10.1115
  23   2.0000      -0.336290        -9.1509
  24   2.0000      -0.291209        -7.9242
  25   2.0000      -0.277012        -7.5379
  26   2.0000      -0.274054        -7.4574
  27   2.0000      -0.261284        -7.1099
  28   0.0000      -0.033427        -0.9096
  29   0.0000       0.001609         0.0438
  30   0.0000       0.066353         1.8056
  31   0.0000       0.084398         2.2966
  32   0.0000       0.112067         3.0495

MULLIKEN ATOMIC CHARGES
-----------------------
   0 C :   -0.302143
   1 O :   -0.195059
   2 C :    0.379893
   3 O :   -0.406415
   4 C :   -0.194922
   5 Cl:   -0.136636
   6 H :    0.191623
   7 H :    0.151199
   8 H :    0.150754
   9 H :    0.181539
  10 H :    0.180168
Sum of atomic charges:    0.0000000

LOEWDIN ATOMIC CHARGES
----------------------
   0 C :   -0.043432
   1 O :   -0.603487
   2 C :    0.334608
   3 O :   -0.412360
   4 C :   -0.264079
   5 Cl:    0.078784
   6 H :    0.195457
   7 H :    0.175325
   8 H :    0.174107
   9 H :    0.183081
  10 H :    0.181996

  Mayer bond orders larger than 0.100000
B(  0-C ,  1-O ) :   0.8395 B(  0-C ,  6-H ) :   0.9667 B(  0-C ,  7-H ) :   0.9642
B(  0-C ,  8-H ) :   0.9618 B(  1-O ,  2-C ) :   1.0449 B(  2-C ,  3-O ) :   1.8784
B(  2-C ,  4-C ) :   1.0090 B(  4-C ,  5-Cl) :   1.0465 B(  4-C ,  9-H ) :   0.9240
B(  4-C , 10-H ) :   0.9444

Dispersion correction           -0.002550587
FINAL SINGLE POINT ENERGY      -727.902148792431

DIPOLE MOMENT
-------------

Method             : SCF
Type of density    : Electron Density
Multiplicity       :   1
Irrep              :   0
Energy             :  -727.9101965689719691 Eh
Relativity type    :
Basis              : AO
                                X                 Y                 Z
Electronic contribution:      9.200838318       3.546756115      -0.415019037
Nuclear contribution   :    -10.007973205      -4.562105187       0.815792785
                        -----------------------------------------
Total Dipole Moment    :     -0.807134887      -1.015349072       0.400773749
                        -----------------------------------------
Magnitude (a.u.)       :      1.357578750
Magnitude (Debye)      :      3.450690951

Rotational constants in cm-1:             0.324808             0.046826             0.041812
Rotational constants in MHz :          9737.508933          1403.795750          1253.500179

                             ****ORCA TERMINATED NORMALLY****
TOTAL RUN TIME: 0 days 0 hours 0 minutes 13 seconds 814 msec
