                         Program Version 6.0.1  -  RELEASE   -
|  1> ! r2scan-3c def2/J RI DEFGRID2 scfconv6 printgap
|  2> %output
|  3>     printlevel normal
|  4> end
|  5> * xyz 0 1
|  6> C -4.0822787872 0.0002820048 1.54545e-05
|  7> C -3.3974744186 -0.9358857484 -0.7547776758
|  8> C -2.0122660032 -0.9299840868 -0.7502319681
|  9> C -1.2973492086 -5.1808e-06 3.82213e-05
| 10> C -2.012100264 0.9300784431 0.7503815045
| 11> C -3.3973046288 0.9362292202 0.7549119049
| 12> Cl -1.1425057626 2.081093547 1.6962672993
| 13> C 0.181976322 -2.27428e-05 -7.9243e-06
| 14> C 0.8989423366 -0.9298940916 0.7494268627
| 15> C 2.2841197774 -0.9407530644 0.7579063431
| 16> C 2.9641046146 4.55814e-05 -4.89325e-05
| 17> C 2.2840595733 0.9408154742 -0.7579922599
| 18> C 0.8988868276 0.9298789554 -0.7494663187
| 19> Cl 0.0382734588 2.0818779564 -1.6946509107
| 20> Cl 4.6837103225 2.92739e-05 -8.70676e-05
| 21> Cl 0.038438407 -2.0820583373 1.694479819
| 22> Cl -1.1429069237 -2.0812347512 -1.6960623783
| 23> H -5.161033048 0.0004472636 -3.75162e-05
| 24> H -3.9268217047 -1.6662568525 -1.3450673621
| 25> H -3.9265293116 1.6666439476 1.3452236452
| 26> H 2.8200059444 -1.6680896976 1.3453363164
| 27> H 2.8198845734 1.6681854953 -1.3454320541
| 28> *
| 29>
| 30>                          ****END OF INPUT****

CARTESIAN COORDINATES (ANGSTROEM)
---------------------------------
  C     -4.082279    0.000282    0.000015
  C     -3.397474   -0.935886   -0.754778
  C     -2.012266   -0.929984   -0.750232
  C     -1.297349   -0.000005    0.000038
  C     -2.012100    0.930078    0.750382
  C     -3.397305    0.936229    0.754912
  Cl    -1.142506    2.081094    1.696267
  C      0.181976   -0.000023   -0.000008
  C      0.898942   -0.929894    0.749427
  C      2.284120   -0.940753    0.757906
  C      2.964105    0.000046   -0.000049
  C      2.284060    0.940815   -0.757992
  C      0.898887    0.929879   -0.749466
  Cl     0.038273    2.081878   -1.694651
  Cl     4.683710    0.000029   -0.000087
  Cl     0.038438   -2.082058    1.694480
  Cl    -1.142907   -2.081235   -1.696062
  H     -5.161033    0.000447   -0.000038
  H     -3.926822   -1.666257   -1.345067
  H     -3.926529    1.666644    1.345224
  H      2.820006   -1.668090    1.345336
  H      2.819885    1.668185   -1.345432

 Total Charge           Charge          ....    0
 Multiplicity           Mult            ....    1
 Number of Electrons    NEL             ....  162
 Basis Dimension        Dim             ....  388

ORBITAL ENERGIES
----------------

  NO   OCC          E(Eh)            E(eV)
   0   2.0000    -101.236213     -2754.7774
   1   2.0000    -101.235552     -2754.7594
   2   2.0000    -101.235551     -2754.7594
   3   2.0000    -101.231904     -2754.6601
   4   2.0000    -101.231901     -2754.6601
   5   2.0000     -10.126170      -275.5471
   6   2.0000     -10.126169      -275.5471
   7   2.0000     -10.125578      -275.5310
   8   2.0000     -10.119516      -275.3660
   9   2.0000     -10.119515      -275.3660
  10   2.0000     -10.083694      -274.3913
  11   2.0000     -10.081998      -274.3451
  12   2.0000     -10.069331      -274.0004
  13   2.0000     -10.069325      -274.0003
  14   2.0000     -10.065085      -273.8849
  15   2.0000     -10.061758      -273.7944
  16   2.0000     -10.061721      -273.7933
  17   2.0000      -9.392333      -255.5784
  18   2.0000      -9.391543      -255.5569
  19   2.0000      -9.391542      -255.5568
  20   2.0000      -9.387898      -255.4577
  21   2.0000      -9.387896      -255.4576
  22   2.0000      -7.138626      -194.2519
  23   2.0000      -7.137904      -194.2322
  24   2.0000      -7.137903      -194.2322
  25   2.0000      -7.134181      -194.1309
  26   2.0000      -7.134178      -194.1309
  27   2.0000      -7.128575      -193.9784
  28   2.0000      -7.128018      -193.9632
  29   2.0000      -7.127814      -193.9577
  30   2.0000      -7.127814      -193.9577
  31   2.0000      -7.127144      -193.9395
  32   2.0000      -7.127144      -193.9394
  33   2.0000      -7.124192      -193.8591
  34   2.0000      -7.124190      -193.8591
  35   2.0000      -7.123558      -193.8419
  36   2.0000      -7.123556      -193.8418
  37   2.0000      -0.912869       -24.8404
  38   2.0000      -0.888637       -24.1811
  39   2.0000      -0.861388       -23.4396
  40   2.0000      -0.859913       -23.3994
  41   2.0000      -0.854424       -23.2501
  42   2.0000      -0.806112       -21.9354
  43   2.0000      -0.792258       -21.5584
  44   2.0000      -0.763806       -20.7842
  45   2.0000      -0.723832       -19.6965
  46   2.0000      -0.714531       -19.4434
  47   2.0000      -0.705374       -19.1942
  48   2.0000      -0.616835       -16.7849
  49   2.0000      -0.599032       -16.3005
  50   2.0000      -0.588287       -16.0081
  51   2.0000      -0.577857       -15.7243
  52   2.0000      -0.521827       -14.1996
  53   2.0000      -0.496180       -13.5018
  54   2.0000      -0.490246       -13.3403
  55   2.0000      -0.478347       -13.0165
  56   2.0000      -0.461325       -12.5533
  57   2.0000      -0.446298       -12.1444
  58   2.0000      -0.431366       -11.7381
  59   2.0000      -0.427318       -11.6279
  60   2.0000      -0.424834       -11.5603
  61   2.0000      -0.411187       -11.1890
  62   2.0000      -0.402268       -10.9463
  63   2.0000      -0.391017       -10.6401
  64   2.0000      -0.372470       -10.1354
  65   2.0000      -0.365714        -9.9516
  66   2.0000      -0.364382        -9.9153
  67   2.0000      -0.357002        -9.7145
  68   2.0000      -0.352029        -9.5792
  69   2.0000      -0.343329        -9.3425
  70   2.0000      -0.311334        -8.4718
  71   2.0000      -0.306435        -8.3385
  72   2.0000      -0.305793        -8.3211
  73   2.0000      -0.301088        -8.1930
  74   2.0000      -0.295251        -8.0342
  75   2.0000      -0.293195        -7.9782
  76   2.0000      -0.291317        -7.9271
  77   2.0000      -0.252638        -6.8746
  78   2.0000      -0.244768        -6.6605
  79   2.0000      -0.239980        -6.5302
  80   2.0000      -0.239170        -6.5081
  81   0.0000      -0.071678        -1.9505
  82   0.0000      -0.066989        -1.8229
  83   0.0000      -0.057535        -1.5656
  84   0.0000      -0.055825        -1.5191
  85   0.0000      -0.035852        -0.9756

MULLIKEN ATOMIC CHARGES
-----------------------
   0 C :   -0.086802
   1 C :   -0.232565
   2 C :    0.148918
   3 C :   -0.016379
   4 C :    0.148902
   5 C :   -0.232557
   6 Cl:   -0.106612
   7 C :    0.005252
   8 C :    0.189162
   9 C :   -0.359357
  10 C :    0.293962
  11 C :   -0.359345
  12 C :    0.189159
  13 Cl:   -0.094592
  14 Cl:   -0.117142
  15 Cl:   -0.094582
  16 Cl:   -0.106621
  17 H :    0.153916
  18 H :    0.163010
  19 H :    0.163006
  20 H :    0.175633
  21 H :    0.175634
Sum of atomic charges:   -0.0000000

LOEWDIN ATOMIC CHARGES
----------------------
   0 C :   -0.138797
   1 C :   -0.168407
   2 C :   -0.144131
   3 C :   -0.119458
   4 C :   -0.144130
   5 C :   -0.168408
   6 Cl:    0.176240
   7 C :   -0.121702
   8 C :   -0.139272
   9 C :   -0.180308
  10 C :   -0.156007
  11 C :   -0.180307
  12 C :   -0.139266
  13 Cl:    0.187650
  14 Cl:    0.156685
  15 Cl:    0.187659
  16 Cl:    0.176226
  17 H :    0.174997
  18 H :    0.180668
  19 H :    0.180664
  20 H :    0.189703
  21 H :    0.189703

  Mayer bond orders larger than 0.100000
B(  0-C ,  1-C ) :   1.3797 B(  0-C ,  5-C ) :   1.3797 B(  0-C , 17-H ) :   0.9504
B(  1-C ,  2-C ) :   1.3477 B(  1-C , 18-H ) :   0.9351 B(  2-C ,  3-C ) :   1.3579
B(  2-C ,  7-C ) :  -0.1208 B(  2-C , 16-Cl) :   1.0210 B(  3-C ,  4-C ) :   1.3579
B(  3-C ,  7-C ) :   0.7673 B(  3-C ,  8-C ) :  -0.1094 B(  3-C , 12-C ) :  -0.1094
B(  4-C ,  5-C ) :   1.3478 B(  4-C ,  6-Cl) :   1.0210 B(  4-C ,  7-C ) :  -0.1208
B(  5-C , 19-H ) :   0.9351 B(  7-C ,  8-C ) :   1.3592 B(  7-C , 12-C ) :   1.3592
B(  8-C ,  9-C ) :   1.3420 B(  8-C , 15-Cl) :   1.0211 B(  9-C , 10-C ) :   1.3556
B(  9-C , 20-H ) :   0.9201 B( 10-C , 11-C ) :   1.3556 B( 10-C , 14-Cl) :   0.9252
B( 11-C , 12-C ) :   1.3420 B( 11-C , 21-H ) :   0.9201 B( 12-C , 13-Cl) :   1.0211

Dispersion correction           -0.014706350
FINAL SINGLE POINT ENERGY     -2761.073897379497

DIPOLE MOMENT
-------------

Method             : SCF
Type of density    : Electron Density
Multiplicity       :   1
Irrep              :   0
Energy             : -2761.0698987714445138 Eh
Relativity type    :
Basis              : AO
                                X                 Y                 Z
Electronic contribution:      9.566779713      -0.001154477      -0.000070970
Nuclear contribution   :    -10.240556677       0.001264994       0.000093062
                        -----------------------------------------
Total Dipole Moment    :     -0.673776964       0.000110517       0.000022092
                        -----------------------------------------
Magnitude (a.u.)       :      0.673776973
Magnitude (Debye)      :      1.712604963

Rotational constants in cm-1:             0.014299             0.007461             0.006744
Rotational constants in MHz :           428.675384           223.681582           202.192903

                             ****ORCA TERMINATED NORMALLY****
TOTAL RUN TIME: 0 days 0 hours 1 minutes 1 seconds 885 msec
