                         Program Version 6.0.0  -   RELEASE  -
|  1> ! r2SCAN-3c DEF2-TZVP FREQ
|  2> * xyzfile 0 1 censo.xyz
|  3>
|  4>                          ****END OF INPUT****

CARTESIAN COORDINATES (ANGSTROEM)
---------------------------------
  C     -0.725101   -0.011226    0.000002
  O      0.710072    0.069882    0.000040
  H     -1.097786   -0.526907   -0.893959
  H     -1.105531    1.012835   -0.000131
  H     -1.097844   -0.526696    0.894060
  H      1.045004   -0.834881    0.000154

 Total Charge           Charge          ....    0
 Multiplicity           Mult            ....    1
 Number of Electrons    NEL             ....   18
 Basis Dimension        Dim             ....   86

ORBITAL ENERGIES
----------------

  NO   OCC          E(Eh)            E(eV)
   0   2.0000     -18.948311      -515.6098
   1   2.0000     -10.073084      -274.1026
   2   2.0000      -0.976191       -26.5635
   3   2.0000      -0.647867       -17.6294
   4   2.0000      -0.470489       -12.8027
   5   2.0000      -0.403869       -10.9898
   6   2.0000      -0.391144       -10.6436
   7   2.0000      -0.306001        -8.3267
   8   2.0000      -0.239548        -6.5184
   9   0.0000       0.037483         1.0200
  10   0.0000       0.084466         2.2984
  11   0.0000       0.128011         3.4834
  12   0.0000       0.133548         3.6340
  13   0.0000       0.144025         3.9191

MULLIKEN ATOMIC CHARGES
-----------------------
   0 C :   -0.117376
   1 O :   -0.475543
   2 H :    0.091047
   3 H :    0.109331
   4 H :    0.091047
   5 H :    0.301495
Sum of atomic charges:   -0.0000000

LOEWDIN ATOMIC CHARGES
----------------------
   0 C :   -0.365045
   1 O :   -0.094728
   2 H :    0.092611
   3 H :    0.107736
   4 H :    0.092610
   5 H :    0.166817

  Mayer bond orders larger than 0.100000
B(  0-C ,  1-O ) :   0.9860 B(  0-C ,  2-H ) :   0.9714 B(  0-C ,  3-H ) :   0.9745
B(  0-C ,  4-H ) :   0.9714 B(  1-O ,  5-H ) :   0.9063

Dispersion correction           -0.000505334
FINAL SINGLE POINT ENERGY      -115.700396236626

DIPOLE MOMENT
-------------

Method             : SCF
Type of density    : Electron Density
Multiplicity       :   1
Irrep              :   0
Energy             :  -115.7044546153209694 Eh
Relativity type    :
Basis              : AO
                                X                 Y                 Z
Electronic contribution:      1.797251424       0.254978549       0.000029951
Nuclear contribution   :     -2.150504011      -0.832302899       0.000024472
                        -----------------------------------------
Total Dipole Moment    :     -0.353252587      -0.577324350       0.000054423
                        -----------------------------------------
Magnitude (a.u.)       :      0.676824053
Magnitude (Debye)      :      1.720350025

VIBRATIONAL FREQUENCIES
-----------------------

Scaling factor for frequencies =  1.000000000  (already applied!)

     0:       0.00 cm**-1
     1:       0.00 cm**-1
     2:       0.00 cm**-1
     3:       0.00 cm**-1
     4:       0.00 cm**-1
     5:       0.00 cm**-1
     6:     366.97 cm**-1
     7:     995.61 cm**-1
     8:    1082.79 cm**-1
     9:    1162.69 cm**-1
    10:    1381.87 cm**-1
    11:    1466.40 cm**-1
    12:    1486.90 cm**-1
    13:    1500.29 cm**-1
    14:    2979.33 cm**-1
    15:    3042.33 cm**-1
    16:    3102.13 cm**-1
    17:    3788.54 cm**-1

IR SPECTRUM
-----------

 Mode   freq       eps      Int      T**2         TX        TY        TZ
       cm**-1   L/(mol*cm) km/mol    a.u.
----------------------------------------------------------------------------
  6:    366.97   0.022858  115.52  0.019438  ( 0.000011  0.000027  0.139421)
  7:    995.61   0.020876  105.50  0.006543  (-0.080643 -0.006318 -0.000003)
  8:   1082.79   0.001947    9.84  0.000561  (-0.023022 -0.005591  0.000000)
  9:   1162.69   0.000031    0.16  0.000008  ( 0.000000  0.000001  0.002889)
 10:   1381.87   0.004992   25.23  0.001127  ( 0.033167  0.005230  0.000001)
 11:   1466.40   0.000768    3.88  0.000163  ( 0.012726  0.001245  0.000000)
 12:   1486.90   0.000497    2.51  0.000104  ( 0.000001  0.000002  0.010209)
 13:   1500.29   0.000735    3.71  0.000153  ( 0.002290 -0.012148  0.000002)
 14:   2979.33   0.012133   61.32  0.001271  ( 0.033395  0.012475  0.000000)
 15:   3042.33   0.013052   65.96  0.001339  ( 0.000002 -0.000005 -0.036590)
 16:   3102.13   0.005732   28.97  0.000577  (-0.003004  0.023825 -0.000003)
 17:   3788.54   0.004337   21.92  0.000357  ( 0.012966 -0.013754  0.000002)

--------------------------
THERMOCHEMISTRY AT 298.15K
--------------------------

Temperature         ...   298.15 K
Pressure            ...     1.00 atm
Total Mass          ...    32.04 AMU
Quasi RRHO          ...     True
Cut-Off Frequency   ...     1.00 cm^-1

Throughout the following assumptions are being made:
  (1) The electronic state is orbitally nondegenerate
  (2) There are no thermally accessible electronically excited states
  (3) Hindered rotations indicated by low frequency modes are not
      treated as such but are treated as vibrations and this may
      cause some error
  (4) All equations used are the standard statistical mechanics
      equations for an ideal gas
  (5) All vibrations are strictly harmonic

freq.     366.97  E(vib)   ...       0.22
freq.     995.61  E(vib)   ...       0.02
freq.    1082.79  E(vib)   ...       0.02
freq.    1162.69  E(vib)   ...       0.01
freq.    1381.87  E(vib)   ...       0.01
freq.    1466.40  E(vib)   ...       0.00
freq.    1486.90  E(vib)   ...       0.00
freq.    1500.29  E(vib)   ...       0.00
freq.    2979.33  E(vib)   ...       0.00
freq.    3042.33  E(vib)   ...       0.00
freq.    3102.13  E(vib)   ...       0.00
freq.    3788.54  E(vib)   ...       0.00

------------
INNER ENERGY
------------

The inner energy is: U= E(el) + E(ZPE) + E(vib) + E(rot) + E(trans)
    E(el)   - is the total energy from the electronic structure calculation
              = E(kin-el) + E(nuc-el) + E(el-el) + E(nuc-nuc)
    E(ZPE)  - the the zero temperature vibrational energy from the frequency calculation
    E(vib)  - the the finite temperature correction to E(ZPE) due to population
              of excited vibrational states
    E(rot)  - is the rotational thermal energy
    E(trans)- is the translational thermal energy

Summary of contributions to the inner energy U:
Electronic energy                ...   -115.70039624 Eh
Zero point energy                ...      0.05093035 Eh      31.96 kcal/mol
Thermal vibrational correction   ...      0.00045033 Eh       0.28 kcal/mol
Thermal rotational correction    ...      0.00141627 Eh       0.89 kcal/mol
Thermal translational correction ...      0.00141627 Eh       0.89 kcal/mol
-----------------------------------------------------------------------
Total thermal energy                   -115.64618302 Eh

Summary of corrections to the electronic energy:
(perhaps to be used in another calculation)
Total thermal correction                  0.00328287 Eh       2.06 kcal/mol
Non-thermal (ZPE) correction              0.05093035 Eh      31.96 kcal/mol
-----------------------------------------------------------------------
Total correction                          0.05421322 Eh      34.02 kcal/mol

--------
ENTHALPY
--------

The enthalpy is H = U + kB*T
                kB is Boltzmann's constant
Total thermal energy              ...   -115.64618302 Eh
Thermal Enthalpy correction       ...      0.00094421 Eh       0.59 kcal/mol
-----------------------------------------------------------------------
Total Enthalpy                    ...   -115.64523881 Eh

Note: Rotational entropy computed according to Herzberg
Infrared and Raman Spectra, Chapter V,1, Van Nostrand Reinhold, 1945
Point Group:  Cs, Symmetry Number:   1
Rotational constants in cm-1:     4.228566     0.812370     0.783522

Vibrational entropy computed according to the QRRHO of S. Grimme
Chem.Eur.J. 2012 18 9955 using a reference frequency of 100.0 cm-1

-------
ENTROPY
-------

The entropy contributions are T*S = T*(S(el)+S(vib)+S(rot)+S(trans))
     S(el)   - electronic entropy
     S(vib)  - vibrational entropy
     S(rot)  - rotational entropy
     S(trans)- translational entropy
The entropies will be listed as multiplied by the temperature to get
units of energy

Electronic entropy                ...      0.00000000 Eh      0.00 kcal/mol
Vibrational entropy               ...      0.00064746 Eh      0.41 kcal/mol
Rotational entropy                ...      0.00904339 Eh      5.67 kcal/mol
Translational entropy             ...      0.01725935 Eh     10.83 kcal/mol
-----------------------------------------------------------------------
Final entropy term                ...      0.02695020 Eh     16.91 kcal/mol

In case the symmetry of your molecule has not been determined correctly
or in case you have a reason to use a different symmetry number we print
out the resulting rotational entropy values for sn=1,12:

 non-linear molecules -----------------------------------
|  sn= 1 | S(rot)=       0.00904339 Eh      5.67 kcal/mol|
|  sn= 2 | S(rot)=       0.00838893 Eh      5.26 kcal/mol|
|  sn= 3 | S(rot)=       0.00800610 Eh      5.02 kcal/mol|
|  sn= 4 | S(rot)=       0.00773448 Eh      4.85 kcal/mol|
|  sn= 5 | S(rot)=       0.00752379 Eh      4.72 kcal/mol|
|  sn= 6 | S(rot)=       0.00735164 Eh      4.61 kcal/mol|
|  sn= 7 | S(rot)=       0.00720610 Eh      4.52 kcal/mol|
|  sn= 8 | S(rot)=       0.00708002 Eh      4.44 kcal/mol|
|  sn= 9 | S(rot)=       0.00696881 Eh      4.37 kcal/mol|
|  sn=10 | S(rot)=       0.00686933 Eh      4.31 kcal/mol|
|  sn=11 | S(rot)=       0.00677934 Eh      4.25 kcal/mol|
|  sn=12 | S(rot)=       0.00669719 Eh      4.20 kcal/mol|
 linear molecules ---------------------------------------
|  Dinfh | S(rot)=       0.00555614 Eh      3.49 kcal/mol|
|  Cinfv | S(rot)=       0.00621060 Eh      3.90 kcal/mol|
 --------------------------------------------------------

-------------------
GIBBS FREE ENERGY
-------------------

The Gibbs free energy is G = H - T*S

Total enthalpy                    ...   -115.64523881 Eh
Total entropy correction          ...     -0.02695020 Eh    -16.91 kcal/mol
-----------------------------------------------------------------------
Final Gibbs free energy         ...   -115.67218901 Eh

For completeness - the Gibbs free energy minus the electronic energy
G-E(el)                           ...      0.02820723 Eh     17.70 kcal/mol

                             ****ORCA TERMINATED NORMALLY****
TOTAL RUN TIME: 0 days 0 hours 0 minutes 35 seconds 904 msec
