                         Program Version 6.0.0  -   RELEASE  -
|  1> ! r2SCAN-3c DEF2-TZVP FREQ
|  2> * xyzfile 0 1 vacuum_censo.xyz
|  3>
|  4>                          ****END OF INPUT****

CARTESIAN COORDINATES (ANGSTROEM)
---------------------------------
  C      0.721571    0.015433    0.000013
  O     -0.702957   -0.067160    0.000048
  H      1.107861    0.523624   -0.895051
  H      1.095655   -1.010884    0.000299
  H      1.107876    0.524125    0.894784
  H     -1.051631    0.829473   -0.000096

 Total Charge           Charge          ....    0
 Multiplicity           Mult            ....    1
 Number of Electrons    NEL             ....   18
 Basis Dimension        Dim             ....   86

ORBITAL ENERGIES
----------------

  NO   OCC          E(Eh)            E(eV)
   0   2.0000     -18.948528      -515.6157
   1   2.0000     -10.072685      -274.0917
   2   2.0000      -0.979611       -26.6566
   3   2.0000      -0.648044       -17.6342
   4   2.0000      -0.473148       -12.8750
   5   2.0000      -0.403940       -10.9918
   6   2.0000      -0.391720       -10.6592
   7   2.0000      -0.304678        -8.2907
   8   2.0000      -0.239970        -6.5299
   9   0.0000       0.038489         1.0473
  10   0.0000       0.084784         2.3071
  11   0.0000       0.127913         3.4807
  12   0.0000       0.133934         3.6445
  13   0.0000       0.146279         3.9804

MULLIKEN ATOMIC CHARGES
-----------------------
   0 C :   -0.113602
   1 O :   -0.474565
   2 H :    0.089190
   3 H :    0.107980
   4 H :    0.089191
   5 H :    0.301806
Sum of atomic charges:   -0.0000000

LOEWDIN ATOMIC CHARGES
----------------------
   0 C :   -0.373189
   1 O :   -0.085263
   2 H :    0.092376
   3 H :    0.107867
   4 H :    0.092377
   5 H :    0.165832

  Mayer bond orders larger than 0.100000
B(  0-C ,  1-O ) :   0.9882 B(  0-C ,  2-H ) :   0.9706 B(  0-C ,  3-H ) :   0.9749
B(  0-C ,  4-H ) :   0.9706 B(  1-O ,  5-H ) :   0.9057

Dispersion correction           -0.000505314
FINAL SINGLE POINT ENERGY      -115.700558705448

DIPOLE MOMENT
-------------

Method             : SCF
Type of density    : Electron Density
Multiplicity       :   1
Irrep              :   0
Energy             :  -115.7046266433241044 Eh
Relativity type    :
Basis              : AO
                                X                 Y                 Z
Electronic contribution:     -1.815016478      -0.239664169       0.000065978
Nuclear contribution   :      2.145165012       0.813649304      -0.000159170
                        -----------------------------------------
Total Dipole Moment    :      0.330148534       0.573985135      -0.000093193
                        -----------------------------------------
Magnitude (a.u.)       :      0.662160855
Magnitude (Debye)      :      1.683079137

VIBRATIONAL FREQUENCIES
-----------------------

Scaling factor for frequencies =  1.000000000  (already applied!)

     0:       0.00 cm**-1
     1:       0.00 cm**-1
     2:       0.00 cm**-1
     3:       0.00 cm**-1
     4:       0.00 cm**-1
     5:       0.00 cm**-1
     6:     326.21 cm**-1
     7:    1024.29 cm**-1
     8:    1083.26 cm**-1
     9:    1169.34 cm**-1
    10:    1376.40 cm**-1
    11:    1474.47 cm**-1
    12:    1488.78 cm**-1
    13:    1502.98 cm**-1
    14:    2963.55 cm**-1
    15:    3021.05 cm**-1
    16:    3097.12 cm**-1
    17:    3823.36 cm**-1

IR SPECTRUM
-----------

 Mode   freq       eps      Int      T**2         TX        TY        TZ
       cm**-1   L/(mol*cm) km/mol    a.u.
----------------------------------------------------------------------------
  6:    326.21   0.023482  118.67  0.022463  ( 0.000022  0.000043  0.149878)
  7:   1024.29   0.022979  116.13  0.007001  ( 0.083324  0.007617 -0.000003)
  8:   1083.26   0.001133    5.72  0.000326  ( 0.017002  0.006097 -0.000002)
  9:   1169.34   0.000035    0.18  0.000009  (-0.000000  0.000001  0.003050)
 10:   1376.40   0.004540   22.95  0.001029  (-0.031611 -0.005496  0.000000)
 11:   1474.47   0.000901    4.55  0.000191  ( 0.013525  0.002773 -0.000002)
 12:   1488.78   0.000431    2.18  0.000090  ( 0.000005  0.000003  0.009507)
 13:   1502.98   0.000798    4.03  0.000166  ( 0.004292 -0.012137  0.000002)
 14:   2963.55   0.013126   66.33  0.001382  ( 0.034433  0.014018 -0.000008)
 15:   3021.05   0.013881   70.15  0.001434  ( 0.000003  0.000011  0.037866)
 16:   3097.12   0.005898   29.80  0.000594  (-0.004772  0.023905 -0.000005)
 17:   3823.36   0.004456   22.52  0.000364  ( 0.013106 -0.013853  0.000001)

--------------------------
THERMOCHEMISTRY AT 298.15K
--------------------------

Temperature         ...   298.15 K
Pressure            ...     1.00 atm
Total Mass          ...    32.04 AMU
Quasi RRHO          ...     True
Cut-Off Frequency   ...     1.00 cm^-1

Throughout the following assumptions are being made:
  (1) The electronic state is orbitally nondegenerate
  (2) There are no thermally accessible electronically excited states
  (3) Hindered rotations indicated by low frequency modes are not
      treated as such but are treated as vibrations and this may
      cause some error
  (4) All equations used are the standard statistical mechanics
      equations for an ideal gas
  (5) All vibrations are strictly harmonic

freq.     326.21  E(vib)   ...       0.24
freq.    1024.29  E(vib)   ...       0.02
freq.    1083.26  E(vib)   ...       0.02
freq.    1169.34  E(vib)   ...       0.01
freq.    1376.40  E(vib)   ...       0.01
freq.    1474.47  E(vib)   ...       0.00
freq.    1488.78  E(vib)   ...       0.00
freq.    1502.98  E(vib)   ...       0.00
freq.    2963.55  E(vib)   ...       0.00
freq.    3021.05  E(vib)   ...       0.00
freq.    3097.12  E(vib)   ...       0.00
freq.    3823.36  E(vib)   ...       0.00

------------
INNER ENERGY
------------

The inner energy is: U= E(el) + E(ZPE) + E(vib) + E(rot) + E(trans)
    E(el)   - is the total energy from the electronic structure calculation
              = E(kin-el) + E(nuc-el) + E(el-el) + E(nuc-nuc)
    E(ZPE)  - the the zero temperature vibrational energy from the frequency calculation
    E(vib)  - the the finite temperature correction to E(ZPE) due to population
              of excited vibrational states
    E(rot)  - is the rotational thermal energy
    E(trans)- is the translational thermal energy

Summary of contributions to the inner energy U:
Electronic energy                ...   -115.70055871 Eh
Zero point energy                ...      0.05091890 Eh      31.95 kcal/mol
Thermal vibrational correction   ...      0.00049121 Eh       0.31 kcal/mol
Thermal rotational correction    ...      0.00141627 Eh       0.89 kcal/mol
Thermal translational correction ...      0.00141627 Eh       0.89 kcal/mol
-----------------------------------------------------------------------
Total thermal energy                   -115.64631605 Eh

Summary of corrections to the electronic energy:
(perhaps to be used in another calculation)
Total thermal correction                  0.00332376 Eh       2.09 kcal/mol
Non-thermal (ZPE) correction              0.05091890 Eh      31.95 kcal/mol
-----------------------------------------------------------------------
Total correction                          0.05424266 Eh      34.04 kcal/mol

--------
ENTHALPY
--------

The enthalpy is H = U + kB*T
                kB is Boltzmann's constant
Total thermal energy              ...   -115.64631605 Eh
Thermal Enthalpy correction       ...      0.00094421 Eh       0.59 kcal/mol
-----------------------------------------------------------------------
Total Enthalpy                    ...   -115.64537184 Eh

Note: Only C1 symmetry has been detected, increase convergence thresholds
      if your molecule has a higher symmetry. Symmetry factor of 1.0 is
      used for the rotational entropy correction.

Note: Rotational entropy computed according to Herzberg
Infrared and Raman Spectra, Chapter V,1, Van Nostrand Reinhold, 1945
Point Group:  C1, Symmetry Number:   1
Rotational constants in cm-1:     4.250309     0.819495     0.791147

Vibrational entropy computed according to the QRRHO of S. Grimme
Chem.Eur.J. 2012 18 9955 using a reference frequency of 100.0 cm-1

-------
ENTROPY
-------

The entropy contributions are T*S = T*(S(el)+S(vib)+S(rot)+S(trans))
     S(el)   - electronic entropy
     S(vib)  - vibrational entropy
     S(rot)  - rotational entropy
     S(trans)- translational entropy
The entropies will be listed as multiplied by the temperature to get
units of energy

Electronic entropy                ...      0.00000000 Eh      0.00 kcal/mol
Vibrational entropy               ...      0.00073069 Eh      0.46 kcal/mol
Rotational entropy                ...      0.00903227 Eh      5.67 kcal/mol
Translational entropy             ...      0.01725935 Eh     10.83 kcal/mol
-----------------------------------------------------------------------
Final entropy term                ...      0.02702232 Eh     16.96 kcal/mol

In case the symmetry of your molecule has not been determined correctly
or in case you have a reason to use a different symmetry number we print
out the resulting rotational entropy values for sn=1,12:

 non-linear molecules -----------------------------------
|  sn= 1 | S(rot)=       0.00903227 Eh      5.67 kcal/mol|
|  sn= 2 | S(rot)=       0.00837782 Eh      5.26 kcal/mol|
|  sn= 3 | S(rot)=       0.00799499 Eh      5.02 kcal/mol|
|  sn= 4 | S(rot)=       0.00772336 Eh      4.85 kcal/mol|
|  sn= 5 | S(rot)=       0.00751267 Eh      4.71 kcal/mol|
|  sn= 6 | S(rot)=       0.00734053 Eh      4.61 kcal/mol|
|  sn= 7 | S(rot)=       0.00719498 Eh      4.51 kcal/mol|
|  sn= 8 | S(rot)=       0.00706891 Eh      4.44 kcal/mol|
|  sn= 9 | S(rot)=       0.00695770 Eh      4.37 kcal/mol|
|  sn=10 | S(rot)=       0.00685822 Eh      4.30 kcal/mol|
|  sn=11 | S(rot)=       0.00676823 Eh      4.25 kcal/mol|
|  sn=12 | S(rot)=       0.00668607 Eh      4.20 kcal/mol|
 linear molecules ---------------------------------------
|  Dinfh | S(rot)=       0.00554700 Eh      3.48 kcal/mol|
|  Cinfv | S(rot)=       0.00620146 Eh      3.89 kcal/mol|
 --------------------------------------------------------

-------------------
GIBBS FREE ENERGY
-------------------

The Gibbs free energy is G = H - T*S

Total enthalpy                    ...   -115.64537184 Eh
Total entropy correction          ...     -0.02702232 Eh    -16.96 kcal/mol
-----------------------------------------------------------------------
Final Gibbs free energy         ...   -115.67239416 Eh

For completeness - the Gibbs free energy minus the electronic energy
G-E(el)                           ...      0.02816455 Eh     17.67 kcal/mol

                             ****ORCA TERMINATED NORMALLY****
TOTAL RUN TIME: 0 days 0 hours 0 minutes 39 seconds 672 msec
