                         Program Version 6.0.1  -  RELEASE   -
|  1> ! pbe def2-sv(p) def2/J RI DEFGRID1 loosescf d4 GCP(DFT/SV(P)) printgap
|  2> %output
|  3>     printlevel normal
|  4> end
|  5> * xyz 0 1
|  6> C -2.4924578397 -0.4633457865 -0.2314850992
|  7> C -1.0702878353 -0.1823197268 0.2584877664
|  8> H -1.0175460822 -0.3863380882 1.3395756419
|  9> C -0.6386981042 1.282252568 0.0085717873
| 10> H -1.2679724362 1.7265571214 -0.7706193951
| 11> C 0.8249551221 1.3099503251 -0.490688534
| 12> H 1.2205293797 2.3184567538 -0.3318220863
| 13> C 1.6630897234 0.3097759462 0.3289503526
| 14> H 2.6860202336 0.2971657024 -0.0680291094
| 15> C 1.0849648192 -1.1145500713 0.1404092743
| 16> H 1.0292331624 -1.6076807358 1.1380468552
| 17> O -0.2082627858 -1.0945658002 -0.4167009562
| 18> O 1.9155560483 -1.8140259021 -0.7167381011
| 19> O 1.6349304352 0.7133159717 1.6790717026
| 20> O 0.9290123896 1.0572571714 -1.8602003313
| 21> O -0.8179298998 2.0705321722 1.1493499027
| 22> O -2.9156753574 -1.7580370873 0.0971007026
| 23> H -2.5284758257 -0.3039914875 -1.3184423638
| 24> H -3.1800975823 0.22755822 0.2581099858
| 25> H 1.4630393858 -2.6144455714 -1.0096054153
| 26> H 2.305918796 0.2301671207 2.1731785524
| 27> H 0.6369035029 0.1503573752 -2.0257354936
| 28> H -0.1263750042 1.8370627486 1.785171872
| 29> H -2.2665675049 -2.3767425365 -0.2583009638
| 30> *
| 31>
| 32>                          ****END OF INPUT****

CARTESIAN COORDINATES (ANGSTROEM)
---------------------------------
  C     -2.492458   -0.463346   -0.231485
  C     -1.070288   -0.182320    0.258488
  H     -1.017546   -0.386338    1.339576
  C     -0.638698    1.282253    0.008572
  H     -1.267972    1.726557   -0.770619
  C      0.824955    1.309950   -0.490689
  H      1.220529    2.318457   -0.331822
  C      1.663090    0.309776    0.328950
  H      2.686020    0.297166   -0.068029
  C      1.084965   -1.114550    0.140409
  H      1.029233   -1.607681    1.138047
  O     -0.208263   -1.094566   -0.416701
  O      1.915556   -1.814026   -0.716738
  O      1.634930    0.713316    1.679072
  O      0.929012    1.057257   -1.860200
  O     -0.817930    2.070532    1.149350
  O     -2.915675   -1.758037    0.097101
  H     -2.528476   -0.303991   -1.318442
  H     -3.180098    0.227558    0.258110
  H      1.463039   -2.614446   -1.009605
  H      2.305919    0.230167    2.173179
  H      0.636904    0.150357   -2.025735
  H     -0.126375    1.837063    1.785172
  H     -2.266568   -2.376743   -0.258301

 Total Charge           Charge          ....    0
 Multiplicity           Mult            ....    1
 Number of Electrons    NEL             ....   96
 Basis Dimension        Dim             ....  192

ORBITAL ENERGIES
----------------

  NO   OCC          E(Eh)            E(eV)
   0   2.0000     -18.794515      -511.4248
   1   2.0000     -18.785160      -511.1702
   2   2.0000     -18.780628      -511.0469
   3   2.0000     -18.747950      -510.1577
   4   2.0000     -18.746256      -510.1116
   5   2.0000     -18.740868      -509.9649
   6   2.0000     -10.003914      -272.2203
   7   2.0000      -9.954209      -270.8678
   8   2.0000      -9.946101      -270.6472
   9   2.0000      -9.943393      -270.5735
  10   2.0000      -9.937622      -270.4164
  11   2.0000      -9.935325      -270.3539
  12   2.0000      -1.005751       -27.3679
  13   2.0000      -0.959419       -26.1071
  14   2.0000      -0.943497       -25.6739
  15   2.0000      -0.930492       -25.3200
  16   2.0000      -0.920542       -25.0492
  17   2.0000      -0.920192       -25.0397
  18   2.0000      -0.700408       -19.0591
  19   2.0000      -0.697855       -18.9896
  20   2.0000      -0.625308       -17.0155
  21   2.0000      -0.591731       -16.1018
  22   2.0000      -0.571763       -15.5585
  23   2.0000      -0.533655       -14.5215
  24   2.0000      -0.521086       -14.1795
  25   2.0000      -0.494145       -13.4464
  26   2.0000      -0.484345       -13.1797
  27   2.0000      -0.473801       -12.8928
  28   2.0000      -0.462477       -12.5847
  29   2.0000      -0.433041       -11.7837
  30   2.0000      -0.415623       -11.3097
  31   2.0000      -0.397329       -10.8119
  32   2.0000      -0.387828       -10.5533
  33   2.0000      -0.378697       -10.3049
  34   2.0000      -0.367620       -10.0035
  35   2.0000      -0.358264        -9.7489
  36   2.0000      -0.343069        -9.3354
  37   2.0000      -0.325470        -8.8565
  38   2.0000      -0.321664        -8.7529
  39   2.0000      -0.297115        -8.0849
  40   2.0000      -0.285598        -7.7715
  41   2.0000      -0.277336        -7.5467
  42   2.0000      -0.264926        -7.2090
  43   2.0000      -0.256331        -6.9751
  44   2.0000      -0.248978        -6.7750
  45   2.0000      -0.226495        -6.1633
  46   2.0000      -0.219185        -5.9643
  47   2.0000      -0.197390        -5.3713
  48   0.0000       0.000474         0.0129
  49   0.0000       0.013424         0.3653
  50   0.0000       0.038240         1.0406
  51   0.0000       0.050483         1.3737
  52   0.0000       0.059406         1.6165

MULLIKEN ATOMIC CHARGES
-----------------------
   0 C :    0.067549
   1 C :   -0.007860
   2 H :    0.058198
   3 C :    0.076964
   4 H :    0.070748
   5 C :    0.027431
   6 H :    0.084366
   7 C :    0.017738
   8 H :    0.093424
   9 C :    0.180612
  10 H :    0.044309
  11 O :   -0.336790
  12 O :   -0.377611
  13 O :   -0.424405
  14 O :   -0.410955
  15 O :   -0.425376
  16 O :   -0.430254
  17 H :    0.073943
  18 H :    0.105354
  19 H :    0.305348
  20 H :    0.315380
  21 H :    0.295563
  22 H :    0.304618
  23 H :    0.291707
Sum of atomic charges:   -0.0000000

LOEWDIN ATOMIC CHARGES
----------------------
   0 C :   -0.126064
   1 C :   -0.080314
   2 H :    0.107270
   3 C :   -0.074108
   4 H :    0.117122
   5 C :   -0.071321
   6 H :    0.122328
   7 C :   -0.089621
   8 H :    0.119132
   9 C :   -0.006558
  10 H :    0.079365
  11 O :   -0.167204
  12 O :   -0.293838
  13 O :   -0.312554
  14 O :   -0.307085
  15 O :   -0.314262
  16 O :   -0.333831
  17 H :    0.099868
  18 H :    0.126286
  19 H :    0.289136
  20 H :    0.295331
  21 H :    0.270056
  22 H :    0.274258
  23 H :    0.276608

  Mayer bond orders larger than 0.100000
B(  0-C ,  1-C ) :   1.0577 B(  0-C , 16-O ) :   1.0739 B(  0-C , 17-H ) :   0.9047
B(  0-C , 18-H ) :   0.9188 B(  1-C ,  2-H ) :   0.8625 B(  1-C ,  3-C ) :   0.9559
B(  1-C , 11-O ) :   0.9723 B(  3-C ,  4-H ) :   0.8916 B(  3-C ,  5-C ) :   0.9780
B(  3-C , 15-O ) :   1.0524 B(  5-C ,  6-H ) :   0.8898 B(  5-C ,  7-C ) :   1.0086
B(  5-C , 14-O ) :   1.0628 B(  7-C ,  8-H ) :   0.8936 B(  7-C ,  9-C ) :   0.9322
B(  7-C , 13-O ) :   1.0305 B(  9-C , 10-H ) :   0.8985 B(  9-C , 11-O ) :   1.0088
B(  9-C , 12-O ) :   1.1575 B( 12-O , 19-H ) :   0.8391 B( 13-O , 20-H ) :   0.8406
B( 14-O , 21-H ) :   0.8321 B( 15-O , 22-H ) :   0.8236 B( 16-O , 23-H ) :   0.8476

Dispersion correction           -0.024877500
FINAL SINGLE POINT ENERGY      -685.694307501845

DIPOLE MOMENT
-------------

Method             : SCF
Type of density    : Electron Density
Multiplicity       :   1
Irrep              :   0
Energy             :  -685.8268634479071579 Eh
Relativity type    :
Basis              : AO
                                X                 Y                 Z
Electronic contribution:      1.901941670      -0.684362561      -0.457679333
Nuclear contribution   :     -0.972788909      -0.483072316       0.854159286
                        -----------------------------------------
Total Dipole Moment    :      0.929152761      -1.167434877       0.396479954
                        -----------------------------------------
Magnitude (a.u.)       :      1.543834641
Magnitude (Debye)      :      3.924115804

Rotational constants in cm-1:             0.037895             0.027591             0.021832
Rotational constants in MHz :          1136.055569           827.156141           654.499057

                             ****ORCA TERMINATED NORMALLY****
TOTAL RUN TIME: 0 days 0 hours 24 minutes 19 seconds 599 msec
