                         Program Version 6.0.0  -   RELEASE  -
|  1> ! r2SCAN-3c DEF2-TZVP FREQ
|  2> * xyzfile 0 1 censo.xyz
|  3>
|  4>                          ****END OF INPUT****

CARTESIAN COORDINATES (ANGSTROEM)
---------------------------------
  C      1.900829   -1.466798    0.000024
  C      2.586286   -0.242973    0.000077
  C      1.902527    0.957061    0.000059
  C      0.503100    0.979209   -0.000021
  C     -0.180834   -0.261464   -0.000071
  C      0.523560   -1.474062   -0.000059
  N     -1.615500   -0.312587    0.000020
  O     -2.185217   -1.400862    0.000034
  O     -2.252488    0.764539    0.000023
  O     -0.099157    2.180505   -0.000000
  H      2.448405   -2.401919    0.000064
  H      3.671306   -0.233502    0.000145
  H      2.427239    1.906302    0.000119
  H     -0.031964   -2.403377   -0.000076
  H     -1.070093    2.016445   -0.000031

 Total Charge           Charge          ....    0
 Multiplicity           Mult            ....    1
 Number of Electrons    NEL             ....   72
 Basis Dimension        Dim             ....  340

ORBITAL ENERGIES
----------------

  NO   OCC          E(Eh)            E(eV)
   0   2.0000     -19.004098      -517.1278
   1   2.0000     -18.998608      -516.9784
   2   2.0000     -18.994528      -516.8674
   3   2.0000     -14.406280      -392.0148
   4   2.0000     -10.141886      -275.9747
   5   2.0000     -10.111920      -275.1593
   6   2.0000     -10.074113      -274.1305
   7   2.0000     -10.073724      -274.1200
   8   2.0000     -10.063223      -273.8342
   9   2.0000     -10.062036      -273.8019
  10   2.0000      -1.199162       -32.6309
  11   2.0000      -1.055088       -28.7104
  12   2.0000      -1.021015       -27.7832
  13   2.0000      -0.862655       -23.4740
  14   2.0000      -0.792422       -21.5629
  15   2.0000      -0.743856       -20.2414
  16   2.0000      -0.683436       -18.5972
  17   2.0000      -0.606948       -16.5159
  18   2.0000      -0.603822       -16.4308
  19   2.0000      -0.539912       -14.6917
  20   2.0000      -0.521500       -14.1907
  21   2.0000      -0.515303       -14.0221
  22   2.0000      -0.499732       -13.5984
  23   2.0000      -0.474910       -12.9230
  24   2.0000      -0.451667       -12.2905
  25   2.0000      -0.431429       -11.7398
  26   2.0000      -0.409873       -11.1532
  27   2.0000      -0.386918       -10.5286
  28   2.0000      -0.375503       -10.2179
  29   2.0000      -0.346257        -9.4221
  30   2.0000      -0.344170        -9.3653
  31   2.0000      -0.302004        -8.2179
  32   2.0000      -0.291334        -7.9276
  33   2.0000      -0.275708        -7.5024
  34   2.0000      -0.272628        -7.4186
  35   2.0000      -0.239829        -6.5261
  36   0.0000      -0.133537        -3.6337
  37   0.0000      -0.054251        -1.4762
  38   0.0000      -0.038488        -1.0473
  39   0.0000       0.037602         1.0232
  40   0.0000       0.062567         1.7025

MULLIKEN ATOMIC CHARGES
-----------------------
   0 C :   -0.111501
   1 C :   -0.057303
   2 C :   -0.218043
   3 C :    0.223006
   4 C :   -0.003019
   5 C :   -0.132077
   6 N :    0.528782
   7 O :   -0.338743
   8 O :   -0.405457
   9 O :   -0.372800
  10 H :    0.124055
  11 H :    0.125965
  12 H :    0.128183
  13 H :    0.155309
  14 H :    0.353644
Sum of atomic charges:    0.0000000

LOEWDIN ATOMIC CHARGES
----------------------
   0 C :   -0.142558
   1 C :   -0.108601
   2 C :   -0.106949
   3 C :   -0.232390
   4 C :   -0.157321
   5 C :   -0.091559
   6 N :   -0.011478
   7 O :   -0.010430
   8 O :   -0.062828
   9 O :    0.127161
  10 H :    0.148570
  11 H :    0.150402
  12 H :    0.156272
  13 H :    0.160761
  14 H :    0.180947

  Mayer bond orders larger than 0.100000
B(  0-C ,  1-C ) :   1.3162 B(  0-C ,  5-C ) :   1.4794 B(  0-C , 10-H ) :   0.9715
B(  1-C ,  2-C ) :   1.4491 B(  1-C , 11-H ) :   0.9665 B(  2-C ,  3-C ) :   1.3615
B(  2-C , 12-H ) :   0.9699 B(  3-C ,  4-C ) :   1.2254 B(  3-C ,  9-O ) :   1.2599
B(  4-C ,  5-C ) :   1.2979 B(  4-C ,  6-N ) :   1.0351 B(  5-C , 13-H ) :   0.9364
B(  6-N ,  7-O ) :   1.5303 B(  6-N ,  8-O ) :   1.3636 B(  7-O ,  8-O ) :   0.1891
B(  8-O , 14-H ) :   0.1161 B(  9-O , 14-H ) :   0.7752

Dispersion correction           -0.005254066
FINAL SINGLE POINT ENERGY      -511.936861638549

DIPOLE MOMENT
-------------

Method             : SCF
Type of density    : Electron Density
Multiplicity       :   1
Irrep              :   0
Energy             :  -511.9436381508286331 Eh
Relativity type    :
Basis              : AO
                                X                 Y                 Z
Electronic contribution:     -5.453759979       0.859224908      -0.000163984
Nuclear contribution   :      6.936025277      -1.062641256       0.000156447
                        -----------------------------------------
Total Dipole Moment    :      1.482265298      -0.203416348      -0.000007536
                        -----------------------------------------
Magnitude (a.u.)       :      1.496157954
Magnitude (Debye)      :      3.802931295

VIBRATIONAL FREQUENCIES
-----------------------

Scaling factor for frequencies =  1.000000000  (already applied!)

     0:       0.00 cm**-1
     1:       0.00 cm**-1
     2:       0.00 cm**-1
     3:       0.00 cm**-1
     4:       0.00 cm**-1
     5:       0.00 cm**-1
     6:     105.13 cm**-1
     7:     147.82 cm**-1
     8:     256.62 cm**-1
     9:     287.56 cm**-1
    10:     378.68 cm**-1
    11:     433.70 cm**-1
    12:     438.24 cm**-1
    13:     536.16 cm**-1
    14:     556.04 cm**-1
    15:     571.79 cm**-1
    16:     684.84 cm**-1
    17:     699.90 cm**-1
    18:     749.90 cm**-1
    19:     763.81 cm**-1
    20:     791.71 cm**-1
    21:     833.84 cm**-1
    22:     867.21 cm**-1
    23:     886.23 cm**-1
    24:     960.81 cm**-1
    25:     979.36 cm**-1
    26:    1048.90 cm**-1
    27:    1114.74 cm**-1
    28:    1160.98 cm**-1
    29:    1185.83 cm**-1
    30:    1223.00 cm**-1
    31:    1271.68 cm**-1
    32:    1304.22 cm**-1
    33:    1362.14 cm**-1
    34:    1407.47 cm**-1
    35:    1462.36 cm**-1
    36:    1500.71 cm**-1
    37:    1549.31 cm**-1
    38:    1614.24 cm**-1
    39:    1650.98 cm**-1
    40:    3172.15 cm**-1
    41:    3188.56 cm**-1
    42:    3194.42 cm**-1
    43:    3213.88 cm**-1
    44:    3388.98 cm**-1

IR SPECTRUM
-----------

 Mode   freq       eps      Int      T**2         TX        TY        TZ
       cm**-1   L/(mol*cm) km/mol    a.u.
----------------------------------------------------------------------------
  6:    105.13   0.000134    0.68  0.000398  ( 0.000001 -0.000172  0.019938)
  7:    147.82   0.000071    0.36  0.000150  ( 0.000016  0.000049 -0.012255)
  8:    256.62   0.000017    0.09  0.000021  (-0.000013  0.000011 -0.004584)
  9:    287.56   0.001369    6.92  0.001486  (-0.007740  0.037759  0.000005)
 10:    378.68   0.001164    5.88  0.000959  ( 0.001586 -0.030925 -0.000005)
 11:    433.70   0.000032    0.16  0.000023  (-0.000007  0.000009  0.004800)
 12:    438.24   0.000354    1.79  0.000252  (-0.005944  0.014715  0.000008)
 13:    536.16   0.001870    9.45  0.001088  ( 0.000011 -0.000009  0.032987)
 14:    556.04   0.001515    7.66  0.000850  ( 0.001230 -0.029137 -0.000000)
 15:    571.79   0.000161    0.81  0.000088  ( 0.001505  0.009252  0.000002)
 16:    684.84   0.002078   10.50  0.000947  (-0.030666  0.002516 -0.000006)
 17:    699.90   0.001284    6.49  0.000572  ( 0.000000 -0.000014  0.023924)
 18:    749.90   0.022910  115.78  0.009534  (-0.000009 -0.000016 -0.097642)
 19:    763.81   0.007193   36.35  0.002939  ( 0.000009  0.000041 -0.054210)
 20:    791.71   0.000349    1.76  0.000137  (-0.000002  0.000007 -0.011722)
 21:    833.84   0.001826    9.23  0.000683  (-0.005960 -0.025453  0.000006)
 22:    867.21   0.000140    0.71  0.000050  (-0.000003 -0.000001 -0.007099)
 23:    886.23   0.002203   11.13  0.000776  (-0.027278  0.005624  0.000002)
 24:    960.81   0.000264    1.33  0.000086  (-0.000009  0.000025  0.009260)
 25:    979.36   0.000090    0.46  0.000029  ( 0.000006  0.000004 -0.005359)
 26:   1048.90   0.002967   15.00  0.000883  (-0.012665  0.026879 -0.000002)
 27:   1114.74   0.001366    6.90  0.000382  (-0.013436 -0.014205 -0.000001)
 28:   1160.98   0.006565   33.18  0.001765  ( 0.033355  0.025534  0.000002)
 29:   1185.83   0.005461   27.60  0.001437  (-0.031279  0.021419  0.000000)
 30:   1223.00   0.020545  103.83  0.005242  (-0.049257  0.053066 -0.000001)
 31:   1271.68   0.033893  171.28  0.008317  (-0.067275 -0.061573  0.000003)
 32:   1304.22   0.041004  207.22  0.009811  (-0.067588  0.072408  0.000001)
 33:   1362.14   0.027744  140.21  0.006356  (-0.077148 -0.020109  0.000001)
 34:   1407.47   0.010034   50.71  0.002225  (-0.030938 -0.035603  0.000003)
 35:   1462.36   0.022495  113.68  0.004800  ( 0.051547  0.046296 -0.000001)
 36:   1500.71   0.018740   94.70  0.003897  ( 0.025480 -0.056988  0.000001)
 37:   1549.31   0.021180  107.03  0.004266  (-0.005157 -0.065111  0.000000)
 38:   1614.24   0.015535   78.51  0.003003  (-0.019730 -0.051128 -0.000000)
 39:   1650.98   0.018118   91.56  0.003425  (-0.045679  0.036578 -0.000002)
 40:   3172.15   0.000834    4.21  0.000082  ( 0.008930  0.001513  0.000001)
 41:   3188.56   0.000804    4.06  0.000079  ( 0.000955 -0.008818  0.000000)
 42:   3194.42   0.000615    3.11  0.000060  ( 0.006951 -0.003434  0.000000)
 43:   3213.88   0.000671    3.39  0.000065  ( 0.007895  0.001691 -0.000000)
 44:   3388.98   0.044858  226.69  0.004131  (-0.063799 -0.007768 -0.000000)

--------------------------
THERMOCHEMISTRY AT 298.15K
--------------------------

Temperature         ...   298.15 K
Pressure            ...     1.00 atm
Total Mass          ...   139.11 AMU
Quasi RRHO          ...     True
Cut-Off Frequency   ...     1.00 cm^-1

Throughout the following assumptions are being made:
  (1) The electronic state is orbitally nondegenerate
  (2) There are no thermally accessible electronically excited states
  (3) Hindered rotations indicated by low frequency modes are not
      treated as such but are treated as vibrations and this may
      cause some error
  (4) All equations used are the standard statistical mechanics
      equations for an ideal gas
  (5) All vibrations are strictly harmonic

freq.     105.13  E(vib)   ...       0.45
freq.     147.82  E(vib)   ...       0.41
freq.     256.62  E(vib)   ...       0.30
freq.     287.56  E(vib)   ...       0.27
freq.     378.68  E(vib)   ...       0.21
freq.     433.70  E(vib)   ...       0.17
freq.     438.24  E(vib)   ...       0.17
freq.     536.16  E(vib)   ...       0.12
freq.     556.04  E(vib)   ...       0.12
freq.     571.79  E(vib)   ...       0.11
freq.     684.84  E(vib)   ...       0.07
freq.     699.90  E(vib)   ...       0.07
freq.     749.90  E(vib)   ...       0.06
freq.     763.81  E(vib)   ...       0.06
freq.     791.71  E(vib)   ...       0.05
freq.     833.84  E(vib)   ...       0.04
freq.     867.21  E(vib)   ...       0.04
freq.     886.23  E(vib)   ...       0.04
freq.     960.81  E(vib)   ...       0.03
freq.     979.36  E(vib)   ...       0.03
freq.    1048.90  E(vib)   ...       0.02
freq.    1114.74  E(vib)   ...       0.01
freq.    1160.98  E(vib)   ...       0.01
freq.    1185.83  E(vib)   ...       0.01
freq.    1223.00  E(vib)   ...       0.01
freq.    1271.68  E(vib)   ...       0.01
freq.    1304.22  E(vib)   ...       0.01
freq.    1362.14  E(vib)   ...       0.01
freq.    1407.47  E(vib)   ...       0.00
freq.    1462.36  E(vib)   ...       0.00
freq.    1500.71  E(vib)   ...       0.00
freq.    1549.31  E(vib)   ...       0.00
freq.    1614.24  E(vib)   ...       0.00
freq.    1650.98  E(vib)   ...       0.00
freq.    3172.15  E(vib)   ...       0.00
freq.    3188.56  E(vib)   ...       0.00
freq.    3194.42  E(vib)   ...       0.00
freq.    3213.88  E(vib)   ...       0.00
freq.    3388.98  E(vib)   ...       0.00

------------
INNER ENERGY
------------

The inner energy is: U= E(el) + E(ZPE) + E(vib) + E(rot) + E(trans)
    E(el)   - is the total energy from the electronic structure calculation
              = E(kin-el) + E(nuc-el) + E(el-el) + E(nuc-nuc)
    E(ZPE)  - the the zero temperature vibrational energy from the frequency calculation
    E(vib)  - the the finite temperature correction to E(ZPE) due to population
              of excited vibrational states
    E(rot)  - is the rotational thermal energy
    E(trans)- is the translational thermal energy

Summary of contributions to the inner energy U:
Electronic energy                ...   -511.93686164 Eh
Zero point energy                ...      0.10694605 Eh      67.11 kcal/mol
Thermal vibrational correction   ...      0.00466112 Eh       2.92 kcal/mol
Thermal rotational correction    ...      0.00141627 Eh       0.89 kcal/mol
Thermal translational correction ...      0.00141627 Eh       0.89 kcal/mol
-----------------------------------------------------------------------
Total thermal energy                   -511.82242192 Eh

Summary of corrections to the electronic energy:
(perhaps to be used in another calculation)
Total thermal correction                  0.00749366 Eh       4.70 kcal/mol
Non-thermal (ZPE) correction              0.10694605 Eh      67.11 kcal/mol
-----------------------------------------------------------------------
Total correction                          0.11443972 Eh      71.81 kcal/mol

--------
ENTHALPY
--------

The enthalpy is H = U + kB*T
                kB is Boltzmann's constant
Total thermal energy              ...   -511.82242192 Eh
Thermal Enthalpy correction       ...      0.00094421 Eh       0.59 kcal/mol
-----------------------------------------------------------------------
Total Enthalpy                    ...   -511.82147771 Eh

Note: Only C1 symmetry has been detected, increase convergence thresholds
      if your molecule has a higher symmetry. Symmetry factor of 1.0 is
      used for the rotational entropy correction.

Note: Rotational entropy computed according to Herzberg
Infrared and Raman Spectra, Chapter V,1, Van Nostrand Reinhold, 1945
Point Group:  C1, Symmetry Number:   1
Rotational constants in cm-1:     0.078917     0.042683     0.027701

Vibrational entropy computed according to the QRRHO of S. Grimme
Chem.Eur.J. 2012 18 9955 using a reference frequency of 100.0 cm-1

-------
ENTROPY
-------

The entropy contributions are T*S = T*(S(el)+S(vib)+S(rot)+S(trans))
     S(el)   - electronic entropy
     S(vib)  - vibrational entropy
     S(rot)  - rotational entropy
     S(trans)- translational entropy
The entropies will be listed as multiplied by the temperature to get
units of energy

Electronic entropy                ...      0.00000000 Eh      0.00 kcal/mol
Vibrational entropy               ...      0.00747621 Eh      4.69 kcal/mol
Rotational entropy                ...      0.01389163 Eh      8.72 kcal/mol
Translational entropy             ...      0.01933875 Eh     12.14 kcal/mol
-----------------------------------------------------------------------
Final entropy term                ...      0.04070658 Eh     25.54 kcal/mol

In case the symmetry of your molecule has not been determined correctly
or in case you have a reason to use a different symmetry number we print
out the resulting rotational entropy values for sn=1,12:

 non-linear molecules -----------------------------------
|  sn= 1 | S(rot)=       0.01389163 Eh      8.72 kcal/mol|
|  sn= 2 | S(rot)=       0.01323717 Eh      8.31 kcal/mol|
|  sn= 3 | S(rot)=       0.01285434 Eh      8.07 kcal/mol|
|  sn= 4 | S(rot)=       0.01258271 Eh      7.90 kcal/mol|
|  sn= 5 | S(rot)=       0.01237203 Eh      7.76 kcal/mol|
|  sn= 6 | S(rot)=       0.01219988 Eh      7.66 kcal/mol|
|  sn= 7 | S(rot)=       0.01205433 Eh      7.56 kcal/mol|
|  sn= 8 | S(rot)=       0.01192826 Eh      7.49 kcal/mol|
|  sn= 9 | S(rot)=       0.01181705 Eh      7.42 kcal/mol|
|  sn=10 | S(rot)=       0.01171757 Eh      7.35 kcal/mol|
|  sn=11 | S(rot)=       0.01162758 Eh      7.30 kcal/mol|
|  sn=12 | S(rot)=       0.01154542 Eh      7.24 kcal/mol|
 linear molecules ---------------------------------------
|  Dinfh | S(rot)=       0.00871192 Eh      5.47 kcal/mol|
|  Cinfv | S(rot)=       0.00936637 Eh      5.88 kcal/mol|
 --------------------------------------------------------

-------------------
GIBBS FREE ENERGY
-------------------

                             ****ORCA TERMINATED NORMALLY****
TOTAL RUN TIME: 0 days 0 hours 12 minutes 38 seconds 103 msec
