                         Program Version 6.0.0  -   RELEASE  -
|  1> ! r2SCAN-3c DEF2-TZVP FREQ
|  2> * xyzfile 0 1 vacuum_censo.xyz
|  3>
|  4>                          ****END OF INPUT****

CARTESIAN COORDINATES (ANGSTROEM)
---------------------------------
  C      1.912443   -1.458417   -0.000085
  C      2.590023   -0.231694    0.000114
  C      1.899531    0.963945    0.000154
  C      0.497442    0.980510    0.000074
  C     -0.175323   -0.264694   -0.000033
  C      0.533627   -1.470837   -0.000135
  N     -1.622633   -0.325159    0.000009
  O     -2.252246    0.755135   -0.000435
  O     -2.175132   -1.412055   -0.000135
  O     -0.112764    2.167637    0.000017
  H      2.464194   -2.390990   -0.000159
  H      3.675178   -0.216139    0.000246
  H      2.413547    1.918557    0.000278
  H     -0.027485   -2.396888   -0.000300
  H     -1.081615    1.976788   -0.000132

 Total Charge           Charge          ....    0
 Multiplicity           Mult            ....    1
 Number of Electrons    NEL             ....   72
 Basis Dimension        Dim             ....  340

ORBITAL ENERGIES
----------------

  NO   OCC          E(Eh)            E(eV)
   0   2.0000     -19.003311      -517.1064
   1   2.0000     -19.000534      -517.0308
   2   2.0000     -18.998013      -516.9622
   3   2.0000     -14.408288      -392.0694
   4   2.0000     -10.140207      -275.9291
   5   2.0000     -10.110277      -275.1146
   6   2.0000     -10.072744      -274.0933
   7   2.0000     -10.072541      -274.0878
   8   2.0000     -10.061883      -273.7978
   9   2.0000     -10.061043      -273.7749
  10   2.0000      -1.204375       -32.7727
  11   2.0000      -1.058504       -28.8033
  12   2.0000      -1.026928       -27.9441
  13   2.0000      -0.860989       -23.4287
  14   2.0000      -0.789596       -21.4860
  15   2.0000      -0.742104       -20.1937
  16   2.0000      -0.681608       -18.5475
  17   2.0000      -0.606884       -16.5141
  18   2.0000      -0.604043       -16.4368
  19   2.0000      -0.540995       -14.7212
  20   2.0000      -0.521408       -14.1882
  21   2.0000      -0.518140       -14.0993
  22   2.0000      -0.501043       -13.6341
  23   2.0000      -0.475990       -12.9523
  24   2.0000      -0.451576       -12.2880
  25   2.0000      -0.430069       -11.7028
  26   2.0000      -0.410880       -11.1806
  27   2.0000      -0.387256       -10.5378
  28   2.0000      -0.374965       -10.2033
  29   2.0000      -0.345544        -9.4027
  30   2.0000      -0.343993        -9.3605
  31   2.0000      -0.305398        -8.3103
  32   2.0000      -0.291501        -7.9321
  33   2.0000      -0.276923        -7.5354
  34   2.0000      -0.275068        -7.4850
  35   2.0000      -0.238064        -6.4780
  36   0.0000      -0.132188        -3.5970
  37   0.0000      -0.053282        -1.4499
  38   0.0000      -0.038029        -1.0348
  39   0.0000       0.038260         1.0411
  40   0.0000       0.063546         1.7292

MULLIKEN ATOMIC CHARGES
-----------------------
   0 C :   -0.114061
   1 C :   -0.057879
   2 C :   -0.216544
   3 C :    0.218566
   4 C :   -0.007173
   5 C :   -0.131187
   6 N :    0.532284
   7 O :   -0.403529
   8 O :   -0.333516
   9 O :   -0.371516
  10 H :    0.123482
  11 H :    0.125191
  12 H :    0.127185
  13 H :    0.154809
  14 H :    0.353887
Sum of atomic charges:    0.0000000

LOEWDIN ATOMIC CHARGES
----------------------
   0 C :   -0.143158
   1 C :   -0.110545
   2 C :   -0.107069
   3 C :   -0.242545
   4 C :   -0.154950
   5 C :   -0.094203
   6 N :   -0.017114
   7 O :   -0.060313
   8 O :    0.000714
   9 O :    0.133836
  10 H :    0.148310
  11 H :    0.150375
  12 H :    0.155671
  13 H :    0.160446
  14 H :    0.180546

  Mayer bond orders larger than 0.100000
B(  0-C ,  1-C ) :   1.3180 B(  0-C ,  5-C ) :   1.4753 B(  0-C , 10-H ) :   0.9722
B(  1-C ,  2-C ) :   1.4508 B(  1-C , 11-H ) :   0.9668 B(  2-C ,  3-C ) :   1.3570
B(  2-C , 12-H ) :   0.9704 B(  3-C ,  4-C ) :   1.2263 B(  3-C ,  9-O ) :   1.2673
B(  4-C ,  5-C ) :   1.3028 B(  4-C ,  6-N ) :   1.0252 B(  5-C , 13-H ) :   0.9358
B(  6-N ,  7-O ) :   1.3652 B(  6-N ,  8-O ) :   1.5428 B(  7-O ,  8-O ) :   0.1901
B(  7-O , 14-H ) :   0.1237 B(  9-O , 14-H ) :   0.7691

Dispersion correction           -0.005256883
FINAL SINGLE POINT ENERGY      -511.937280999866

DIPOLE MOMENT
-------------

Method             : SCF
Type of density    : Electron Density
Multiplicity       :   1
Irrep              :   0
Energy             :  -511.9441341227126827 Eh
Relativity type    :
Basis              : AO
                                X                 Y                 Z
Electronic contribution:     -5.514253456       0.826559594       0.000003643
Nuclear contribution   :      6.931044625      -1.043684488       0.000193030
                        -----------------------------------------
Total Dipole Moment    :      1.416791169      -0.217124894       0.000196672
                        -----------------------------------------
Magnitude (a.u.)       :      1.433331949
Magnitude (Debye)      :      3.643240280

VIBRATIONAL FREQUENCIES
-----------------------

Scaling factor for frequencies =  1.000000000  (already applied!)

     0:       0.00 cm**-1
     1:       0.00 cm**-1
     2:       0.00 cm**-1
     3:       0.00 cm**-1
     4:       0.00 cm**-1
     5:       0.00 cm**-1
     6:      95.81 cm**-1
     7:     146.31 cm**-1
     8:     251.18 cm**-1
     9:     287.67 cm**-1
    10:     376.55 cm**-1
    11:     430.88 cm**-1
    12:     438.26 cm**-1
    13:     534.36 cm**-1
    14:     554.84 cm**-1
    15:     571.86 cm**-1
    16:     683.87 cm**-1
    17:     697.81 cm**-1
    18:     750.00 cm**-1
    19:     782.99 cm**-1
    20:     794.51 cm**-1
    21:     836.55 cm**-1
    22:     865.51 cm**-1
    23:     886.05 cm**-1
    24:     958.63 cm**-1
    25:     978.75 cm**-1
    26:    1051.00 cm**-1
    27:    1107.09 cm**-1
    28:    1157.70 cm**-1
    29:    1184.93 cm**-1
    30:    1225.19 cm**-1
    31:    1277.49 cm**-1
    32:    1315.13 cm**-1
    33:    1370.65 cm**-1
    34:    1416.02 cm**-1
    35:    1481.20 cm**-1
    36:    1508.47 cm**-1
    37:    1569.42 cm**-1
    38:    1618.82 cm**-1
    39:    1654.96 cm**-1
    40:    3170.86 cm**-1
    41:    3190.42 cm**-1
    42:    3195.56 cm**-1
    43:    3212.67 cm**-1
    44:    3334.85 cm**-1

IR SPECTRUM
-----------

 Mode   freq       eps      Int      T**2         TX        TY        TZ
       cm**-1   L/(mol*cm) km/mol    a.u.
----------------------------------------------------------------------------
  6:     95.81   0.000134    0.68  0.000437  ( 0.000015 -0.000321  0.020904)
  7:    146.31   0.000064    0.32  0.000136  (-0.000035  0.000079 -0.011654)
  8:    251.18   0.000008    0.04  0.000011  (-0.000094 -0.000043 -0.003247)
  9:    287.67   0.001366    6.90  0.001482  (-0.007257  0.037809  0.000014)
 10:    376.55   0.001120    5.66  0.000928  ( 0.002667 -0.030352 -0.000012)
 11:    430.88   0.000031    0.16  0.000022  (-0.000031  0.000063  0.004714)
 12:    438.26   0.000355    1.79  0.000252  (-0.004066  0.015361  0.000019)
 13:    534.36   0.001981   10.01  0.001157  ( 0.000075 -0.000007  0.034017)
 14:    554.84   0.001436    7.26  0.000808  (-0.000484 -0.028419 -0.000007)
 15:    571.86   0.000151    0.76  0.000082  ( 0.001348  0.008971  0.000001)
 16:    683.87   0.001690    8.54  0.000771  ( 0.027757 -0.000803 -0.000016)
 17:    697.81   0.001455    7.35  0.000651  ( 0.000020 -0.000103 -0.025509)
 18:    750.00   0.013505   68.25  0.005619  ( 0.000015 -0.000008 -0.074961)
 19:    782.99   0.013301   67.22  0.005301  ( 0.000006 -0.000043 -0.072809)
 20:    794.51   0.003057   15.45  0.001201  (-0.000048  0.000013  0.034654)
 21:    836.55   0.001814    9.17  0.000677  (-0.008821 -0.024475  0.000012)
 22:    865.51   0.000110    0.55  0.000040  (-0.000011  0.000048 -0.006289)
 23:    886.05   0.002984   15.08  0.001051  (-0.032178  0.003936 -0.000005)
 24:    958.63   0.000280    1.42  0.000091  ( 0.000007  0.000046  0.009555)
 25:    978.75   0.000077    0.39  0.000025  ( 0.000009  0.000008 -0.004967)
 26:   1051.00   0.002805   14.17  0.000833  (-0.011911  0.026285 -0.000002)
 27:   1107.09   0.003886   19.64  0.001095  (-0.028642 -0.016582 -0.000002)
 28:   1157.70   0.006747   34.10  0.001819  ( 0.035520  0.023602  0.000008)
 29:   1184.93   0.003986   20.14  0.001050  (-0.027621  0.016934 -0.000004)
 30:   1225.19   0.024579  124.21  0.006260  (-0.059032  0.052684 -0.000010)
 31:   1277.49   0.034446  174.08  0.008414  (-0.085914 -0.032145 -0.000010)
 32:   1315.13   0.035125  177.51  0.008335  (-0.038677  0.082698 -0.000007)
 33:   1370.65   0.017132   86.58  0.003901  (-0.061309 -0.011907 -0.000004)
 34:   1416.02   0.009676   48.90  0.002132  (-0.028898 -0.036017  0.000003)
 35:   1481.20   0.024617  124.41  0.005186  (-0.051990 -0.049835  0.000005)
 36:   1508.47   0.022439  113.40  0.004642  (-0.038604  0.056140  0.000001)
 37:   1569.42   0.026552  134.18  0.005280  (-0.025535 -0.068026  0.000007)
 38:   1618.82   0.013842   69.95  0.002668  (-0.021182 -0.047113 -0.000003)
 39:   1654.96   0.021954  110.95  0.004140  (-0.039367  0.050892 -0.000007)
 40:   3170.86   0.000993    5.02  0.000098  ( 0.009748  0.001636  0.000001)
 41:   3190.42   0.000969    4.90  0.000095  ( 0.002627 -0.009373 -0.000001)
 42:   3195.56   0.000363    1.84  0.000035  ( 0.005826 -0.001241 -0.000000)
 43:   3212.67   0.000649    3.28  0.000063  ( 0.007864  0.001094  0.000001)
 44:   3334.85   0.049564  250.48  0.004638  (-0.067209 -0.011002 -0.000008)

--------------------------
THERMOCHEMISTRY AT 298.15K
--------------------------

Temperature         ...   298.15 K
Pressure            ...     1.00 atm
Total Mass          ...   139.11 AMU
Quasi RRHO          ...     True
Cut-Off Frequency   ...     1.00 cm^-1

Throughout the following assumptions are being made:
  (1) The electronic state is orbitally nondegenerate
  (2) There are no thermally accessible electronically excited states
  (3) Hindered rotations indicated by low frequency modes are not
      treated as such but are treated as vibrations and this may
      cause some error
  (4) All equations used are the standard statistical mechanics
      equations for an ideal gas
  (5) All vibrations are strictly harmonic

freq.      95.81  E(vib)   ...       0.47
freq.     146.31  E(vib)   ...       0.41
freq.     251.18  E(vib)   ...       0.30
freq.     287.67  E(vib)   ...       0.27
freq.     376.55  E(vib)   ...       0.21
freq.     430.88  E(vib)   ...       0.18
freq.     438.26  E(vib)   ...       0.17
freq.     534.36  E(vib)   ...       0.13
freq.     554.84  E(vib)   ...       0.12
freq.     571.86  E(vib)   ...       0.11
freq.     683.87  E(vib)   ...       0.07
freq.     697.81  E(vib)   ...       0.07
freq.     750.00  E(vib)   ...       0.06
freq.     782.99  E(vib)   ...       0.05
freq.     794.51  E(vib)   ...       0.05
freq.     836.55  E(vib)   ...       0.04
freq.     865.51  E(vib)   ...       0.04
freq.     886.05  E(vib)   ...       0.04
freq.     958.63  E(vib)   ...       0.03
freq.     978.75  E(vib)   ...       0.03
freq.    1051.00  E(vib)   ...       0.02
freq.    1107.09  E(vib)   ...       0.02
freq.    1157.70  E(vib)   ...       0.01
freq.    1184.93  E(vib)   ...       0.01
freq.    1225.19  E(vib)   ...       0.01
freq.    1277.49  E(vib)   ...       0.01
freq.    1315.13  E(vib)   ...       0.01
freq.    1370.65  E(vib)   ...       0.01
freq.    1416.02  E(vib)   ...       0.00
freq.    1481.20  E(vib)   ...       0.00
freq.    1508.47  E(vib)   ...       0.00
freq.    1569.42  E(vib)   ...       0.00
freq.    1618.82  E(vib)   ...       0.00
freq.    1654.96  E(vib)   ...       0.00
freq.    3170.86  E(vib)   ...       0.00
freq.    3190.42  E(vib)   ...       0.00
freq.    3195.56  E(vib)   ...       0.00
freq.    3212.67  E(vib)   ...       0.00
freq.    3334.85  E(vib)   ...       0.00

------------
INNER ENERGY
------------

The inner energy is: U= E(el) + E(ZPE) + E(vib) + E(rot) + E(trans)
    E(el)   - is the total energy from the electronic structure calculation
              = E(kin-el) + E(nuc-el) + E(el-el) + E(nuc-nuc)
    E(ZPE)  - the the zero temperature vibrational energy from the frequency calculation
    E(vib)  - the the finite temperature correction to E(ZPE) due to population
              of excited vibrational states
    E(rot)  - is the rotational thermal energy
    E(trans)- is the translational thermal energy

Summary of contributions to the inner energy U:
Electronic energy                ...   -511.93728100 Eh
Zero point energy                ...      0.10699370 Eh      67.14 kcal/mol
Thermal vibrational correction   ...      0.00468851 Eh       2.94 kcal/mol
Thermal rotational correction    ...      0.00141627 Eh       0.89 kcal/mol
Thermal translational correction ...      0.00141627 Eh       0.89 kcal/mol
-----------------------------------------------------------------------
Total thermal energy                   -511.82276624 Eh

Summary of corrections to the electronic energy:
(perhaps to be used in another calculation)
Total thermal correction                  0.00752105 Eh       4.72 kcal/mol
Non-thermal (ZPE) correction              0.10699370 Eh      67.14 kcal/mol
-----------------------------------------------------------------------
Total correction                          0.11451476 Eh      71.86 kcal/mol

--------
ENTHALPY
--------

The enthalpy is H = U + kB*T
                kB is Boltzmann's constant
Total thermal energy              ...   -511.82276624 Eh
Thermal Enthalpy correction       ...      0.00094421 Eh       0.59 kcal/mol
-----------------------------------------------------------------------
Total Enthalpy                    ...   -511.82182203 Eh

Note: Only C1 symmetry has been detected, increase convergence thresholds
      if your molecule has a higher symmetry. Symmetry factor of 1.0 is
      used for the rotational entropy correction.

Note: Rotational entropy computed according to Herzberg
Infrared and Raman Spectra, Chapter V,1, Van Nostrand Reinhold, 1945
Point Group:  C1, Symmetry Number:   1
Rotational constants in cm-1:     0.079275     0.042643     0.027728

Vibrational entropy computed according to the QRRHO of S. Grimme
Chem.Eur.J. 2012 18 9955 using a reference frequency of 100.0 cm-1

-------
ENTROPY
-------

The entropy contributions are T*S = T*(S(el)+S(vib)+S(rot)+S(trans))
     S(el)   - electronic entropy
     S(vib)  - vibrational entropy
     S(rot)  - rotational entropy
     S(trans)- translational entropy
The entropies will be listed as multiplied by the temperature to get
units of energy

Electronic entropy                ...      0.00000000 Eh      0.00 kcal/mol
Vibrational entropy               ...      0.00754259 Eh      4.73 kcal/mol
Rotational entropy                ...      0.01388947 Eh      8.72 kcal/mol
Translational entropy             ...      0.01933875 Eh     12.14 kcal/mol
-----------------------------------------------------------------------
Final entropy term                ...      0.04077081 Eh     25.58 kcal/mol

In case the symmetry of your molecule has not been determined correctly
or in case you have a reason to use a different symmetry number we print
out the resulting rotational entropy values for sn=1,12:

 non-linear molecules -----------------------------------
|  sn= 1 | S(rot)=       0.01388947 Eh      8.72 kcal/mol|
|  sn= 2 | S(rot)=       0.01323502 Eh      8.31 kcal/mol|
|  sn= 3 | S(rot)=       0.01285219 Eh      8.06 kcal/mol|
|  sn= 4 | S(rot)=       0.01258056 Eh      7.89 kcal/mol|
|  sn= 5 | S(rot)=       0.01236987 Eh      7.76 kcal/mol|
|  sn= 6 | S(rot)=       0.01219773 Eh      7.65 kcal/mol|
|  sn= 7 | S(rot)=       0.01205218 Eh      7.56 kcal/mol|
|  sn= 8 | S(rot)=       0.01192611 Eh      7.48 kcal/mol|
|  sn= 9 | S(rot)=       0.01181490 Eh      7.41 kcal/mol|
|  sn=10 | S(rot)=       0.01171542 Eh      7.35 kcal/mol|
|  sn=11 | S(rot)=       0.01162543 Eh      7.30 kcal/mol|
|  sn=12 | S(rot)=       0.01154327 Eh      7.24 kcal/mol|
 linear molecules ---------------------------------------
|  Dinfh | S(rot)=       0.00871100 Eh      5.47 kcal/mol|
|  Cinfv | S(rot)=       0.00936545 Eh      5.88 kcal/mol|
 --------------------------------------------------------

-------------------
GIBBS FREE ENERGY
-------------------

                             ****ORCA TERMINATED NORMALLY****
TOTAL RUN TIME: 0 days 0 hours 12 minutes 25 seconds 314 msec
