                         Program Version 6.0.0  -   RELEASE  -
|  1> ! r2SCAN-3c DEF2-TZVP FREQ
|  2> * xyzfile 0 1 censo.xyz
|  3>
|  4>                          ****END OF INPUT****

CARTESIAN COORDINATES (ANGSTROEM)
---------------------------------
  C      1.403635   -0.000027   -0.000256
  C      0.693015   -1.195379   -0.000129
  C     -0.696176   -1.143899   -0.000086
  N     -1.398321    0.000027   -0.000091
  C     -0.696132    1.143927   -0.000169
  C      0.693062    1.195353   -0.000279
  H      2.489065   -0.000048   -0.000325
  H      1.203062   -2.152899   -0.000118
  H     -1.275440   -2.064891    0.000023
  H     -1.275360    2.064941   -0.000213
  H      1.203145    2.152854   -0.000361

 Total Charge           Charge          ....    0
 Multiplicity           Mult            ....    1
 Number of Electrons    NEL             ....   42
 Basis Dimension        Dim             ....  216

ORBITAL ENERGIES
----------------

  NO   OCC          E(Eh)            E(eV)
   0   2.0000     -14.161162      -385.3448
   1   2.0000     -10.071124      -274.0492
   2   2.0000     -10.071120      -274.0491
   3   2.0000     -10.059729      -273.7391
   4   2.0000     -10.049168      -273.4518
   5   2.0000     -10.049152      -273.4513
   6   2.0000      -0.907580       -24.6965
   7   2.0000      -0.775387       -21.0993
   8   2.0000      -0.732445       -19.9309
   9   2.0000      -0.600632       -16.3440
  10   2.0000      -0.599813       -16.3217
  11   2.0000      -0.499262       -13.5856
  12   2.0000      -0.451451       -12.2846
  13   2.0000      -0.442002       -12.0275
  14   2.0000      -0.400127       -10.8880
  15   2.0000      -0.376750       -10.2519
  16   2.0000      -0.374911       -10.2018
  17   2.0000      -0.335586        -9.1318
  18   2.0000      -0.274411        -7.4671
  19   2.0000      -0.251624        -6.8470
  20   2.0000      -0.228468        -6.2169
  21   0.0000      -0.060983        -1.6594
  22   0.0000      -0.044915        -1.2222
  23   0.0000       0.055841         1.5195
  24   0.0000       0.094211         2.5636
  25   0.0000       0.102367         2.7856

MULLIKEN ATOMIC CHARGES
-----------------------
   0 C :   -0.119714
   1 C :   -0.085810
   2 C :   -0.013666
   3 N :   -0.260168
   4 C :   -0.013667
   5 C :   -0.085809
   6 H :    0.119651
   7 H :    0.114825
   8 H :    0.114768
   9 H :    0.114767
  10 H :    0.114824
Sum of atomic charges:    0.0000000

LOEWDIN ATOMIC CHARGES
----------------------
   0 C :   -0.122410
   1 C :   -0.151012
   2 C :   -0.201484
   3 N :    0.119774
   4 C :   -0.201484
   5 C :   -0.151011
   6 H :    0.145552
   7 H :    0.144960
   8 H :    0.136077
   9 H :    0.136077
  10 H :    0.144960

  Mayer bond orders larger than 0.100000
B(  0-C ,  1-C ) :   1.4105 B(  0-C ,  5-C ) :   1.4105 B(  0-C ,  6-H ) :   0.9655
B(  1-C ,  2-C ) :   1.3928 B(  1-C ,  7-H ) :   0.9625 B(  2-C ,  3-N ) :   1.4493
B(  2-C ,  8-H ) :   0.9777 B(  3-N ,  4-C ) :   1.4492 B(  4-C ,  5-C ) :   1.3928
B(  4-C ,  9-H ) :   0.9777 B(  5-C , 10-H ) :   0.9625

Dispersion correction           -0.002989459
FINAL SINGLE POINT ENERGY      -248.232565879435

DIPOLE MOMENT
-------------

Method             : SCF
Type of density    : Electron Density
Multiplicity       :   1
Irrep              :   0
Energy             :  -248.2341907334564723 Eh
Relativity type    :
Basis              : AO
                                X                 Y                 Z
Electronic contribution:     -1.333761675       0.000025906       0.000089883
Nuclear contribution   :      2.217883549      -0.000042966      -0.000143737
                        -----------------------------------------
Total Dipole Moment    :      0.884121874      -0.000017060      -0.000053853
                        -----------------------------------------
Magnitude (a.u.)       :      0.884121876
Magnitude (Debye)      :      2.247259216

VIBRATIONAL FREQUENCIES
-----------------------

Scaling factor for frequencies =  1.000000000  (already applied!)

     0:       0.00 cm**-1
     1:       0.00 cm**-1
     2:       0.00 cm**-1
     3:       0.00 cm**-1
     4:       0.00 cm**-1
     5:       0.00 cm**-1
     6:     372.23 cm**-1
     7:     417.18 cm**-1
     8:     616.18 cm**-1
     9:     669.72 cm**-1
    10:     705.65 cm**-1
    11:     767.78 cm**-1
    12:     889.11 cm**-1
    13:     947.93 cm**-1
    14:     991.50 cm**-1
    15:    1002.99 cm**-1
    16:    1005.35 cm**-1
    17:    1053.67 cm**-1
    18:    1077.24 cm**-1
    19:    1089.44 cm**-1
    20:    1170.02 cm**-1
    21:    1234.99 cm**-1
    22:    1278.05 cm**-1
    23:    1377.72 cm**-1
    24:    1465.36 cm**-1
    25:    1502.49 cm**-1
    26:    1601.79 cm**-1
    27:    1618.56 cm**-1
    28:    3139.13 cm**-1
    29:    3141.17 cm**-1
    30:    3162.92 cm**-1
    31:    3176.62 cm**-1
    32:    3185.08 cm**-1

IR SPECTRUM
-----------

 Mode   freq       eps      Int      T**2         TX        TY        TZ
       cm**-1   L/(mol*cm) km/mol    a.u.
----------------------------------------------------------------------------
  6:    372.23   0.000000    0.00  0.000000  (-0.000025 -0.000017  0.000000)
  7:    417.18   0.000698    3.53  0.000522  (-0.000007  0.000016 -0.022857)
  8:    616.18   0.000837    4.23  0.000424  (-0.020592  0.000000  0.000001)
  9:    669.72   0.000047    0.24  0.000022  ( 0.000000  0.004702 -0.000005)
 10:    705.65   0.013520   68.32  0.005979  (-0.000016 -0.000006  0.077323)
 11:    767.78   0.000532    2.69  0.000216  (-0.000008  0.000014 -0.014704)
 12:    889.11   0.000000    0.00  0.000000  (-0.000001 -0.000002  0.000000)
 13:    947.93   0.000000    0.00  0.000000  (-0.000001  0.000002 -0.000045)
 14:    991.50   0.000000    0.00  0.000000  ( 0.000000  0.000000  0.000000)
 15:   1002.99   0.000000    0.00  0.000000  ( 0.000001  0.000002  0.000074)
 16:   1005.35   0.000980    4.95  0.000304  (-0.017439  0.000000  0.000001)
 17:   1053.67   0.001873    9.47  0.000555  (-0.023554  0.000000  0.000001)
 18:   1077.24   0.000001    0.01  0.000000  ( 0.000000  0.000638  0.000000)
 19:   1089.44   0.000465    2.35  0.000133  ( 0.011545 -0.000000 -0.000001)
 20:   1170.02   0.000412    2.08  0.000110  ( 0.000000  0.010488 -0.000001)
 21:   1234.99   0.000651    3.29  0.000164  (-0.012823  0.000000  0.000001)
 22:   1278.05   0.000120    0.60  0.000029  ( 0.000000  0.005403 -0.000001)
 23:   1377.72   0.000009    0.05  0.000002  ( 0.000000  0.001466 -0.000000)
 24:   1465.36   0.005285   26.71  0.001126  ( 0.000001  0.033550 -0.000001)
 25:   1502.49   0.000478    2.42  0.000099  (-0.009964  0.000000  0.000000)
 26:   1601.79   0.001522    7.69  0.000297  ( 0.000000  0.017221 -0.000001)
 27:   1618.56   0.004490   22.69  0.000866  ( 0.029424 -0.000001 -0.000002)
 28:   3139.13   0.005209   26.32  0.000518  ( 0.000002  0.022755 -0.000000)
 29:   3141.17   0.001165    5.89  0.000116  (-0.010758  0.000004  0.000001)
 30:   3162.92   0.000929    4.70  0.000092  (-0.009575  0.000001  0.000001)
 31:   3176.62   0.005549   28.04  0.000545  ( 0.000001  0.023347 -0.000001)
 32:   3185.08   0.001443    7.29  0.000141  ( 0.011890 -0.000001 -0.000001)

--------------------------
THERMOCHEMISTRY AT 298.15K
--------------------------

Temperature         ...   298.15 K
Pressure            ...     1.00 atm
Total Mass          ...    79.10 AMU
Quasi RRHO          ...     True
Cut-Off Frequency   ...     1.00 cm^-1

Throughout the following assumptions are being made:
  (1) The electronic state is orbitally nondegenerate
  (2) There are no thermally accessible electronically excited states
  (3) Hindered rotations indicated by low frequency modes are not
      treated as such but are treated as vibrations and this may
      cause some error
  (4) All equations used are the standard statistical mechanics
      equations for an ideal gas
  (5) All vibrations are strictly harmonic

freq.     372.23  E(vib)   ...       0.21
freq.     417.18  E(vib)   ...       0.18
freq.     616.18  E(vib)   ...       0.09
freq.     669.72  E(vib)   ...       0.08
freq.     705.65  E(vib)   ...       0.07
freq.     767.78  E(vib)   ...       0.06
freq.     889.11  E(vib)   ...       0.04
freq.     947.93  E(vib)   ...       0.03
freq.     991.50  E(vib)   ...       0.02
freq.    1002.99  E(vib)   ...       0.02
freq.    1005.35  E(vib)   ...       0.02
freq.    1053.67  E(vib)   ...       0.02
freq.    1077.24  E(vib)   ...       0.02
freq.    1089.44  E(vib)   ...       0.02
freq.    1170.02  E(vib)   ...       0.01
freq.    1234.99  E(vib)   ...       0.01
freq.    1278.05  E(vib)   ...       0.01
freq.    1377.72  E(vib)   ...       0.01
freq.    1465.36  E(vib)   ...       0.00
freq.    1502.49  E(vib)   ...       0.00
freq.    1601.79  E(vib)   ...       0.00
freq.    1618.56  E(vib)   ...       0.00
freq.    3139.13  E(vib)   ...       0.00
freq.    3141.17  E(vib)   ...       0.00
freq.    3162.92  E(vib)   ...       0.00
freq.    3176.62  E(vib)   ...       0.00
freq.    3185.08  E(vib)   ...       0.00

------------
INNER ENERGY
------------

The inner energy is: U= E(el) + E(ZPE) + E(vib) + E(rot) + E(trans)
    E(el)   - is the total energy from the electronic structure calculation
              = E(kin-el) + E(nuc-el) + E(el-el) + E(nuc-nuc)
    E(ZPE)  - the the zero temperature vibrational energy from the frequency calculation
    E(vib)  - the the finite temperature correction to E(ZPE) due to population
              of excited vibrational states
    E(rot)  - is the rotational thermal energy
    E(trans)- is the translational thermal energy

Summary of contributions to the inner energy U:
Electronic energy                ...   -248.23256588 Eh
Zero point energy                ...      0.08807371 Eh      55.27 kcal/mol
Thermal vibrational correction   ...      0.00147144 Eh       0.92 kcal/mol
Thermal rotational correction    ...      0.00141627 Eh       0.89 kcal/mol
Thermal translational correction ...      0.00141627 Eh       0.89 kcal/mol
-----------------------------------------------------------------------
Total thermal energy                   -248.14018818 Eh

Summary of corrections to the electronic energy:
(perhaps to be used in another calculation)
Total thermal correction                  0.00430399 Eh       2.70 kcal/mol
Non-thermal (ZPE) correction              0.08807371 Eh      55.27 kcal/mol
-----------------------------------------------------------------------
Total correction                          0.09237770 Eh      57.97 kcal/mol

--------
ENTHALPY
--------

The enthalpy is H = U + kB*T
                kB is Boltzmann's constant
Total thermal energy              ...   -248.14018818 Eh
Thermal Enthalpy correction       ...      0.00094421 Eh       0.59 kcal/mol
-----------------------------------------------------------------------
Total Enthalpy                    ...   -248.13924397 Eh

Note: Rotational entropy computed according to Herzberg
Infrared and Raman Spectra, Chapter V,1, Van Nostrand Reinhold, 1945
Point Group:  C2v, Symmetry Number:   2
Rotational constants in cm-1:     0.201409     0.194500     0.098947

Vibrational entropy computed according to the QRRHO of S. Grimme
Chem.Eur.J. 2012 18 9955 using a reference frequency of 100.0 cm-1

-------
ENTROPY
-------

The entropy contributions are T*S = T*(S(el)+S(vib)+S(rot)+S(trans))
     S(el)   - electronic entropy
     S(vib)  - vibrational entropy
     S(rot)  - rotational entropy
     S(trans)- translational entropy
The entropies will be listed as multiplied by the temperature to get
units of energy

Electronic entropy                ...      0.00000000 Eh      0.00 kcal/mol
Vibrational entropy               ...      0.00199677 Eh      1.25 kcal/mol
Rotational entropy                ...      0.01147783 Eh      7.20 kcal/mol
Translational entropy             ...      0.01853922 Eh     11.63 kcal/mol
-----------------------------------------------------------------------
Final entropy term                ...      0.03201382 Eh     20.09 kcal/mol

In case the symmetry of your molecule has not been determined correctly
or in case you have a reason to use a different symmetry number we print
out the resulting rotational entropy values for sn=1,12:

 non-linear molecules -----------------------------------
|  sn= 1 | S(rot)=       0.01213228 Eh      7.61 kcal/mol|
|  sn= 2 | S(rot)=       0.01147783 Eh      7.20 kcal/mol|
|  sn= 3 | S(rot)=       0.01109500 Eh      6.96 kcal/mol|
|  sn= 4 | S(rot)=       0.01082337 Eh      6.79 kcal/mol|
|  sn= 5 | S(rot)=       0.01061268 Eh      6.66 kcal/mol|
|  sn= 6 | S(rot)=       0.01044054 Eh      6.55 kcal/mol|
|  sn= 7 | S(rot)=       0.01029499 Eh      6.46 kcal/mol|
|  sn= 8 | S(rot)=       0.01016892 Eh      6.38 kcal/mol|
|  sn= 9 | S(rot)=       0.01005771 Eh      6.31 kcal/mol|
|  sn=10 | S(rot)=       0.00995823 Eh      6.25 kcal/mol|
|  sn=11 | S(rot)=       0.00986824 Eh      6.19 kcal/mol|
|  sn=12 | S(rot)=       0.00978608 Eh      6.14 kcal/mol|
 linear molecules ---------------------------------------
|  Dinfh | S(rot)=       0.00750986 Eh      4.71 kcal/mol|
|  Cinfv | S(rot)=       0.00816431 Eh      5.12 kcal/mol|
 --------------------------------------------------------

-------------------
GIBBS FREE ENERGY
-------------------

The Gibbs free energy is G = H - T*S

Total enthalpy                    ...   -248.13924397 Eh
Total entropy correction          ...     -0.03201382 Eh    -20.09 kcal/mol
-----------------------------------------------------------------------
Final Gibbs free energy         ...   -248.17125780 Eh

For completeness - the Gibbs free energy minus the electronic energy
G-E(el)                           ...      0.06130808 Eh     38.47 kcal/mol

                             ****ORCA TERMINATED NORMALLY****
TOTAL RUN TIME: 0 days 0 hours 5 minutes 26 seconds 527 msec
