                         Program Version 6.0.0  -   RELEASE  -
|  1> ! r2SCAN-3c DEF2-TZVP FREQ
|  2> * xyzfile 0 1 vacuum_censo.xyz
|  3>
|  4>                          ****END OF INPUT****

CARTESIAN COORDINATES (ANGSTROEM)
---------------------------------
  C      1.404345   -0.000621   -0.000044
  C      0.693914   -1.195247   -0.000079
  C     -0.697240   -1.140655   -0.000126
  N     -1.393742    0.000609   -0.000063
  C     -0.696238    1.141260   -0.000005
  C      0.694965    1.194629   -0.000034
  H      2.489979   -0.001100   -0.000054
  H      1.204817   -2.152560   -0.000084
  H     -1.281949   -2.059568   -0.000041
  H     -1.280137    2.060687   -0.000076
  H      1.206710    2.151493   -0.000032

 Total Charge           Charge          ....    0
 Multiplicity           Mult            ....    1
 Number of Electrons    NEL             ....   42
 Basis Dimension        Dim             ....  216

ORBITAL ENERGIES
----------------

  NO   OCC          E(Eh)            E(eV)
   0   2.0000     -14.160198      -385.3186
   1   2.0000     -10.070917      -274.0436
   2   2.0000     -10.070914      -274.0435
   3   2.0000     -10.059430      -273.7310
   4   2.0000     -10.049208      -273.4528
   5   2.0000     -10.049192      -273.4524
   6   2.0000      -0.909639       -24.7525
   7   2.0000      -0.775765       -21.1096
   8   2.0000      -0.732135       -19.9224
   9   2.0000      -0.600895       -16.3512
  10   2.0000      -0.599733       -16.3196
  11   2.0000      -0.499338       -13.5877
  12   2.0000      -0.451855       -12.2956
  13   2.0000      -0.441850       -12.0233
  14   2.0000      -0.399673       -10.8756
  15   2.0000      -0.377572       -10.2742
  16   2.0000      -0.375103       -10.2071
  17   2.0000      -0.335747        -9.1361
  18   2.0000      -0.275088        -7.4855
  19   2.0000      -0.251177        -6.8349
  20   2.0000      -0.227869        -6.2006
  21   0.0000      -0.059948        -1.6313
  22   0.0000      -0.045304        -1.2328
  23   0.0000       0.055867         1.5202
  24   0.0000       0.094412         2.5691
  25   0.0000       0.103011         2.8031

MULLIKEN ATOMIC CHARGES
-----------------------
   0 C :   -0.119174
   1 C :   -0.086783
   2 C :   -0.013363
   3 N :   -0.258539
   4 C :   -0.013363
   5 C :   -0.086783
   6 H :    0.119409
   7 H :    0.114933
   8 H :    0.114366
   9 H :    0.114365
  10 H :    0.114933
Sum of atomic charges:    0.0000000

LOEWDIN ATOMIC CHARGES
----------------------
   0 C :   -0.123437
   1 C :   -0.150167
   2 C :   -0.203090
   3 N :    0.122180
   4 C :   -0.203091
   5 C :   -0.150167
   6 H :    0.145623
   7 H :    0.144850
   8 H :    0.136226
   9 H :    0.136225
  10 H :    0.144850

  Mayer bond orders larger than 0.100000
B(  0-C ,  1-C ) :   1.4119 B(  0-C ,  5-C ) :   1.4119 B(  0-C ,  6-H ) :   0.9654
B(  1-C ,  2-C ) :   1.3903 B(  1-C ,  7-H ) :   0.9626 B(  2-C ,  3-N ) :   1.4517
B(  2-C ,  8-H ) :   0.9776 B(  3-N ,  4-C ) :   1.4517 B(  4-C ,  5-C ) :   1.3903
B(  4-C ,  9-H ) :   0.9776 B(  5-C , 10-H ) :   0.9626

Dispersion correction           -0.002990190
FINAL SINGLE POINT ENERGY      -248.232653911171

DIPOLE MOMENT
-------------

Method             : SCF
Type of density    : Electron Density
Multiplicity       :   1
Irrep              :   0
Energy             :  -248.2342941330448696 Eh
Relativity type    :
Basis              : AO
                                X                 Y                 Z
Electronic contribution:     -1.330352745       0.000585793      -0.000005751
Nuclear contribution   :      2.207992374      -0.000971100       0.000005941
                        -----------------------------------------
Total Dipole Moment    :      0.877639629      -0.000385307       0.000000189
                        -----------------------------------------
Magnitude (a.u.)       :      0.877639713
Magnitude (Debye)      :      2.230782868

VIBRATIONAL FREQUENCIES
-----------------------

Scaling factor for frequencies =  1.000000000  (already applied!)

     0:       0.00 cm**-1
     1:       0.00 cm**-1
     2:       0.00 cm**-1
     3:       0.00 cm**-1
     4:       0.00 cm**-1
     5:       0.00 cm**-1
     6:     373.49 cm**-1
     7:     412.78 cm**-1
     8:     614.98 cm**-1
     9:     671.16 cm**-1
    10:     707.99 cm**-1
    11:     767.16 cm**-1
    12:     891.46 cm**-1
    13:     950.82 cm**-1
    14:     994.09 cm**-1
    15:    1004.06 cm**-1
    16:    1009.68 cm**-1
    17:    1052.95 cm**-1
    18:    1075.17 cm**-1
    19:    1093.83 cm**-1
    20:    1170.47 cm**-1
    21:    1239.70 cm**-1
    22:    1292.60 cm**-1
    23:    1381.13 cm**-1
    24:    1466.84 cm**-1
    25:    1507.36 cm**-1
    26:    1609.39 cm**-1
    27:    1616.79 cm**-1
    28:    3128.15 cm**-1
    29:    3130.74 cm**-1
    30:    3160.32 cm**-1
    31:    3174.48 cm**-1
    32:    3182.96 cm**-1

IR SPECTRUM
-----------

 Mode   freq       eps      Int      T**2         TX        TY        TZ
       cm**-1   L/(mol*cm) km/mol    a.u.
----------------------------------------------------------------------------
  6:    373.49   0.000000    0.00  0.000000  ( 0.000003 -0.000001 -0.000002)
  7:    412.78   0.000702    3.55  0.000531  (-0.000007 -0.000014  0.023037)
  8:    614.98   0.000856    4.33  0.000434  (-0.020844  0.000009  0.000000)
  9:    671.16   0.000048    0.24  0.000022  ( 0.000002  0.004713 -0.000006)
 10:    707.99   0.013371   67.57  0.005894  ( 0.000000  0.000003 -0.076770)
 11:    767.16   0.000632    3.19  0.000257  (-0.000006  0.000000  0.016031)
 12:    891.46   0.000000    0.00  0.000000  (-0.000007  0.000000  0.000000)
 13:    950.82   0.000001    0.00  0.000000  (-0.000001  0.000005  0.000448)
 14:    994.09   0.000000    0.00  0.000000  (-0.000007 -0.000000  0.000000)
 15:   1004.06   0.000000    0.00  0.000000  (-0.000001  0.000002 -0.000171)
 16:   1009.68   0.000898    4.54  0.000277  (-0.016657  0.000007  0.000000)
 17:   1052.95   0.001870    9.45  0.000554  (-0.023542  0.000010 -0.000000)
 18:   1075.17   0.000002    0.01  0.000000  ( 0.000002  0.000664 -0.000001)
 19:   1093.83   0.000493    2.49  0.000141  ( 0.011863 -0.000005  0.000000)
 20:   1170.47   0.000410    2.07  0.000109  (-0.000004 -0.010455 -0.000001)
 21:   1239.70   0.000717    3.62  0.000181  (-0.013435  0.000006  0.000000)
 22:   1292.60   0.000047    0.24  0.000011  ( 0.000002  0.003363 -0.000002)
 23:   1381.13   0.000002    0.01  0.000001  (-0.000001 -0.000720 -0.000000)
 24:   1466.84   0.005297   26.77  0.001127  ( 0.000015  0.033570  0.000001)
 25:   1507.36   0.000490    2.47  0.000101  (-0.010069  0.000004 -0.000000)
 26:   1609.39   0.001721    8.70  0.000334  ( 0.000016  0.018267  0.000000)
 27:   1616.79   0.004534   22.91  0.000875  ( 0.029583 -0.000019  0.000000)
 28:   3128.15   0.005977   30.21  0.000596  ( 0.000004  0.024419  0.000002)
 29:   3130.74   0.001262    6.38  0.000126  (-0.011215 -0.000012 -0.000000)
 30:   3160.32   0.000775    3.92  0.000077  (-0.008747  0.000004 -0.000000)
 31:   3174.48   0.005115   25.85  0.000503  ( 0.000009  0.022423  0.000001)
 32:   3182.96   0.001547    7.82  0.000152  ( 0.012314 -0.000005  0.000000)

--------------------------
THERMOCHEMISTRY AT 298.15K
--------------------------

Temperature         ...   298.15 K
Pressure            ...     1.00 atm
Total Mass          ...    79.10 AMU
Quasi RRHO          ...     True
Cut-Off Frequency   ...     1.00 cm^-1

Throughout the following assumptions are being made:
  (1) The electronic state is orbitally nondegenerate
  (2) There are no thermally accessible electronically excited states
  (3) Hindered rotations indicated by low frequency modes are not
      treated as such but are treated as vibrations and this may
      cause some error
  (4) All equations used are the standard statistical mechanics
      equations for an ideal gas
  (5) All vibrations are strictly harmonic

freq.     373.49  E(vib)   ...       0.21
freq.     412.78  E(vib)   ...       0.19
freq.     614.98  E(vib)   ...       0.10
freq.     671.16  E(vib)   ...       0.08
freq.     707.99  E(vib)   ...       0.07
freq.     767.16  E(vib)   ...       0.06
freq.     891.46  E(vib)   ...       0.03
freq.     950.82  E(vib)   ...       0.03
freq.     994.09  E(vib)   ...       0.02
freq.    1004.06  E(vib)   ...       0.02
freq.    1009.68  E(vib)   ...       0.02
freq.    1052.95  E(vib)   ...       0.02
freq.    1075.17  E(vib)   ...       0.02
freq.    1093.83  E(vib)   ...       0.02
freq.    1170.47  E(vib)   ...       0.01
freq.    1239.70  E(vib)   ...       0.01
freq.    1292.60  E(vib)   ...       0.01
freq.    1381.13  E(vib)   ...       0.01
freq.    1466.84  E(vib)   ...       0.00
freq.    1507.36  E(vib)   ...       0.00
freq.    1609.39  E(vib)   ...       0.00
freq.    1616.79  E(vib)   ...       0.00
freq.    3128.15  E(vib)   ...       0.00
freq.    3130.74  E(vib)   ...       0.00
freq.    3160.32  E(vib)   ...       0.00
freq.    3174.48  E(vib)   ...       0.00
freq.    3182.96  E(vib)   ...       0.00

------------
INNER ENERGY
------------

The inner energy is: U= E(el) + E(ZPE) + E(vib) + E(rot) + E(trans)
    E(el)   - is the total energy from the electronic structure calculation
              = E(kin-el) + E(nuc-el) + E(el-el) + E(nuc-nuc)
    E(ZPE)  - the the zero temperature vibrational energy from the frequency calculation
    E(vib)  - the the finite temperature correction to E(ZPE) due to population
              of excited vibrational states
    E(rot)  - is the rotational thermal energy
    E(trans)- is the translational thermal energy

Summary of contributions to the inner energy U:
Electronic energy                ...   -248.23265391 Eh
Zero point energy                ...      0.08812080 Eh      55.30 kcal/mol
Thermal vibrational correction   ...      0.00146992 Eh       0.92 kcal/mol
Thermal rotational correction    ...      0.00141627 Eh       0.89 kcal/mol
Thermal translational correction ...      0.00141627 Eh       0.89 kcal/mol
-----------------------------------------------------------------------
Total thermal energy                   -248.14023065 Eh

Summary of corrections to the electronic energy:
(perhaps to be used in another calculation)
Total thermal correction                  0.00430246 Eh       2.70 kcal/mol
Non-thermal (ZPE) correction              0.08812080 Eh      55.30 kcal/mol
-----------------------------------------------------------------------
Total correction                          0.09242326 Eh      58.00 kcal/mol

--------
ENTHALPY
--------

The enthalpy is H = U + kB*T
                kB is Boltzmann's constant
Total thermal energy              ...   -248.14023065 Eh
Thermal Enthalpy correction       ...      0.00094421 Eh       0.59 kcal/mol
-----------------------------------------------------------------------
Total Enthalpy                    ...   -248.13928644 Eh

Note: Rotational entropy computed according to Herzberg
Infrared and Raman Spectra, Chapter V,1, Van Nostrand Reinhold, 1945
Point Group:  C2, Symmetry Number:   2
Rotational constants in cm-1:     0.201974     0.194593     0.099107

Vibrational entropy computed according to the QRRHO of S. Grimme
Chem.Eur.J. 2012 18 9955 using a reference frequency of 100.0 cm-1

-------
ENTROPY
-------

The entropy contributions are T*S = T*(S(el)+S(vib)+S(rot)+S(trans))
     S(el)   - electronic entropy
     S(vib)  - vibrational entropy
     S(rot)  - rotational entropy
     S(trans)- translational entropy
The entropies will be listed as multiplied by the temperature to get
units of energy

Electronic entropy                ...      0.00000000 Eh      0.00 kcal/mol
Vibrational entropy               ...      0.00199612 Eh      1.25 kcal/mol
Rotational entropy                ...      0.01147552 Eh      7.20 kcal/mol
Translational entropy             ...      0.01853922 Eh     11.63 kcal/mol
-----------------------------------------------------------------------
Final entropy term                ...      0.03201086 Eh     20.09 kcal/mol

In case the symmetry of your molecule has not been determined correctly
or in case you have a reason to use a different symmetry number we print
out the resulting rotational entropy values for sn=1,12:

 non-linear molecules -----------------------------------
|  sn= 1 | S(rot)=       0.01212997 Eh      7.61 kcal/mol|
|  sn= 2 | S(rot)=       0.01147552 Eh      7.20 kcal/mol|
|  sn= 3 | S(rot)=       0.01109269 Eh      6.96 kcal/mol|
|  sn= 4 | S(rot)=       0.01082106 Eh      6.79 kcal/mol|
|  sn= 5 | S(rot)=       0.01061037 Eh      6.66 kcal/mol|
|  sn= 6 | S(rot)=       0.01043823 Eh      6.55 kcal/mol|
|  sn= 7 | S(rot)=       0.01029268 Eh      6.46 kcal/mol|
|  sn= 8 | S(rot)=       0.01016661 Eh      6.38 kcal/mol|
|  sn= 9 | S(rot)=       0.01005540 Eh      6.31 kcal/mol|
|  sn=10 | S(rot)=       0.00995592 Eh      6.25 kcal/mol|
|  sn=11 | S(rot)=       0.00986593 Eh      6.19 kcal/mol|
|  sn=12 | S(rot)=       0.00978377 Eh      6.14 kcal/mol|
 linear molecules ---------------------------------------
|  Dinfh | S(rot)=       0.00750833 Eh      4.71 kcal/mol|
|  Cinfv | S(rot)=       0.00816279 Eh      5.12 kcal/mol|
 --------------------------------------------------------

-------------------
GIBBS FREE ENERGY
-------------------

The Gibbs free energy is G = H - T*S

Total enthalpy                    ...   -248.13928644 Eh
Total entropy correction          ...     -0.03201086 Eh    -20.09 kcal/mol
-----------------------------------------------------------------------
Final Gibbs free energy         ...   -248.17129730 Eh

For completeness - the Gibbs free energy minus the electronic energy
G-E(el)                           ...      0.06135661 Eh     38.50 kcal/mol

                             ****ORCA TERMINATED NORMALLY****
TOTAL RUN TIME: 0 days 0 hours 5 minutes 25 seconds 718 msec
