                         Program Version 6.0.1  -  RELEASE   -
|  1> ! pbe def2-sv(p) def2/J RI DEFGRID1 loosescf d4 GCP(DFT/SV(P)) printgap
|  2> %output
|  3>     printlevel normal
|  4> end
|  5> * xyz 0 1
|  6> C -1.8921548291 -1.1796772726 -0.3974180064
|  7> C -1.0473229104 -0.5256556135 0.7273231957
|  8> H -1.6024914529 -0.6007260916 1.6695573273
|  9> C -0.7614330867 0.9779954898 0.5237434552
| 10> H -1.6686106069 1.4643369033 0.1487417988
| 11> C 0.3925888129 1.2024172333 -0.4705512273
| 12> H 0.6388375162 2.2787480926 -0.458659197
| 13> C 1.6296990224 0.398019191 -0.0165551629
| 14> H 2.3966808319 0.4603488741 -0.8034014269
| 15> C 1.2340424614 -1.0838907623 0.1230375671
| 16> H 2.0366248265 -1.6342970933 0.6287293547
| 17> O 0.1362104964 -1.2605784025 0.9871063926
| 18> O 1.0590146766 -1.6538608064 -1.1326312541
| 19> O 2.1374407009 0.8430635287 1.2178170875
| 20> O 0.069942589 0.8169222667 -1.7890222773
| 21> O -0.478814608 1.5910796193 1.7516895641
| 22> O -2.423667175 -0.1995405433 -1.2813074826
| 23> H -2.7114512 -1.7437286724 0.0604109603
| 24> H -1.2564912783 -1.8840172759 -0.9451645595
| 25> H 0.6908439377 -0.9705052254 -1.7242185241
| 26> H 2.4290177765 1.7582649947 1.1267447178
| 27> H -0.8943996056 0.6873441864 -1.8413752103
| 28> H 0.3100609924 1.1611858819 2.1201375818
| 29> H -3.0096278522 -0.6410768359 -1.9052289138
| 30> *
| 31>
| 32>                          ****END OF INPUT****

CARTESIAN COORDINATES (ANGSTROEM)
---------------------------------
  C     -1.892155   -1.179677   -0.397418
  C     -1.047323   -0.525656    0.727323
  H     -1.602491   -0.600726    1.669557
  C     -0.761433    0.977995    0.523743
  H     -1.668611    1.464337    0.148742
  C      0.392589    1.202417   -0.470551
  H      0.638838    2.278748   -0.458659
  C      1.629699    0.398019   -0.016555
  H      2.396681    0.460349   -0.803401
  C      1.234042   -1.083891    0.123038
  H      2.036625   -1.634297    0.628729
  O      0.136210   -1.260578    0.987106
  O      1.059015   -1.653861   -1.132631
  O      2.137441    0.843064    1.217817
  O      0.069943    0.816922   -1.789022
  O     -0.478815    1.591080    1.751690
  O     -2.423667   -0.199541   -1.281307
  H     -2.711451   -1.743729    0.060411
  H     -1.256491   -1.884017   -0.945165
  H      0.690844   -0.970505   -1.724219
  H      2.429018    1.758265    1.126745
  H     -0.894400    0.687344   -1.841375
  H      0.310061    1.161186    2.120138
  H     -3.009628   -0.641077   -1.905229

 Total Charge           Charge          ....    0
 Multiplicity           Mult            ....    1
 Number of Electrons    NEL             ....   96
 Basis Dimension        Dim             ....  192

ORBITAL ENERGIES
----------------

  NO   OCC          E(Eh)            E(eV)
   0   2.0000     -18.789224      -511.2808
   1   2.0000     -18.774562      -510.8818
   2   2.0000     -18.766719      -510.6684
   3   2.0000     -18.759768      -510.4793
   4   2.0000     -18.744820      -510.0725
   5   2.0000     -18.740743      -509.9615
   6   2.0000      -9.979510      -271.5563
   7   2.0000      -9.948737      -270.7189
   8   2.0000      -9.948606      -270.7153
   9   2.0000      -9.946825      -270.6669
  10   2.0000      -9.944990      -270.6169
  11   2.0000      -9.943160      -270.5671
  12   2.0000      -0.979388       -26.6505
  13   2.0000      -0.958119       -26.0717
  14   2.0000      -0.946855       -25.7652
  15   2.0000      -0.938532       -25.5388
  16   2.0000      -0.923609       -25.1327
  17   2.0000      -0.901379       -24.5278
  18   2.0000      -0.701333       -19.0843
  19   2.0000      -0.692800       -18.8520
  20   2.0000      -0.623551       -16.9677
  21   2.0000      -0.594187       -16.1687
  22   2.0000      -0.576819       -15.6960
  23   2.0000      -0.523960       -14.2577
  24   2.0000      -0.501471       -13.6457
  25   2.0000      -0.488320       -13.2879
  26   2.0000      -0.479159       -13.0386
  27   2.0000      -0.472435       -12.8556
  28   2.0000      -0.441366       -12.0102
  29   2.0000      -0.433566       -11.7979
  30   2.0000      -0.427150       -11.6234
  31   2.0000      -0.408727       -11.1220
  32   2.0000      -0.401487       -10.9250
  33   2.0000      -0.376557       -10.2466
  34   2.0000      -0.362665        -9.8686
  35   2.0000      -0.349755        -9.5173
  36   2.0000      -0.335304        -9.1241
  37   2.0000      -0.333426        -9.0730
  38   2.0000      -0.316266        -8.6060
  39   2.0000      -0.294124        -8.0035
  40   2.0000      -0.290573        -7.9069
  41   2.0000      -0.271359        -7.3841
  42   2.0000      -0.260358        -7.0847
  43   2.0000      -0.248293        -6.7564
  44   2.0000      -0.239861        -6.5269
  45   2.0000      -0.225548        -6.1375
  46   2.0000      -0.215958        -5.8765
  47   2.0000      -0.205105        -5.5812
  48   0.0000      -0.001174        -0.0319
  49   0.0000       0.013794         0.3753
  50   0.0000       0.043051         1.1715
  51   0.0000       0.056469         1.5366
  52   0.0000       0.073141         1.9903

MULLIKEN ATOMIC CHARGES
-----------------------
   0 C :   -0.005771
   1 C :    0.029536
   2 H :    0.085160
   3 C :    0.034752
   4 H :    0.089949
   5 C :    0.027465
   6 H :    0.065313
   7 C :   -0.022084
   8 H :    0.091138
   9 C :    0.226254
  10 H :    0.074680
  11 O :   -0.310253
  12 O :   -0.405918
  13 O :   -0.408631
  14 O :   -0.435447
  15 O :   -0.429613
  16 O :   -0.440280
  17 H :    0.086562
  18 H :    0.107625
  19 H :    0.299998
  20 H :    0.309828
  21 H :    0.312898
  22 H :    0.297938
  23 H :    0.318899
Sum of atomic charges:   -0.0000000

LOEWDIN ATOMIC CHARGES
----------------------
   0 C :   -0.147854
   1 C :   -0.066687
   2 H :    0.124232
   3 C :   -0.081007
   4 H :    0.120271
   5 C :   -0.077450
   6 H :    0.100166
   7 C :   -0.095003
   8 H :    0.112090
   9 C :    0.005044
  10 H :    0.111454
  11 O :   -0.141045
  12 O :   -0.313095
  13 O :   -0.301160
  14 O :   -0.323828
  15 O :   -0.317308
  16 O :   -0.330197
  17 H :    0.109904
  18 H :    0.110703
  19 H :    0.267670
  20 H :    0.291478
  21 H :    0.274036
  22 H :    0.269846
  23 H :    0.297740

  Mayer bond orders larger than 0.100000
B(  0-C ,  1-C ) :   1.0329 B(  0-C , 16-O ) :   1.0183 B(  0-C , 17-H ) :   0.9165
B(  0-C , 18-H ) :   0.9063 B(  1-C ,  2-H ) :   0.8956 B(  1-C ,  3-C ) :   1.0298
B(  1-C , 11-O ) :   1.0237 B(  3-C ,  4-H ) :   0.8789 B(  3-C ,  5-C ) :   0.9839
B(  3-C , 15-O ) :   1.0528 B(  5-C ,  6-H ) :   0.9029 B(  5-C ,  7-C ) :   0.9688
B(  5-C , 14-O ) :   1.0490 B(  7-C ,  8-H ) :   0.9008 B(  7-C ,  9-C ) :   0.9914
B(  7-C , 13-O ) :   1.0374 B(  9-C , 10-H ) :   0.9063 B(  9-C , 11-O ) :   1.0413
B(  9-C , 12-O ) :   1.1273 B( 12-O , 19-H ) :   0.7782 B( 13-O , 20-H ) :   0.8377
B( 14-O , 19-H ) :   0.1377 B( 14-O , 21-H ) :   0.7699 B( 15-O , 22-H ) :   0.8113
B( 16-O , 21-H ) :   0.1386 B( 16-O , 23-H ) :   0.8386

Dispersion correction           -0.026749016
FINAL SINGLE POINT ENERGY      -685.698041075608

DIPOLE MOMENT
-------------

Method             : SCF
Type of density    : Electron Density
Multiplicity       :   1
Irrep              :   0
Energy             :  -685.8352173360385677 Eh
Relativity type    :
Basis              : AO
                                X                 Y                 Z
Electronic contribution:      1.823300612      -0.030941017       1.151024833
Nuclear contribution   :     -2.470303896       0.317141312      -1.808431854
                        -----------------------------------------
Total Dipole Moment    :     -0.647003284       0.286200295      -0.657407020
                        -----------------------------------------
Magnitude (a.u.)       :      0.965768010
Magnitude (Debye)      :      2.454787196

Rotational constants in cm-1:             0.041641             0.030886             0.026951
Rotational constants in MHz :          1248.372174           925.953391           807.967355

                             ****ORCA TERMINATED NORMALLY****
TOTAL RUN TIME: 0 days 0 hours 18 minutes 19 seconds 509 msec
