                         Program Version 6.0.1  -  RELEASE   -
|  1> ! r2scan-3c def2/J RI DEFGRID2 scfconv6 printgap
|  2> %output
|  3>     printlevel normal
|  4> end
|  5> * xyz 0 1
|  6> C -2.1319158882 -0.874830765 -0.3228742029
|  7> C -1.1918145349 -0.3310127649 0.7743534673
|  8> H -1.7749511924 -0.3652648712 1.7048913085
|  9> C -0.7651455452 1.1408408388 0.59268382
| 10> H -1.6332356221 1.7285498354 0.266051275
| 11> C 0.3854492472 1.3128358696 -0.4211447575
| 12> H 0.8096184074 2.3160608326 -0.2493691934
| 13> C 1.5085796671 0.2949540899 -0.1396332196
| 14> H 2.1357076571 0.2130719682 -1.0380224572
| 15> C 1.022375785 -1.1423236826 0.1963904706
| 16> H 1.8285836524 -1.6005543629 0.7860471109
| 17> O -0.0787205858 -1.1587275482 1.0654993297
| 18> O 0.8712889118 -1.9277864707 -0.9286892903
| 19> O 2.256350705 0.7179976566 0.9794648074
| 20> O -0.0390414516 1.210453942 -1.7670158782
| 21> O -0.3762381592 1.686921072 1.825274125
| 22> O -1.5850327793 -1.0142533685 -1.6090853467
| 23> H -3.0164855962 -0.2222046613 -0.3525687549
| 24> H -2.4483349664 -1.8787353064 -0.0293580408
| 25> H -0.0100602287 -1.7703373087 -1.3296169141
| 26> H 2.7399705692 1.5238745704 0.7642836558
| 27> H -0.5249278831 2.0074690218 -2.0074671751
| 28> H 0.3689586122 1.1630663783 2.1572562835
| 29> H -1.1482481916 -0.1821097935 -1.8748348529
| 30> *
| 31>
| 32>                          ****END OF INPUT****

CARTESIAN COORDINATES (ANGSTROEM)
---------------------------------
  C     -2.131916   -0.874831   -0.322874
  C     -1.191815   -0.331013    0.774353
  H     -1.774951   -0.365265    1.704891
  C     -0.765146    1.140841    0.592684
  H     -1.633236    1.728550    0.266051
  C      0.385449    1.312836   -0.421145
  H      0.809618    2.316061   -0.249369
  C      1.508580    0.294954   -0.139633
  H      2.135708    0.213072   -1.038022
  C      1.022376   -1.142324    0.196390
  H      1.828584   -1.600554    0.786047
  O     -0.078721   -1.158728    1.065499
  O      0.871289   -1.927786   -0.928689
  O      2.256351    0.717998    0.979465
  O     -0.039041    1.210454   -1.767016
  O     -0.376238    1.686921    1.825274
  O     -1.585033   -1.014253   -1.609085
  H     -3.016486   -0.222205   -0.352569
  H     -2.448335   -1.878735   -0.029358
  H     -0.010060   -1.770337   -1.329617
  H      2.739971    1.523875    0.764284
  H     -0.524928    2.007469   -2.007467
  H      0.368959    1.163066    2.157256
  H     -1.148248   -0.182110   -1.874835

 Total Charge           Charge          ....    0
 Multiplicity           Mult            ....    1
 Number of Electrons    NEL             ....   96
 Basis Dimension        Dim             ....  318

ORBITAL ENERGIES
----------------

  NO   OCC          E(Eh)            E(eV)
   0   2.0000     -19.001244      -517.0501
   1   2.0000     -18.975996      -516.3631
   2   2.0000     -18.967045      -516.1195
   3   2.0000     -18.961992      -515.9820
   4   2.0000     -18.956953      -515.8449
   5   2.0000     -18.933662      -515.2111
   6   2.0000     -10.129265      -275.6313
   7   2.0000     -10.111645      -275.1518
   8   2.0000     -10.102077      -274.8915
   9   2.0000     -10.099044      -274.8090
  10   2.0000     -10.096460      -274.7386
  11   2.0000     -10.089570      -274.5512
  12   2.0000      -1.048794       -28.5391
  13   2.0000      -1.033701       -28.1284
  14   2.0000      -1.013680       -27.5836
  15   2.0000      -1.001142       -27.2425
  16   2.0000      -0.997768       -27.1506
  17   2.0000      -0.962924       -26.2025
  18   2.0000      -0.756565       -20.5872
  19   2.0000      -0.739402       -20.1202
  20   2.0000      -0.668025       -18.1779
  21   2.0000      -0.633200       -17.2303
  22   2.0000      -0.616842       -16.7851
  23   2.0000      -0.553441       -15.0599
  24   2.0000      -0.522759       -14.2250
  25   2.0000      -0.519172       -14.1274
  26   2.0000      -0.498831       -13.5739
  27   2.0000      -0.494475       -13.4554
  28   2.0000      -0.466786       -12.7019
  29   2.0000      -0.454174       -12.3587
  30   2.0000      -0.450592       -12.2612
  31   2.0000      -0.440460       -11.9855
  32   2.0000      -0.421496       -11.4695
  33   2.0000      -0.404581       -11.0092
  34   2.0000      -0.390589       -10.6285
  35   2.0000      -0.369293       -10.0490
  36   2.0000      -0.361775        -9.8444
  37   2.0000      -0.347769        -9.4633
  38   2.0000      -0.333985        -9.0882
  39   2.0000      -0.324235        -8.8229
  40   2.0000      -0.315838        -8.5944
  41   2.0000      -0.300721        -8.1830
  42   2.0000      -0.287918        -7.8346
  43   2.0000      -0.279609        -7.6085
  44   2.0000      -0.264449        -7.1960
  45   2.0000      -0.241270        -6.5653
  46   2.0000      -0.230348        -6.2681
  47   2.0000      -0.227329        -6.1859
  48   0.0000       0.007852         0.2137
  49   0.0000       0.037836         1.0296
  50   0.0000       0.064476         1.7545
  51   0.0000       0.071503         1.9457
  52   0.0000       0.080041         2.1780

MULLIKEN ATOMIC CHARGES
-----------------------
   0 C :   -0.205352
   1 C :    0.013544
   2 H :    0.169110
   3 C :   -0.102013
   4 H :    0.162010
   5 C :   -0.022822
   6 H :    0.140423
   7 C :    0.023890
   8 H :    0.151656
   9 C :   -0.155554
  10 H :    0.152825
  11 O :   -0.189377
  12 O :   -0.392956
  13 O :   -0.423774
  14 O :   -0.433035
  15 O :   -0.408067
  16 O :   -0.487369
  17 H :    0.134560
  18 H :    0.158002
  19 H :    0.386975
  20 H :    0.296487
  21 H :    0.316095
  22 H :    0.337645
  23 H :    0.377096
Sum of atomic charges:    0.0000000

LOEWDIN ATOMIC CHARGES
----------------------
   0 C :    0.023274
   1 C :    0.096390
   2 H :    0.210789
   3 C :    0.099497
   4 H :    0.191118
   5 C :    0.115437
   6 H :    0.189168
   7 C :    0.129835
   8 H :    0.194392
   9 C :    0.294782
  10 H :    0.220831
  11 O :   -0.644255
  12 O :   -0.512179
  13 O :   -0.589753
  14 O :   -0.591825
  15 O :   -0.570586
  16 O :   -0.614823
  17 H :    0.168557
  18 H :    0.189698
  19 H :    0.286854
  20 H :    0.271950
  21 H :    0.276124
  22 H :    0.285164
  23 H :    0.279563

  Mayer bond orders larger than 0.100000
B(  0-C ,  1-C ) :   0.9004 B(  0-C , 16-O ) :   0.9667 B(  0-C , 17-H ) :   0.9800
B(  0-C , 18-H ) :   0.9673 B(  1-C ,  2-H ) :   0.9516 B(  1-C ,  3-C ) :   0.8474
B(  1-C , 11-O ) :   0.9006 B(  3-C ,  4-H ) :   0.9941 B(  3-C ,  5-C ) :   0.7731
B(  3-C , 15-O ) :   0.9781 B(  5-C ,  6-H ) :   0.9837 B(  5-C ,  7-C ) :   0.8930
B(  5-C , 14-O ) :   0.9017 B(  7-C ,  8-H ) :   0.9437 B(  7-C ,  9-C ) :   0.9326
B(  7-C , 13-O ) :   0.9229 B(  9-C , 10-H ) :   0.9797 B(  9-C , 11-O ) :   1.0126
B(  9-C , 12-O ) :   1.0786 B( 12-O , 19-H ) :   0.7706 B( 13-O , 20-H ) :   0.8974
B( 14-O , 21-H ) :   0.8911 B( 15-O , 22-H ) :   0.8410 B( 16-O , 23-H ) :   0.7945

Dispersion correction           -0.008856280
FINAL SINGLE POINT ENERGY      -687.070164280292

DIPOLE MOMENT
-------------

Method             : SCF
Type of density    : Electron Density
Multiplicity       :   1
Irrep              :   0
Energy             :  -687.0838504840376117 Eh
Relativity type    :
Basis              : AO
                                X                 Y                 Z
Electronic contribution:      2.270965084      -1.072230299       0.745729680
Nuclear contribution   :     -2.492573906       2.744355413      -1.134782147
                        -----------------------------------------
Total Dipole Moment    :     -0.221608822       1.672125114      -0.389052467
                        -----------------------------------------
Magnitude (a.u.)       :      1.731032838
Magnitude (Debye)      :      4.399935807

Rotational constants in cm-1:             0.039341             0.031316             0.027805
Rotational constants in MHz :          1179.412884           938.835918           833.580115

                             ****ORCA TERMINATED NORMALLY****
TOTAL RUN TIME: 0 days 0 hours 0 minutes 39 seconds 598 msec
