                         Program Version 6.0.1  -  RELEASE   -
|  1> ! r2scan-3c def2/J RI DEFGRID2 scfconv6 printgap
|  2> %output
|  3>     printlevel normal
|  4> end
|  5> * xyz 0 1
|  6> C -2.6552671467 -0.5611987747 0.7708866591
|  7> C -1.8742366675 -0.538323071 -0.5447337344
|  8> C -0.4043051559 -0.3320832534 -0.2924029309
|  9> C 0.415847745 -1.4536763533 -0.2196704797
| 10> C 1.7686622319 -1.3479995718 0.0378693052
| 11> C 2.3286501742 -0.0967622512 0.2286307849
| 12> C 1.5242692416 1.0235110872 0.1622634682
| 13> C 0.1589469594 0.928647333 -0.0907721388
| 14> C -0.6276890122 2.208216563 -0.1402440299
| 15> H -3.7142363559 -0.725624549 0.5830865563
| 16> H -2.5388639799 0.3783389869 1.3057691112
| 17> H -2.2878559022 -1.361511134 1.4095020538
| 18> H -2.2695364612 0.2430569438 -1.1958914593
| 19> H -2.0168424693 -1.492899023 -1.0557994401
| 20> H -0.0214034097 -2.4309177984 -0.3718631533
| 21> H 2.3827548729 -2.2352236997 0.0877180486
| 22> H 3.3853062156 0.0045799966 0.428803592
| 23> H 1.9579971601 2.0026768098 0.3123882487
| 24> H -0.2785254499 2.8244459835 -0.9691095072
| 25> H -1.692013456 2.0419609492 -0.2622418947
| 26> H -0.4725354029 2.7730292801 0.7783840088
| 27> *
| 28>
| 29>                          ****END OF INPUT****

CARTESIAN COORDINATES (ANGSTROEM)
---------------------------------
  C     -2.655267   -0.561199    0.770887
  C     -1.874237   -0.538323   -0.544734
  C     -0.404305   -0.332083   -0.292403
  C      0.415848   -1.453676   -0.219670
  C      1.768662   -1.348000    0.037869
  C      2.328650   -0.096762    0.228631
  C      1.524269    1.023511    0.162263
  C      0.158947    0.928647   -0.090772
  C     -0.627689    2.208217   -0.140244
  H     -3.714236   -0.725625    0.583087
  H     -2.538864    0.378339    1.305769
  H     -2.287856   -1.361511    1.409502
  H     -2.269536    0.243057   -1.195891
  H     -2.016842   -1.492899   -1.055799
  H     -0.021403   -2.430918   -0.371863
  H      2.382755   -2.235224    0.087718
  H      3.385306    0.004580    0.428804
  H      1.957997    2.002677    0.312388
  H     -0.278525    2.824446   -0.969110
  H     -1.692013    2.041961   -0.262242
  H     -0.472535    2.773029    0.778384

 Total Charge           Charge          ....    0
 Multiplicity           Mult            ....    1
 Number of Electrons    NEL             ....   66
 Basis Dimension        Dim             ....  231

ORBITAL ENERGIES
----------------

  NO   OCC          E(Eh)            E(eV)
   0   2.0000     -10.039056      -273.1766
   1   2.0000     -10.036028      -273.0942
   2   2.0000     -10.032548      -272.9995
   3   2.0000     -10.026417      -272.8327
   4   2.0000     -10.026198      -272.8267
   5   2.0000     -10.025798      -272.8158
   6   2.0000     -10.025314      -272.8027
   7   2.0000     -10.025199      -272.7995
   8   2.0000     -10.020931      -272.6834
   9   2.0000      -0.828213       -22.5368
  10   2.0000      -0.755129       -20.5481
  11   2.0000      -0.736140       -20.0314
  12   2.0000      -0.690757       -18.7964
  13   2.0000      -0.651667       -17.7328
  14   2.0000      -0.597088       -16.2476
  15   2.0000      -0.562669       -15.3110
  16   2.0000      -0.533975       -14.5302
  17   2.0000      -0.468297       -12.7430
  18   2.0000      -0.447156       -12.1677
  19   2.0000      -0.419807       -11.4235
  20   2.0000      -0.398996       -10.8572
  21   2.0000      -0.393153       -10.6982
  22   2.0000      -0.386214       -10.5094
  23   2.0000      -0.374776       -10.1982
  24   2.0000      -0.361391        -9.8339
  25   2.0000      -0.351930        -9.5765
  26   2.0000      -0.338705        -9.2166
  27   2.0000      -0.320193        -8.7129
  28   2.0000      -0.317988        -8.6529
  29   2.0000      -0.298904        -8.1336
  30   2.0000      -0.290743        -7.9115
  31   2.0000      -0.225297        -6.1306
  32   2.0000      -0.217630        -5.9220
  33   0.0000      -0.027223        -0.7408
  34   0.0000      -0.020896        -0.5686
  35   0.0000       0.079979         2.1763
  36   0.0000       0.092265         2.5107
  37   0.0000       0.099567         2.7094

MULLIKEN ATOMIC CHARGES
-----------------------
   0 C :   -0.451897
   1 C :   -0.354638
   2 C :    0.190665
   3 C :   -0.233491
   4 C :   -0.164006
   5 C :   -0.159460
   6 C :   -0.199748
   7 C :    0.130468
   8 C :   -0.561230
   9 H :    0.148029
  10 H :    0.147759
  11 H :    0.150310
  12 H :    0.151702
  13 H :    0.146177
  14 H :    0.145532
  15 H :    0.143918
  16 H :    0.144005
  17 H :    0.144603
  18 H :    0.165688
  19 H :    0.153115
  20 H :    0.162498
Sum of atomic charges:   -0.0000000

LOEWDIN ATOMIC CHARGES
----------------------
   0 C :   -0.406319
   1 C :   -0.292103
   2 C :   -0.090293
   3 C :   -0.160585
   4 C :   -0.170753
   5 C :   -0.168769
   6 C :   -0.160854
   7 C :   -0.092727
   8 C :   -0.393175
   9 H :    0.149341
  10 H :    0.152678
  11 H :    0.154999
  12 H :    0.159081
  13 H :    0.161378
  14 H :    0.167442
  15 H :    0.165898
  16 H :    0.165878
  17 H :    0.167843
  18 H :    0.166444
  19 H :    0.158681
  20 H :    0.165913

  Mayer bond orders larger than 0.100000
B(  0-C ,  1-C ) :   0.9276 B(  0-C ,  9-H ) :   0.9734 B(  0-C , 10-H ) :   0.9792
B(  0-C , 11-H ) :   0.9761 B(  1-C ,  2-C ) :   0.7770 B(  1-C , 12-H ) :   0.9980
B(  1-C , 13-H ) :   0.9809 B(  2-C ,  3-C ) :   1.3766 B(  2-C ,  7-C ) :   1.4901
B(  3-C ,  4-C ) :   1.4529 B(  3-C , 14-H ) :   0.9345 B(  4-C ,  5-C ) :   1.4179
B(  4-C , 15-H ) :   0.9476 B(  5-C ,  6-C ) :   1.4498 B(  5-C , 16-H ) :   0.9488
B(  6-C ,  7-C ) :   1.3680 B(  6-C , 17-H ) :   0.9391 B(  7-C ,  8-C ) :   0.7712
B(  8-C , 18-H ) :   0.9787 B(  8-C , 19-H ) :   0.9869 B(  8-C , 20-H ) :   0.9827

Dispersion correction           -0.007101458
FINAL SINGLE POINT ENERGY      -350.080565319611

DIPOLE MOMENT
-------------

Method             : SCF
Type of density    : Electron Density
Multiplicity       :   1
Irrep              :   0
Energy             :  -350.0808153380525027 Eh
Relativity type    :
Basis              : AO
                                X                 Y                 Z
Electronic contribution:      6.874687517      -1.769671755      -0.990473269
Nuclear contribution   :     -7.097941709       1.896891916       0.985775430
                        -----------------------------------------
Total Dipole Moment    :     -0.223254192       0.127220160      -0.004697840
                        -----------------------------------------
Magnitude (a.u.)       :      0.257000920
Magnitude (Debye)      :      0.653244425

Rotational constants in cm-1:             0.084489             0.048414             0.033502
Rotational constants in MHz :          2532.924546          1451.412407          1004.378441

                             ****ORCA TERMINATED NORMALLY****
TOTAL RUN TIME: 0 days 0 hours 0 minutes 30 seconds 213 msec
