                         Program Version 6.0.1  -  RELEASE   -
|  1> ! pbe def2-sv(p) def2/J RI DEFGRID1 loosescf d4 GCP(DFT/SV(P)) printgap
|  2> %output
|  3>     printlevel normal
|  4> end
|  5> * xyz 0 1
|  6> C -2.4379923506 -1.2000711052 0.0301177704
|  7> C -1.0659317709 -0.629986328 0.4666649431
|  8> H -1.0110982001 -0.5598871597 1.5653027556
|  9> C -0.8131796607 0.779603127 -0.091633443
| 10> H -0.9556643972 0.7707417983 -1.182442262
| 11> C 0.6244733586 1.2161459996 0.208826629
| 12> H 0.7491336815 1.3148488101 1.3009710426
| 13> C 1.6083161718 0.1597456234 -0.2895600577
| 14> H 1.5245467818 0.0640453319 -1.3834578033
| 15> C 1.2297877274 -1.1923849521 0.3333626721
| 16> H 1.3394295463 -1.1203423863 1.4383814058
| 17> O -0.0873178558 -1.5430087369 0.0087058951
| 18> O 2.0789349752 -2.1672246655 -0.1732470291
| 19> O 2.9064341877 0.5535574573 0.0760253687
| 20> O 0.8327413812 2.4634882318 -0.4067014131
| 21> O -1.7228478006 1.6685367596 0.5153809051
| 22> O -3.2782923085 -0.2855228517 -0.6064708132
| 23> H -2.9363484885 -1.6367941611 0.9071252376
| 24> H -2.2459736688 -1.997117121 -0.6926313376
| 25> H 1.5863017096 -2.9954314711 -0.2072285275
| 26> H 3.4952270679 -0.1930952211 -0.0872677942
| 27> H 1.7808244286 2.6404393427 -0.3802695139
| 28> H -1.4383065242 2.5607914032 0.2790704209
| 29> H -3.2873033987 0.5327938201 -0.0891699878
| 30> *
| 31>
| 32>                          ****END OF INPUT****

CARTESIAN COORDINATES (ANGSTROEM)
---------------------------------
  C     -2.437992   -1.200071    0.030118
  C     -1.065932   -0.629986    0.466665
  H     -1.011098   -0.559887    1.565303
  C     -0.813180    0.779603   -0.091633
  H     -0.955664    0.770742   -1.182442
  C      0.624473    1.216146    0.208827
  H      0.749134    1.314849    1.300971
  C      1.608316    0.159746   -0.289560
  H      1.524547    0.064045   -1.383458
  C      1.229788   -1.192385    0.333363
  H      1.339430   -1.120342    1.438381
  O     -0.087318   -1.543009    0.008706
  O      2.078935   -2.167225   -0.173247
  O      2.906434    0.553557    0.076025
  O      0.832741    2.463488   -0.406701
  O     -1.722848    1.668537    0.515381
  O     -3.278292   -0.285523   -0.606471
  H     -2.936348   -1.636794    0.907125
  H     -2.245974   -1.997117   -0.692631
  H      1.586302   -2.995431   -0.207229
  H      3.495227   -0.193095   -0.087268
  H      1.780824    2.640439   -0.380270
  H     -1.438307    2.560791    0.279070
  H     -3.287303    0.532794   -0.089170

 Total Charge           Charge          ....    0
 Multiplicity           Mult            ....    1
 Number of Electrons    NEL             ....   96
 Basis Dimension        Dim             ....  192

ORBITAL ENERGIES
----------------

  NO   OCC          E(Eh)            E(eV)
   0   2.0000     -18.785298      -511.1739
   1   2.0000     -18.770860      -510.7811
   2   2.0000     -18.769255      -510.7374
   3   2.0000     -18.765012      -510.6219
   4   2.0000     -18.760911      -510.5104
   5   2.0000     -18.735768      -509.8262
   6   2.0000      -9.994730      -271.9704
   7   2.0000      -9.951967      -270.8068
   8   2.0000      -9.948415      -270.7101
   9   2.0000      -9.947820      -270.6939
  10   2.0000      -9.945768      -270.6381
  11   2.0000      -9.929313      -270.1903
  12   2.0000      -0.997556       -27.1449
  13   2.0000      -0.957566       -26.0567
  14   2.0000      -0.947355       -25.7788
  15   2.0000      -0.928122       -25.2555
  16   2.0000      -0.925648       -25.1882
  17   2.0000      -0.913488       -24.8573
  18   2.0000      -0.711297       -19.3554
  19   2.0000      -0.696591       -18.9552
  20   2.0000      -0.617546       -16.8043
  21   2.0000      -0.591205       -16.0875
  22   2.0000      -0.565819       -15.3967
  23   2.0000      -0.534244       -14.5375
  24   2.0000      -0.520159       -14.1542
  25   2.0000      -0.491054       -13.3623
  26   2.0000      -0.477135       -12.9835
  27   2.0000      -0.463340       -12.6081
  28   2.0000      -0.445462       -12.1216
  29   2.0000      -0.441607       -12.0167
  30   2.0000      -0.424013       -11.5380
  31   2.0000      -0.415827       -11.3152
  32   2.0000      -0.386994       -10.5306
  33   2.0000      -0.373507       -10.1636
  34   2.0000      -0.361600        -9.8396
  35   2.0000      -0.358926        -9.7669
  36   2.0000      -0.339007        -9.2248
  37   2.0000      -0.330600        -8.9961
  38   2.0000      -0.320310        -8.7161
  39   2.0000      -0.303695        -8.2640
  40   2.0000      -0.293308        -7.9813
  41   2.0000      -0.269460        -7.3324
  42   2.0000      -0.256315        -6.9747
  43   2.0000      -0.251810        -6.8521
  44   2.0000      -0.235021        -6.3952
  45   2.0000      -0.229909        -6.2561
  46   2.0000      -0.214289        -5.8311
  47   2.0000      -0.210047        -5.7157
  48   0.0000       0.009857         0.2682
  49   0.0000       0.022923         0.6238
  50   0.0000       0.038531         1.0485
  51   0.0000       0.054092         1.4719
  52   0.0000       0.062622         1.7040

MULLIKEN ATOMIC CHARGES
-----------------------
   0 C :    0.095109
   1 C :    0.008844
   2 H :    0.056377
   3 C :    0.036391
   4 H :    0.073124
   5 C :    0.058156
   6 H :    0.055586
   7 C :    0.042613
   8 H :    0.061022
   9 C :    0.177671
  10 H :    0.040869
  11 O :   -0.312717
  12 O :   -0.397712
  13 O :   -0.425322
  14 O :   -0.425663
  15 O :   -0.434903
  16 O :   -0.436347
  17 H :    0.071608
  18 H :    0.089000
  19 H :    0.312057
  20 H :    0.314826
  21 H :    0.315646
  22 H :    0.320705
  23 H :    0.303059
Sum of atomic charges:    0.0000000

LOEWDIN ATOMIC CHARGES
----------------------
   0 C :   -0.121266
   1 C :   -0.061541
   2 H :    0.104007
   3 C :   -0.073199
   4 H :    0.113807
   5 C :   -0.075855
   6 H :    0.104028
   7 C :   -0.093001
   8 H :    0.108553
   9 C :   -0.000081
  10 H :    0.081573
  11 O :   -0.143837
  12 O :   -0.311704
  13 O :   -0.321977
  14 O :   -0.324041
  15 O :   -0.314578
  16 O :   -0.335710
  17 H :    0.097230
  18 H :    0.117626
  19 H :    0.294058
  20 H :    0.293341
  21 H :    0.293229
  22 H :    0.295225
  23 H :    0.274113

  Mayer bond orders larger than 0.100000
B(  0-C ,  1-C ) :   1.0217 B(  0-C , 16-O ) :   1.1234 B(  0-C , 17-H ) :   0.9239
B(  0-C , 18-H ) :   0.9139 B(  1-C ,  2-H ) :   0.8702 B(  1-C ,  3-C ) :   1.0461
B(  1-C , 11-O ) :   0.9929 B(  3-C ,  4-H ) :   0.8705 B(  3-C ,  5-C ) :   1.0301
B(  3-C , 15-O ) :   1.0134 B(  5-C ,  6-H ) :   0.8709 B(  5-C ,  7-C ) :   1.0113
B(  5-C , 14-O ) :   1.0846 B(  7-C ,  8-H ) :   0.8636 B(  7-C ,  9-C ) :   0.9914
B(  7-C , 13-O ) :   1.0653 B(  9-C , 10-H ) :   0.8842 B(  9-C , 11-O ) :   1.0189
B(  9-C , 12-O ) :   1.1453 B( 12-O , 19-H ) :   0.8359 B( 13-O , 20-H ) :   0.8366
B( 14-O , 21-H ) :   0.8351 B( 15-O , 22-H ) :   0.8303 B( 16-O , 23-H ) :   0.8118

Dispersion correction           -0.023971363
FINAL SINGLE POINT ENERGY      -685.698947448121

DIPOLE MOMENT
-------------

Method             : SCF
Type of density    : Electron Density
Multiplicity       :   1
Irrep              :   0
Energy             :  -685.8317261100054338 Eh
Relativity type    :
Basis              : AO
                                X                 Y                 Z
Electronic contribution:      2.060449445       0.414396328      -0.931273374
Nuclear contribution   :     -1.301907714      -0.570514459       1.368907808
                        -----------------------------------------
Total Dipole Moment    :      0.758541731      -0.156118131       0.437634434
                        -----------------------------------------
Magnitude (a.u.)       :      0.889540515
Magnitude (Debye)      :      2.261032301

Rotational constants in cm-1:             0.043331             0.025396             0.016984
Rotational constants in MHz :          1299.045496           761.357680           509.157475

                             ****ORCA TERMINATED NORMALLY****
TOTAL RUN TIME: 0 days 0 hours 0 minutes 8 seconds 12 msec
