                         Program Version 6.0.1  -  RELEASE   -
|  1> ! pbe def2-sv(p) def2/J RI DEFGRID1 loosescf d4 GCP(DFT/SV(P)) printgap
|  2> %output
|  3>     printlevel normal
|  4> end
|  5> * xyz 0 1
|  6> C 1.7362941635 -0.1243216548 -0.8850300871
|  7> N 1.1047517239 0.0418111359 0.4112554031
|  8> C 0.2737857364 -1.0810952308 0.7960449918
|  9> C -0.978520309 -1.2146649413 -0.1008584095
| 10> O -1.2780229378 0.0050793235 -0.7498571333
| 11> C -1.1277066432 1.1105994742 0.1120270912
| 12> C 0.3486069001 1.279272295 0.5439849801
| 13> H 2.4504065553 0.6870626319 -1.0256035428
| 14> H 1.0332358722 -0.1256920249 -1.7259611159
| 15> H 2.2838955304 -1.0662797847 -0.8813285472
| 16> H 0.8682184251 -1.9951626389 0.7533360218
| 17> H -0.0242242769 -0.9155457753 1.8358673487
| 18> H -0.8188405264 -1.9370822392 -0.9039024114
| 19> H -1.8425178032 -1.5404074531 0.5000806557
| 20> H -1.4766879377 1.976513569 -0.4526220425
| 21> H -1.7746056365 0.9809479031 0.9932006623
| 22> H 0.838380934 2.046676192 -0.05545373
| 23> H 0.3889011684 1.5873036183 1.5951702256
| 24> *
| 25>
| 26>                          ****END OF INPUT****

CARTESIAN COORDINATES (ANGSTROEM)
---------------------------------
  C      1.736294   -0.124322   -0.885030
  N      1.104752    0.041811    0.411255
  C      0.273786   -1.081095    0.796045
  C     -0.978520   -1.214665   -0.100858
  O     -1.278023    0.005079   -0.749857
  C     -1.127707    1.110599    0.112027
  C      0.348607    1.279272    0.543985
  H      2.450407    0.687063   -1.025604
  H      1.033236   -0.125692   -1.725961
  H      2.283896   -1.066280   -0.881329
  H      0.868218   -1.995163    0.753336
  H     -0.024224   -0.915546    1.835867
  H     -0.818841   -1.937082   -0.903902
  H     -1.842518   -1.540407    0.500081
  H     -1.476688    1.976514   -0.452622
  H     -1.774606    0.980948    0.993201
  H      0.838381    2.046676   -0.055454
  H      0.388901    1.587304    1.595170

 Total Charge           Charge          ....    0
 Multiplicity           Mult            ....    1
 Number of Electrons    NEL             ....   56
 Basis Dimension        Dim             ....  120

ORBITAL ENERGIES
----------------

  NO   OCC          E(Eh)            E(eV)
   0   2.0000     -18.753275      -510.3026
   1   2.0000     -13.983503      -380.5105
   2   2.0000      -9.928558      -270.1698
   3   2.0000      -9.927447      -270.1396
   4   2.0000      -9.909940      -269.6632
   5   2.0000      -9.907880      -269.6071
   6   2.0000      -9.895469      -269.2694
   7   2.0000      -0.942380       -25.6435
   8   2.0000      -0.832935       -22.6653
   9   2.0000      -0.690621       -18.7928
  10   2.0000      -0.647305       -17.6141
  11   2.0000      -0.589060       -16.0291
  12   2.0000      -0.571790       -15.5592
  13   2.0000      -0.478881       -13.0310
  14   2.0000      -0.455954       -12.4071
  15   2.0000      -0.447423       -12.1750
  16   2.0000      -0.437991       -11.9183
  17   2.0000      -0.394556       -10.7364
  18   2.0000      -0.382311       -10.4032
  19   2.0000      -0.369920       -10.0660
  20   2.0000      -0.353331        -9.6146
  21   2.0000      -0.339857        -9.2480
  22   2.0000      -0.321500        -8.7485
  23   2.0000      -0.315672        -8.5899
  24   2.0000      -0.298043        -8.1102
  25   2.0000      -0.266314        -7.2468
  26   2.0000      -0.214413        -5.8345
  27   2.0000      -0.158331        -4.3084
  28   0.0000       0.026266         0.7147
  29   0.0000       0.053274         1.4497
  30   0.0000       0.068020         1.8509
  31   0.0000       0.076075         2.0701
  32   0.0000       0.082235         2.2377

MULLIKEN ATOMIC CHARGES
-----------------------
   0 C :   -0.179651
   1 N :   -0.292655
   2 C :   -0.114783
   3 C :    0.021390
   4 O :   -0.331249
   5 C :   -0.002582
   6 C :   -0.058674
   7 H :    0.102069
   8 H :    0.096938
   9 H :    0.096532
  10 H :    0.094287
  11 H :    0.085500
  12 H :    0.090273
  13 H :    0.069291
  14 H :    0.094486
  15 H :    0.064032
  16 H :    0.083681
  17 H :    0.081114
Sum of atomic charges:   -0.0000000

LOEWDIN ATOMIC CHARGES
----------------------
   0 C :   -0.264139
   1 N :   -0.143156
   2 C :   -0.181878
   3 C :   -0.131289
   4 O :   -0.164504
   5 C :   -0.128868
   6 C :   -0.175245
   7 H :    0.112154
   8 H :    0.096139
   9 H :    0.111765
  10 H :    0.117829
  11 H :    0.110480
  12 H :    0.111053
  13 H :    0.095931
  14 H :    0.115683
  15 H :    0.093054
  16 H :    0.115851
  17 H :    0.109141

  Mayer bond orders larger than 0.100000
B(  0-C ,  1-N ) :   1.0348 B(  0-C ,  7-H ) :   0.9555 B(  0-C ,  8-H ) :   0.9275
B(  0-C ,  9-H ) :   0.9532 B(  1-N ,  2-C ) :   1.0888 B(  1-N ,  6-C ) :   1.0640
B(  2-C ,  3-C ) :   1.0544 B(  2-C , 10-H ) :   0.9257 B(  2-C , 11-H ) :   0.9253
B(  3-C ,  4-O ) :   1.0348 B(  3-C , 12-H ) :   0.9308 B(  3-C , 13-H ) :   0.9161
B(  4-O ,  5-C ) :   1.0473 B(  5-C ,  6-C ) :   1.0704 B(  5-C , 14-H ) :   0.9337
B(  5-C , 15-H ) :   0.9129 B(  6-C , 16-H ) :   0.9233 B(  6-C , 17-H ) :   0.9208

Dispersion correction           -0.015874204
FINAL SINGLE POINT ENERGY      -326.332998183597

DIPOLE MOMENT
-------------

Method             : SCF
Type of density    : Electron Density
Multiplicity       :   1
Irrep              :   0
Energy             :  -326.4061299276464752 Eh
Relativity type    :
Basis              : AO
                                X                 Y                 Z
Electronic contribution:     -1.761290670       0.258276448      -0.384757857
Nuclear contribution   :      1.794156640      -0.282708560       0.584787616
                        -----------------------------------------
Total Dipole Moment    :      0.032865970      -0.024432112       0.200029758
                        -----------------------------------------
Magnitude (a.u.)       :      0.204178854
Magnitude (Debye)      :      0.518981402

Rotational constants in cm-1:             0.123428             0.094846             0.075565
Rotational constants in MHz :          3700.281911          2843.406433          2265.382294

                             ****ORCA TERMINATED NORMALLY****
TOTAL RUN TIME: 0 days 0 hours 0 minutes 22 seconds 859 msec
