                         Program Version 6.0.0  -   RELEASE  -
|  1> ! r2SCAN-3c DEF2-TZVP FREQ
|  2> * xyzfile 0 1 censo.xyz
|  3>
|  4>                          ****END OF INPUT****

CARTESIAN COORDINATES (ANGSTROEM)
---------------------------------
  C     -0.378837    1.402205   -0.103991
  C      0.000116    0.000105    0.373306
  C     -1.024887   -1.028880   -0.103932
  C      1.403688   -0.373346   -0.104006
  H      0.336587    2.151633    0.251968
  H     -0.389729    1.442456   -1.200362
  H     -1.374394    1.688765    0.252244
  H      0.000303    0.000289    1.472213
  H     -1.054029   -1.058149   -1.200290
  H     -2.031572   -0.783621    0.251977
  H     -0.775796   -2.034613    0.252008
  H      1.694185   -1.367778    0.252190
  H      2.150317    0.344990    0.251972
  H      1.443991   -0.384047   -1.200377

 Total Charge           Charge          ....    0
 Multiplicity           Mult            ....    1
 Number of Electrons    NEL             ....   34
 Basis Dimension        Dim             ....  184

ORBITAL ENERGIES
----------------

  NO   OCC          E(Eh)            E(eV)
   0   2.0000     -10.034669      -273.0572
   1   2.0000     -10.014981      -272.5215
   2   2.0000     -10.014980      -272.5214
   3   2.0000     -10.014975      -272.5213
   4   2.0000      -0.767192       -20.8764
   5   2.0000      -0.646300       -17.5867
   6   2.0000      -0.646267       -17.5858
   7   2.0000      -0.525223       -14.2920
   8   2.0000      -0.430647       -11.7185
   9   2.0000      -0.398061       -10.8318
  10   2.0000      -0.398014       -10.8305
  11   2.0000      -0.350207        -9.5296
  12   2.0000      -0.350190        -9.5292
  13   2.0000      -0.329543        -8.9673
  14   2.0000      -0.296867        -8.0782
  15   2.0000      -0.296859        -8.0779
  16   2.0000      -0.290611        -7.9079
  17   0.0000       0.041656         1.1335
  18   0.0000       0.087419         2.3788
  19   0.0000       0.099479         2.7070
  20   0.0000       0.099499         2.7075
  21   0.0000       0.111536         3.0350

MULLIKEN ATOMIC CHARGES
-----------------------
   0 C :   -0.323197
   1 C :    0.019820
   2 C :   -0.323257
   3 C :   -0.323216
   4 H :    0.102644
   5 H :    0.094523
   6 H :    0.102583
   7 H :    0.050596
   8 H :    0.094458
   9 H :    0.102644
  10 H :    0.102646
  11 H :    0.102584
  12 H :    0.102647
  13 H :    0.094525
Sum of atomic charges:   -0.0000000

LOEWDIN ATOMIC CHARGES
----------------------
   0 C :   -0.289325
   1 C :   -0.344201
   2 C :   -0.289333
   3 C :   -0.289327
   4 H :    0.118519
   5 H :    0.119188
   6 H :    0.118537
   7 H :    0.143439
   8 H :    0.119199
   9 H :    0.118531
  10 H :    0.118529
  11 H :    0.118536
  12 H :    0.118520
  13 H :    0.119188

  Mayer bond orders larger than 0.100000
B(  0-C ,  1-C ) :   0.9746 B(  0-C ,  4-H ) :   0.9753 B(  0-C ,  5-H ) :   0.9709
B(  0-C ,  6-H ) :   0.9753 B(  1-C ,  2-C ) :   0.9745 B(  1-C ,  3-C ) :   0.9746
B(  1-C ,  7-H ) :   0.9588 B(  2-C ,  8-H ) :   0.9709 B(  2-C ,  9-H ) :   0.9753
B(  2-C , 10-H ) :   0.9753 B(  3-C , 11-H ) :   0.9753 B(  3-C , 12-H ) :   0.9753
B(  3-C , 13-H ) :   0.9709

Dispersion correction           -0.002771760
FINAL SINGLE POINT ENERGY      -158.403487292769

DIPOLE MOMENT
-------------

Method             : SCF
Type of density    : Electron Density
Multiplicity       :   1
Irrep              :   0
Energy             :  -158.4073728382290653 Eh
Relativity type    :
Basis              : AO
                                X                 Y                 Z
Electronic contribution:      0.000275927       0.000229624       0.650298208
Nuclear contribution   :     -0.000261267      -0.000221109      -0.597039096
                        -----------------------------------------
Total Dipole Moment    :      0.000014660       0.000008515       0.053259112
                        -----------------------------------------
Magnitude (a.u.)       :      0.053259115
Magnitude (Debye)      :      0.135373912

VIBRATIONAL FREQUENCIES
-----------------------

Scaling factor for frequencies =  1.000000000  (already applied!)

     0:       0.00 cm**-1
     1:       0.00 cm**-1
     2:       0.00 cm**-1
     3:       0.00 cm**-1
     4:       0.00 cm**-1
     5:       0.00 cm**-1
     6:     230.51 cm**-1
     7:     281.38 cm**-1
     8:     281.56 cm**-1
     9:     373.14 cm**-1
    10:     373.53 cm**-1
    11:     441.08 cm**-1
    12:     803.97 cm**-1
    13:     925.78 cm**-1
    14:     926.30 cm**-1
    15:     954.69 cm**-1
    16:     975.64 cm**-1
    17:     975.68 cm**-1
    18:    1192.11 cm**-1
    19:    1192.13 cm**-1
    20:    1210.80 cm**-1
    21:    1348.79 cm**-1
    22:    1348.94 cm**-1
    23:    1389.65 cm**-1
    24:    1389.69 cm**-1
    25:    1420.69 cm**-1
    26:    1473.38 cm**-1
    27:    1482.87 cm**-1
    28:    1483.00 cm**-1
    29:    1500.93 cm**-1
    30:    1501.00 cm**-1
    31:    1511.57 cm**-1
    32:    2990.64 cm**-1
    33:    2990.92 cm**-1
    34:    2990.99 cm**-1
    35:    2997.44 cm**-1
    36:    3063.47 cm**-1
    37:    3063.57 cm**-1
    38:    3073.46 cm**-1
    39:    3073.89 cm**-1
    40:    3077.18 cm**-1
    41:    3077.54 cm**-1

IR SPECTRUM
-----------

 Mode   freq       eps      Int      T**2         TX        TY        TZ
       cm**-1   L/(mol*cm) km/mol    a.u.
----------------------------------------------------------------------------
  6:    230.51   0.000000    0.00  0.000000  ( 0.000164 -0.000164  0.000001)
  7:    281.38   0.000004    0.02  0.000005  ( 0.001456  0.001505  0.000404)
  8:    281.56   0.000007    0.03  0.000008  ( 0.001983 -0.001933  0.000005)
  9:    373.14   0.000005    0.03  0.000005  ( 0.001514 -0.001513  0.000001)
 10:    373.53   0.000003    0.01  0.000002  (-0.001105 -0.001088 -0.000160)
 11:    441.08   0.000034    0.17  0.000024  ( 0.000007  0.000008 -0.004921)
 12:    803.97   0.000117    0.59  0.000045  ( 0.000236  0.000238 -0.006733)
 13:    925.78   0.000208    1.05  0.000070  (-0.005928 -0.005919 -0.000056)
 14:    926.30   0.000196    0.99  0.000066  ( 0.005742 -0.005757  0.000003)
 15:    954.69   0.000001    0.00  0.000000  (-0.000333  0.000329 -0.000004)
 16:    975.64   0.000001    0.01  0.000000  ( 0.000431 -0.000431 -0.000052)
 17:    975.68   0.000001    0.00  0.000000  (-0.000083  0.000028 -0.000409)
 18:   1192.11   0.000586    2.96  0.000153  (-0.004485 -0.011542  0.000181)
 19:   1192.13   0.000573    2.90  0.000150  ( 0.011468 -0.004300 -0.000083)
 20:   1210.80   0.000034    0.17  0.000009  (-0.000027 -0.000031  0.002941)
 21:   1348.79   0.000637    3.22  0.000147  (-0.008337 -0.008822 -0.000017)
 22:   1348.94   0.000645    3.26  0.000149  ( 0.008875 -0.008396  0.000000)
 23:   1389.65   0.001462    7.39  0.000328  (-0.011798  0.013751 -0.000031)
 24:   1389.69   0.001474    7.45  0.000331  (-0.013800 -0.011853  0.000402)
 25:   1420.69   0.000854    4.31  0.000187  (-0.000248 -0.000249  0.013688)
 26:   1473.38   0.000000    0.00  0.000000  ( 0.000076 -0.000078 -0.000001)
 27:   1482.87   0.000076    0.39  0.000016  ( 0.002817  0.002798 -0.000532)
 28:   1483.00   0.000068    0.34  0.000014  ( 0.002653 -0.002680  0.000003)
 29:   1500.93   0.000982    4.96  0.000204  ( 0.009612  0.010571 -0.000100)
 30:   1501.00   0.001005    5.08  0.000209  (-0.010686  0.009736 -0.000002)
 31:   1511.57   0.004159   21.02  0.000859  ( 0.000220  0.000226  0.029302)
 32:   2990.64   0.000748    3.78  0.000078  ( 0.002036  0.001823  0.008399)
 33:   2990.92   0.008095   40.91  0.000845  (-0.021789 -0.019223  0.000593)
 34:   2990.99   0.008117   41.02  0.000847  (-0.019250  0.021826  0.000025)
 35:   2997.44   0.004594   23.22  0.000478  ( 0.000307  0.000343 -0.021865)
 36:   3063.47   0.001632    8.25  0.000166  ( 0.009684 -0.008515  0.000041)
 37:   3063.57   0.002075   10.49  0.000211  (-0.009756 -0.010779 -0.000095)
 38:   3073.46   0.020519  103.70  0.002083  (-0.002711 -0.002751 -0.045481)
 39:   3073.89   0.000042    0.21  0.000004  ( 0.001336 -0.001558 -0.000196)
 40:   3077.18   0.011293   57.07  0.001145  (-0.022944 -0.024323  0.005212)
 41:   3077.54   0.011543   58.33  0.001170  (-0.024862  0.023502  0.000111)

--------------------------
THERMOCHEMISTRY AT 298.15K
--------------------------

Temperature         ...   298.15 K
Pressure            ...     1.00 atm
Total Mass          ...    58.12 AMU
Quasi RRHO          ...     True
Cut-Off Frequency   ...     1.00 cm^-1

Throughout the following assumptions are being made:
  (1) The electronic state is orbitally nondegenerate
  (2) There are no thermally accessible electronically excited states
  (3) Hindered rotations indicated by low frequency modes are not
      treated as such but are treated as vibrations and this may
      cause some error
  (4) All equations used are the standard statistical mechanics
      equations for an ideal gas
  (5) All vibrations are strictly harmonic

freq.     230.51  E(vib)   ...       0.32
freq.     281.38  E(vib)   ...       0.28
freq.     281.56  E(vib)   ...       0.28
freq.     373.14  E(vib)   ...       0.21
freq.     373.53  E(vib)   ...       0.21
freq.     441.08  E(vib)   ...       0.17
freq.     803.97  E(vib)   ...       0.05
freq.     925.78  E(vib)   ...       0.03
freq.     926.30  E(vib)   ...       0.03
freq.     954.69  E(vib)   ...       0.03
freq.     975.64  E(vib)   ...       0.03
freq.     975.68  E(vib)   ...       0.03
freq.    1192.11  E(vib)   ...       0.01
freq.    1192.13  E(vib)   ...       0.01
freq.    1210.80  E(vib)   ...       0.01
freq.    1348.79  E(vib)   ...       0.01
freq.    1348.94  E(vib)   ...       0.01
freq.    1389.65  E(vib)   ...       0.00
freq.    1389.69  E(vib)   ...       0.00
freq.    1420.69  E(vib)   ...       0.00
freq.    1473.38  E(vib)   ...       0.00
freq.    1482.87  E(vib)   ...       0.00
freq.    1483.00  E(vib)   ...       0.00
freq.    1500.93  E(vib)   ...       0.00
freq.    1501.00  E(vib)   ...       0.00
freq.    1511.57  E(vib)   ...       0.00
freq.    2990.64  E(vib)   ...       0.00
freq.    2990.92  E(vib)   ...       0.00
freq.    2990.99  E(vib)   ...       0.00
freq.    2997.44  E(vib)   ...       0.00
freq.    3063.47  E(vib)   ...       0.00
freq.    3063.57  E(vib)   ...       0.00
freq.    3073.46  E(vib)   ...       0.00
freq.    3073.89  E(vib)   ...       0.00
freq.    3077.18  E(vib)   ...       0.00
freq.    3077.54  E(vib)   ...       0.00

------------
INNER ENERGY
------------

The inner energy is: U= E(el) + E(ZPE) + E(vib) + E(rot) + E(trans)
    E(el)   - is the total energy from the electronic structure calculation
              = E(kin-el) + E(nuc-el) + E(el-el) + E(nuc-nuc)
    E(ZPE)  - the the zero temperature vibrational energy from the frequency calculation
    E(vib)  - the the finite temperature correction to E(ZPE) due to population
              of excited vibrational states
    E(rot)  - is the rotational thermal energy
    E(trans)- is the translational thermal energy

Summary of contributions to the inner energy U:
Electronic energy                ...   -158.40348729 Eh
Zero point energy                ...      0.13073925 Eh      82.04 kcal/mol
Thermal vibrational correction   ...      0.00276801 Eh       1.74 kcal/mol
Thermal rotational correction    ...      0.00141627 Eh       0.89 kcal/mol
Thermal translational correction ...      0.00141627 Eh       0.89 kcal/mol
-----------------------------------------------------------------------
Total thermal energy                   -158.26714749 Eh

Summary of corrections to the electronic energy:
(perhaps to be used in another calculation)
Total thermal correction                  0.00560055 Eh       3.51 kcal/mol
Non-thermal (ZPE) correction              0.13073925 Eh      82.04 kcal/mol
-----------------------------------------------------------------------
Total correction                          0.13633980 Eh      85.55 kcal/mol

--------
ENTHALPY
--------

The enthalpy is H = U + kB*T
                kB is Boltzmann's constant
Total thermal energy              ...   -158.26714749 Eh
Thermal Enthalpy correction       ...      0.00094421 Eh       0.59 kcal/mol
-----------------------------------------------------------------------
Total Enthalpy                    ...   -158.26620328 Eh

Note: Only C1 symmetry has been detected, increase convergence thresholds
      if your molecule has a higher symmetry. Symmetry factor of 1.0 is
      used for the rotational entropy correction.

Note: Rotational entropy computed according to Herzberg
Infrared and Raman Spectra, Chapter V,1, Van Nostrand Reinhold, 1945
Point Group:  C1, Symmetry Number:   1
Rotational constants in cm-1:     0.260569     0.260467     0.151274

Vibrational entropy computed according to the QRRHO of S. Grimme
Chem.Eur.J. 2012 18 9955 using a reference frequency of 100.0 cm-1

-------
ENTROPY
-------

The entropy contributions are T*S = T*(S(el)+S(vib)+S(rot)+S(trans))
     S(el)   - electronic entropy
     S(vib)  - vibrational entropy
     S(rot)  - rotational entropy
     S(trans)- translational entropy
The entropies will be listed as multiplied by the temperature to get
units of energy

Electronic entropy                ...      0.00000000 Eh      0.00 kcal/mol
Vibrational entropy               ...      0.00426324 Eh      2.68 kcal/mol
Rotational entropy                ...      0.01167243 Eh      7.32 kcal/mol
Translational entropy             ...      0.01810279 Eh     11.36 kcal/mol
-----------------------------------------------------------------------
Final entropy term                ...      0.03403846 Eh     21.36 kcal/mol

In case the symmetry of your molecule has not been determined correctly
or in case you have a reason to use a different symmetry number we print
out the resulting rotational entropy values for sn=1,12:

 non-linear molecules -----------------------------------
|  sn= 1 | S(rot)=       0.01167243 Eh      7.32 kcal/mol|
|  sn= 2 | S(rot)=       0.01101798 Eh      6.91 kcal/mol|
|  sn= 3 | S(rot)=       0.01063514 Eh      6.67 kcal/mol|
|  sn= 4 | S(rot)=       0.01036352 Eh      6.50 kcal/mol|
|  sn= 5 | S(rot)=       0.01015283 Eh      6.37 kcal/mol|
|  sn= 6 | S(rot)=       0.00998069 Eh      6.26 kcal/mol|
|  sn= 7 | S(rot)=       0.00983514 Eh      6.17 kcal/mol|
|  sn= 8 | S(rot)=       0.00970906 Eh      6.09 kcal/mol|
|  sn= 9 | S(rot)=       0.00959786 Eh      6.02 kcal/mol|
|  sn=10 | S(rot)=       0.00949838 Eh      5.96 kcal/mol|
|  sn=11 | S(rot)=       0.00940839 Eh      5.90 kcal/mol|
|  sn=12 | S(rot)=       0.00932623 Eh      5.85 kcal/mol|
 linear molecules ---------------------------------------
|  Dinfh | S(rot)=       0.00710905 Eh      4.46 kcal/mol|
|  Cinfv | S(rot)=       0.00776350 Eh      4.87 kcal/mol|
 --------------------------------------------------------

-------------------
GIBBS FREE ENERGY
-------------------

The Gibbs free energy is G = H - T*S

                             ****ORCA TERMINATED NORMALLY****
TOTAL RUN TIME: 0 days 0 hours 4 minutes 41 seconds 883 msec
