                         Program Version 6.0.0  -   RELEASE  -
|  1> ! r2SCAN-3c DEF2-TZVP FREQ
|  2> * xyzfile 0 1 vacuum_censo.xyz
|  3>
|  4>                          ****END OF INPUT****

CARTESIAN COORDINATES (ANGSTROEM)
---------------------------------
  C     -1.423630    0.295567   -0.103871
  C     -0.000090    0.000054    0.371904
  C      0.455851   -1.380410   -0.104018
  C      0.967795    1.084920   -0.103848
  H     -1.768463    1.272171    0.251385
  H     -1.466154    0.303811   -1.199723
  H     -2.128690   -0.462661    0.252298
  H     -0.000135   -0.000160    1.471004
  H     -0.217319   -2.167287    0.251648
  H      1.465195   -1.611159    0.252081
  H      0.469496   -1.421229   -1.199843
  H      0.996271    1.117116   -1.199662
  H      1.985773    0.894487    0.251612
  H      0.664105    2.074787    0.252221

 Total Charge           Charge          ....    0
 Multiplicity           Mult            ....    1
 Number of Electrons    NEL             ....   34
 Basis Dimension        Dim             ....  184

ORBITAL ENERGIES
----------------

  NO   OCC          E(Eh)            E(eV)
   0   2.0000     -10.034894      -273.0634
   1   2.0000     -10.014888      -272.5189
   2   2.0000     -10.014876      -272.5186
   3   2.0000     -10.014872      -272.5185
   4   2.0000      -0.766837       -20.8667
   5   2.0000      -0.646415       -17.5898
   6   2.0000      -0.646385       -17.5890
   7   2.0000      -0.525302       -14.2942
   8   2.0000      -0.430375       -11.7111
   9   2.0000      -0.398082       -10.8324
  10   2.0000      -0.398008       -10.8303
  11   2.0000      -0.350202        -9.5295
  12   2.0000      -0.350197        -9.5293
  13   2.0000      -0.329833        -8.9752
  14   2.0000      -0.296975        -8.0811
  15   2.0000      -0.296955        -8.0805
  16   2.0000      -0.290354        -7.9009
  17   0.0000       0.041743         1.1359
  18   0.0000       0.087692         2.3862
  19   0.0000       0.099540         2.7086
  20   0.0000       0.099575         2.7096
  21   0.0000       0.111540         3.0352

MULLIKEN ATOMIC CHARGES
-----------------------
   0 C :   -0.323655
   1 C :    0.019828
   2 C :   -0.323331
   3 C :   -0.323401
   4 H :    0.102736
   5 H :    0.094550
   6 H :    0.102762
   7 H :    0.050532
   8 H :    0.102737
   9 H :    0.102736
  10 H :    0.094523
  11 H :    0.094482
  12 H :    0.102731
  13 H :    0.102769
Sum of atomic charges:    0.0000000

LOEWDIN ATOMIC CHARGES
----------------------
   0 C :   -0.289261
   1 C :   -0.343142
   2 C :   -0.289222
   3 C :   -0.289230
   4 H :    0.118386
   5 H :    0.119033
   6 H :    0.118394
   7 H :    0.143387
   8 H :    0.118390
   9 H :    0.118409
  10 H :    0.119031
  11 H :    0.119036
  12 H :    0.118412
  13 H :    0.118379

  Mayer bond orders larger than 0.100000
B(  0-C ,  1-C ) :   0.9746 B(  0-C ,  4-H ) :   0.9753 B(  0-C ,  5-H ) :   0.9711
B(  0-C ,  6-H ) :   0.9753 B(  1-C ,  2-C ) :   0.9746 B(  1-C ,  3-C ) :   0.9745
B(  1-C ,  7-H ) :   0.9589 B(  2-C ,  8-H ) :   0.9753 B(  2-C ,  9-H ) :   0.9753
B(  2-C , 10-H ) :   0.9711 B(  3-C , 11-H ) :   0.9711 B(  3-C , 12-H ) :   0.9753
B(  3-C , 13-H ) :   0.9753

Dispersion correction           -0.002770793
FINAL SINGLE POINT ENERGY      -158.403482461017

DIPOLE MOMENT
-------------

Method             : SCF
Type of density    : Electron Density
Multiplicity       :   1
Irrep              :   0
Energy             :  -158.4073700010351331 Eh
Relativity type    :
Basis              : AO
                                X                 Y                 Z
Electronic contribution:     -0.000281947       0.000338094       0.647613010
Nuclear contribution   :      0.000204698      -0.000350409      -0.595097598
                        -----------------------------------------
Total Dipole Moment    :     -0.000077249      -0.000012315       0.052515412
                        -----------------------------------------
Magnitude (a.u.)       :      0.052515470
Magnitude (Debye)      :      0.133483717

VIBRATIONAL FREQUENCIES
-----------------------

Scaling factor for frequencies =  1.000000000  (already applied!)

     0:       0.00 cm**-1
     1:       0.00 cm**-1
     2:       0.00 cm**-1
     3:       0.00 cm**-1
     4:       0.00 cm**-1
     5:       0.00 cm**-1
     6:     219.48 cm**-1
     7:     272.11 cm**-1
     8:     272.62 cm**-1
     9:     371.25 cm**-1
    10:     371.48 cm**-1
    11:     438.52 cm**-1
    12:     801.44 cm**-1
    13:     923.31 cm**-1
    14:     923.76 cm**-1
    15:     951.98 cm**-1
    16:     973.26 cm**-1
    17:     973.38 cm**-1
    18:    1190.65 cm**-1
    19:    1190.91 cm**-1
    20:    1209.23 cm**-1
    21:    1348.64 cm**-1
    22:    1348.72 cm**-1
    23:    1387.96 cm**-1
    24:    1388.20 cm**-1
    25:    1419.06 cm**-1
    26:    1473.05 cm**-1
    27:    1481.89 cm**-1
    28:    1481.97 cm**-1
    29:    1500.41 cm**-1
    30:    1500.54 cm**-1
    31:    1510.46 cm**-1
    32:    2989.75 cm**-1
    33:    2995.67 cm**-1
    34:    2995.78 cm**-1
    35:    3001.55 cm**-1
    36:    3068.04 cm**-1
    37:    3068.30 cm**-1
    38:    3077.61 cm**-1
    39:    3079.55 cm**-1
    40:    3082.75 cm**-1
    41:    3083.20 cm**-1

IR SPECTRUM
-----------

 Mode   freq       eps      Int      T**2         TX        TY        TZ
       cm**-1   L/(mol*cm) km/mol    a.u.
----------------------------------------------------------------------------
  6:    219.48   0.000000    0.00  0.000000  ( 0.000230  0.000047  0.000096)
  7:    272.11   0.000005    0.02  0.000005  (-0.001541 -0.001734  0.000262)
  8:    272.62   0.000007    0.04  0.000008  (-0.002145  0.001892  0.000112)
  9:    371.25   0.000005    0.03  0.000004  (-0.001861  0.000850  0.000231)
 10:    371.48   0.000005    0.02  0.000004  (-0.000440 -0.001899 -0.000125)
 11:    438.52   0.000036    0.18  0.000026  (-0.000014  0.000014  0.005069)
 12:    801.44   0.000114    0.58  0.000045  (-0.000170 -0.000080 -0.006670)
 13:    923.31   0.000203    1.03  0.000069  ( 0.006123  0.005592 -0.000106)
 14:    923.76   0.000193    0.98  0.000065  (-0.005520  0.005906 -0.000045)
 15:    951.98   0.000001    0.00  0.000000  ( 0.000449  0.000023  0.000081)
 16:    973.26   0.000001    0.01  0.000000  (-0.000400  0.000450 -0.000092)
 17:    973.38   0.000001    0.00  0.000000  (-0.000375 -0.000107  0.000218)
 18:   1190.65   0.000583    2.95  0.000153  (-0.001239  0.012301 -0.000038)
 19:   1190.91   0.000595    3.01  0.000156  (-0.012418 -0.001350 -0.000129)
 20:   1209.23   0.000038    0.19  0.000010  (-0.000000  0.000024  0.003115)
 21:   1348.64   0.000643    3.25  0.000149  ( 0.001288  0.012131 -0.000055)
 22:   1348.72   0.000648    3.28  0.000150  ( 0.012174 -0.001334  0.000030)
 23:   1387.96   0.001473    7.44  0.000331  (-0.004147  0.017714  0.000332)
 24:   1388.20   0.001446    7.31  0.000325  ( 0.017555  0.004097  0.000167)
 25:   1419.06   0.000818    4.14  0.000180  ( 0.000242  0.000028  0.013413)
 26:   1473.05   0.000000    0.00  0.000000  ( 0.000071 -0.000028  0.000052)
 27:   1481.89   0.000069    0.35  0.000015  (-0.003813  0.000036 -0.000137)
 28:   1481.97   0.000077    0.39  0.000016  ( 0.000007 -0.004014 -0.000343)
 29:   1500.41   0.000999    5.05  0.000208  ( 0.004700  0.013623  0.000102)
 30:   1500.54   0.001003    5.07  0.000209  (-0.013605  0.004850  0.000148)
 31:   1510.46   0.004207   21.26  0.000869  (-0.000110 -0.000067  0.029483)
 32:   2989.75   0.001711    8.65  0.000179  (-0.000116 -0.000097  0.013362)
 33:   2995.67   0.008080   40.83  0.000842  ( 0.027321  0.009759  0.000238)
 34:   2995.78   0.008020   40.53  0.000835  ( 0.009713 -0.027222  0.000219)
 35:   3001.55   0.004001   20.22  0.000416  ( 0.000123 -0.000326 -0.020393)
 36:   3068.04   0.001875    9.47  0.000191  (-0.013653  0.001950  0.000701)
 37:   3068.30   0.001934    9.77  0.000197  ( 0.003012  0.013697  0.000094)
 38:   3077.61   0.020214  102.15  0.002050  (-0.001064 -0.001595  0.045233)
 39:   3079.55   0.000049    0.25  0.000005  (-0.000985  0.001791 -0.000861)
 40:   3082.75   0.011138   56.29  0.001127  (-0.019164 -0.027449 -0.002602)
 41:   3083.20   0.011346   57.34  0.001148  (-0.027778  0.019411 -0.000117)

--------------------------
THERMOCHEMISTRY AT 298.15K
--------------------------

Temperature         ...   298.15 K
Pressure            ...     1.00 atm
Total Mass          ...    58.12 AMU
Quasi RRHO          ...     True
Cut-Off Frequency   ...     1.00 cm^-1

Throughout the following assumptions are being made:
  (1) The electronic state is orbitally nondegenerate
  (2) There are no thermally accessible electronically excited states
  (3) Hindered rotations indicated by low frequency modes are not
      treated as such but are treated as vibrations and this may
      cause some error
  (4) All equations used are the standard statistical mechanics
      equations for an ideal gas
  (5) All vibrations are strictly harmonic

freq.     219.48  E(vib)   ...       0.33
freq.     272.11  E(vib)   ...       0.29
freq.     272.62  E(vib)   ...       0.29
freq.     371.25  E(vib)   ...       0.21
freq.     371.48  E(vib)   ...       0.21
freq.     438.52  E(vib)   ...       0.17
freq.     801.44  E(vib)   ...       0.05
freq.     923.31  E(vib)   ...       0.03
freq.     923.76  E(vib)   ...       0.03
freq.     951.98  E(vib)   ...       0.03
freq.     973.26  E(vib)   ...       0.03
freq.     973.38  E(vib)   ...       0.03
freq.    1190.65  E(vib)   ...       0.01
freq.    1190.91  E(vib)   ...       0.01
freq.    1209.23  E(vib)   ...       0.01
freq.    1348.64  E(vib)   ...       0.01
freq.    1348.72  E(vib)   ...       0.01
freq.    1387.96  E(vib)   ...       0.00
freq.    1388.20  E(vib)   ...       0.00
freq.    1419.06  E(vib)   ...       0.00
freq.    1473.05  E(vib)   ...       0.00
freq.    1481.89  E(vib)   ...       0.00
freq.    1481.97  E(vib)   ...       0.00
freq.    1500.41  E(vib)   ...       0.00
freq.    1500.54  E(vib)   ...       0.00
freq.    1510.46  E(vib)   ...       0.00
freq.    2989.75  E(vib)   ...       0.00
freq.    2995.67  E(vib)   ...       0.00
freq.    2995.78  E(vib)   ...       0.00
freq.    3001.55  E(vib)   ...       0.00
freq.    3068.04  E(vib)   ...       0.00
freq.    3068.30  E(vib)   ...       0.00
freq.    3077.61  E(vib)   ...       0.00
freq.    3079.55  E(vib)   ...       0.00
freq.    3082.75  E(vib)   ...       0.00
freq.    3083.20  E(vib)   ...       0.00

------------
INNER ENERGY
------------

The inner energy is: U= E(el) + E(ZPE) + E(vib) + E(rot) + E(trans)
    E(el)   - is the total energy from the electronic structure calculation
              = E(kin-el) + E(nuc-el) + E(el-el) + E(nuc-nuc)
    E(ZPE)  - the the zero temperature vibrational energy from the frequency calculation
    E(vib)  - the the finite temperature correction to E(ZPE) due to population
              of excited vibrational states
    E(rot)  - is the rotational thermal energy
    E(trans)- is the translational thermal energy

Summary of contributions to the inner energy U:
Electronic energy                ...   -158.40348246 Eh
Zero point energy                ...      0.13069042 Eh      82.01 kcal/mol
Thermal vibrational correction   ...      0.00281819 Eh       1.77 kcal/mol
Thermal rotational correction    ...      0.00141627 Eh       0.89 kcal/mol
Thermal translational correction ...      0.00141627 Eh       0.89 kcal/mol
-----------------------------------------------------------------------
Total thermal energy                   -158.26714132 Eh

Summary of corrections to the electronic energy:
(perhaps to be used in another calculation)
Total thermal correction                  0.00565073 Eh       3.55 kcal/mol
Non-thermal (ZPE) correction              0.13069042 Eh      82.01 kcal/mol
-----------------------------------------------------------------------
Total correction                          0.13634114 Eh      85.56 kcal/mol

--------
ENTHALPY
--------

The enthalpy is H = U + kB*T
                kB is Boltzmann's constant
Total thermal energy              ...   -158.26714132 Eh
Thermal Enthalpy correction       ...      0.00094421 Eh       0.59 kcal/mol
-----------------------------------------------------------------------
Total Enthalpy                    ...   -158.26619711 Eh

Note: Only C1 symmetry has been detected, increase convergence thresholds
      if your molecule has a higher symmetry. Symmetry factor of 1.0 is
      used for the rotational entropy correction.

Note: Rotational entropy computed according to Herzberg
Infrared and Raman Spectra, Chapter V,1, Van Nostrand Reinhold, 1945
Point Group:  C1, Symmetry Number:   1
Rotational constants in cm-1:     0.260257     0.260161     0.151007

Vibrational entropy computed according to the QRRHO of S. Grimme
Chem.Eur.J. 2012 18 9955 using a reference frequency of 100.0 cm-1

-------
ENTROPY
-------

The entropy contributions are T*S = T*(S(el)+S(vib)+S(rot)+S(trans))
     S(el)   - electronic entropy
     S(vib)  - vibrational entropy
     S(rot)  - rotational entropy
     S(trans)- translational entropy
The entropies will be listed as multiplied by the temperature to get
units of energy

Electronic entropy                ...      0.00000000 Eh      0.00 kcal/mol
Vibrational entropy               ...      0.00437473 Eh      2.75 kcal/mol
Rotational entropy                ...      0.01167438 Eh      7.33 kcal/mol
Translational entropy             ...      0.01810279 Eh     11.36 kcal/mol
-----------------------------------------------------------------------
Final entropy term                ...      0.03415190 Eh     21.43 kcal/mol

In case the symmetry of your molecule has not been determined correctly
or in case you have a reason to use a different symmetry number we print
out the resulting rotational entropy values for sn=1,12:

 non-linear molecules -----------------------------------
|  sn= 1 | S(rot)=       0.01167438 Eh      7.33 kcal/mol|
|  sn= 2 | S(rot)=       0.01101993 Eh      6.92 kcal/mol|
|  sn= 3 | S(rot)=       0.01063710 Eh      6.67 kcal/mol|
|  sn= 4 | S(rot)=       0.01036547 Eh      6.50 kcal/mol|
|  sn= 5 | S(rot)=       0.01015478 Eh      6.37 kcal/mol|
|  sn= 6 | S(rot)=       0.00998264 Eh      6.26 kcal/mol|
|  sn= 7 | S(rot)=       0.00983709 Eh      6.17 kcal/mol|
|  sn= 8 | S(rot)=       0.00971102 Eh      6.09 kcal/mol|
|  sn= 9 | S(rot)=       0.00959981 Eh      6.02 kcal/mol|
|  sn=10 | S(rot)=       0.00950033 Eh      5.96 kcal/mol|
|  sn=11 | S(rot)=       0.00941034 Eh      5.91 kcal/mol|
|  sn=12 | S(rot)=       0.00932818 Eh      5.85 kcal/mol|
 linear molecules ---------------------------------------
|  Dinfh | S(rot)=       0.00711071 Eh      4.46 kcal/mol|
|  Cinfv | S(rot)=       0.00776517 Eh      4.87 kcal/mol|
 --------------------------------------------------------

-------------------
GIBBS FREE ENERGY
-------------------

The Gibbs free energy is G = H - T*S

                             ****ORCA TERMINATED NORMALLY****
TOTAL RUN TIME: 0 days 0 hours 4 minutes 28 seconds 430 msec
