                         Program Version 6.0.1  -  RELEASE   -
|  1> ! r2scan-3c def2/J RI DEFGRID2 scfconv6 printgap
|  2> %output
|  3>     printlevel normal
|  4> end
|  5> * xyz 0 1
|  6> C 2.5588697153 2.5362922485 1.2673524022
|  7> C 2.0722727815 1.736664388 0.0604128864
|  8> C 2.9692717217 0.5035125592 -0.2183031448
|  9> C 2.0132118513 -0.6420586577 -0.0772694362
| 10> C 2.1915590407 -1.998061818 -0.2342484343
| 11> C 1.1018164532 -2.8386512462 -0.0506102345
| 12> C -0.1380945761 -2.3238707776 0.2837665121
| 13> C -0.3203344523 -0.9577306147 0.4517609539
| 14> C 0.7669662281 -0.1165544134 0.2603519927
| 15> O 0.7556080878 1.2273791095 0.372215109
| 16> O -1.5586410322 -0.4354513616 0.8193440234
| 17> C -2.4836361166 -0.3244238304 -0.173600754
| 18> O -2.3128679512 -0.6632710927 -1.3152983385
| 19> N -3.6178761776 0.2073262513 0.329827459
| 20> C -4.7674312369 0.4923972636 -0.489080845
| 21> C 1.9411521604 2.6303951386 -1.1718746281
| 22> H 2.6136405179 1.8928839049 2.1426929145
| 23> H 3.542277077 2.953895417 1.0682291713
| 24> H 1.8648044974 3.3457254087 1.4779399099
| 25> H 3.4028591158 0.5443632455 -1.218778685
| 26> H 3.7865249369 0.4330336945 0.5022126586
| 27> H 3.1583536156 -2.3975396149 -0.500320885
| 28> H 1.2184756886 -3.9038176361 -0.1756600943
| 29> H -0.9870784905 -2.9768712324 0.41399189
| 30> H -3.619078516 0.4837469938 1.2979820437
| 31> H -5.650022215 -0.0232237021 -0.1058217162
| 32> H -4.5471244283 0.133818321 -1.4930488187
| 33> H -4.9666502783 1.5656829131 -0.5254808592
| 34> H 1.5550841691 2.0520796234 -2.0083065121
| 35> H 2.9085895667 3.0471616954 -1.4396801528
| 36> H 1.2482725555 3.4423879009 -0.9667809956
| 37> *
| 38>
| 39>                          ****END OF INPUT****

CARTESIAN COORDINATES (ANGSTROEM)
---------------------------------
  C      2.558870    2.536292    1.267352
  C      2.072273    1.736664    0.060413
  C      2.969272    0.503513   -0.218303
  C      2.013212   -0.642059   -0.077269
  C      2.191559   -1.998062   -0.234248
  C      1.101816   -2.838651   -0.050610
  C     -0.138095   -2.323871    0.283767
  C     -0.320334   -0.957731    0.451761
  C      0.766966   -0.116554    0.260352
  O      0.755608    1.227379    0.372215
  O     -1.558641   -0.435451    0.819344
  C     -2.483636   -0.324424   -0.173601
  O     -2.312868   -0.663271   -1.315298
  N     -3.617876    0.207326    0.329827
  C     -4.767431    0.492397   -0.489081
  C      1.941152    2.630395   -1.171875
  H      2.613641    1.892884    2.142693
  H      3.542277    2.953895    1.068229
  H      1.864804    3.345725    1.477940
  H      3.402859    0.544363   -1.218779
  H      3.786525    0.433034    0.502213
  H      3.158354   -2.397540   -0.500321
  H      1.218476   -3.903818   -0.175660
  H     -0.987078   -2.976871    0.413992
  H     -3.619079    0.483747    1.297982
  H     -5.650022   -0.023224   -0.105822
  H     -4.547124    0.133818   -1.493049
  H     -4.966650    1.565683   -0.525481
  H      1.555084    2.052080   -2.008307
  H      2.908590    3.047162   -1.439680
  H      1.248273    3.442388   -0.966781

 Total Charge           Charge          ....    0
 Multiplicity           Mult            ....    1
 Number of Electrons    NEL             ....  118
 Basis Dimension        Dim             ....  399

ORBITAL ENERGIES
----------------

  NO   OCC          E(Eh)            E(eV)
   0   2.0000     -18.995646      -516.8978
   1   2.0000     -18.980182      -516.4770
   2   2.0000     -18.912689      -514.6404
   3   2.0000     -14.186141      -386.0245
   4   2.0000     -10.167159      -276.6625
   5   2.0000     -10.105242      -274.9776
   6   2.0000     -10.090097      -274.5655
   7   2.0000     -10.087685      -274.4999
   8   2.0000     -10.063802      -273.8500
   9   2.0000     -10.043330      -273.2929
  10   2.0000     -10.037993      -273.1477
  11   2.0000     -10.031940      -272.9830
  12   2.0000     -10.031914      -272.9823
  13   2.0000     -10.026791      -272.8429
  14   2.0000     -10.026754      -272.8418
  15   2.0000     -10.025002      -272.7942
  16   2.0000      -1.074417       -29.2364
  17   2.0000      -1.040855       -28.3231
  18   2.0000      -0.979865       -26.6635
  19   2.0000      -0.896284       -24.3891
  20   2.0000      -0.822544       -22.3826
  21   2.0000      -0.782862       -21.3028
  22   2.0000      -0.737339       -20.0640
  23   2.0000      -0.716586       -19.4993
  24   2.0000      -0.675715       -18.3872
  25   2.0000      -0.666711       -18.1421
  26   2.0000      -0.655875       -17.8473
  27   2.0000      -0.595752       -16.2112
  28   2.0000      -0.579912       -15.7802
  29   2.0000      -0.550442       -14.9783
  30   2.0000      -0.542825       -14.7710
  31   2.0000      -0.523909       -14.2563
  32   2.0000      -0.477696       -12.9988
  33   2.0000      -0.454870       -12.3776
  34   2.0000      -0.450929       -12.2704
  35   2.0000      -0.445176       -12.1138
  36   2.0000      -0.443064       -12.0564
  37   2.0000      -0.431083       -11.7304
  38   2.0000      -0.413049       -11.2396
  39   2.0000      -0.409194       -11.1347
  40   2.0000      -0.389793       -10.6068
  41   2.0000      -0.386271       -10.5110
  42   2.0000      -0.382515       -10.4088
  43   2.0000      -0.374422       -10.1885
  44   2.0000      -0.373217       -10.1558
  45   2.0000      -0.360486        -9.8093
  46   2.0000      -0.355525        -9.6743
  47   2.0000      -0.348783        -9.4909
  48   2.0000      -0.341637        -9.2964
  49   2.0000      -0.332567        -9.0496
  50   2.0000      -0.327578        -8.9139
  51   2.0000      -0.316374        -8.6090
  52   2.0000      -0.298158        -8.1133
  53   2.0000      -0.287085        -7.8120
  54   2.0000      -0.272638        -7.4188
  55   2.0000      -0.241651        -6.5757
  56   2.0000      -0.228866        -6.2278
  57   2.0000      -0.222949        -6.0667
  58   2.0000      -0.191456        -5.2098
  59   0.0000      -0.028675        -0.7803
  60   0.0000      -0.010607        -0.2886
  61   0.0000       0.034056         0.9267
  62   0.0000       0.052949         1.4408
  63   0.0000       0.072298         1.9673

MULLIKEN ATOMIC CHARGES
-----------------------
   0 C :   -0.492765
   1 C :    0.301823
   2 C :   -0.464617
   3 C :    0.239671
   4 C :   -0.284068
   5 C :   -0.138950
   6 C :   -0.244929
   7 C :    0.047721
   8 C :    0.070532
   9 O :   -0.171077
  10 O :   -0.166757
  11 C :    0.362823
  12 O :   -0.480412
  13 N :   -0.163660
  14 C :   -0.396390
  15 C :   -0.492653
  16 H :    0.157232
  17 H :    0.156773
  18 H :    0.160286
  19 H :    0.171302
  20 H :    0.171424
  21 H :    0.148867
  22 H :    0.146157
  23 H :    0.154536
  24 H :    0.248321
  25 H :    0.142328
  26 H :    0.195541
  27 H :    0.142044
  28 H :    0.163074
  29 H :    0.156802
  30 H :    0.159021
Sum of atomic charges:    0.0000000

LOEWDIN ATOMIC CHARGES
----------------------
   0 C :   -0.368612
   1 C :    0.101893
   2 C :   -0.219112
   3 C :   -0.053376
   4 C :   -0.153190
   5 C :   -0.176067
   6 C :   -0.110750
   7 C :    0.208546
   8 C :    0.239697
   9 O :   -0.627291
  10 O :   -0.486377
  11 C :    0.456736
  12 O :   -0.395748
  13 N :   -0.610765
  14 C :   -0.111064
  15 C :   -0.367602
  16 H :    0.165137
  17 H :    0.161234
  18 H :    0.165170
  19 H :    0.175974
  20 H :    0.174908
  21 H :    0.170002
  22 H :    0.167790
  23 H :    0.181895
  24 H :    0.276323
  25 H :    0.167999
  26 H :    0.205924
  27 H :    0.167223
  28 H :    0.168044
  29 H :    0.160324
  30 H :    0.165137

  Mayer bond orders larger than 0.100000
B(  0-C ,  1-C ) :   0.9603 B(  0-C , 16-H ) :   0.9668 B(  0-C , 17-H ) :   0.9767
B(  0-C , 18-H ) :   0.9729 B(  1-C ,  2-C ) :   0.8859 B(  1-C ,  8-C ) :   0.1280
B(  1-C ,  9-O ) :   0.6476 B(  1-C , 15-C ) :   0.9658 B(  2-C ,  3-C ) :   0.6826
B(  2-C , 19-H ) :   0.9581 B(  2-C , 20-H ) :   0.9709 B(  3-C ,  4-C ) :   1.3013
B(  3-C ,  7-C ) :  -0.1026 B(  3-C ,  8-C ) :   1.3843 B(  4-C ,  5-C ) :   1.4156
B(  4-C , 21-H ) :   0.9397 B(  5-C ,  6-C ) :   1.3908 B(  5-C ,  8-C ) :   0.1030
B(  5-C , 22-H ) :   0.9522 B(  6-C ,  7-C ) :   1.2958 B(  6-C , 23-H ) :   0.9328
B(  7-C ,  8-C ) :   1.6774 B(  7-C , 10-O ) :   0.8964 B(  8-C ,  9-O ) :   1.1196
B( 10-O , 11-C ) :   1.0634 B( 11-C , 12-O ) :   1.8431 B( 11-C , 13-N ) :   1.2617
B( 13-N , 14-C ) :   0.8995 B( 13-N , 24-H ) :   0.9104 B( 14-C , 25-H ) :   0.9642
B( 14-C , 26-H ) :   0.9599 B( 14-C , 27-H ) :   0.9601 B( 15-C , 28-H ) :   0.9616
B( 15-C , 29-H ) :   0.9783 B( 15-C , 30-H ) :   0.9714

Dispersion correction           -0.011931930
FINAL SINGLE POINT ENERGY      -746.591868071178

DIPOLE MOMENT
-------------

Method             : SCF
Type of density    : Electron Density
Multiplicity       :   1
Irrep              :   0
Energy             :  -746.5999462893537384 Eh
Relativity type    :
Basis              : AO
                                X                 Y                 Z
Electronic contribution:     -4.909521288      -9.239093810       1.998056671
Nuclear contribution   :      5.121059738       9.941385613      -1.436202201
                        -----------------------------------------
Total Dipole Moment    :      0.211538449       0.702291803       0.561854470
                        -----------------------------------------
Magnitude (a.u.)       :      0.923927886
Magnitude (Debye)      :      2.348438052

Rotational constants in cm-1:             0.027021             0.012238             0.009421
Rotational constants in MHz :           810.056314           366.883774           282.440055

                             ****ORCA TERMINATED NORMALLY****
TOTAL RUN TIME: 0 days 0 hours 1 minutes 26 seconds 734 msec
