                         Program Version 6.0.1  -  RELEASE   -
|  1> ! r2scan-3c def2/J RI DEFGRID2 scfconv6 printgap
|  2> %output
|  3>     printlevel normal
|  4> end
|  5> * xyz 0 1
|  6> C 1.0371771824 1.2581414849 0.2176543093
|  7> C 0.5471956756 0.0002432093 -0.5047576465
|  8> C 1.0372042973 -1.2576575314 0.2174450725
|  9> C -0.9652354351 0.0006710218 -0.5080739702
| 10> O -1.6482861825 -0.0014546443 0.4760049339
| 11> H 2.1229789024 1.2593556472 0.2736676777
| 12> H 0.6319353349 1.2849515057 1.2261557224
| 13> H 0.7148992803 2.1534602792 -0.3096438726
| 14> H 0.9149096822 0.0003520051 -1.5346989763
| 15> H 2.1230074984 -1.2583081049 0.2744620505
| 16> H 0.7156854724 -2.1528260659 -0.3106264194
| 17> H 0.6308998587 -1.2849686534 1.2255058778
| 18> H -1.4278158361 0.0044124399 -1.5161698791
| 19> *
| 20>
| 21>                          ****END OF INPUT****

CARTESIAN COORDINATES (ANGSTROEM)
---------------------------------
  C      1.037177    1.258141    0.217654
  C      0.547196    0.000243   -0.504758
  C      1.037204   -1.257658    0.217445
  C     -0.965235    0.000671   -0.508074
  O     -1.648286   -0.001455    0.476005
  H      2.122979    1.259356    0.273668
  H      0.631935    1.284952    1.226156
  H      0.714899    2.153460   -0.309644
  H      0.914910    0.000352   -1.534699
  H      2.123007   -1.258308    0.274462
  H      0.715685   -2.152826   -0.310626
  H      0.630900   -1.284969    1.225506
  H     -1.427816    0.004412   -1.516170

 Total Charge           Charge          ....    0
 Multiplicity           Mult            ....    1
 Number of Electrons    NEL             ....   40
 Basis Dimension        Dim             ....  140

ORBITAL ENERGIES
----------------

  NO   OCC          E(Eh)            E(eV)
   0   2.0000     -18.953295      -515.7454
   1   2.0000     -10.118487      -275.3380
   2   2.0000     -10.050975      -273.5009
   3   2.0000     -10.030736      -272.9502
   4   2.0000     -10.030649      -272.9478
   5   2.0000      -1.021444       -27.7949
   6   2.0000      -0.778743       -21.1907
   7   2.0000      -0.663386       -18.0517
   8   2.0000      -0.619805       -16.8657
   9   2.0000      -0.513815       -13.9816
  10   2.0000      -0.472400       -12.8546
  11   2.0000      -0.421657       -11.4739
  12   2.0000      -0.405939       -11.0462
  13   2.0000      -0.402042       -10.9401
  14   2.0000      -0.368524       -10.0281
  15   2.0000      -0.347794        -9.4640
  16   2.0000      -0.346411        -9.4263
  17   2.0000      -0.317218        -8.6319
  18   2.0000      -0.316574        -8.6144
  19   2.0000      -0.221646        -6.0313
  20   0.0000      -0.062525        -1.7014
  21   0.0000       0.082269         2.2387
  22   0.0000       0.107452         2.9239
  23   0.0000       0.128516         3.4971
  24   0.0000       0.133275         3.6266

MULLIKEN ATOMIC CHARGES
-----------------------
   0 C :   -0.495868
   1 C :    0.026459
   2 C :   -0.496021
   3 C :    0.117475
   4 O :   -0.346943
   5 H :    0.148427
   6 H :    0.171418
   7 H :    0.149014
   8 H :    0.144369
   9 H :    0.148343
  10 H :    0.149008
  11 H :    0.171472
  12 H :    0.112849
Sum of atomic charges:    0.0000000

LOEWDIN ATOMIC CHARGES
----------------------
   0 C :   -0.393458
   1 C :   -0.247875
   2 C :   -0.393545
   3 C :    0.212020
   4 O :   -0.444737
   5 H :    0.155595
   6 H :    0.166681
   7 H :    0.156969
   8 H :    0.159344
   9 H :    0.155578
  10 H :    0.156972
  11 H :    0.166724
  12 H :    0.149734

  Mayer bond orders larger than 0.100000
B(  0-C ,  1-C ) :   0.8966 B(  0-C ,  5-H ) :   0.9716 B(  0-C ,  6-H ) :   0.9759
B(  0-C ,  7-H ) :   0.9716 B(  1-C ,  2-C ) :   0.8967 B(  1-C ,  3-C ) :   0.8725
B(  1-C ,  8-H ) :   0.9437 B(  2-C ,  9-H ) :   0.9717 B(  2-C , 10-H ) :   0.9716
B(  2-C , 11-H ) :   0.9759 B(  3-C ,  4-O ) :   1.9129 B(  3-C , 12-H ) :   0.9730

Dispersion correction           -0.002806115
FINAL SINGLE POINT ENERGY      -232.391222883831

DIPOLE MOMENT
-------------

Method             : SCF
Type of density    : Electron Density
Multiplicity       :   1
Irrep              :   0
Energy             :  -232.3945252334339102 Eh
Relativity type    :
Basis              : AO
                                X                 Y                 Z
Electronic contribution:     -5.214145970      -0.004042895      -0.021657276
Nuclear contribution   :      6.004678141       0.006009945      -0.622776053
                        -----------------------------------------
Total Dipole Moment    :      0.790532171       0.001967050      -0.644433329
                        -----------------------------------------
Magnitude (a.u.)       :      1.019921221
Magnitude (Debye)      :      2.592433721

Rotational constants in cm-1:             0.231435             0.144200             0.111034
Rotational constants in MHz :          6938.234483          4323.008810          3328.707198

                             ****ORCA TERMINATED NORMALLY****
TOTAL RUN TIME: 0 days 0 hours 0 minutes 18 seconds 762 msec
