                         Program Version 6.0.1  -  RELEASE   -
|  1> ! r2scan-3c def2/J RI DEFGRID2 scfconv6 printgap
|  2> %output
|  3>     printlevel normal
|  4> end
|  5> * xyz 0 1
|  6> C -3.3665470428 0.6066039224 0.0012847763
|  7> O -1.9576151659 0.772239032 0.0001511914
|  8> C -1.2371393224 -0.3615040273 -0.0006293633
|  9> O -1.7411744631 -1.4583931249 -0.0008348083
| 10> C 0.2235176263 -0.1103151569 -0.0006211433
| 11> C 0.7501432253 1.1786589357 -0.0009376258
| 12> C 2.1206373965 1.3601485667 -0.0003299645
| 13> C 2.9696899802 0.264401263 0.0006616605
| 14> C 2.4488963479 -1.0200951955 0.0008377694
| 15> C 1.0802619556 -1.208856398 0.0001608229
| 16> H -3.683143835 0.0531835857 0.888003246
| 17> H -3.6848856142 0.0555469783 -0.8862403725
| 18> H -3.7909770488 1.607299648 0.003044777
| 19> H 0.0827549337 2.02602383 -0.0017255288
| 20> H 2.5304706397 2.3594115447 -0.0005457025
| 21> H 4.0396638604 0.4125408978 0.0013106275
| 22> H 3.1117827204 -1.8724964866 0.0015455142
| 23> H 0.6502215632 -2.1990539891 0.0003714799
| 24> *
| 25>
| 26>                          ****END OF INPUT****

CARTESIAN COORDINATES (ANGSTROEM)
---------------------------------
  C     -3.366547    0.606604    0.001285
  O     -1.957615    0.772239    0.000151
  C     -1.237139   -0.361504   -0.000629
  O     -1.741174   -1.458393   -0.000835
  C      0.223518   -0.110315   -0.000621
  C      0.750143    1.178659   -0.000938
  C      2.120637    1.360149   -0.000330
  C      2.969690    0.264401    0.000662
  C      2.448896   -1.020095    0.000838
  C      1.080262   -1.208856    0.000161
  H     -3.683144    0.053184    0.888003
  H     -3.684886    0.055547   -0.886240
  H     -3.790977    1.607300    0.003045
  H      0.082755    2.026024   -0.001726
  H      2.530471    2.359412   -0.000546
  H      4.039664    0.412541    0.001311
  H      3.111783   -1.872496    0.001546
  H      0.650222   -2.199054    0.000371

 Total Charge           Charge          ....    0
 Multiplicity           Mult            ....    1
 Number of Electrons    NEL             ....   72
 Basis Dimension        Dim             ....  240

ORBITAL ENERGIES
----------------

  NO   OCC          E(Eh)            E(eV)
   0   2.0000     -19.001402      -517.0544
   1   2.0000     -18.934230      -515.2266
   2   2.0000     -10.157548      -276.4009
   3   2.0000     -10.086880      -274.4780
   4   2.0000     -10.055757      -273.6311
   5   2.0000     -10.048855      -273.4432
   6   2.0000     -10.048200      -273.4254
   7   2.0000     -10.046258      -273.3726
   8   2.0000     -10.045753      -273.3588
   9   2.0000     -10.045257      -273.3453
  10   2.0000      -1.076207       -29.2851
  11   2.0000      -0.983969       -26.7752
  12   2.0000      -0.840126       -22.8610
  13   2.0000      -0.749030       -20.3821
  14   2.0000      -0.728175       -19.8146
  15   2.0000      -0.693825       -18.8799
  16   2.0000      -0.604126       -16.4391
  17   2.0000      -0.585052       -15.9201
  18   2.0000      -0.539915       -14.6918
  19   2.0000      -0.511864       -13.9285
  20   2.0000      -0.462652       -12.5894
  21   2.0000      -0.454577       -12.3697
  22   2.0000      -0.448601       -12.2070
  23   2.0000      -0.425535       -11.5794
  24   2.0000      -0.415380       -11.3031
  25   2.0000      -0.401192       -10.9170
  26   2.0000      -0.389859       -10.6086
  27   2.0000      -0.380717       -10.3598
  28   2.0000      -0.346049        -9.4165
  29   2.0000      -0.336343        -9.1523
  30   2.0000      -0.329821        -8.9749
  31   2.0000      -0.317286        -8.6338
  32   2.0000      -0.277983        -7.5643
  33   2.0000      -0.249347        -6.7851
  34   2.0000      -0.247970        -6.7476
  35   2.0000      -0.245290        -6.6747
  36   0.0000      -0.076448        -2.0802
  37   0.0000      -0.041117        -1.1189
  38   0.0000       0.025122         0.6836
  39   0.0000       0.062665         1.7052
  40   0.0000       0.093110         2.5336

MULLIKEN ATOMIC CHARGES
-----------------------
   0 C :   -0.295974
   1 O :   -0.168693
   2 C :    0.359243
   3 O :   -0.421044
   4 C :    0.104286
   5 C :   -0.201156
   6 C :   -0.149802
   7 C :   -0.114623
   8 C :   -0.153499
   9 C :   -0.228880
  10 H :    0.161285
  11 H :    0.161242
  12 H :    0.149592
  13 H :    0.172208
  14 H :    0.147880
  15 H :    0.148908
  16 H :    0.148271
  17 H :    0.180755
Sum of atomic charges:    0.0000000

LOEWDIN ATOMIC CHARGES
----------------------
   0 C :   -0.042737
   1 O :   -0.612162
   2 C :    0.382282
   3 O :   -0.421344
   4 C :   -0.034138
   5 C :   -0.114148
   6 C :   -0.161870
   7 C :   -0.144978
   8 C :   -0.159606
   9 C :   -0.106636
  10 H :    0.177266
  11 H :    0.177224
  12 H :    0.175365
  13 H :    0.187796
  14 H :    0.169193
  15 H :    0.168691
  16 H :    0.169876
  17 H :    0.189926

  Mayer bond orders larger than 0.100000
B(  0-C ,  1-O ) :   0.8478 B(  0-C , 10-H ) :   0.9620 B(  0-C , 11-H ) :   0.9620
B(  0-C , 12-H ) :   0.9708 B(  1-O ,  2-C ) :   1.1461 B(  1-O ,  4-C ) :  -0.1186
B(  2-C ,  3-O ) :   1.8667 B(  2-C ,  4-C ) :   1.0094 B(  4-C ,  5-C ) :   1.3889
B(  4-C ,  9-C ) :   1.4676 B(  5-C ,  6-C ) :   1.3821 B(  5-C , 13-H ) :   0.9505
B(  6-C ,  7-C ) :   1.4071 B(  6-C , 14-H ) :   0.9514 B(  7-C ,  8-C ) :   1.4006
B(  7-C , 15-H ) :   0.9454 B(  8-C ,  9-C ) :   1.3773 B(  8-C , 16-H ) :   0.9545
B(  9-C , 17-H ) :   0.9427

Dispersion correction           -0.005886827
FINAL SINGLE POINT ENERGY      -460.026312987891

DIPOLE MOMENT
-------------

Method             : SCF
Type of density    : Electron Density
Multiplicity       :   1
Irrep              :   0
Energy             :  -460.0288445834135587 Eh
Relativity type    :
Basis              : AO
                                X                 Y                 Z
Electronic contribution:      1.022993855      -1.552666634      -0.004454416
Nuclear contribution   :     -0.752889326       2.281278181       0.005397530
                        -----------------------------------------
Total Dipole Moment    :      0.270104528       0.728611547       0.000943114
                        -----------------------------------------
Magnitude (a.u.)       :      0.777066363
Magnitude (Debye)      :      1.975145728

Rotational constants in cm-1:             0.118693             0.028370             0.022996
Rotational constants in MHz :          3558.312270           850.511878           689.410023

                             ****ORCA TERMINATED NORMALLY****
TOTAL RUN TIME: 0 days 0 hours 0 minutes 21 seconds 302 msec
