                         Program Version 6.0.0  -   RELEASE  -
|  1> ! r2SCAN-3c DEF2-TZVP FREQ
|  2> * xyzfile 0 1 censo.xyz
|  3>
|  4>                          ****END OF INPUT****

CARTESIAN COORDINATES (ANGSTROEM)
---------------------------------
  C     -2.418338   -0.100398    0.000018
  C     -1.832097   -1.363632    0.000004
  C     -0.445166   -1.480118   -0.000004
  C      0.341392   -0.335803   -0.000001
  C     -0.235006    0.938390    0.000011
  C     -1.627264    1.041893    0.000023
  O      0.582845    2.033175    0.000003
  Cl     2.092391   -0.485262   -0.000029
  H     -3.498418    0.001608    0.000028
  H     -2.444710   -2.258286   -0.000007
  H      0.028573   -2.455569   -0.000018
  H     -2.075734    2.031587    0.000036
  H      0.033370    2.830487    0.000019

 Total Charge           Charge          ....    0
 Multiplicity           Mult            ....    1
 Number of Electrons    NEL             ....   66
 Basis Dimension        Dim             ....  284

ORBITAL ENERGIES
----------------

  NO   OCC          E(Eh)            E(eV)
   0   2.0000    -101.186808     -2753.4330
   1   2.0000     -18.999135      -516.9927
   2   2.0000     -10.115223      -275.2492
   3   2.0000     -10.099515      -274.8218
   4   2.0000     -10.052122      -273.5321
   5   2.0000     -10.051753      -273.5221
   6   2.0000     -10.050165      -273.4789
   7   2.0000     -10.044250      -273.3179
   8   2.0000      -9.362562      -254.7683
   9   2.0000      -7.107668      -193.4095
  10   2.0000      -7.097567      -193.1346
  11   2.0000      -7.096867      -193.1156
  12   2.0000      -1.040587       -28.3158
  13   2.0000      -0.851861       -23.1803
  14   2.0000      -0.801409       -21.8075
  15   2.0000      -0.724523       -19.7153
  16   2.0000      -0.704141       -19.1607
  17   2.0000      -0.609782       -16.5930
  18   2.0000      -0.574401       -15.6303
  19   2.0000      -0.526972       -14.3396
  20   2.0000      -0.474280       -12.9058
  21   2.0000      -0.454491       -12.3673
  22   2.0000      -0.423805       -11.5323
  23   2.0000      -0.406141       -11.0517
  24   2.0000      -0.402194       -10.9443
  25   2.0000      -0.376400       -10.2424
  26   2.0000      -0.348827        -9.4921
  27   2.0000      -0.332675        -9.0525
  28   2.0000      -0.328315        -8.9339
  29   2.0000      -0.309276        -8.4158
  30   2.0000      -0.280218        -7.6251
  31   2.0000      -0.239374        -6.5137
  32   2.0000      -0.214919        -5.8482
  33   0.0000      -0.048191        -1.3114
  34   0.0000      -0.031697        -0.8625
  35   0.0000      -0.000217        -0.0059
  36   0.0000       0.026947         0.7333
  37   0.0000       0.070636         1.9221

MULLIKEN ATOMIC CHARGES
-----------------------
   0 C :   -0.112853
   1 C :   -0.137631
   2 C :   -0.144267
   3 C :    0.070400
   4 C :    0.243535
   5 C :   -0.199978
   6 O :   -0.379003
   7 Cl:   -0.107817
   8 H :    0.115183
   9 H :    0.112361
  10 H :    0.124580
  11 H :    0.097530
  12 H :    0.317961
Sum of atomic charges:    0.0000000

LOEWDIN ATOMIC CHARGES
----------------------
   0 C :   -0.142314
   1 C :   -0.152024
   2 C :   -0.140762
   3 C :   -0.396144
   4 C :   -0.279952
   5 C :   -0.142030
   6 O :    0.092336
   7 Cl:    0.383437
   8 H :    0.145665
   9 H :    0.145130
  10 H :    0.150297
  11 H :    0.143600
  12 H :    0.192760

  Mayer bond orders larger than 0.100000
B(  0-C ,  1-C ) :   1.4010 B(  0-C ,  5-C ) :   1.4023 B(  0-C ,  8-H ) :   0.9609
B(  1-C ,  2-C ) :   1.3934 B(  1-C ,  9-H ) :   0.9722 B(  2-C ,  3-C ) :   1.3908
B(  2-C , 10-H ) :   0.9646 B(  3-C ,  4-C ) :   1.2820 B(  3-C ,  7-Cl) :   1.0301
B(  4-C ,  5-C ) :   1.3390 B(  4-C ,  6-O ) :   1.1860 B(  5-C , 11-H ) :   0.9603
B(  6-O , 12-H ) :   0.8784

Dispersion correction           -0.004514625
FINAL SINGLE POINT ENERGY      -767.006351440372

DIPOLE MOMENT
-------------

Method             : SCF
Type of density    : Electron Density
Multiplicity       :   1
Irrep              :   0
Energy             :  -767.0069932999838329 Eh
Relativity type    :
Basis              : AO
                                X                 Y                 Z
Electronic contribution:      9.252850374      -0.387350583      -0.000089680
Nuclear contribution   :    -10.286243236       0.825475434       0.000103156
                        -----------------------------------------
Total Dipole Moment    :     -1.033392862       0.438124851       0.000013476
                        -----------------------------------------
Magnitude (a.u.)       :      1.122432267
Magnitude (Debye)      :      2.852996090

VIBRATIONAL FREQUENCIES
-----------------------

Scaling factor for frequencies =  1.000000000  (already applied!)

     0:       0.00 cm**-1
     1:       0.00 cm**-1
     2:       0.00 cm**-1
     3:       0.00 cm**-1
     4:       0.00 cm**-1
     5:       0.00 cm**-1
     6:     159.89 cm**-1
     7:     247.74 cm**-1
     8:     270.95 cm**-1
     9:     378.49 cm**-1
    10:     429.38 cm**-1
    11:     451.23 cm**-1
    12:     496.87 cm**-1
    13:     552.02 cm**-1
    14:     565.56 cm**-1
    15:     685.28 cm**-1
    16:     713.16 cm**-1
    17:     746.77 cm**-1
    18:     830.31 cm**-1
    19:     839.53 cm**-1
    20:     917.71 cm**-1
    21:     943.71 cm**-1
    22:    1051.14 cm**-1
    23:    1066.25 cm**-1
    24:    1139.28 cm**-1
    25:    1181.28 cm**-1
    26:    1196.98 cm**-1
    27:    1278.33 cm**-1
    28:    1317.85 cm**-1
    29:    1369.87 cm**-1
    30:    1473.92 cm**-1
    31:    1518.79 cm**-1
    32:    1612.31 cm**-1
    33:    1632.73 cm**-1
    34:    3152.16 cm**-1
    35:    3172.26 cm**-1
    36:    3182.89 cm**-1
    37:    3194.14 cm**-1
    38:    3748.51 cm**-1

IR SPECTRUM
-----------

 Mode   freq       eps      Int      T**2         TX        TY        TZ
       cm**-1   L/(mol*cm) km/mol    a.u.
----------------------------------------------------------------------------
  6:    159.89   0.000040    0.20  0.000078  ( 0.000004 -0.000000 -0.008853)
  7:    247.74   0.000251    1.27  0.000317  (-0.014919 -0.009692 -0.000001)
  8:    270.95   0.000601    3.04  0.000693  (-0.000001 -0.000001 -0.026316)
  9:    378.49   0.000733    3.71  0.000605  (-0.023554 -0.007056 -0.000001)
 10:    429.38   0.018105   91.50  0.013158  ( 0.000004  0.000001  0.114710)
 11:    451.23   0.001183    5.98  0.000818  ( 0.000000  0.000005  0.028603)
 12:    496.87   0.001581    7.99  0.000993  ( 0.004482  0.031194 -0.000001)
 13:    552.02   0.000427    2.16  0.000241  (-0.000002  0.000000  0.015540)
 14:    565.56   0.000921    4.66  0.000508  ( 0.022275  0.003500 -0.000000)
 15:    685.28   0.003909   19.75  0.001780  (-0.041866  0.005216  0.000000)
 16:    713.16   0.000459    2.32  0.000201  ( 0.000005 -0.000002 -0.014179)
 17:    746.77   0.014680   74.19  0.006135  ( 0.000000 -0.000002 -0.078325)
 18:    830.31   0.000109    0.55  0.000041  ( 0.000000 -0.000001  0.006415)
 19:    839.53   0.004452   22.50  0.001655  (-0.002575 -0.040596 -0.000000)
 20:    917.71   0.000272    1.37  0.000092  ( 0.000000 -0.000001 -0.009617)
 21:    943.71   0.000085    0.43  0.000028  ( 0.000001  0.000001 -0.005293)
 22:   1051.14   0.007439   37.59  0.002208  ( 0.046586 -0.006180 -0.000001)
 23:   1066.25   0.003179   16.07  0.000931  ( 0.022792 -0.020275 -0.000001)
 24:   1139.28   0.012011   60.70  0.003290  (-0.038827 -0.042220  0.000000)
 25:   1181.28   0.000445    2.25  0.000118  (-0.004155  0.010018  0.000000)
 26:   1196.98   0.018598   93.99  0.004849  ( 0.049593  0.048880 -0.000000)
 27:   1278.33   0.006304   31.86  0.001539  ( 0.013924  0.036675  0.000000)
 28:   1317.85   0.015351   77.58  0.003635  ( 0.039672  0.045400 -0.000000)
 29:   1369.87   0.007091   35.84  0.001615  (-0.014248 -0.037583  0.000000)
 30:   1473.92   0.009557   48.30  0.002024  ( 0.012456  0.043225  0.000000)
 31:   1518.79   0.008137   41.12  0.001672  ( 0.036431  0.018564 -0.000000)
 32:   1612.31   0.003307   16.71  0.000640  ( 0.000633 -0.025290 -0.000000)
 33:   1632.73   0.003243   16.39  0.000620  (-0.010622 -0.022517  0.000000)
 34:   3152.16   0.001858    9.39  0.000184  (-0.001809 -0.013441 -0.000000)
 35:   3172.26   0.000957    4.83  0.000094  ( 0.003302 -0.009122 -0.000000)
 36:   3182.89   0.001371    6.93  0.000134  (-0.011469  0.001688  0.000000)
 37:   3194.14   0.001006    5.08  0.000098  (-0.007368 -0.006634  0.000000)
 38:   3748.51   0.011956   60.42  0.000995  (-0.002413  0.031456  0.000000)

--------------------------
THERMOCHEMISTRY AT 298.15K
--------------------------

Temperature         ...   298.15 K
Pressure            ...     1.00 atm
Total Mass          ...   128.56 AMU
Quasi RRHO          ...     True
Cut-Off Frequency   ...     1.00 cm^-1

Throughout the following assumptions are being made:
  (1) The electronic state is orbitally nondegenerate
  (2) There are no thermally accessible electronically excited states
  (3) Hindered rotations indicated by low frequency modes are not
      treated as such but are treated as vibrations and this may
      cause some error
  (4) All equations used are the standard statistical mechanics
      equations for an ideal gas
  (5) All vibrations are strictly harmonic

freq.     159.89  E(vib)   ...       0.39
freq.     247.74  E(vib)   ...       0.31
freq.     270.95  E(vib)   ...       0.29
freq.     378.49  E(vib)   ...       0.21
freq.     429.38  E(vib)   ...       0.18
freq.     451.23  E(vib)   ...       0.16
freq.     496.87  E(vib)   ...       0.14
freq.     552.02  E(vib)   ...       0.12
freq.     565.56  E(vib)   ...       0.11
freq.     685.28  E(vib)   ...       0.07
freq.     713.16  E(vib)   ...       0.07
freq.     746.77  E(vib)   ...       0.06
freq.     830.31  E(vib)   ...       0.04
freq.     839.53  E(vib)   ...       0.04
freq.     917.71  E(vib)   ...       0.03
freq.     943.71  E(vib)   ...       0.03
freq.    1051.14  E(vib)   ...       0.02
freq.    1066.25  E(vib)   ...       0.02
freq.    1139.28  E(vib)   ...       0.01
freq.    1181.28  E(vib)   ...       0.01
freq.    1196.98  E(vib)   ...       0.01
freq.    1278.33  E(vib)   ...       0.01
freq.    1317.85  E(vib)   ...       0.01
freq.    1369.87  E(vib)   ...       0.01
freq.    1473.92  E(vib)   ...       0.00
freq.    1518.79  E(vib)   ...       0.00
freq.    1612.31  E(vib)   ...       0.00
freq.    1632.73  E(vib)   ...       0.00
freq.    3152.16  E(vib)   ...       0.00
freq.    3172.26  E(vib)   ...       0.00
freq.    3182.89  E(vib)   ...       0.00
freq.    3194.14  E(vib)   ...       0.00
freq.    3748.51  E(vib)   ...       0.00

------------
INNER ENERGY
------------

The inner energy is: U= E(el) + E(ZPE) + E(vib) + E(rot) + E(trans)
    E(el)   - is the total energy from the electronic structure calculation
              = E(kin-el) + E(nuc-el) + E(el-el) + E(nuc-nuc)
    E(ZPE)  - the the zero temperature vibrational energy from the frequency calculation
    E(vib)  - the the finite temperature correction to E(ZPE) due to population
              of excited vibrational states
    E(rot)  - is the rotational thermal energy
    E(trans)- is the translational thermal energy

Summary of contributions to the inner energy U:
Electronic energy                ...   -767.00635144 Eh
Zero point energy                ...      0.09458336 Eh      59.35 kcal/mol
Thermal vibrational correction   ...      0.00376169 Eh       2.36 kcal/mol
Thermal rotational correction    ...      0.00141627 Eh       0.89 kcal/mol
Thermal translational correction ...      0.00141627 Eh       0.89 kcal/mol
-----------------------------------------------------------------------
Total thermal energy                   -766.90517385 Eh

Summary of corrections to the electronic energy:
(perhaps to be used in another calculation)
Total thermal correction                  0.00659423 Eh       4.14 kcal/mol
Non-thermal (ZPE) correction              0.09458336 Eh      59.35 kcal/mol
-----------------------------------------------------------------------
Total correction                          0.10117760 Eh      63.49 kcal/mol

--------
ENTHALPY
--------

The enthalpy is H = U + kB*T
                kB is Boltzmann's constant
Total thermal energy              ...   -766.90517385 Eh
Thermal Enthalpy correction       ...      0.00094421 Eh       0.59 kcal/mol
-----------------------------------------------------------------------
Total Enthalpy                    ...   -766.90422964 Eh

Note: Rotational entropy computed according to Herzberg
Infrared and Raman Spectra, Chapter V,1, Van Nostrand Reinhold, 1945
Point Group:  Cs, Symmetry Number:   1
Rotational constants in cm-1:     0.098196     0.051058     0.033592

Vibrational entropy computed according to the QRRHO of S. Grimme
Chem.Eur.J. 2012 18 9955 using a reference frequency of 100.0 cm-1

-------
ENTROPY
-------

The entropy contributions are T*S = T*(S(el)+S(vib)+S(rot)+S(trans))
     S(el)   - electronic entropy
     S(vib)  - vibrational entropy
     S(rot)  - rotational entropy
     S(trans)- translational entropy
The entropies will be listed as multiplied by the temperature to get
units of energy

Electronic entropy                ...      0.00000000 Eh      0.00 kcal/mol
Vibrational entropy               ...      0.00578830 Eh      3.63 kcal/mol
Rotational entropy                ...      0.01361283 Eh      8.54 kcal/mol
Translational entropy             ...      0.01922702 Eh     12.07 kcal/mol
-----------------------------------------------------------------------
Final entropy term                ...      0.03862816 Eh     24.24 kcal/mol

In case the symmetry of your molecule has not been determined correctly
or in case you have a reason to use a different symmetry number we print
out the resulting rotational entropy values for sn=1,12:

 non-linear molecules -----------------------------------
|  sn= 1 | S(rot)=       0.01361283 Eh      8.54 kcal/mol|
|  sn= 2 | S(rot)=       0.01295838 Eh      8.13 kcal/mol|
|  sn= 3 | S(rot)=       0.01257554 Eh      7.89 kcal/mol|
|  sn= 4 | S(rot)=       0.01230392 Eh      7.72 kcal/mol|
|  sn= 5 | S(rot)=       0.01209323 Eh      7.59 kcal/mol|
|  sn= 6 | S(rot)=       0.01192109 Eh      7.48 kcal/mol|
|  sn= 7 | S(rot)=       0.01177554 Eh      7.39 kcal/mol|
|  sn= 8 | S(rot)=       0.01164946 Eh      7.31 kcal/mol|
|  sn= 9 | S(rot)=       0.01153826 Eh      7.24 kcal/mol|
|  sn=10 | S(rot)=       0.01143878 Eh      7.18 kcal/mol|
|  sn=11 | S(rot)=       0.01134879 Eh      7.12 kcal/mol|
|  sn=12 | S(rot)=       0.01126663 Eh      7.07 kcal/mol|
 linear molecules ---------------------------------------
|  Dinfh | S(rot)=       0.00852986 Eh      5.35 kcal/mol|
|  Cinfv | S(rot)=       0.00918432 Eh      5.76 kcal/mol|
 --------------------------------------------------------

-------------------
GIBBS FREE ENERGY
-------------------

The Gibbs free energy is G = H - T*S

Total enthalpy                    ...   -766.90422964 Eh
Total entropy correction          ...     -0.03862816 Eh    -24.24 kcal/mol
-----------------------------------------------------------------------
Final Gibbs free energy         ...   -766.94285779 Eh

For completeness - the Gibbs free energy minus the electronic energy
G-E(el)                           ...      0.06349365 Eh     39.84 kcal/mol

                             ****ORCA TERMINATED NORMALLY****
TOTAL RUN TIME: 0 days 0 hours 7 minutes 40 seconds 267 msec
