                         Program Version 6.0.0  -   RELEASE  -
|  1> ! r2SCAN-3c DEF2-TZVP FREQ
|  2> * xyzfile 0 1 vacuum_censo.xyz
|  3>
|  4>                          ****END OF INPUT****

CARTESIAN COORDINATES (ANGSTROEM)
---------------------------------
  C     -2.418434   -0.055974    0.000022
  C     -1.861474   -1.332846    0.000076
  C     -0.479008   -1.480856    0.000085
  C      0.327506   -0.351825    0.000039
  C     -0.217575    0.937095   -0.000013
  C     -1.606630    1.069245   -0.000020
  O      0.533474    2.065804   -0.000055
  Cl     2.080465   -0.519622    0.000055
  H     -3.496199    0.066925    0.000013
  H     -2.495071   -2.212428    0.000111
  H     -0.021119   -2.463400    0.000130
  H     -2.023720    2.070277   -0.000056
  H      1.469493    1.818861   -0.000033

 Total Charge           Charge          ....    0
 Multiplicity           Mult            ....    1
 Number of Electrons    NEL             ....   66
 Basis Dimension        Dim             ....  284

ORBITAL ENERGIES
----------------

  NO   OCC          E(Eh)            E(eV)
   0   2.0000    -101.207019     -2753.9830
   1   2.0000     -18.996221      -516.9135
   2   2.0000     -10.114816      -275.2381
   3   2.0000     -10.104281      -274.9515
   4   2.0000     -10.054922      -273.6083
   5   2.0000     -10.048497      -273.4335
   6   2.0000     -10.045553      -273.3534
   7   2.0000     -10.044238      -273.3176
   8   2.0000      -9.382918      -255.3222
   9   2.0000      -7.127628      -193.9526
  10   2.0000      -7.117811      -193.6855
  11   2.0000      -7.117690      -193.6822
  12   2.0000      -1.042075       -28.3563
  13   2.0000      -0.858908       -23.3721
  14   2.0000      -0.810472       -22.0541
  15   2.0000      -0.726554       -19.7705
  16   2.0000      -0.706429       -19.2229
  17   2.0000      -0.596796       -16.2396
  18   2.0000      -0.589875       -16.0513
  19   2.0000      -0.525680       -14.3045
  20   2.0000      -0.480995       -13.0886
  21   2.0000      -0.451926       -12.2975
  22   2.0000      -0.423626       -11.5275
  23   2.0000      -0.408492       -11.1156
  24   2.0000      -0.405346       -11.0300
  25   2.0000      -0.373192       -10.1551
  26   2.0000      -0.352997        -9.6055
  27   2.0000      -0.338815        -9.2196
  28   2.0000      -0.327890        -8.9223
  29   2.0000      -0.316677        -8.6172
  30   2.0000      -0.304941        -8.2979
  31   2.0000      -0.241571        -6.5735
  32   2.0000      -0.216525        -5.8919
  33   0.0000      -0.048230        -1.3124
  34   0.0000      -0.031568        -0.8590
  35   0.0000      -0.011532        -0.3138
  36   0.0000       0.044870         1.2210
  37   0.0000       0.070176         1.9096

MULLIKEN ATOMIC CHARGES
-----------------------
   0 C :   -0.085547
   1 C :   -0.130668
   2 C :   -0.171916
   3 C :    0.134053
   4 C :    0.193658
   5 C :   -0.209923
   6 O :   -0.382140
   7 Cl:   -0.140551
   8 H :    0.114587
   9 H :    0.113510
  10 H :    0.129495
  11 H :    0.118167
  12 H :    0.317276
Sum of atomic charges:    0.0000000

LOEWDIN ATOMIC CHARGES
----------------------
   0 C :   -0.138054
   1 C :   -0.152232
   2 C :   -0.145163
   3 C :   -0.406156
   4 C :   -0.286502
   5 C :   -0.114585
   6 O :    0.101308
   7 Cl:    0.369272
   8 H :    0.146318
   9 H :    0.145193
  10 H :    0.149824
  11 H :    0.152428
  12 H :    0.178349

  Mayer bond orders larger than 0.100000
B(  0-C ,  1-C ) :   1.3822 B(  0-C ,  5-C ) :   1.4136 B(  0-C ,  8-H ) :   0.9712
B(  1-C ,  2-C ) :   1.3968 B(  1-C ,  9-H ) :   0.9710 B(  2-C ,  3-C ) :   1.3335
B(  2-C , 10-H ) :   0.9612 B(  3-C ,  4-C ) :   1.2582 B(  3-C ,  7-Cl) :   0.9257
B(  4-C ,  5-C ) :   1.3683 B(  4-C ,  6-O ) :   1.1933 B(  5-C , 11-H ) :   0.9706
B(  6-O , 12-H ) :   0.8510

Dispersion correction           -0.004531702
FINAL SINGLE POINT ENERGY      -767.011511991368

DIPOLE MOMENT
-------------

Method             : SCF
Type of density    : Electron Density
Multiplicity       :   1
Irrep              :   0
Energy             :  -767.0127597080909254 Eh
Relativity type    :
Basis              : AO
                                X                 Y                 Z
Electronic contribution:      8.749133955      -0.298804548       0.000028228
Nuclear contribution   :     -8.959257285       0.070835362      -0.000012590
                        -----------------------------------------
Total Dipole Moment    :     -0.210123330      -0.227969187       0.000015638
                        -----------------------------------------
Magnitude (a.u.)       :      0.310035102
Magnitude (Debye)      :      0.788046601

VIBRATIONAL FREQUENCIES
-----------------------

Scaling factor for frequencies =  1.000000000  (already applied!)

     0:       0.00 cm**-1
     1:       0.00 cm**-1
     2:       0.00 cm**-1
     3:       0.00 cm**-1
     4:       0.00 cm**-1
     5:       0.00 cm**-1
     6:     159.80 cm**-1
     7:     261.03 cm**-1
     8:     267.56 cm**-1
     9:     375.75 cm**-1
    10:     429.59 cm**-1
    11:     448.01 cm**-1
    12:     496.44 cm**-1
    13:     549.12 cm**-1
    14:     565.52 cm**-1
    15:     683.88 cm**-1
    16:     710.72 cm**-1
    17:     751.66 cm**-1
    18:     846.28 cm**-1
    19:     851.27 cm**-1
    20:     927.15 cm**-1
    21:     952.62 cm**-1
    22:    1044.14 cm**-1
    23:    1061.19 cm**-1
    24:    1139.30 cm**-1
    25:    1179.47 cm**-1
    26:    1213.40 cm**-1
    27:    1275.82 cm**-1
    28:    1331.36 cm**-1
    29:    1379.09 cm**-1
    30:    1488.77 cm**-1
    31:    1505.73 cm**-1
    32:    1620.65 cm**-1
    33:    1628.80 cm**-1
    34:    3170.43 cm**-1
    35:    3182.35 cm**-1
    36:    3189.74 cm**-1
    37:    3197.00 cm**-1
    38:    3728.83 cm**-1

IR SPECTRUM
-----------

 Mode   freq       eps      Int      T**2         TX        TY        TZ
       cm**-1   L/(mol*cm) km/mol    a.u.
----------------------------------------------------------------------------
  6:    159.80   0.000009    0.05  0.000018  (-0.000006 -0.000005  0.004222)
  7:    261.03   0.000509    2.57  0.000609  (-0.004257 -0.024300  0.000000)
  8:    267.56   0.000233    1.18  0.000272  ( 0.000003 -0.000005 -0.016479)
  9:    375.75   0.000487    2.46  0.000404  ( 0.011834 -0.016261  0.000001)
 10:    429.59   0.018186   91.91  0.013211  (-0.000000 -0.000007 -0.114939)
 11:    448.01   0.000265    1.34  0.000185  (-0.000004  0.000009  0.013598)
 12:    496.44   0.002505   12.66  0.001575  ( 0.029492  0.026547 -0.000002)
 13:    549.12   0.000215    1.09  0.000122  (-0.000006 -0.000001 -0.011059)
 14:    565.52   0.000916    4.63  0.000506  (-0.021203 -0.007493 -0.000001)
 15:    683.88   0.004679   23.64  0.002135  (-0.046154 -0.002179 -0.000000)
 16:    710.72   0.000034    0.17  0.000015  ( 0.000001  0.000008 -0.003887)
 17:    751.66   0.013144   66.42  0.005457  ( 0.000001  0.000007 -0.073870)
 18:    846.28   0.002428   12.27  0.000895  ( 0.003624  0.029699 -0.000001)
 19:    851.27   0.000231    1.17  0.000085  (-0.000001 -0.000003 -0.009211)
 20:    927.15   0.000571    2.88  0.000192  (-0.000002  0.000002 -0.013858)
 21:    952.62   0.000016    0.08  0.000005  ( 0.000001  0.000002 -0.002317)
 22:   1044.14   0.009631   48.67  0.002878  ( 0.052055  0.012991 -0.000000)
 23:   1061.19   0.002101   10.62  0.000618  (-0.021460  0.012545 -0.000001)
 24:   1139.30   0.000689    3.48  0.000189  ( 0.013736  0.000301 -0.000000)
 25:   1179.47   0.000430    2.17  0.000114  ( 0.004493 -0.009672  0.000000)
 26:   1213.40   0.023549  119.01  0.006056  (-0.015744 -0.076214  0.000003)
 27:   1275.82   0.015869   80.20  0.003882  ( 0.028877  0.055206 -0.000002)
 28:   1331.36   0.003209   16.21  0.000752  (-0.027197 -0.003522 -0.000000)
 29:   1379.09   0.004951   25.02  0.001120  ( 0.015942  0.029431 -0.000001)
 30:   1488.77   0.000469    2.37  0.000098  ( 0.008180 -0.005605  0.000000)
 31:   1505.73   0.025344  128.08  0.005252  (-0.051182 -0.051311  0.000002)
 32:   1620.65   0.001443    7.29  0.000278  (-0.010698 -0.012785  0.000000)
 33:   1628.80   0.008415   42.53  0.001612  ( 0.015947  0.036851 -0.000001)
 34:   3170.43   0.000414    2.09  0.000041  ( 0.006122 -0.001809  0.000000)
 35:   3182.35   0.001023    5.17  0.000100  (-0.008152 -0.005818  0.000000)
 36:   3189.74   0.001024    5.17  0.000100  ( 0.005499 -0.008361  0.000000)
 37:   3197.00   0.000960    4.85  0.000094  (-0.007971 -0.005492  0.000000)
 38:   3728.83   0.015290   77.27  0.001280  ( 0.035766 -0.000672  0.000000)

--------------------------
THERMOCHEMISTRY AT 298.15K
--------------------------

Temperature         ...   298.15 K
Pressure            ...     1.00 atm
Total Mass          ...   128.56 AMU
Quasi RRHO          ...     True
Cut-Off Frequency   ...     1.00 cm^-1

Throughout the following assumptions are being made:
  (1) The electronic state is orbitally nondegenerate
  (2) There are no thermally accessible electronically excited states
  (3) Hindered rotations indicated by low frequency modes are not
      treated as such but are treated as vibrations and this may
      cause some error
  (4) All equations used are the standard statistical mechanics
      equations for an ideal gas
  (5) All vibrations are strictly harmonic

freq.     159.80  E(vib)   ...       0.39
freq.     261.03  E(vib)   ...       0.30
freq.     267.56  E(vib)   ...       0.29
freq.     375.75  E(vib)   ...       0.21
freq.     429.59  E(vib)   ...       0.18
freq.     448.01  E(vib)   ...       0.17
freq.     496.44  E(vib)   ...       0.14
freq.     549.12  E(vib)   ...       0.12
freq.     565.52  E(vib)   ...       0.11
freq.     683.88  E(vib)   ...       0.07
freq.     710.72  E(vib)   ...       0.07
freq.     751.66  E(vib)   ...       0.06
freq.     846.28  E(vib)   ...       0.04
freq.     851.27  E(vib)   ...       0.04
freq.     927.15  E(vib)   ...       0.03
freq.     952.62  E(vib)   ...       0.03
freq.    1044.14  E(vib)   ...       0.02
freq.    1061.19  E(vib)   ...       0.02
freq.    1139.30  E(vib)   ...       0.01
freq.    1179.47  E(vib)   ...       0.01
freq.    1213.40  E(vib)   ...       0.01
freq.    1275.82  E(vib)   ...       0.01
freq.    1331.36  E(vib)   ...       0.01
freq.    1379.09  E(vib)   ...       0.01
freq.    1488.77  E(vib)   ...       0.00
freq.    1505.73  E(vib)   ...       0.00
freq.    1620.65  E(vib)   ...       0.00
freq.    1628.80  E(vib)   ...       0.00
freq.    3170.43  E(vib)   ...       0.00
freq.    3182.35  E(vib)   ...       0.00
freq.    3189.74  E(vib)   ...       0.00
freq.    3197.00  E(vib)   ...       0.00
freq.    3728.83  E(vib)   ...       0.00

------------
INNER ENERGY
------------

The inner energy is: U= E(el) + E(ZPE) + E(vib) + E(rot) + E(trans)
    E(el)   - is the total energy from the electronic structure calculation
              = E(kin-el) + E(nuc-el) + E(el-el) + E(nuc-nuc)
    E(ZPE)  - the the zero temperature vibrational energy from the frequency calculation
    E(vib)  - the the finite temperature correction to E(ZPE) due to population
              of excited vibrational states
    E(rot)  - is the rotational thermal energy
    E(trans)- is the translational thermal energy

Summary of contributions to the inner energy U:
Electronic energy                ...   -767.01151199 Eh
Zero point energy                ...      0.09480023 Eh      59.49 kcal/mol
Thermal vibrational correction   ...      0.00374467 Eh       2.35 kcal/mol
Thermal rotational correction    ...      0.00141627 Eh       0.89 kcal/mol
Thermal translational correction ...      0.00141627 Eh       0.89 kcal/mol
-----------------------------------------------------------------------
Total thermal energy                   -766.91013455 Eh

Summary of corrections to the electronic energy:
(perhaps to be used in another calculation)
Total thermal correction                  0.00657721 Eh       4.13 kcal/mol
Non-thermal (ZPE) correction              0.09480023 Eh      59.49 kcal/mol
-----------------------------------------------------------------------
Total correction                          0.10137745 Eh      63.62 kcal/mol

--------
ENTHALPY
--------

The enthalpy is H = U + kB*T
                kB is Boltzmann's constant
Total thermal energy              ...   -766.91013455 Eh
Thermal Enthalpy correction       ...      0.00094421 Eh       0.59 kcal/mol
-----------------------------------------------------------------------
Total Enthalpy                    ...   -766.90919034 Eh

Note: Rotational entropy computed according to Herzberg
Infrared and Raman Spectra, Chapter V,1, Van Nostrand Reinhold, 1945
Point Group:  Cs, Symmetry Number:   1
Rotational constants in cm-1:     0.099148     0.051022     0.033687

Vibrational entropy computed according to the QRRHO of S. Grimme
Chem.Eur.J. 2012 18 9955 using a reference frequency of 100.0 cm-1

-------
ENTROPY
-------

The entropy contributions are T*S = T*(S(el)+S(vib)+S(rot)+S(trans))
     S(el)   - electronic entropy
     S(vib)  - vibrational entropy
     S(rot)  - rotational entropy
     S(trans)- translational entropy
The entropies will be listed as multiplied by the temperature to get
units of energy

Electronic entropy                ...      0.00000000 Eh      0.00 kcal/mol
Vibrational entropy               ...      0.00575446 Eh      3.61 kcal/mol
Rotational entropy                ...      0.01360728 Eh      8.54 kcal/mol
Translational entropy             ...      0.01922702 Eh     12.07 kcal/mol
-----------------------------------------------------------------------
Final entropy term                ...      0.03858877 Eh     24.21 kcal/mol

In case the symmetry of your molecule has not been determined correctly
or in case you have a reason to use a different symmetry number we print
out the resulting rotational entropy values for sn=1,12:

 non-linear molecules -----------------------------------
|  sn= 1 | S(rot)=       0.01360728 Eh      8.54 kcal/mol|
|  sn= 2 | S(rot)=       0.01295283 Eh      8.13 kcal/mol|
|  sn= 3 | S(rot)=       0.01256999 Eh      7.89 kcal/mol|
|  sn= 4 | S(rot)=       0.01229837 Eh      7.72 kcal/mol|
|  sn= 5 | S(rot)=       0.01208768 Eh      7.59 kcal/mol|
|  sn= 6 | S(rot)=       0.01191554 Eh      7.48 kcal/mol|
|  sn= 7 | S(rot)=       0.01176999 Eh      7.39 kcal/mol|
|  sn= 8 | S(rot)=       0.01164391 Eh      7.31 kcal/mol|
|  sn= 9 | S(rot)=       0.01153271 Eh      7.24 kcal/mol|
|  sn=10 | S(rot)=       0.01143323 Eh      7.17 kcal/mol|
|  sn=11 | S(rot)=       0.01134324 Eh      7.12 kcal/mol|
|  sn=12 | S(rot)=       0.01126108 Eh      7.07 kcal/mol|
 linear molecules ---------------------------------------
|  Dinfh | S(rot)=       0.00852720 Eh      5.35 kcal/mol|
|  Cinfv | S(rot)=       0.00918166 Eh      5.76 kcal/mol|
 --------------------------------------------------------

-------------------
GIBBS FREE ENERGY
-------------------

The Gibbs free energy is G = H - T*S

Total enthalpy                    ...   -766.90919034 Eh
Total entropy correction          ...     -0.03858877 Eh    -24.21 kcal/mol
-----------------------------------------------------------------------
Final Gibbs free energy         ...   -766.94777911 Eh

For completeness - the Gibbs free energy minus the electronic energy
G-E(el)                           ...      0.06373288 Eh     39.99 kcal/mol

                             ****ORCA TERMINATED NORMALLY****
TOTAL RUN TIME: 0 days 0 hours 7 minutes 41 seconds 624 msec
