                         Program Version 6.0.1  -  RELEASE   -
|  1> ! r2scan-3c def2/J RI DEFGRID2 scfconv6 printgap
|  2> %output
|  3>     printlevel normal
|  4> end
|  5> * xyz 0 1
|  6> C -1.3606305393 -0.8890870749 0.2235570101
|  7> S 2.64766e-05 0.1807312361 -0.4318406954
|  8> O 0.000182236 1.3818879195 0.4008363871
|  9> C 1.3603960023 -0.8894440165 0.2235635623
| 10> H -2.3017540872 -0.4044245529 -0.0146062761
| 11> H -1.2611523618 -0.9836669116 1.2989949416
| 12> H -1.3073388426 -1.8565025445 -0.2618072791
| 13> H 2.3016321816 -0.4050489827 -0.014707569
| 14> H 1.3067602165 -1.856868212 -0.2617365699
| 15> H 1.2609128393 -0.9838986287 1.2990118821
| 16> *
| 17>
| 18>                          ****END OF INPUT****

CARTESIAN COORDINATES (ANGSTROEM)
---------------------------------
  C     -1.360631   -0.889087    0.223557
  S      0.000026    0.180731   -0.431841
  O      0.000182    1.381888    0.400836
  C      1.360396   -0.889444    0.223564
  H     -2.301754   -0.404425   -0.014606
  H     -1.261152   -0.983667    1.298995
  H     -1.307339   -1.856503   -0.261807
  H      2.301632   -0.405049   -0.014708
  H      1.306760   -1.856868   -0.261737
  H      1.260913   -0.983899    1.299012

 Total Charge           Charge          ....    0
 Multiplicity           Mult            ....    1
 Number of Electrons    NEL             ....   42
 Basis Dimension        Dim             ....  119

ORBITAL ENERGIES
----------------

  NO   OCC          E(Eh)            E(eV)
   0   2.0000     -88.662361     -2412.6255
   1   2.0000     -18.907544      -514.5004
   2   2.0000     -10.056976      -273.6642
   3   2.0000     -10.056971      -273.6641
   4   2.0000      -7.945369      -216.2045
   5   2.0000      -5.891758      -160.3229
   6   2.0000      -5.890576      -160.2907
   7   2.0000      -5.883915      -160.1095
   8   2.0000      -0.992174       -26.9984
   9   2.0000      -0.750517       -20.4226
  10   2.0000      -0.686388       -18.6776
  11   2.0000      -0.569918       -15.5082
  12   2.0000      -0.435453       -11.8493
  13   2.0000      -0.427805       -11.6412
  14   2.0000      -0.426012       -11.5924
  15   2.0000      -0.394037       -10.7223
  16   2.0000      -0.377512       -10.2726
  17   2.0000      -0.363601        -9.8941
  18   2.0000      -0.333914        -9.0863
  19   2.0000      -0.242682        -6.6037
  20   2.0000      -0.202755        -5.5172
  21   0.0000       0.008880         0.2416
  22   0.0000       0.017675         0.4809
  23   0.0000       0.056540         1.5385
  24   0.0000       0.090666         2.4671
  25   0.0000       0.137965         3.7542

MULLIKEN ATOMIC CHARGES
-----------------------
   0 C :   -0.444302
   1 S :    0.432606
   2 O :   -0.528456
   3 C :   -0.444284
   4 H :    0.170859
   5 H :    0.172899
   6 H :    0.148460
   7 H :    0.170857
   8 H :    0.148457
   9 H :    0.172904
Sum of atomic charges:    0.0000000

LOEWDIN ATOMIC CHARGES
----------------------
   0 C :   -0.446038
   1 S :    0.607578
   2 O :   -0.716176
   3 C :   -0.446031
   4 H :    0.169792
   5 H :    0.167884
   6 H :    0.162656
   7 H :    0.169792
   8 H :    0.162657
   9 H :    0.167887

  Mayer bond orders larger than 0.100000
B(  0-C ,  1-S ) :   0.8933 B(  0-C ,  4-H ) :   0.9439 B(  0-C ,  5-H ) :   0.9460
B(  0-C ,  6-H ) :   0.9433 B(  1-S ,  2-O ) :   1.4882 B(  1-S ,  3-C ) :   0.8933
B(  3-C ,  7-H ) :   0.9439 B(  3-C ,  8-H ) :   0.9433 B(  3-C ,  9-H ) :   0.9460

Dispersion correction           -0.002103554
FINAL SINGLE POINT ENERGY      -553.132947232287

DIPOLE MOMENT
-------------

Method             : SCF
Type of density    : Electron Density
Multiplicity       :   1
Irrep              :   0
Energy             :  -553.1421498656443418 Eh
Relativity type    :
Basis              : AO
                                X                 Y                 Z
Electronic contribution:      0.000691093       4.641681284      -2.106109901
Nuclear contribution   :     -0.000879996      -6.073857952       1.937137065
                        -----------------------------------------
Total Dipole Moment    :     -0.000188903      -1.432176668      -0.168972836
                        -----------------------------------------
Magnitude (a.u.)       :      1.442110212
Magnitude (Debye)      :      3.665552852

Rotational constants in cm-1:             0.230557             0.224513             0.138607
Rotational constants in MHz :          6911.931761          6730.744189          4155.343724

                             ****ORCA TERMINATED NORMALLY****
TOTAL RUN TIME: 0 days 0 hours 0 minutes 7 seconds 401 msec
