                         Program Version 6.0.1  -  RELEASE   -
|  1> ! r2scan-3c def2/J RI DEFGRID2 scfconv6 printgap
|  2> %output
|  3>     printlevel normal
|  4> end
|  5> * xyz 0 1
|  6> C -2.3310641859 -1.2326105795 -0.0647264478
|  7> N -1.6085361813 0.0001087528 0.1366026987
|  8> C -2.3308577491 1.2326413683 -0.066624732
|  9> C -0.23176188 -6.5332e-06 0.0510400163
| 10> C 0.4976669173 1.1965398643 0.0247926506
| 11> C 1.8777521805 1.189929179 -0.0149800478
| 12> C 2.5836655617 -5.53177e-05 -0.0354247168
| 13> C 1.8776783509 -1.1899917073 -0.0159851315
| 14> C 0.4975673404 -1.196556373 0.0237529395
| 15> H -3.3987507623 -1.0431240194 0.0226137451
| 16> H -2.0588886148 -1.9602361763 0.7027342836
| 17> H -2.1379920839 -1.6739244865 -1.0507272575
| 18> H -3.3986760298 1.0429974839 0.0185056965
| 19> H -2.1358193379 1.6736144387 -1.0523765482
| 20> H -2.0604416284 1.960671808 0.7010892619
| 21> H -0.0087479855 2.1477211897 0.0351328612
| 22> H 2.407353473 2.1320782759 -0.0339681449
| 23> H 3.6624857182 -5.87582e-05 -0.0689732973
| 24> H 2.4071850513 -2.1321891706 -0.0358799335
| 25> H -0.0088535563 -2.1477498795 0.0331980029
| 26> *
| 27>
| 28>                          ****END OF INPUT****

CARTESIAN COORDINATES (ANGSTROEM)
---------------------------------
  C     -2.331064   -1.232611   -0.064726
  N     -1.608536    0.000109    0.136603
  C     -2.330858    1.232641   -0.066625
  C     -0.231762   -0.000007    0.051040
  C      0.497667    1.196540    0.024793
  C      1.877752    1.189929   -0.014980
  C      2.583666   -0.000055   -0.035425
  C      1.877678   -1.189992   -0.015985
  C      0.497567   -1.196556    0.023753
  H     -3.398751   -1.043124    0.022614
  H     -2.058889   -1.960236    0.702734
  H     -2.137992   -1.673924   -1.050727
  H     -3.398676    1.042997    0.018506
  H     -2.135819    1.673614   -1.052377
  H     -2.060442    1.960672    0.701089
  H     -0.008748    2.147721    0.035133
  H      2.407353    2.132078   -0.033968
  H      3.662486   -0.000059   -0.068973
  H      2.407185   -2.132189   -0.035880
  H     -0.008854   -2.147750    0.033198

 Total Charge           Charge          ....    0
 Multiplicity           Mult            ....    1
 Number of Electrons    NEL             ....   66
 Basis Dimension        Dim             ....  231

ORBITAL ENERGIES
----------------

  NO   OCC          E(Eh)            E(eV)
   0   2.0000     -14.179467      -385.8429
   1   2.0000     -10.066919      -273.9348
   2   2.0000     -10.061770      -273.7947
   3   2.0000     -10.061764      -273.7945
   4   2.0000     -10.023673      -272.7580
   5   2.0000     -10.023669      -272.7579
   6   2.0000     -10.019422      -272.6423
   7   2.0000     -10.019417      -272.6422
   8   2.0000     -10.012917      -272.4653
   9   2.0000      -0.918389       -24.9906
  10   2.0000      -0.807334       -21.9687
  11   2.0000      -0.712987       -19.4014
  12   2.0000      -0.710612       -19.3367
  13   2.0000      -0.687475       -18.7072
  14   2.0000      -0.625811       -17.0292
  15   2.0000      -0.563807       -15.3420
  16   2.0000      -0.540992       -14.7211
  17   2.0000      -0.497162       -13.5285
  18   2.0000      -0.448541       -12.2054
  19   2.0000      -0.440023       -11.9736
  20   2.0000      -0.435375       -11.8471
  21   2.0000      -0.411593       -11.2000
  22   2.0000      -0.387483       -10.5440
  23   2.0000      -0.382820       -10.4171
  24   2.0000      -0.375776       -10.2254
  25   2.0000      -0.365637        -9.9495
  26   2.0000      -0.347631        -9.4595
  27   2.0000      -0.337134        -9.1739
  28   2.0000      -0.317481        -8.6391
  29   2.0000      -0.296706        -8.0738
  30   2.0000      -0.258889        -7.0447
  31   2.0000      -0.226315        -6.1583
  32   2.0000      -0.169680        -4.6172
  33   0.0000      -0.020830        -0.5668
  34   0.0000      -0.003899        -0.1061
  35   0.0000       0.076766         2.0889
  36   0.0000       0.080699         2.1959
  37   0.0000       0.102882         2.7996

MULLIKEN ATOMIC CHARGES
-----------------------
   0 C :   -0.436812
   1 N :    0.140798
   2 C :   -0.436761
   3 C :    0.246738
   4 C :   -0.311265
   5 C :   -0.153905
   6 C :   -0.197275
   7 C :   -0.153982
   8 C :   -0.311246
   9 H :    0.137225
  10 H :    0.155579
  11 H :    0.160854
  12 H :    0.137187
  13 H :    0.160889
  14 H :    0.155575
  15 H :    0.137938
  16 H :    0.143013
  17 H :    0.144496
  18 H :    0.143013
  19 H :    0.137942
Sum of atomic charges:    0.0000000

LOEWDIN ATOMIC CHARGES
----------------------
   0 C :   -0.124869
   1 N :   -0.910079
   2 C :   -0.124871
   3 C :    0.148360
   4 C :   -0.168938
   5 C :   -0.156864
   6 C :   -0.206186
   7 C :   -0.156864
   8 C :   -0.168976
   9 H :    0.176862
  10 H :    0.172960
  11 H :    0.165742
  12 H :    0.176870
  13 H :    0.165796
  14 H :    0.172900
  15 H :    0.171203
  16 H :    0.165730
  17 H :    0.164293
  18 H :    0.165731
  19 H :    0.171200

  Mayer bond orders larger than 0.100000
B(  0-C ,  1-N ) :   0.8978 B(  0-C ,  9-H ) :   0.9649 B(  0-C , 10-H ) :   0.9632
B(  0-C , 11-H ) :   0.9482 B(  1-N ,  2-C ) :   0.8978 B(  1-N ,  3-C ) :   1.2930
B(  2-C , 12-H ) :   0.9648 B(  2-C , 13-H ) :   0.9482 B(  2-C , 14-H ) :   0.9632
B(  3-C ,  4-C ) :   1.3017 B(  3-C ,  8-C ) :   1.3016 B(  4-C ,  5-C ) :   1.4294
B(  4-C , 15-H ) :   0.9371 B(  5-C ,  6-C ) :   1.4137 B(  5-C , 16-H ) :   0.9497
B(  6-C ,  7-C ) :   1.4138 B(  6-C , 17-H ) :   0.9479 B(  7-C ,  8-C ) :   1.4294
B(  7-C , 18-H ) :   0.9497 B(  8-C , 19-H ) :   0.9372

Dispersion correction           -0.006696614
FINAL SINGLE POINT ENERGY      -366.100068190045

DIPOLE MOMENT
-------------

Method             : SCF
Type of density    : Electron Density
Multiplicity       :   1
Irrep              :   0
Energy             :  -366.1060958719784253 Eh
Relativity type    :
Basis              : AO
                                X                 Y                 Z
Electronic contribution:      5.482583057       0.000140080       0.593929608
Nuclear contribution   :     -6.323761385      -0.000186375      -0.682848553
                        -----------------------------------------
Total Dipole Moment    :     -0.841178328      -0.000046295      -0.088918946
                        -----------------------------------------
Magnitude (a.u.)       :      0.845864978
Magnitude (Debye)      :      2.150017909

Rotational constants in cm-1:             0.118196             0.041303             0.031020
Rotational constants in MHz :          3543.433865          1238.238899           929.964537

                             ****ORCA TERMINATED NORMALLY****
TOTAL RUN TIME: 0 days 0 hours 0 minutes 25 seconds 551 msec
