                         Program Version 6.0.1  -  RELEASE   -
|  1> ! pbe def2-sv(p) def2/J RI DEFGRID1 loosescf d4 GCP(DFT/SV(P)) printgap
|  2> %output
|  3>     printlevel normal
|  4> end
|  5> * xyz 0 1
|  6> C -5.0599991472 -0.6835652284 0.0308496595
|  7> C -4.3038511326 -1.3714514591 -0.9034374089
|  8> C -2.9257655794 -1.2576494069 -0.9006069735
|  9> C -2.2897757596 -0.4426720364 0.0314574255
| 10> C -3.0548787459 0.2407946872 0.971505174
| 11> C -4.4322468284 0.1171901222 0.970226218
| 12> C -0.8192768048 -0.3353778252 0.0255037038
| 13> C -0.0492141723 -1.4927152873 0.0684176731
| 14> C 1.3333465167 -1.4327829909 0.0698949087
| 15> C 1.9834714868 -0.2011687035 0.0226845253
| 16> C 1.2240785513 0.9663841413 -0.0350735508
| 17> C -0.1678130676 0.8982968707 -0.0339556
| 18> Cl -1.0671709214 2.359062399 -0.1628148499
| 19> Cl 2.0139635392 2.4875416405 -0.1142027272
| 20> Cl 3.6963676438 -0.1156367358 0.0281148445
| 21> Cl 2.2532631502 -2.8822783898 0.1330417849
| 22> H -6.1359961145 -0.7730721605 0.0281491338
| 23> H -4.7888055686 -1.9981203525 -1.6370620857
| 24> H -2.3343688571 -1.7843599095 -1.6349531301
| 25> H -2.5674842937 0.8533903398 1.7144111235
| 26> H -5.017563728 0.648260754 1.7059418265
| 27> H -0.5384799693 -2.4526179471 0.1157415251
| 28> *
| 29>
| 30>                          ****END OF INPUT****

CARTESIAN COORDINATES (ANGSTROEM)
---------------------------------
  C     -5.059999   -0.683565    0.030850
  C     -4.303851   -1.371451   -0.903437
  C     -2.925766   -1.257649   -0.900607
  C     -2.289776   -0.442672    0.031457
  C     -3.054879    0.240795    0.971505
  C     -4.432247    0.117190    0.970226
  C     -0.819277   -0.335378    0.025504
  C     -0.049214   -1.492715    0.068418
  C      1.333347   -1.432783    0.069895
  C      1.983471   -0.201169    0.022685
  C      1.224079    0.966384   -0.035074
  C     -0.167813    0.898297   -0.033956
  Cl    -1.067171    2.359062   -0.162815
  Cl     2.013964    2.487542   -0.114203
  Cl     3.696368   -0.115637    0.028115
  Cl     2.253263   -2.882278    0.133042
  H     -6.135996   -0.773072    0.028149
  H     -4.788806   -1.998120   -1.637062
  H     -2.334369   -1.784360   -1.634953
  H     -2.567484    0.853390    1.714411
  H     -5.017564    0.648261    1.705942
  H     -0.538480   -2.452618    0.115742

 Total Charge           Charge          ....    0
 Multiplicity           Mult            ....    1
 Number of Electrons    NEL             ....  146
 Basis Dimension        Dim             ....  252

ORBITAL ENERGIES
----------------

  NO   OCC          E(Eh)            E(eV)
   0   2.0000    -100.656653     -2739.0068
   1   2.0000    -100.656555     -2739.0041
   2   2.0000    -100.655386     -2738.9723
   3   2.0000    -100.654968     -2738.9609
   4   2.0000      -9.978231      -271.5215
   5   2.0000      -9.976892      -271.4850
   6   2.0000      -9.973613      -271.3958
   7   2.0000      -9.972965      -271.3782
   8   2.0000      -9.935959      -270.3712
   9   2.0000      -9.922836      -270.0141
  10   2.0000      -9.919287      -269.9175
  11   2.0000      -9.905495      -269.5422
  12   2.0000      -9.904410      -269.5127
  13   2.0000      -9.902860      -269.4705
  14   2.0000      -9.902308      -269.4555
  15   2.0000      -9.902066      -269.4489
  16   2.0000      -9.192552      -250.1421
  17   2.0000      -9.192456      -250.1394
  18   2.0000      -9.191071      -250.1017
  19   2.0000      -9.190919      -250.0976
  20   2.0000      -7.024254      -191.1397
  21   2.0000      -7.024166      -191.1373
  22   2.0000      -7.022633      -191.0956
  23   2.0000      -7.022461      -191.0909
  24   2.0000      -7.012586      -190.8222
  25   2.0000      -7.012537      -190.8208
  26   2.0000      -7.011437      -190.7909
  27   2.0000      -7.011366      -190.7890
  28   2.0000      -7.011173      -190.7837
  29   2.0000      -7.010929      -190.7771
  30   2.0000      -7.010074      -190.7538
  31   2.0000      -7.010041      -190.7529
  32   2.0000      -0.868775       -23.6406
  33   2.0000      -0.829631       -22.5754
  34   2.0000      -0.811318       -22.0771
  35   2.0000      -0.789944       -21.4955
  36   2.0000      -0.780041       -21.2260
  37   2.0000      -0.760515       -20.6947
  38   2.0000      -0.706859       -19.2346
  39   2.0000      -0.682181       -18.5631
  40   2.0000      -0.665229       -18.1018
  41   2.0000      -0.652239       -17.7483
  42   2.0000      -0.580169       -15.7872
  43   2.0000      -0.565276       -15.3819
  44   2.0000      -0.550067       -14.9681
  45   2.0000      -0.532861       -14.4999
  46   2.0000      -0.490500       -13.3472
  47   2.0000      -0.480642       -13.0789
  48   2.0000      -0.464610       -12.6427
  49   2.0000      -0.433440       -11.7945
  50   2.0000      -0.421476       -11.4690
  51   2.0000      -0.417822       -11.3695
  52   2.0000      -0.414606       -11.2820
  53   2.0000      -0.403667       -10.9844
  54   2.0000      -0.399678       -10.8758
  55   2.0000      -0.385979       -10.5030
  56   2.0000      -0.372301       -10.1308
  57   2.0000      -0.368570       -10.0293
  58   2.0000      -0.350955        -9.5500
  59   2.0000      -0.343842        -9.3564
  60   2.0000      -0.327103        -8.9009
  61   2.0000      -0.319877        -8.7043
  62   2.0000      -0.313733        -8.5371
  63   2.0000      -0.300407        -8.1745
  64   2.0000      -0.298401        -8.1199
  65   2.0000      -0.291662        -7.9365
  66   2.0000      -0.283719        -7.7204
  67   2.0000      -0.277728        -7.5574
  68   2.0000      -0.259996        -7.0749
  69   2.0000      -0.245453        -6.6791
  70   2.0000      -0.238906        -6.5010
  71   2.0000      -0.226603        -6.1662
  72   2.0000      -0.216638        -5.8950
  73   0.0000      -0.076067        -2.0699
  74   0.0000      -0.065930        -1.7940
  75   0.0000      -0.047540        -1.2936
  76   0.0000      -0.041732        -1.1356
  77   0.0000      -0.034288        -0.9330

MULLIKEN ATOMIC CHARGES
-----------------------
   0 C :   -0.040723
   1 C :   -0.050771
   2 C :   -0.095523
   3 C :    0.063289
   4 C :   -0.077265
   5 C :   -0.056307
   6 C :    0.083277
   7 C :   -0.192511
   8 C :    0.091135
   9 C :    0.025473
  10 C :    0.008904
  11 C :    0.017254
  12 Cl:   -0.026033
  13 Cl:   -0.017935
  14 Cl:   -0.017515
  15 Cl:   -0.043638
  16 H :    0.058980
  17 H :    0.057746
  18 H :    0.051797
  19 H :    0.051446
  20 H :    0.058147
  21 H :    0.050773
Sum of atomic charges:   -0.0000000

LOEWDIN ATOMIC CHARGES
----------------------
   0 C :   -0.117514
   1 C :   -0.118768
   2 C :   -0.111618
   3 C :   -0.038119
   4 C :   -0.111305
   5 C :   -0.118237
   6 C :   -0.038394
   7 C :   -0.126945
   8 C :   -0.159552
   9 C :   -0.182384
  10 C :   -0.176704
  11 C :   -0.153862
  12 Cl:    0.178246
  13 Cl:    0.172257
  14 Cl:    0.172341
  15 Cl:    0.159541
  16 H :    0.126160
  17 H :    0.126641
  18 H :    0.127171
  19 H :    0.123831
  20 H :    0.126841
  21 H :    0.140372

  Mayer bond orders larger than 0.100000
B(  0-C ,  1-C ) :   1.3796 B(  0-C ,  5-C ) :   1.3738 B(  0-C , 16-H ) :   0.9654
B(  1-C ,  2-C ) :   1.3646 B(  1-C , 17-H ) :   0.9635 B(  2-C ,  3-C ) :   1.3854
B(  2-C , 18-H ) :   0.9612 B(  3-C ,  4-C ) :   1.3726 B(  3-C ,  6-C ) :   0.9588
B(  4-C ,  5-C ) :   1.3779 B(  4-C , 19-H ) :   0.9603 B(  5-C , 20-H ) :   0.9630
B(  6-C ,  7-C ) :   1.3167 B(  6-C , 11-C ) :   1.3986 B(  7-C ,  8-C ) :   1.3169
B(  7-C , 21-H ) :   0.9758 B(  8-C ,  9-C ) :   1.3970 B(  8-C , 15-Cl) :   1.0343
B(  9-C , 10-C ) :   1.4131 B(  9-C , 14-Cl) :   1.1177 B( 10-C , 11-C ) :   1.3857
B( 10-C , 13-Cl) :   1.1179 B( 11-C , 12-Cl) :   1.0988

Dispersion correction           -0.039671746
FINAL SINGLE POINT ENERGY     -2299.400933668715

DIPOLE MOMENT
-------------

Method             : SCF
Type of density    : Electron Density
Multiplicity       :   1
Irrep              :   0
Energy             : -2299.4341326167691477 Eh
Relativity type    :
Basis              : AO
                                X                 Y                 Z
Electronic contribution:     28.552968812       7.371352636      -0.405746923
Nuclear contribution   :    -29.317172436      -7.647410058       0.429671187
                        -----------------------------------------
Total Dipole Moment    :     -0.764203624      -0.276057422       0.023924264
                        -----------------------------------------
Magnitude (a.u.)       :      0.812888214
Magnitude (Debye)      :      2.066197638

Rotational constants in cm-1:             0.018585             0.007870             0.005738
Rotational constants in MHz :           557.165752           235.931912           172.035619

                             ****ORCA TERMINATED NORMALLY****
TOTAL RUN TIME: 0 days 0 hours 0 minutes 40 seconds 410 msec
