                         Program Version 6.0.0  -   RELEASE  -
|  1> ! r2SCAN-3c DEF2-TZVP FREQ
|  2> * xyzfile 0 1 censo.xyz
|  3>
|  4>                          ****END OF INPUT****

CARTESIAN COORDINATES (ANGSTROEM)
---------------------------------
  C     -2.622099    0.499166   -0.000714
  O     -1.239612    0.938977   -0.002424
  C     -0.313841   -0.045046    0.000157
  O     -0.604952   -1.232694    0.003663
  C      1.052343    0.497732   -0.001682
  C      2.113818   -0.294714    0.743217
  C      2.113811   -0.299188   -0.741754
  H     -3.215034    1.412924   -0.003903
  H     -2.830991   -0.087365    0.897057
  H     -2.831206   -0.093801   -0.894187
  H      1.135958    1.577265   -0.004931
  H      2.863039    0.294001    1.260123
  H      1.772333   -1.189044    1.253124
  H      2.863026    0.286441   -1.262163
  H      1.772381   -1.196565   -1.246313

 Total Charge           Charge          ....    0
 Multiplicity           Mult            ....    1
 Number of Electrons    NEL             ....   54
 Basis Dimension        Dim             ....  265

ORBITAL ENERGIES
----------------

  NO   OCC          E(Eh)            E(eV)
   0   2.0000     -18.998624      -516.9788
   1   2.0000     -18.929028      -515.0850
   2   2.0000     -10.152973      -276.2764
   3   2.0000     -10.085795      -274.4484
   4   2.0000     -10.057102      -273.6677
   5   2.0000     -10.048859      -273.4433
   6   2.0000     -10.048665      -273.4381
   7   2.0000      -1.060473       -28.8569
   8   2.0000      -0.969757       -26.3884
   9   2.0000      -0.840016       -22.8580
  10   2.0000      -0.705466       -19.1967
  11   2.0000      -0.612716       -16.6729
  12   2.0000      -0.578990       -15.7551
  13   2.0000      -0.521010       -14.1774
  14   2.0000      -0.498200       -13.5567
  15   2.0000      -0.458680       -12.4813
  16   2.0000      -0.445264       -12.1163
  17   2.0000      -0.427040       -11.6203
  18   2.0000      -0.408126       -11.1057
  19   2.0000      -0.371374       -10.1056
  20   2.0000      -0.364430        -9.9166
  21   2.0000      -0.341675        -9.2974
  22   2.0000      -0.325595        -8.8599
  23   2.0000      -0.291108        -7.9214
  24   2.0000      -0.277021        -7.5381
  25   2.0000      -0.271706        -7.3935
  26   2.0000      -0.241078        -6.5601
  27   0.0000      -0.021262        -0.5786
  28   0.0000       0.054986         1.4962
  29   0.0000       0.057393         1.5618
  30   0.0000       0.074439         2.0256
  31   0.0000       0.083336         2.2677

MULLIKEN ATOMIC CHARGES
-----------------------
   0 C :   -0.147242
   1 O :   -0.255335
   2 C :    0.289629
   3 O :   -0.391414
   4 C :   -0.051544
   5 C :   -0.204523
   6 C :   -0.204493
   7 H :    0.119031
   8 H :    0.121744
   9 H :    0.121782
  10 H :    0.108490
  11 H :    0.113128
  12 H :    0.133813
  13 H :    0.113120
  14 H :    0.133815
Sum of atomic charges:   -0.0000000

LOEWDIN ATOMIC CHARGES
----------------------
   0 C :   -0.291857
   1 O :    0.230045
   2 C :   -0.469789
   3 O :    0.081095
   4 C :   -0.187704
   5 C :   -0.195314
   6 C :   -0.195326
   7 H :    0.110329
   8 H :    0.112115
   9 H :    0.112123
  10 H :    0.151143
  11 H :    0.131414
  12 H :    0.140154
  13 H :    0.131419
  14 H :    0.140152

  Mayer bond orders larger than 0.100000
B(  0-C ,  1-O ) :   0.8855 B(  0-C ,  7-H ) :   0.9694 B(  0-C ,  8-H ) :   0.9721
B(  0-C ,  9-H ) :   0.9721 B(  1-O ,  2-C ) :   1.1661 B(  2-C ,  3-O ) :   1.9212
B(  2-C ,  4-C ) :   1.0322 B(  4-C ,  5-C ) :   0.8892 B(  4-C ,  6-C ) :   0.8893
B(  4-C , 10-H ) :   0.9675 B(  5-C ,  6-C ) :   0.9958 B(  5-C , 11-H ) :   0.9627
B(  5-C , 12-H ) :   0.9557 B(  6-C , 13-H ) :   0.9627 B(  6-C , 14-H ) :   0.9557

Dispersion correction           -0.003485757
FINAL SINGLE POINT ENERGY      -345.725697442602

DIPOLE MOMENT
-------------

Method             : SCF
Type of density    : Electron Density
Multiplicity       :   1
Irrep              :   0
Energy             :  -345.7307255865758862 Eh
Relativity type    :
Basis              : AO
                                X                 Y                 Z
Electronic contribution:     -1.282563090      -0.215501085      -0.000053061
Nuclear contribution   :      1.393762286       0.891384339      -0.001802028
                        -----------------------------------------
Total Dipole Moment    :      0.111199196       0.675883253      -0.001855089
                        -----------------------------------------
Magnitude (a.u.)       :      0.684972171
Magnitude (Debye)      :      1.741060894

VIBRATIONAL FREQUENCIES
-----------------------

Scaling factor for frequencies =  1.000000000  (already applied!)

     0:       0.00 cm**-1
     1:       0.00 cm**-1
     2:       0.00 cm**-1
     3:       0.00 cm**-1
     4:       0.00 cm**-1
     5:       0.00 cm**-1
     6:      83.60 cm**-1
     7:     141.04 cm**-1
     8:     182.35 cm**-1
     9:     210.30 cm**-1
    10:     301.12 cm**-1
    11:     332.08 cm**-1
    12:     420.99 cm**-1
    13:     664.02 cm**-1
    14:     763.54 cm**-1
    15:     798.69 cm**-1
    16:     842.17 cm**-1
    17:     856.39 cm**-1
    18:     914.98 cm**-1
    19:     916.77 cm**-1
    20:    1009.64 cm**-1
    21:    1053.98 cm**-1
    22:    1084.46 cm**-1
    23:    1118.59 cm**-1
    24:    1119.37 cm**-1
    25:    1165.15 cm**-1
    26:    1190.77 cm**-1
    27:    1204.71 cm**-1
    28:    1213.19 cm**-1
    29:    1219.63 cm**-1
    30:    1411.95 cm**-1
    31:    1456.62 cm**-1
    32:    1463.95 cm**-1
    33:    1477.21 cm**-1
    34:    1483.70 cm**-1
    35:    1487.14 cm**-1
    36:    1710.69 cm**-1
    37:    3030.84 cm**-1
    38:    3119.51 cm**-1
    39:    3122.33 cm**-1
    40:    3123.09 cm**-1
    41:    3146.95 cm**-1
    42:    3184.35 cm**-1
    43:    3211.48 cm**-1
    44:    3226.62 cm**-1

IR SPECTRUM
-----------

 Mode   freq       eps      Int      T**2         TX        TY        TZ
       cm**-1   L/(mol*cm) km/mol    a.u.
----------------------------------------------------------------------------
  6:     83.60   0.000384    1.94  0.001433  ( 0.000002  0.000236 -0.037856)
  7:    141.04   0.000151    0.77  0.000335  ( 0.000029 -0.000049 -0.018308)
  8:    182.35   0.000380    1.92  0.000650  (-0.000036  0.000036 -0.025495)
  9:    210.30   0.000600    3.03  0.000890  (-0.000770 -0.029823  0.000069)
 10:    301.12   0.000604    3.05  0.000626  (-0.000039 -0.000047 -0.025012)
 11:    332.08   0.003473   17.55  0.003263  (-0.048521  0.030149 -0.000066)
 12:    420.99   0.000374    1.89  0.000277  ( 0.010399  0.012995 -0.000044)
 13:    664.02   0.000843    4.26  0.000396  (-0.012385 -0.015585  0.000048)
 14:    763.54   0.001178    5.95  0.000482  ( 0.000003  0.000069  0.021944)
 15:    798.69   0.001051    5.31  0.000411  ( 0.016470 -0.011801  0.000026)
 16:    842.17   0.001439    7.27  0.000533  (-0.000002  0.000076  0.023091)
 17:    856.39   0.001661    8.39  0.000605  ( 0.009306 -0.022771  0.000074)
 18:    914.98   0.000566    2.86  0.000193  ( 0.000839  0.000028  0.013863)
 19:    916.77   0.009446   47.73  0.003215  ( 0.056496  0.004841 -0.000215)
 20:   1009.64   0.000323    1.63  0.000100  ( 0.003192  0.009472 -0.000042)
 21:   1053.98   0.002509   12.68  0.000743  ( 0.020906  0.017488 -0.000056)
 22:   1084.46   0.000676    3.42  0.000195  (-0.000003  0.000053  0.013949)
 23:   1118.59   0.001176    5.95  0.000328  (-0.017450 -0.004867  0.000046)
 24:   1119.37   0.000493    2.49  0.000138  ( 0.000028 -0.000001  0.011729)
 25:   1165.15   0.000168    0.85  0.000045  (-0.000094  0.000041 -0.006703)
 26:   1190.77   0.044099  222.86  0.011557  (-0.101128  0.036471 -0.000082)
 27:   1204.71   0.034253  173.10  0.008873  ( 0.086826 -0.036526  0.000078)
 28:   1213.19   0.000064    0.32  0.000016  (-0.000016  0.000006 -0.004042)
 29:   1219.63   0.006536   33.03  0.001672  (-0.038976  0.012376 -0.000025)
 30:   1411.95   0.021944  110.90  0.004850  (-0.063794  0.027935 -0.000068)
 31:   1456.62   0.000811    4.10  0.000174  (-0.000007 -0.000032 -0.013180)
 32:   1463.95   0.011696   59.11  0.002493  ( 0.049468 -0.006794  0.000031)
 33:   1477.21   0.001762    8.90  0.000372  ( 0.000010 -0.000068 -0.019294)
 34:   1483.70   0.001592    8.04  0.000335  (-0.014912  0.010603 -0.000025)
 35:   1487.14   0.002616   13.22  0.000549  ( 0.018761  0.014034 -0.000044)
 36:   1710.69   0.036962  186.79  0.006743  ( 0.021371  0.079284 -0.000227)
 37:   3030.84   0.006233   31.50  0.000642  (-0.025308 -0.001112  0.000029)
 38:   3119.51   0.003206   16.20  0.000321  ( 0.000025  0.000022  0.017909)
 39:   3122.33   0.003340   16.88  0.000334  (-0.000072 -0.000052 -0.018271)
 40:   3123.09   0.001876    9.48  0.000187  (-0.013667  0.000791  0.000094)
 41:   3146.95   0.003039   15.36  0.000301  ( 0.008178 -0.015312  0.000037)
 42:   3184.35   0.000601    3.04  0.000059  ( 0.000262 -0.007669  0.000023)
 43:   3211.48   0.000087    0.44  0.000008  ( 0.000003  0.000015  0.002909)
 44:   3226.62   0.000830    4.20  0.000080  ( 0.005216  0.007285 -0.000024)

--------------------------
THERMOCHEMISTRY AT 298.15K
--------------------------

Temperature         ...   298.15 K
Pressure            ...     1.00 atm
Total Mass          ...   100.12 AMU
Quasi RRHO          ...     True
Cut-Off Frequency   ...     1.00 cm^-1

Throughout the following assumptions are being made:
  (1) The electronic state is orbitally nondegenerate
  (2) There are no thermally accessible electronically excited states
  (3) Hindered rotations indicated by low frequency modes are not
      treated as such but are treated as vibrations and this may
      cause some error
  (4) All equations used are the standard statistical mechanics
      equations for an ideal gas
  (5) All vibrations are strictly harmonic

freq.      83.60  E(vib)   ...       0.48
freq.     141.04  E(vib)   ...       0.41
freq.     182.35  E(vib)   ...       0.37
freq.     210.30  E(vib)   ...       0.34
freq.     301.12  E(vib)   ...       0.26
freq.     332.08  E(vib)   ...       0.24
freq.     420.99  E(vib)   ...       0.18
freq.     664.02  E(vib)   ...       0.08
freq.     763.54  E(vib)   ...       0.06
freq.     798.69  E(vib)   ...       0.05
freq.     842.17  E(vib)   ...       0.04
freq.     856.39  E(vib)   ...       0.04
freq.     914.98  E(vib)   ...       0.03
freq.     916.77  E(vib)   ...       0.03
freq.    1009.64  E(vib)   ...       0.02
freq.    1053.98  E(vib)   ...       0.02
freq.    1084.46  E(vib)   ...       0.02
freq.    1118.59  E(vib)   ...       0.01
freq.    1119.37  E(vib)   ...       0.01
freq.    1165.15  E(vib)   ...       0.01
freq.    1190.77  E(vib)   ...       0.01
freq.    1204.71  E(vib)   ...       0.01
freq.    1213.19  E(vib)   ...       0.01
freq.    1219.63  E(vib)   ...       0.01
freq.    1411.95  E(vib)   ...       0.00
freq.    1456.62  E(vib)   ...       0.00
freq.    1463.95  E(vib)   ...       0.00
freq.    1477.21  E(vib)   ...       0.00
freq.    1483.70  E(vib)   ...       0.00
freq.    1487.14  E(vib)   ...       0.00
freq.    1710.69  E(vib)   ...       0.00
freq.    3030.84  E(vib)   ...       0.00
freq.    3119.51  E(vib)   ...       0.00
freq.    3122.33  E(vib)   ...       0.00
freq.    3123.09  E(vib)   ...       0.00
freq.    3146.95  E(vib)   ...       0.00
freq.    3184.35  E(vib)   ...       0.00
freq.    3211.48  E(vib)   ...       0.00
freq.    3226.62  E(vib)   ...       0.00

------------
INNER ENERGY
------------

The inner energy is: U= E(el) + E(ZPE) + E(vib) + E(rot) + E(trans)
    E(el)   - is the total energy from the electronic structure calculation
              = E(kin-el) + E(nuc-el) + E(el-el) + E(nuc-nuc)
    E(ZPE)  - the the zero temperature vibrational energy from the frequency calculation
    E(vib)  - the the finite temperature correction to E(ZPE) due to population
              of excited vibrational states
    E(rot)  - is the rotational thermal energy
    E(trans)- is the translational thermal energy

Summary of contributions to the inner energy U:
Electronic energy                ...   -345.72569744 Eh
Zero point energy                ...      0.12407793 Eh      77.86 kcal/mol
Thermal vibrational correction   ...      0.00443721 Eh       2.78 kcal/mol
Thermal rotational correction    ...      0.00141627 Eh       0.89 kcal/mol
Thermal translational correction ...      0.00141627 Eh       0.89 kcal/mol
-----------------------------------------------------------------------
Total thermal energy                   -345.59434976 Eh

Summary of corrections to the electronic energy:
(perhaps to be used in another calculation)
Total thermal correction                  0.00726975 Eh       4.56 kcal/mol
Non-thermal (ZPE) correction              0.12407793 Eh      77.86 kcal/mol
-----------------------------------------------------------------------
Total correction                          0.13134768 Eh      82.42 kcal/mol

--------
ENTHALPY
--------

The enthalpy is H = U + kB*T
                kB is Boltzmann's constant
Total thermal energy              ...   -345.59434976 Eh
Thermal Enthalpy correction       ...      0.00094421 Eh       0.59 kcal/mol
-----------------------------------------------------------------------
Total Enthalpy                    ...   -345.59340555 Eh

Note: Only C1 symmetry has been detected, increase convergence thresholds
      if your molecule has a higher symmetry. Symmetry factor of 1.0 is
      used for the rotational entropy correction.

Note: Rotational entropy computed according to Herzberg
Infrared and Raman Spectra, Chapter V,1, Van Nostrand Reinhold, 1945
Point Group:  C1, Symmetry Number:   1
Rotational constants in cm-1:     0.241229     0.053992     0.049629

Vibrational entropy computed according to the QRRHO of S. Grimme
Chem.Eur.J. 2012 18 9955 using a reference frequency of 100.0 cm-1

-------
ENTROPY
-------

The entropy contributions are T*S = T*(S(el)+S(vib)+S(rot)+S(trans))
     S(el)   - electronic entropy
     S(vib)  - vibrational entropy
     S(rot)  - rotational entropy
     S(trans)- translational entropy
The entropies will be listed as multiplied by the temperature to get
units of energy

Electronic entropy                ...      0.00000000 Eh      0.00 kcal/mol
Vibrational entropy               ...      0.00758844 Eh      4.76 kcal/mol
Rotational entropy                ...      0.01297789 Eh      8.14 kcal/mol
Translational entropy             ...      0.01887290 Eh     11.84 kcal/mol
-----------------------------------------------------------------------
Final entropy term                ...      0.03943923 Eh     24.75 kcal/mol

In case the symmetry of your molecule has not been determined correctly
or in case you have a reason to use a different symmetry number we print
out the resulting rotational entropy values for sn=1,12:

 non-linear molecules -----------------------------------
|  sn= 1 | S(rot)=       0.01297789 Eh      8.14 kcal/mol|
|  sn= 2 | S(rot)=       0.01232344 Eh      7.73 kcal/mol|
|  sn= 3 | S(rot)=       0.01194060 Eh      7.49 kcal/mol|
|  sn= 4 | S(rot)=       0.01166898 Eh      7.32 kcal/mol|
|  sn= 5 | S(rot)=       0.01145829 Eh      7.19 kcal/mol|
|  sn= 6 | S(rot)=       0.01128615 Eh      7.08 kcal/mol|
|  sn= 7 | S(rot)=       0.01114060 Eh      6.99 kcal/mol|
|  sn= 8 | S(rot)=       0.01101452 Eh      6.91 kcal/mol|
|  sn= 9 | S(rot)=       0.01090332 Eh      6.84 kcal/mol|
|  sn=10 | S(rot)=       0.01080384 Eh      6.78 kcal/mol|
|  sn=11 | S(rot)=       0.01071385 Eh      6.72 kcal/mol|
|  sn=12 | S(rot)=       0.01063169 Eh      6.67 kcal/mol|
 linear molecules ---------------------------------------
|  Dinfh | S(rot)=       0.00816136 Eh      5.12 kcal/mol|
|  Cinfv | S(rot)=       0.00881581 Eh      5.53 kcal/mol|
 --------------------------------------------------------

-------------------
GIBBS FREE ENERGY
-------------------

                             ****ORCA TERMINATED NORMALLY****
TOTAL RUN TIME: 0 days 0 hours 7 minutes 51 seconds 454 msec
