                         Program Version 6.0.0  -   RELEASE  -
|  1> ! r2SCAN-3c DEF2-TZVP FREQ
|  2> * xyzfile 0 1 vacuum_censo.xyz
|  3>
|  4>                          ****END OF INPUT****

CARTESIAN COORDINATES (ANGSTROEM)
---------------------------------
  C     -2.677907   -0.131006   -0.000873
  O     -1.364060   -0.726954    0.000868
  C     -0.301274    0.118701    0.000456
  O     -0.383480    1.327489   -0.001031
  C      0.965039   -0.644475    0.001475
  C      2.132940   -0.027651   -0.745004
  C      2.134265   -0.023972    0.742536
  H     -3.195595   -0.469154   -0.901773
  H     -2.604635    0.957636    0.011956
  H     -3.205626   -0.490352    0.885757
  H      0.871802   -1.723609    0.004045
  H      2.789359   -0.715132   -1.266243
  H      1.929413    0.912198   -1.245714
  H      2.791700   -0.708846    1.265921
  H      1.931621    0.918351    1.238938

 Total Charge           Charge          ....    0
 Multiplicity           Mult            ....    1
 Number of Electrons    NEL             ....   54
 Basis Dimension        Dim             ....  265

ORBITAL ENERGIES
----------------

  NO   OCC          E(Eh)            E(eV)
   0   2.0000     -18.997850      -516.9578
   1   2.0000     -18.932045      -515.1671
   2   2.0000     -10.154618      -276.3212
   3   2.0000     -10.082704      -274.3643
   4   2.0000     -10.056528      -273.6520
   5   2.0000     -10.047754      -273.4133
   6   2.0000     -10.047562      -273.4080
   7   2.0000      -1.060648       -28.8617
   8   2.0000      -0.977435       -26.5973
   9   2.0000      -0.839434       -22.8422
  10   2.0000      -0.705134       -19.1877
  11   2.0000      -0.609829       -16.5943
  12   2.0000      -0.578354       -15.7378
  13   2.0000      -0.521037       -14.1781
  14   2.0000      -0.498521       -13.5655
  15   2.0000      -0.458606       -12.4793
  16   2.0000      -0.444321       -12.0906
  17   2.0000      -0.429234       -11.6801
  18   2.0000      -0.408885       -11.1263
  19   2.0000      -0.377267       -10.2660
  20   2.0000      -0.362892        -9.8748
  21   2.0000      -0.341149        -9.2831
  22   2.0000      -0.321910        -8.7596
  23   2.0000      -0.288943        -7.8626
  24   2.0000      -0.276963        -7.5365
  25   2.0000      -0.271364        -7.3842
  26   2.0000      -0.246283        -6.7017
  27   0.0000      -0.019331        -0.5260
  28   0.0000       0.056101         1.5266
  29   0.0000       0.061393         1.6706
  30   0.0000       0.076937         2.0935
  31   0.0000       0.081832         2.2268

MULLIKEN ATOMIC CHARGES
-----------------------
   0 C :   -0.155315
   1 O :   -0.252790
   2 C :    0.284233
   3 O :   -0.376767
   4 C :   -0.055845
   5 C :   -0.208251
   6 C :   -0.208052
   7 H :    0.113065
   8 H :    0.143918
   9 H :    0.113259
  10 H :    0.109580
  11 H :    0.113025
  12 H :    0.133468
  13 H :    0.113004
  14 H :    0.133469
Sum of atomic charges:    0.0000000

LOEWDIN ATOMIC CHARGES
----------------------
   0 C :   -0.299000
   1 O :    0.230190
   2 C :   -0.470133
   3 O :    0.092226
   4 C :   -0.188124
   5 C :   -0.196870
   6 C :   -0.196933
   7 H :    0.109739
   8 H :    0.116940
   9 H :    0.109765
  10 H :    0.150471
  11 H :    0.130942
  12 H :    0.139908
  13 H :    0.130950
  14 H :    0.139928

  Mayer bond orders larger than 0.100000
B(  0-C ,  1-O ) :   0.8788 B(  0-C ,  7-H ) :   0.9715 B(  0-C ,  8-H ) :   0.9628
B(  0-C ,  9-H ) :   0.9715 B(  1-O ,  2-C ) :   1.1597 B(  2-C ,  3-O ) :   1.9573
B(  2-C ,  4-C ) :   1.0215 B(  4-C ,  5-C ) :   0.8939 B(  4-C ,  6-C ) :   0.8939
B(  4-C , 10-H ) :   0.9636 B(  5-C ,  6-C ) :   0.9932 B(  5-C , 11-H ) :   0.9621
B(  5-C , 12-H ) :   0.9566 B(  6-C , 13-H ) :   0.9621 B(  6-C , 14-H ) :   0.9565

Dispersion correction           -0.003480681
FINAL SINGLE POINT ENERGY      -345.724425905807

DIPOLE MOMENT
-------------

Method             : SCF
Type of density    : Electron Density
Multiplicity       :   1
Irrep              :   0
Energy             :  -345.7296512602298435 Eh
Relativity type    :
Basis              : AO
                                X                 Y                 Z
Electronic contribution:     -1.181104677       0.552675324       0.005001356
Nuclear contribution   :      1.169630490      -1.211167164      -0.004665430
                        -----------------------------------------
Total Dipole Moment    :     -0.011474187      -0.658491841       0.000335926
                        -----------------------------------------
Magnitude (a.u.)       :      0.658591887
Magnitude (Debye)      :      1.674007542

VIBRATIONAL FREQUENCIES
-----------------------

Scaling factor for frequencies =  1.000000000  (already applied!)

     0:       0.00 cm**-1
     1:       0.00 cm**-1
     2:       0.00 cm**-1
     3:       0.00 cm**-1
     4:       0.00 cm**-1
     5:       0.00 cm**-1
     6:     -97.46 cm**-1 ***imaginary mode***
     7:      75.14 cm**-1
     8:     164.62 cm**-1
     9:     214.47 cm**-1
    10:     297.11 cm**-1
    11:     351.97 cm**-1
    12:     430.51 cm**-1
    13:     658.64 cm**-1
    14:     753.91 cm**-1
    15:     795.65 cm**-1
    16:     845.15 cm**-1
    17:     851.83 cm**-1
    18:     918.19 cm**-1
    19:     918.97 cm**-1
    20:    1018.08 cm**-1
    21:    1051.56 cm**-1
    22:    1084.08 cm**-1
    23:    1118.03 cm**-1
    24:    1121.03 cm**-1
    25:    1164.01 cm**-1
    26:    1172.97 cm**-1
    27:    1211.74 cm**-1
    28:    1214.39 cm**-1
    29:    1222.46 cm**-1
    30:    1400.66 cm**-1
    31:    1450.74 cm**-1
    32:    1456.55 cm**-1
    33:    1486.49 cm**-1
    34:    1490.78 cm**-1
    35:    1493.17 cm**-1
    36:    1764.22 cm**-1
    37:    3026.85 cm**-1
    38:    3111.71 cm**-1
    39:    3123.75 cm**-1
    40:    3124.54 cm**-1
    41:    3134.70 cm**-1
    42:    3181.58 cm**-1
    43:    3212.89 cm**-1
    44:    3227.76 cm**-1

IR SPECTRUM
-----------

 Mode   freq       eps      Int      T**2         TX        TY        TZ
       cm**-1   L/(mol*cm) km/mol    a.u.
----------------------------------------------------------------------------
  7:     75.14   0.000457    2.31  0.001896  (-0.000044 -0.000091  0.043544)
  8:    164.62   0.000474    2.40  0.000899  (-0.000061 -0.000053  0.029983)
  9:    214.47   0.000521    2.63  0.000758  (-0.000932  0.027509 -0.000007)
 10:    297.11   0.000556    2.81  0.000584  (-0.000078 -0.000031  0.024176)
 11:    351.97   0.003980   20.11  0.003528  ( 0.053341  0.026136  0.000000)
 12:    430.51   0.000601    3.04  0.000435  (-0.019219  0.008127 -0.000043)
 13:    658.64   0.000789    3.99  0.000374  (-0.002258  0.019208 -0.000029)
 14:    753.91   0.001068    5.40  0.000442  (-0.000015 -0.000093 -0.021023)
 15:    795.65   0.001950    9.86  0.000765  ( 0.024609  0.012622  0.000003)
 16:    845.15   0.001626    8.22  0.000600  (-0.000046 -0.000088 -0.024503)
 17:    851.83   0.002781   14.05  0.001019  ( 0.019132  0.025550 -0.000067)
 18:    918.19   0.000326    1.65  0.000111  (-0.003801  0.000792  0.009789)
 19:    918.97   0.006545   33.08  0.002223  (-0.046014  0.010228 -0.000766)
 20:   1018.08   0.000191    0.97  0.000059  ( 0.004386 -0.006271  0.000115)
 21:   1051.56   0.003130   15.82  0.000929  ( 0.023766 -0.019083  0.000058)
 22:   1084.08   0.000672    3.40  0.000193  ( 0.000004 -0.000038 -0.013906)
 23:   1118.03   0.003030   15.31  0.000846  ( 0.028962 -0.002611  0.000034)
 24:   1121.03   0.000522    2.64  0.000145  ( 0.000100  0.000007 -0.012057)
 25:   1164.01   0.072064  364.18  0.019320  ( 0.135856  0.029374 -0.000186)
 26:   1172.97   0.000214    1.08  0.000057  ( 0.005163  0.001043  0.005398)
 27:   1211.74   0.000088    0.44  0.000023  ( 0.000376  0.000110  0.004732)
 28:   1214.39   0.012079   61.04  0.003104  (-0.053751 -0.014652 -0.000024)
 29:   1222.46   0.008651   43.72  0.002208  (-0.045928 -0.009949 -0.000071)
 30:   1400.66   0.019253   97.30  0.004290  (-0.062717 -0.018872 -0.000094)
 31:   1450.74   0.011005   55.61  0.002367  (-0.046281  0.015004  0.000366)
 32:   1456.55   0.000784    3.96  0.000168  ( 0.000050  0.000025  0.012964)
 33:   1486.49   0.001962    9.92  0.000412  ( 0.013050 -0.015545 -0.000076)
 34:   1490.78   0.001882    9.51  0.000394  ( 0.013761  0.014198  0.001733)
 35:   1493.17   0.001244    6.29  0.000260  ( 0.001367  0.001740 -0.015969)
 36:   1764.22   0.039060  197.39  0.006909  ( 0.003745 -0.083037  0.000059)
 37:   3026.85   0.010295   52.03  0.001061  ( 0.032463  0.002743  0.000273)
 38:   3111.71   0.004177   21.11  0.000419  ( 0.000312  0.000103 -0.020466)
 39:   3123.75   0.003080   15.56  0.000308  (-0.000009  0.000035  0.017541)
 40:   3124.54   0.001913    9.67  0.000191  (-0.013765  0.001279 -0.000033)
 41:   3134.70   0.000614    3.10  0.000061  (-0.001511  0.007667 -0.000122)
 42:   3181.58   0.000585    2.96  0.000057  ( 0.001087  0.007497 -0.000016)
 43:   3212.89   0.000061    0.31  0.000006  ( 0.000006 -0.000020 -0.002437)
 44:   3227.76   0.000816    4.12  0.000079  ( 0.003758 -0.008048  0.000021)

--------------------------
THERMOCHEMISTRY AT 298.15K
--------------------------

Temperature         ...   298.15 K
Pressure            ...     1.00 atm
Total Mass          ...   100.12 AMU
Quasi RRHO          ...     True
Cut-Off Frequency   ...     1.00 cm^-1

Throughout the following assumptions are being made:
  (1) The electronic state is orbitally nondegenerate
  (2) There are no thermally accessible electronically excited states
  (3) Hindered rotations indicated by low frequency modes are not
      treated as such but are treated as vibrations and this may
      cause some error
  (4) All equations used are the standard statistical mechanics
      equations for an ideal gas
  (5) All vibrations are strictly harmonic

freq.      75.14  E(vib)   ...       0.49
freq.     164.62  E(vib)   ...       0.39
freq.     214.47  E(vib)   ...       0.34
freq.     297.11  E(vib)   ...       0.27
freq.     351.97  E(vib)   ...       0.23
freq.     430.51  E(vib)   ...       0.18
freq.     658.64  E(vib)   ...       0.08
freq.     753.91  E(vib)   ...       0.06
freq.     795.65  E(vib)   ...       0.05
freq.     845.15  E(vib)   ...       0.04
freq.     851.83  E(vib)   ...       0.04
freq.     918.19  E(vib)   ...       0.03
freq.     918.97  E(vib)   ...       0.03
freq.    1018.08  E(vib)   ...       0.02
freq.    1051.56  E(vib)   ...       0.02
freq.    1084.08  E(vib)   ...       0.02
freq.    1118.03  E(vib)   ...       0.01
freq.    1121.03  E(vib)   ...       0.01
freq.    1164.01  E(vib)   ...       0.01
freq.    1172.97  E(vib)   ...       0.01
freq.    1211.74  E(vib)   ...       0.01
freq.    1214.39  E(vib)   ...       0.01
freq.    1222.46  E(vib)   ...       0.01
freq.    1400.66  E(vib)   ...       0.00
freq.    1450.74  E(vib)   ...       0.00
freq.    1456.55  E(vib)   ...       0.00
freq.    1486.49  E(vib)   ...       0.00
freq.    1490.78  E(vib)   ...       0.00
freq.    1493.17  E(vib)   ...       0.00
freq.    1764.22  E(vib)   ...       0.00
freq.    3026.85  E(vib)   ...       0.00
freq.    3111.71  E(vib)   ...       0.00
freq.    3123.75  E(vib)   ...       0.00
freq.    3124.54  E(vib)   ...       0.00
freq.    3134.70  E(vib)   ...       0.00
freq.    3181.58  E(vib)   ...       0.00
freq.    3212.89  E(vib)   ...       0.00
freq.    3227.76  E(vib)   ...       0.00

------------
INNER ENERGY
------------

The inner energy is: U= E(el) + E(ZPE) + E(vib) + E(rot) + E(trans)
    E(el)   - is the total energy from the electronic structure calculation
              = E(kin-el) + E(nuc-el) + E(el-el) + E(nuc-nuc)
    E(ZPE)  - the the zero temperature vibrational energy from the frequency calculation
    E(vib)  - the the finite temperature correction to E(ZPE) due to population
              of excited vibrational states
    E(rot)  - is the rotational thermal energy
    E(trans)- is the translational thermal energy

Summary of contributions to the inner energy U:
Electronic energy                ...   -345.72442591 Eh
Zero point energy                ...      0.12379767 Eh      77.68 kcal/mol
Thermal vibrational correction   ...      0.00379723 Eh       2.38 kcal/mol
Thermal rotational correction    ...      0.00141627 Eh       0.89 kcal/mol
Thermal translational correction ...      0.00141627 Eh       0.89 kcal/mol
-----------------------------------------------------------------------
Total thermal energy                   -345.59399847 Eh

Summary of corrections to the electronic energy:
(perhaps to be used in another calculation)
Total thermal correction                  0.00662977 Eh       4.16 kcal/mol
Non-thermal (ZPE) correction              0.12379767 Eh      77.68 kcal/mol
-----------------------------------------------------------------------
Total correction                          0.13042744 Eh      81.84 kcal/mol

--------
ENTHALPY
--------

The enthalpy is H = U + kB*T
                kB is Boltzmann's constant
Total thermal energy              ...   -345.59399847 Eh
Thermal Enthalpy correction       ...      0.00094421 Eh       0.59 kcal/mol
-----------------------------------------------------------------------
Total Enthalpy                    ...   -345.59305426 Eh

Note: Only C1 symmetry has been detected, increase convergence thresholds
      if your molecule has a higher symmetry. Symmetry factor of 1.0 is
      used for the rotational entropy correction.

Note: Rotational entropy computed according to Herzberg
Infrared and Raman Spectra, Chapter V,1, Van Nostrand Reinhold, 1945
Point Group:  C1, Symmetry Number:   1
Rotational constants in cm-1:     0.239599     0.053927     0.049512

Vibrational entropy computed according to the QRRHO of S. Grimme
Chem.Eur.J. 2012 18 9955 using a reference frequency of 100.0 cm-1

-------
ENTROPY
-------

The entropy contributions are T*S = T*(S(el)+S(vib)+S(rot)+S(trans))
     S(el)   - electronic entropy
     S(vib)  - vibrational entropy
     S(rot)  - rotational entropy
     S(trans)- translational entropy
The entropies will be listed as multiplied by the temperature to get
units of energy

Electronic entropy                ...      0.00000000 Eh      0.00 kcal/mol
Vibrational entropy               ...      0.00634731 Eh      3.98 kcal/mol
Rotational entropy                ...      0.01298278 Eh      8.15 kcal/mol
Translational entropy             ...      0.01887290 Eh     11.84 kcal/mol
-----------------------------------------------------------------------
Final entropy term                ...      0.03820299 Eh     23.97 kcal/mol

In case the symmetry of your molecule has not been determined correctly
or in case you have a reason to use a different symmetry number we print
out the resulting rotational entropy values for sn=1,12:

 non-linear molecules -----------------------------------
|  sn= 1 | S(rot)=       0.01298278 Eh      8.15 kcal/mol|
|  sn= 2 | S(rot)=       0.01232832 Eh      7.74 kcal/mol|
|  sn= 3 | S(rot)=       0.01194549 Eh      7.50 kcal/mol|
|  sn= 4 | S(rot)=       0.01167386 Eh      7.33 kcal/mol|
|  sn= 5 | S(rot)=       0.01146318 Eh      7.19 kcal/mol|
|  sn= 6 | S(rot)=       0.01129103 Eh      7.09 kcal/mol|
|  sn= 7 | S(rot)=       0.01114548 Eh      6.99 kcal/mol|
|  sn= 8 | S(rot)=       0.01101941 Eh      6.91 kcal/mol|
|  sn= 9 | S(rot)=       0.01090820 Eh      6.84 kcal/mol|
|  sn=10 | S(rot)=       0.01080872 Eh      6.78 kcal/mol|
|  sn=11 | S(rot)=       0.01071873 Eh      6.73 kcal/mol|
|  sn=12 | S(rot)=       0.01063657 Eh      6.67 kcal/mol|
 linear molecules ---------------------------------------
|  Dinfh | S(rot)=       0.00816358 Eh      5.12 kcal/mol|
|  Cinfv | S(rot)=       0.00881803 Eh      5.53 kcal/mol|
 --------------------------------------------------------

-------------------
GIBBS FREE ENERGY
-------------------

                             ****ORCA TERMINATED NORMALLY****
TOTAL RUN TIME: 0 days 0 hours 7 minutes 41 seconds 473 msec
