                         Program Version 6.0.0  -   RELEASE  -
|  1> ! r2SCAN-3c DEF2-TZVP FREQ
|  2> * xyzfile 0 1 censo.xyz
|  3>
|  4>                          ****END OF INPUT****

CARTESIAN COORDINATES (ANGSTROEM)
---------------------------------
  C     -3.200365    0.577562   -0.001577
  O     -2.307397   -0.542080    0.007454
  C     -0.954570   -0.258346    0.001166
  C     -0.098039   -1.361834   -0.001441
  C      1.277234   -1.184087   -0.009490
  C      1.837741    0.102489   -0.015247
  C      0.969495    1.197915   -0.006612
  C     -0.415061    1.027024    0.000588
  N      3.224964    0.278684   -0.095872
  H     -3.066957    1.198399    0.892442
  H     -4.206727    0.156497   -0.003949
  H     -3.058809    1.189577   -0.900416
  H     -0.521050   -2.361629    0.005517
  H      1.929932   -2.052840   -0.011373
  H      1.378152    2.204777   -0.006177
  H     -1.049616    1.905050    0.009044
  H      3.748700   -0.492979    0.294978
  H      3.539517    1.157632    0.292642

 Total Charge           Charge          ....    0
 Multiplicity           Mult            ....    1
 Number of Electrons    NEL             ....   66
 Basis Dimension        Dim             ....  333

ORBITAL ENERGIES
----------------

  NO   OCC          E(Eh)            E(eV)
   0   2.0000     -18.976756      -516.3838
   1   2.0000     -14.163546      -385.4097
   2   2.0000     -10.081214      -274.3238
   3   2.0000     -10.079889      -274.2877
   4   2.0000     -10.066185      -273.9148
   5   2.0000     -10.030604      -272.9466
   6   2.0000     -10.029061      -272.9046
   7   2.0000     -10.028967      -272.9021
   8   2.0000     -10.027039      -272.8496
   9   2.0000      -1.013224       -27.5712
  10   2.0000      -0.881749       -23.9936
  11   2.0000      -0.798623       -21.7316
  12   2.0000      -0.713093       -19.4042
  13   2.0000      -0.699812       -19.0429
  14   2.0000      -0.649845       -17.6832
  15   2.0000      -0.581407       -15.8209
  16   2.0000      -0.553240       -15.0544
  17   2.0000      -0.497518       -13.5381
  18   2.0000      -0.479898       -13.0587
  19   2.0000      -0.465822       -12.6756
  20   2.0000      -0.426932       -11.6174
  21   2.0000      -0.421993       -11.4830
  22   2.0000      -0.411264       -11.1911
  23   2.0000      -0.387250       -10.5376
  24   2.0000      -0.371109       -10.0984
  25   2.0000      -0.363919        -9.9027
  26   2.0000      -0.351074        -9.5532
  27   2.0000      -0.322849        -8.7852
  28   2.0000      -0.311801        -8.4845
  29   2.0000      -0.291912        -7.9433
  30   2.0000      -0.251609        -6.8466
  31   2.0000      -0.231513        -6.2998
  32   2.0000      -0.169423        -4.6102
  33   0.0000      -0.031147        -0.8475
  34   0.0000       0.000511         0.0139
  35   0.0000       0.043535         1.1846
  36   0.0000       0.055484         1.5098
  37   0.0000       0.066655         1.8138

MULLIKEN ATOMIC CHARGES
-----------------------
   0 C :   -0.158452
   1 O :   -0.279015
   2 C :    0.299155
   3 C :   -0.178801
   4 C :   -0.224493
   5 C :    0.303270
   6 C :   -0.264715
   7 C :   -0.220474
   8 N :   -0.447902
   9 H :    0.106119
  10 H :    0.122963
  11 H :    0.107753
  12 H :    0.102295
  13 H :    0.091442
  14 H :    0.090404
  15 H :    0.100901
  16 H :    0.224915
  17 H :    0.224633
Sum of atomic charges:    0.0000000

LOEWDIN ATOMIC CHARGES
----------------------
   0 C :   -0.320674
   1 O :    0.209159
   2 C :   -0.256044
   3 C :   -0.118698
   4 C :   -0.133379
   5 C :   -0.257625
   6 C :   -0.138214
   7 C :   -0.148214
   8 N :   -0.059390
   9 H :    0.104467
  10 H :    0.112461
  11 H :    0.105014
  12 H :    0.148768
  13 H :    0.141872
  14 H :    0.140946
  15 H :    0.146092
  16 H :    0.161808
  17 H :    0.161650

  Mayer bond orders larger than 0.100000
B(  0-C ,  1-O ) :   0.9406 B(  0-C ,  9-H ) :   0.9645 B(  0-C , 10-H ) :   0.9767
B(  0-C , 11-H ) :   0.9651 B(  1-O ,  2-C ) :   1.0918 B(  2-C ,  3-C ) :   1.3571
B(  2-C ,  7-C ) :   1.3079 B(  3-C ,  4-C ) :   1.4570 B(  3-C , 12-H ) :   0.9808
B(  4-C ,  5-C ) :   1.3345 B(  4-C , 13-H ) :   0.9776 B(  5-C ,  6-C ) :   1.3813
B(  5-C ,  8-N ) :   1.0317 B(  6-C ,  7-C ) :   1.3934 B(  6-C , 14-H ) :   0.9641
B(  7-C , 15-H ) :   0.9733 B(  8-N , 16-H ) :   0.9233 B(  8-N , 17-H ) :   0.9234

Dispersion correction           -0.005677732
FINAL SINGLE POINT ENERGY      -402.057513492154

DIPOLE MOMENT
-------------

Method             : SCF
Type of density    : Electron Density
Multiplicity       :   1
Irrep              :   0
Energy             :  -402.0616383892707404 Eh
Relativity type    :
Basis              : AO
                                X                 Y                 Z
Electronic contribution:      1.486117492      -2.289577284      -0.194211593
Nuclear contribution   :     -1.237585643       2.761849085       0.608222690
                        -----------------------------------------
Total Dipole Moment    :      0.248531848       0.472271801       0.414011096
                        -----------------------------------------
Magnitude (a.u.)       :      0.675436097
Magnitude (Debye)      :      1.716822121

VIBRATIONAL FREQUENCIES
-----------------------

Scaling factor for frequencies =  1.000000000  (already applied!)

     0:       0.00 cm**-1
     1:       0.00 cm**-1
     2:       0.00 cm**-1
     3:       0.00 cm**-1
     4:       0.00 cm**-1
     5:       0.00 cm**-1
     6:     102.17 cm**-1
     7:     165.41 cm**-1
     8:     244.93 cm**-1
     9:     259.52 cm**-1
    10:     319.42 cm**-1
    11:     373.32 cm**-1
    12:     376.88 cm**-1
    13:     425.79 cm**-1
    14:     434.35 cm**-1
    15:     514.42 cm**-1
    16:     534.58 cm**-1
    17:     658.23 cm**-1
    18:     677.67 cm**-1
    19:     723.92 cm**-1
    20:     750.53 cm**-1
    21:     795.99 cm**-1
    22:     828.77 cm**-1
    23:     852.02 cm**-1
    24:     896.40 cm**-1
    25:     926.51 cm**-1
    26:    1023.31 cm**-1
    27:    1027.72 cm**-1
    28:    1099.93 cm**-1
    29:    1152.85 cm**-1
    30:    1158.96 cm**-1
    31:    1192.13 cm**-1
    32:    1194.66 cm**-1
    33:    1236.72 cm**-1
    34:    1297.00 cm**-1
    35:    1332.64 cm**-1
    36:    1367.10 cm**-1
    37:    1458.04 cm**-1
    38:    1468.32 cm**-1
    39:    1481.95 cm**-1
    40:    1496.41 cm**-1
    41:    1535.71 cm**-1
    42:    1619.58 cm**-1
    43:    1648.07 cm**-1
    44:    1662.09 cm**-1
    45:    2986.76 cm**-1
    46:    3057.70 cm**-1
    47:    3120.56 cm**-1
    48:    3151.03 cm**-1
    49:    3152.17 cm**-1
    50:    3176.19 cm**-1
    51:    3194.88 cm**-1
    52:    3516.75 cm**-1
    53:    3618.28 cm**-1

IR SPECTRUM
-----------

 Mode   freq       eps      Int      T**2         TX        TY        TZ
       cm**-1   L/(mol*cm) km/mol    a.u.
----------------------------------------------------------------------------
  6:    102.17   0.000891    4.50  0.002723  (-0.012116  0.002417  0.050694)
  7:    165.41   0.000160    0.81  0.000301  ( 0.013468  0.004467  0.009995)
  8:    244.93   0.000513    2.59  0.000654  (-0.015910 -0.020009  0.000239)
  9:    259.52   0.000093    0.47  0.000112  (-0.008767  0.000498  0.005930)
 10:    319.42   0.004166   21.05  0.004070  ( 0.009318 -0.063112  0.000218)
 11:    373.32   0.001360    6.87  0.001137  ( 0.020018  0.002297 -0.027029)
 12:    376.88   0.000233    1.18  0.000193  ( 0.012496 -0.005249 -0.003049)
 13:    425.79   0.000122    0.62  0.000090  (-0.003126  0.008729  0.001943)
 14:    434.35   0.000227    1.15  0.000163  ( 0.004358  0.011929  0.001236)
 15:    514.42   0.007356   37.18  0.004462  (-0.021961 -0.002276  0.063048)
 16:    534.58   0.000496    2.51  0.000289  (-0.015887 -0.005121 -0.003284)
 17:    658.23   0.000297    1.50  0.000141  (-0.009952 -0.003459  0.005438)
 18:    677.67   0.062658  316.65  0.028854  ( 0.154471  0.017640 -0.068422)
 19:    723.92   0.005121   25.88  0.002208  ( 0.045566  0.007914 -0.008288)
 20:    750.53   0.001531    7.73  0.000636  (-0.012744  0.010281  0.019191)
 21:    795.99   0.001266    6.40  0.000496  (-0.006839 -0.002639  0.021034)
 22:    828.77   0.014971   75.66  0.005637  (-0.019161  0.000801  0.072590)
 23:    852.02   0.002115   10.69  0.000775  (-0.014727 -0.001846  0.023543)
 24:    896.40   0.000090    0.45  0.000031  ( 0.005420  0.000238 -0.001373)
 25:    926.51   0.000105    0.53  0.000035  ( 0.003562 -0.000406  0.004741)
 26:   1023.31   0.007678   38.80  0.002341  (-0.041324  0.024915 -0.003601)
 27:   1027.72   0.008061   40.74  0.002448  (-0.040809  0.027967 -0.000220)
 28:   1099.93   0.000982    4.96  0.000279  ( 0.000569 -0.016683  0.000026)
 29:   1152.85   0.002090   10.56  0.000566  ( 0.009175  0.021944 -0.000132)
 30:   1158.96   0.000126    0.64  0.000034  (-0.000403 -0.000239 -0.005810)
 31:   1192.13   0.004289   21.67  0.001123  ( 0.032242 -0.009115 -0.000113)
 32:   1194.66   0.004179   21.12  0.001092  (-0.029924  0.014006 -0.000140)
 33:   1236.72   0.044400  224.38  0.011203  ( 0.105839 -0.001086  0.000648)
 34:   1297.00   0.006470   32.70  0.001557  ( 0.039448  0.000452  0.000642)
 35:   1332.64   0.000722    3.65  0.000169  (-0.011123  0.006743 -0.000096)
 36:   1367.10   0.003388   17.12  0.000773  (-0.012771  0.024704 -0.000162)
 37:   1458.04   0.001261    6.37  0.000270  (-0.015026 -0.006644  0.000183)
 38:   1468.32   0.000573    2.90  0.000122  ( 0.010817 -0.002187  0.000054)
 39:   1481.95   0.001570    7.94  0.000331  (-0.000711  0.000039 -0.018170)
 40:   1496.41   0.007938   40.12  0.001655  ( 0.040669 -0.001183 -0.000225)
 41:   1535.71   0.043539  220.03  0.008847  ( 0.093867  0.005975 -0.000826)
 42:   1619.58   0.000406    2.05  0.000078  ( 0.007930  0.003904  0.000409)
 43:   1648.07   0.001152    5.82  0.000218  ( 0.010285 -0.002086  0.010392)
 44:   1662.09   0.011189   56.55  0.002101  (-0.041650 -0.006890 -0.017850)
 45:   2986.76   0.012104   61.17  0.001265  ( 0.026945 -0.023209 -0.000130)
 46:   3057.70   0.008403   42.47  0.000858  ( 0.000014  0.000252  0.029284)
 47:   3120.56   0.004521   22.85  0.000452  (-0.019451 -0.008590 -0.000008)
 48:   3151.03   0.002441   12.34  0.000242  ( 0.003644  0.015115 -0.000031)
 49:   3152.17   0.004386   22.16  0.000434  (-0.020836  0.000210  0.000027)
 50:   3176.19   0.001148    5.80  0.000113  (-0.000783 -0.010590  0.000021)
 51:   3194.88   0.001320    6.67  0.000129  ( 0.007830 -0.008221 -0.000032)
 52:   3516.75   0.001662    8.40  0.000148  (-0.010952 -0.000985 -0.005156)
 53:   3618.28   0.002041   10.31  0.000176  (-0.001516  0.013179  0.000023)

--------------------------
THERMOCHEMISTRY AT 298.15K
--------------------------

Temperature         ...   298.15 K
Pressure            ...     1.00 atm
Total Mass          ...   123.15 AMU
Quasi RRHO          ...     True
Cut-Off Frequency   ...     1.00 cm^-1

Throughout the following assumptions are being made:
  (1) The electronic state is orbitally nondegenerate
  (2) There are no thermally accessible electronically excited states
  (3) Hindered rotations indicated by low frequency modes are not
      treated as such but are treated as vibrations and this may
      cause some error
  (4) All equations used are the standard statistical mechanics
      equations for an ideal gas
  (5) All vibrations are strictly harmonic

freq.     102.17  E(vib)   ...       0.46
freq.     165.41  E(vib)   ...       0.39
freq.     244.93  E(vib)   ...       0.31
freq.     259.52  E(vib)   ...       0.30
freq.     319.42  E(vib)   ...       0.25
freq.     373.32  E(vib)   ...       0.21
freq.     376.88  E(vib)   ...       0.21
freq.     425.79  E(vib)   ...       0.18
freq.     434.35  E(vib)   ...       0.17
freq.     514.42  E(vib)   ...       0.13
freq.     534.58  E(vib)   ...       0.13
freq.     658.23  E(vib)   ...       0.08
freq.     677.67  E(vib)   ...       0.08
freq.     723.92  E(vib)   ...       0.06
freq.     750.53  E(vib)   ...       0.06
freq.     795.99  E(vib)   ...       0.05
freq.     828.77  E(vib)   ...       0.04
freq.     852.02  E(vib)   ...       0.04
freq.     896.40  E(vib)   ...       0.03
freq.     926.51  E(vib)   ...       0.03
freq.    1023.31  E(vib)   ...       0.02
freq.    1027.72  E(vib)   ...       0.02
freq.    1099.93  E(vib)   ...       0.02
freq.    1152.85  E(vib)   ...       0.01
freq.    1158.96  E(vib)   ...       0.01
freq.    1192.13  E(vib)   ...       0.01
freq.    1194.66  E(vib)   ...       0.01
freq.    1236.72  E(vib)   ...       0.01
freq.    1297.00  E(vib)   ...       0.01
freq.    1332.64  E(vib)   ...       0.01
freq.    1367.10  E(vib)   ...       0.01
freq.    1458.04  E(vib)   ...       0.00
freq.    1468.32  E(vib)   ...       0.00
freq.    1481.95  E(vib)   ...       0.00
freq.    1496.41  E(vib)   ...       0.00
freq.    1535.71  E(vib)   ...       0.00
freq.    1619.58  E(vib)   ...       0.00
freq.    1648.07  E(vib)   ...       0.00
freq.    1662.09  E(vib)   ...       0.00
freq.    2986.76  E(vib)   ...       0.00
freq.    3057.70  E(vib)   ...       0.00
freq.    3120.56  E(vib)   ...       0.00
freq.    3151.03  E(vib)   ...       0.00
freq.    3152.17  E(vib)   ...       0.00
freq.    3176.19  E(vib)   ...       0.00
freq.    3194.88  E(vib)   ...       0.00
freq.    3516.75  E(vib)   ...       0.00
freq.    3618.28  E(vib)   ...       0.00

------------
INNER ENERGY
------------

The inner energy is: U= E(el) + E(ZPE) + E(vib) + E(rot) + E(trans)
    E(el)   - is the total energy from the electronic structure calculation
              = E(kin-el) + E(nuc-el) + E(el-el) + E(nuc-nuc)
    E(ZPE)  - the the zero temperature vibrational energy from the frequency calculation
    E(vib)  - the the finite temperature correction to E(ZPE) due to population
              of excited vibrational states
    E(rot)  - is the rotational thermal energy
    E(trans)- is the translational thermal energy

Summary of contributions to the inner energy U:
Electronic energy                ...   -402.05751349 Eh
Zero point energy                ...      0.14873775 Eh      93.33 kcal/mol
Thermal vibrational correction   ...      0.00536825 Eh       3.37 kcal/mol
Thermal rotational correction    ...      0.00141627 Eh       0.89 kcal/mol
Thermal translational correction ...      0.00141627 Eh       0.89 kcal/mol
-----------------------------------------------------------------------
Total thermal energy                   -401.90057494 Eh

Summary of corrections to the electronic energy:
(perhaps to be used in another calculation)
Total thermal correction                  0.00820080 Eh       5.15 kcal/mol
Non-thermal (ZPE) correction              0.14873775 Eh      93.33 kcal/mol
-----------------------------------------------------------------------
Total correction                          0.15693855 Eh      98.48 kcal/mol

--------
ENTHALPY
--------

The enthalpy is H = U + kB*T
                kB is Boltzmann's constant
Total thermal energy              ...   -401.90057494 Eh
Thermal Enthalpy correction       ...      0.00094421 Eh       0.59 kcal/mol
-----------------------------------------------------------------------
Total Enthalpy                    ...   -401.89963074 Eh

Note: Only C1 symmetry has been detected, increase convergence thresholds
      if your molecule has a higher symmetry. Symmetry factor of 1.0 is
      used for the rotational entropy correction.

Note: Rotational entropy computed according to Herzberg
Infrared and Raman Spectra, Chapter V,1, Van Nostrand Reinhold, 1945
Point Group:  C1, Symmetry Number:   1
Rotational constants in cm-1:     0.161217     0.032991     0.027557

Vibrational entropy computed according to the QRRHO of S. Grimme
Chem.Eur.J. 2012 18 9955 using a reference frequency of 100.0 cm-1

-------
ENTROPY
-------

The entropy contributions are T*S = T*(S(el)+S(vib)+S(rot)+S(trans))
     S(el)   - electronic entropy
     S(vib)  - vibrational entropy
     S(rot)  - rotational entropy
     S(trans)- translational entropy
The entropies will be listed as multiplied by the temperature to get
units of energy

Electronic entropy                ...      0.00000000 Eh      0.00 kcal/mol
Vibrational entropy               ...      0.00858712 Eh      5.39 kcal/mol
Rotational entropy                ...      0.01367843 Eh      8.58 kcal/mol
Translational entropy             ...      0.01916621 Eh     12.03 kcal/mol
-----------------------------------------------------------------------
Final entropy term                ...      0.04143176 Eh     26.00 kcal/mol

In case the symmetry of your molecule has not been determined correctly
or in case you have a reason to use a different symmetry number we print
out the resulting rotational entropy values for sn=1,12:

 non-linear molecules -----------------------------------
|  sn= 1 | S(rot)=       0.01367843 Eh      8.58 kcal/mol|
|  sn= 2 | S(rot)=       0.01302397 Eh      8.17 kcal/mol|
|  sn= 3 | S(rot)=       0.01264114 Eh      7.93 kcal/mol|
|  sn= 4 | S(rot)=       0.01236952 Eh      7.76 kcal/mol|
|  sn= 5 | S(rot)=       0.01215883 Eh      7.63 kcal/mol|
|  sn= 6 | S(rot)=       0.01198669 Eh      7.52 kcal/mol|
|  sn= 7 | S(rot)=       0.01184114 Eh      7.43 kcal/mol|
|  sn= 8 | S(rot)=       0.01171506 Eh      7.35 kcal/mol|
|  sn= 9 | S(rot)=       0.01160385 Eh      7.28 kcal/mol|
|  sn=10 | S(rot)=       0.01150437 Eh      7.22 kcal/mol|
|  sn=11 | S(rot)=       0.01141438 Eh      7.16 kcal/mol|
|  sn=12 | S(rot)=       0.01133223 Eh      7.11 kcal/mol|

                             ****ORCA TERMINATED NORMALLY****
TOTAL RUN TIME: 0 days 0 hours 15 minutes 0 seconds 732 msec
