                         Program Version 6.0.0  -   RELEASE  -
|  1> ! r2SCAN-3c DEF2-TZVP FREQ
|  2> * xyzfile 0 1 vacuum_censo.xyz
|  3>
|  4>                          ****END OF INPUT****

CARTESIAN COORDINATES (ANGSTROEM)
---------------------------------
  C     -3.192725    0.569209    0.003037
  O     -2.299962   -0.535130   -0.009411
  C     -0.957802   -0.251755   -0.003510
  C     -0.102031   -1.355533    0.000378
  C      1.271192   -1.180775    0.007146
  C      1.834864    0.102875    0.008371
  C      0.971733    1.198794    0.003208
  C     -0.412347    1.030716   -0.002344
  N      3.226516    0.274431    0.087243
  H     -3.068289    1.197357   -0.889923
  H     -3.056399    1.185785    0.902221
  H     -4.197598    0.143983    0.006697
  H     -0.534097   -2.350459   -0.001756
  H      1.919924   -2.052520    0.018887
  H      1.380697    2.205544    0.011301
  H     -1.043614    1.910805   -0.007141
  H      3.751007   -0.493090   -0.306181
  H      3.548651    1.150658   -0.296486

 Total Charge           Charge          ....    0
 Multiplicity           Mult            ....    1
 Number of Electrons    NEL             ....   66
 Basis Dimension        Dim             ....  333

ORBITAL ENERGIES
----------------

  NO   OCC          E(Eh)            E(eV)
   0   2.0000     -18.977967      -516.4167
   1   2.0000     -14.162681      -385.3861
   2   2.0000     -10.081331      -274.3270
   3   2.0000     -10.079502      -274.2772
   4   2.0000     -10.065769      -273.9035
   5   2.0000     -10.029992      -272.9300
   6   2.0000     -10.028556      -272.8909
   7   2.0000     -10.028443      -272.8878
   8   2.0000     -10.026147      -272.8253
   9   2.0000      -1.020179       -27.7605
  10   2.0000      -0.880571       -23.9616
  11   2.0000      -0.799272       -21.7493
  12   2.0000      -0.713745       -19.4220
  13   2.0000      -0.701398       -19.0860
  14   2.0000      -0.650166       -17.6919
  15   2.0000      -0.581361       -15.8196
  16   2.0000      -0.553537       -15.0625
  17   2.0000      -0.499090       -13.5809
  18   2.0000      -0.479680       -13.0528
  19   2.0000      -0.467055       -12.7092
  20   2.0000      -0.429005       -11.6738
  21   2.0000      -0.423297       -11.5185
  22   2.0000      -0.410990       -11.1836
  23   2.0000      -0.387072       -10.5328
  24   2.0000      -0.371310       -10.1038
  25   2.0000      -0.363780        -9.8990
  26   2.0000      -0.351494        -9.5646
  27   2.0000      -0.323032        -8.7901
  28   2.0000      -0.312016        -8.4904
  29   2.0000      -0.291768        -7.9394
  30   2.0000      -0.251738        -6.8501
  31   2.0000      -0.231509        -6.2997
  32   2.0000      -0.169332        -4.6078
  33   0.0000      -0.030615        -0.8331
  34   0.0000       0.000993         0.0270
  35   0.0000       0.044462         1.2099
  36   0.0000       0.055655         1.5145
  37   0.0000       0.067875         1.8470

MULLIKEN ATOMIC CHARGES
-----------------------
   0 C :   -0.156329
   1 O :   -0.277298
   2 C :    0.300065
   3 C :   -0.175276
   4 C :   -0.226657
   5 C :    0.306034
   6 C :   -0.266326
   7 C :   -0.221029
   8 N :   -0.449523
   9 H :    0.104635
  10 H :    0.106166
  11 H :    0.122261
  12 H :    0.101563
  13 H :    0.091716
  14 H :    0.090829
  15 H :    0.100853
  16 H :    0.224410
  17 H :    0.223906
Sum of atomic charges:   -0.0000000

LOEWDIN ATOMIC CHARGES
----------------------
   0 C :   -0.327668
   1 O :    0.223371
   2 C :   -0.262611
   3 C :   -0.118527
   4 C :   -0.133246
   5 C :   -0.255710
   6 C :   -0.138448
   7 C :   -0.148058
   8 N :   -0.060644
   9 H :    0.104781
  10 H :    0.105302
  11 H :    0.112641
  12 H :    0.148556
  13 H :    0.142317
  14 H :    0.141339
  15 H :    0.145976
  16 H :    0.160423
  17 H :    0.160207

  Mayer bond orders larger than 0.100000
B(  0-C ,  1-O ) :   0.9411 B(  0-C ,  9-H ) :   0.9642 B(  0-C , 10-H ) :   0.9648
B(  0-C , 11-H ) :   0.9773 B(  1-O ,  2-C ) :   1.0921 B(  2-C ,  3-C ) :   1.3552
B(  2-C ,  7-C ) :   1.3090 B(  3-C ,  4-C ) :   1.4612 B(  3-C , 12-H ) :   0.9809
B(  4-C ,  5-C ) :   1.3338 B(  4-C , 13-H ) :   0.9777 B(  5-C ,  6-C ) :   1.3854
B(  5-C ,  8-N ) :   1.0275 B(  6-C ,  7-C ) :   1.3917 B(  6-C , 14-H ) :   0.9642
B(  7-C , 15-H ) :   0.9729 B(  8-N , 16-H ) :   0.9242 B(  8-N , 17-H ) :   0.9244

Dispersion correction           -0.005683091
FINAL SINGLE POINT ENERGY      -402.057838058856

DIPOLE MOMENT
-------------

Method             : SCF
Type of density    : Electron Density
Multiplicity       :   1
Irrep              :   0
Energy             :  -402.0619822572932094 Eh
Relativity type    :
Basis              : AO
                                X                 Y                 Z
Electronic contribution:      1.467396917      -2.285257824       0.168616397
Nuclear contribution   :     -1.238000645       2.742230913      -0.575392738
                        -----------------------------------------
Total Dipole Moment    :      0.229396272       0.456973089      -0.406776341
                        -----------------------------------------
Magnitude (a.u.)       :      0.653386597
Magnitude (Debye)      :      1.660776746

VIBRATIONAL FREQUENCIES
-----------------------

Scaling factor for frequencies =  1.000000000  (already applied!)

     0:       0.00 cm**-1
     1:       0.00 cm**-1
     2:       0.00 cm**-1
     3:       0.00 cm**-1
     4:       0.00 cm**-1
     5:       0.00 cm**-1
     6:      90.87 cm**-1
     7:     160.00 cm**-1
     8:     240.48 cm**-1
     9:     270.43 cm**-1
    10:     273.61 cm**-1
    11:     370.86 cm**-1
    12:     375.32 cm**-1
    13:     423.30 cm**-1
    14:     434.95 cm**-1
    15:     511.63 cm**-1
    16:     535.32 cm**-1
    17:     658.94 cm**-1
    18:     665.54 cm**-1
    19:     723.20 cm**-1
    20:     754.19 cm**-1
    21:     795.83 cm**-1
    22:     828.61 cm**-1
    23:     853.90 cm**-1
    24:     896.63 cm**-1
    25:     926.24 cm**-1
    26:    1026.82 cm**-1
    27:    1055.57 cm**-1
    28:    1095.41 cm**-1
    29:    1151.67 cm**-1
    30:    1168.93 cm**-1
    31:    1195.65 cm**-1
    32:    1204.88 cm**-1
    33:    1258.93 cm**-1
    34:    1291.55 cm**-1
    35:    1334.46 cm**-1
    36:    1372.53 cm**-1
    37:    1466.56 cm**-1
    38:    1471.08 cm**-1
    39:    1483.08 cm**-1
    40:    1500.17 cm**-1
    41:    1540.68 cm**-1
    42:    1623.47 cm**-1
    43:    1652.62 cm**-1
    44:    1662.82 cm**-1
    45:    2969.59 cm**-1
    46:    3034.07 cm**-1
    47:    3114.89 cm**-1
    48:    3150.73 cm**-1
    49:    3152.03 cm**-1
    50:    3183.47 cm**-1
    51:    3196.72 cm**-1
    52:    3539.06 cm**-1
    53:    3638.02 cm**-1

IR SPECTRUM
-----------

 Mode   freq       eps      Int      T**2         TX        TY        TZ
       cm**-1   L/(mol*cm) km/mol    a.u.
----------------------------------------------------------------------------
  6:     90.87   0.000901    4.55  0.003093  ( 0.010845 -0.004697  0.054344)
  7:    160.00   0.000131    0.66  0.000256  (-0.014357 -0.004872  0.005149)
  8:    240.48   0.000516    2.61  0.000669  (-0.016548 -0.019880 -0.000290)
  9:    270.43   0.000427    2.16  0.000493  (-0.010898  0.018381 -0.006039)
 10:    273.61   0.003958   20.00  0.004514  (-0.008050  0.066670  0.002131)
 11:    370.86   0.001261    6.37  0.001061  (-0.019581 -0.003249 -0.025835)
 12:    375.32   0.000346    1.75  0.000288  (-0.014864  0.006834 -0.004497)
 13:    423.30   0.000091    0.46  0.000067  ( 0.003184 -0.007142  0.002403)
 14:    434.95   0.000175    0.89  0.000126  (-0.002648 -0.010811  0.001363)
 15:    511.63   0.007708   38.95  0.004701  ( 0.023699  0.002415  0.064294)
 16:    535.32   0.000420    2.12  0.000245  ( 0.014162  0.005276 -0.004070)
 17:    658.94   0.002272   11.48  0.001076  ( 0.028968  0.004970  0.014565)
 18:    665.54   0.062211  314.39  0.029170  (-0.154537 -0.016008 -0.070936)
 19:    723.20   0.003954   19.98  0.001706  ( 0.040041  0.006070  0.008121)
 20:    754.19   0.000815    4.12  0.000337  (-0.000930 -0.011797  0.014044)
 21:    795.83   0.001214    6.13  0.000476  ( 0.005679  0.001385  0.021018)
 22:    828.61   0.014671   74.14  0.005525  ( 0.016568 -0.000765  0.072458)
 23:    853.90   0.001366    6.91  0.000499  ( 0.011366  0.001941  0.019142)
 24:    896.63   0.000069    0.35  0.000024  (-0.004630  0.000475 -0.001532)
 25:    926.24   0.000069    0.35  0.000023  (-0.002916 -0.000110  0.003839)
 26:   1026.82   0.000083    0.42  0.000025  ( 0.004425 -0.000502 -0.002300)
 27:   1055.57   0.013795   69.72  0.004078  ( 0.052078 -0.036898 -0.002202)
 28:   1095.41   0.000960    4.85  0.000273  (-0.002280  0.016375  0.000045)
 29:   1151.67   0.002102   10.62  0.000569  (-0.006328 -0.023009 -0.000064)
 30:   1168.93   0.000134    0.68  0.000036  ( 0.000319  0.000099 -0.005968)
 31:   1195.65   0.000948    4.79  0.000247  (-0.014423  0.006279 -0.000133)
 32:   1204.88   0.002952   14.92  0.000765  ( 0.023345 -0.014815 -0.000102)
 33:   1258.93   0.053980  272.79  0.013380  (-0.115627  0.003194  0.000832)
 34:   1291.55   0.002656   13.42  0.000642  (-0.025299 -0.000986  0.000794)
 35:   1334.46   0.000835    4.22  0.000195  ( 0.012998 -0.005128 -0.000084)
 36:   1372.53   0.004160   21.02  0.000946  ( 0.017673 -0.025170 -0.000202)
 37:   1466.56   0.001211    6.12  0.000258  ( 0.014151  0.007569  0.000324)
 38:   1471.08   0.001081    5.46  0.000229  (-0.015039  0.001760 -0.000050)
 39:   1483.08   0.001548    7.82  0.000326  ( 0.000887  0.000005 -0.018025)
 40:   1500.17   0.008177   41.32  0.001701  ( 0.041226 -0.001152  0.000170)
 41:   1540.68   0.046220  233.58  0.009362  (-0.096610 -0.005281 -0.000672)
 42:   1623.47   0.000659    3.33  0.000127  (-0.010409 -0.004267  0.000210)
 43:   1652.62   0.004388   22.18  0.000829  (-0.024529 -0.000241  0.015063)
 44:   1662.82   0.007201   36.39  0.001351  ( 0.033221  0.006883 -0.014154)
 45:   2969.59   0.012729   64.33  0.001338  (-0.027429  0.024191 -0.000209)
 46:   3034.07   0.008990   45.43  0.000925  (-0.000098 -0.000205  0.030407)
 47:   3114.89   0.004922   24.87  0.000493  ( 0.020734  0.007949 -0.000001)
 48:   3150.73   0.002558   12.93  0.000253  (-0.003613 -0.015502 -0.000027)
 49:   3152.03   0.004337   21.92  0.000429  ( 0.020697 -0.001003  0.000023)
 50:   3183.47   0.001110    5.61  0.000109  ( 0.002436  0.010142  0.000010)
 51:   3196.72   0.001408    7.12  0.000137  (-0.008346  0.008233 -0.000017)
 52:   3539.06   0.001780    8.99  0.000157  ( 0.011389  0.000951 -0.005130)
 53:   3638.02   0.001992   10.07  0.000171  ( 0.001385 -0.012999 -0.000034)

--------------------------
THERMOCHEMISTRY AT 298.15K
--------------------------

Temperature         ...   298.15 K
Pressure            ...     1.00 atm
Total Mass          ...   123.15 AMU
Quasi RRHO          ...     True
Cut-Off Frequency   ...     1.00 cm^-1

Throughout the following assumptions are being made:
  (1) The electronic state is orbitally nondegenerate
  (2) There are no thermally accessible electronically excited states
  (3) Hindered rotations indicated by low frequency modes are not
      treated as such but are treated as vibrations and this may
      cause some error
  (4) All equations used are the standard statistical mechanics
      equations for an ideal gas
  (5) All vibrations are strictly harmonic

freq.      90.87  E(vib)   ...       0.47
freq.     160.00  E(vib)   ...       0.39
freq.     240.48  E(vib)   ...       0.31
freq.     270.43  E(vib)   ...       0.29
freq.     273.61  E(vib)   ...       0.29
freq.     370.86  E(vib)   ...       0.21
freq.     375.32  E(vib)   ...       0.21
freq.     423.30  E(vib)   ...       0.18
freq.     434.95  E(vib)   ...       0.17
freq.     511.63  E(vib)   ...       0.14
freq.     535.32  E(vib)   ...       0.13
freq.     658.94  E(vib)   ...       0.08
freq.     665.54  E(vib)   ...       0.08
freq.     723.20  E(vib)   ...       0.07
freq.     754.19  E(vib)   ...       0.06
freq.     795.83  E(vib)   ...       0.05
freq.     828.61  E(vib)   ...       0.04
freq.     853.90  E(vib)   ...       0.04
freq.     896.63  E(vib)   ...       0.03
freq.     926.24  E(vib)   ...       0.03
freq.    1026.82  E(vib)   ...       0.02
freq.    1055.57  E(vib)   ...       0.02
freq.    1095.41  E(vib)   ...       0.02
freq.    1151.67  E(vib)   ...       0.01
freq.    1168.93  E(vib)   ...       0.01
freq.    1195.65  E(vib)   ...       0.01
freq.    1204.88  E(vib)   ...       0.01
freq.    1258.93  E(vib)   ...       0.01
freq.    1291.55  E(vib)   ...       0.01
freq.    1334.46  E(vib)   ...       0.01
freq.    1372.53  E(vib)   ...       0.01
freq.    1466.56  E(vib)   ...       0.00
freq.    1471.08  E(vib)   ...       0.00
freq.    1483.08  E(vib)   ...       0.00
freq.    1500.17  E(vib)   ...       0.00
freq.    1540.68  E(vib)   ...       0.00
freq.    1623.47  E(vib)   ...       0.00
freq.    1652.62  E(vib)   ...       0.00
freq.    1662.82  E(vib)   ...       0.00
freq.    2969.59  E(vib)   ...       0.00
freq.    3034.07  E(vib)   ...       0.00
freq.    3114.89  E(vib)   ...       0.00
freq.    3150.73  E(vib)   ...       0.00
freq.    3152.03  E(vib)   ...       0.00
freq.    3183.47  E(vib)   ...       0.00
freq.    3196.72  E(vib)   ...       0.00
freq.    3539.06  E(vib)   ...       0.00
freq.    3638.02  E(vib)   ...       0.00

------------
INNER ENERGY
------------

The inner energy is: U= E(el) + E(ZPE) + E(vib) + E(rot) + E(trans)
    E(el)   - is the total energy from the electronic structure calculation
              = E(kin-el) + E(nuc-el) + E(el-el) + E(nuc-nuc)
    E(ZPE)  - the the zero temperature vibrational energy from the frequency calculation
    E(vib)  - the the finite temperature correction to E(ZPE) due to population
              of excited vibrational states
    E(rot)  - is the rotational thermal energy
    E(trans)- is the translational thermal energy

Summary of contributions to the inner energy U:
Electronic energy                ...   -402.05783806 Eh
Zero point energy                ...      0.14882204 Eh      93.39 kcal/mol
Thermal vibrational correction   ...      0.00545279 Eh       3.42 kcal/mol
Thermal rotational correction    ...      0.00141627 Eh       0.89 kcal/mol
Thermal translational correction ...      0.00141627 Eh       0.89 kcal/mol
-----------------------------------------------------------------------
Total thermal energy                   -401.90073068 Eh

Summary of corrections to the electronic energy:
(perhaps to be used in another calculation)
Total thermal correction                  0.00828534 Eh       5.20 kcal/mol
Non-thermal (ZPE) correction              0.14882204 Eh      93.39 kcal/mol
-----------------------------------------------------------------------
Total correction                          0.15710738 Eh      98.59 kcal/mol

--------
ENTHALPY
--------

The enthalpy is H = U + kB*T
                kB is Boltzmann's constant
Total thermal energy              ...   -401.90073068 Eh
Thermal Enthalpy correction       ...      0.00094421 Eh       0.59 kcal/mol
-----------------------------------------------------------------------
Total Enthalpy                    ...   -401.89978647 Eh

Note: Only C1 symmetry has been detected, increase convergence thresholds
      if your molecule has a higher symmetry. Symmetry factor of 1.0 is
      used for the rotational entropy correction.

Note: Rotational entropy computed according to Herzberg
Infrared and Raman Spectra, Chapter V,1, Van Nostrand Reinhold, 1945
Point Group:  C1, Symmetry Number:   1
Rotational constants in cm-1:     0.162076     0.033071     0.027638

Vibrational entropy computed according to the QRRHO of S. Grimme
Chem.Eur.J. 2012 18 9955 using a reference frequency of 100.0 cm-1

-------
ENTROPY
-------

The entropy contributions are T*S = T*(S(el)+S(vib)+S(rot)+S(trans))
     S(el)   - electronic entropy
     S(vib)  - vibrational entropy
     S(rot)  - rotational entropy
     S(trans)- translational entropy
The entropies will be listed as multiplied by the temperature to get
units of energy

Electronic entropy                ...      0.00000000 Eh      0.00 kcal/mol
Vibrational entropy               ...      0.00877507 Eh      5.51 kcal/mol
Rotational entropy                ...      0.01367340 Eh      8.58 kcal/mol
Translational entropy             ...      0.01916621 Eh     12.03 kcal/mol
-----------------------------------------------------------------------
Final entropy term                ...      0.04161468 Eh     26.11 kcal/mol

In case the symmetry of your molecule has not been determined correctly
or in case you have a reason to use a different symmetry number we print
out the resulting rotational entropy values for sn=1,12:

 non-linear molecules -----------------------------------
|  sn= 1 | S(rot)=       0.01367340 Eh      8.58 kcal/mol|
|  sn= 2 | S(rot)=       0.01301894 Eh      8.17 kcal/mol|
|  sn= 3 | S(rot)=       0.01263611 Eh      7.93 kcal/mol|
|  sn= 4 | S(rot)=       0.01236448 Eh      7.76 kcal/mol|
|  sn= 5 | S(rot)=       0.01215380 Eh      7.63 kcal/mol|
|  sn= 6 | S(rot)=       0.01198165 Eh      7.52 kcal/mol|
|  sn= 7 | S(rot)=       0.01183611 Eh      7.43 kcal/mol|
|  sn= 8 | S(rot)=       0.01171003 Eh      7.35 kcal/mol|
|  sn= 9 | S(rot)=       0.01159882 Eh      7.28 kcal/mol|
|  sn=10 | S(rot)=       0.01149934 Eh      7.22 kcal/mol|
|  sn=11 | S(rot)=       0.01140935 Eh      7.16 kcal/mol|
|  sn=12 | S(rot)=       0.01132719 Eh      7.11 kcal/mol|

                             ****ORCA TERMINATED NORMALLY****
TOTAL RUN TIME: 0 days 0 hours 14 minutes 58 seconds 440 msec
