                         Program Version 6.0.1  -  RELEASE   -
|  1> ! r2scan-3c def2/J RI DEFGRID2 scfconv6 printgap
|  2> %output
|  3>     printlevel normal
|  4> end
|  5> * xyz 0 1
|  6> C 2.5251120586 2.553822377 1.2688807625
|  7> C 2.0408880419 1.7330478597 0.0756372013
|  8> C 2.9549495042 0.5120917361 -0.2007620048
|  9> C 2.010376246 -0.6449060437 -0.0767458338
| 10> C 2.2019545915 -1.9965275005 -0.2540362745
| 11> C 1.1214491213 -2.85085269 -0.0792010822
| 12> C -0.1224646496 -2.3534516213 0.2662738314
| 13> C -0.3180480355 -0.9918475927 0.4545240639
| 14> C 0.7599163837 -0.1369144314 0.2722792658
| 15> O 0.7357589846 1.2049423086 0.4044556334
| 16> O -1.5629595593 -0.489943948 0.8295784227
| 17> C -2.4606261293 -0.3055396953 -0.1775287838
| 18> O -2.2642474792 -0.5782798344 -1.3327968966
| 19> N -3.6011140428 0.2105740189 0.3276653145
| 20> C -4.7313570304 0.5429729664 -0.5002440759
| 21> C 1.8829996944 2.6105084278 -1.165409374
| 22> H 2.5973076363 1.9220345982 2.1512966846
| 23> H 3.500315512 2.9837935024 1.0561318379
| 24> H 1.8207972866 3.3551910148 1.4759336169
| 25> H 3.400610896 0.5651039609 -1.1950802841
| 26> H 3.7636942388 0.4451651446 0.5298698269
| 27> H 3.1718087005 -2.3820209537 -0.529439752
| 28> H 1.2481740527 -3.9127448647 -0.2210283817
| 29> H -0.9646172394 -3.0165740304 0.3896091046
| 30> H -3.6253127508 0.4291450213 1.3101735391
| 31> H -4.9261573253 1.6175089138 -0.485104453
| 32> H -5.6240555954 0.0120066994 -0.1640708771
| 33> H -4.4897547001 0.2360985038 -1.5163603722
| 34> H 1.5029693754 2.0150521956 -1.9925734935
| 35> H 2.839634619 3.0443128043 -1.4446998927
| 36> H 1.1747270225 3.4101030544 -0.9641176303
| 37> *
| 38>
| 39>                          ****END OF INPUT****

CARTESIAN COORDINATES (ANGSTROEM)
---------------------------------
  C      2.525112    2.553822    1.268881
  C      2.040888    1.733048    0.075637
  C      2.954950    0.512092   -0.200762
  C      2.010376   -0.644906   -0.076746
  C      2.201955   -1.996528   -0.254036
  C      1.121449   -2.850853   -0.079201
  C     -0.122465   -2.353452    0.266274
  C     -0.318048   -0.991848    0.454524
  C      0.759916   -0.136914    0.272279
  O      0.735759    1.204942    0.404456
  O     -1.562960   -0.489944    0.829578
  C     -2.460626   -0.305540   -0.177529
  O     -2.264247   -0.578280   -1.332797
  N     -3.601114    0.210574    0.327665
  C     -4.731357    0.542973   -0.500244
  C      1.883000    2.610508   -1.165409
  H      2.597308    1.922035    2.151297
  H      3.500316    2.983794    1.056132
  H      1.820797    3.355191    1.475934
  H      3.400611    0.565104   -1.195080
  H      3.763694    0.445165    0.529870
  H      3.171809   -2.382021   -0.529440
  H      1.248174   -3.912745   -0.221028
  H     -0.964617   -3.016574    0.389609
  H     -3.625313    0.429145    1.310174
  H     -4.926157    1.617509   -0.485104
  H     -5.624056    0.012007   -0.164071
  H     -4.489755    0.236099   -1.516360
  H      1.502969    2.015052   -1.992573
  H      2.839635    3.044313   -1.444700
  H      1.174727    3.410103   -0.964118

 Total Charge           Charge          ....    0
 Multiplicity           Mult            ....    1
 Number of Electrons    NEL             ....  118
 Basis Dimension        Dim             ....  399

ORBITAL ENERGIES
----------------

  NO   OCC          E(Eh)            E(eV)
   0   2.0000     -18.995404      -516.8912
   1   2.0000     -18.980210      -516.4778
   2   2.0000     -18.912470      -514.6345
   3   2.0000     -14.186012      -386.0210
   4   2.0000     -10.166930      -276.6562
   5   2.0000     -10.105122      -274.9744
   6   2.0000     -10.089997      -274.5628
   7   2.0000     -10.087638      -274.4986
   8   2.0000     -10.063678      -273.8466
   9   2.0000     -10.043245      -273.2906
  10   2.0000     -10.038008      -273.1481
  11   2.0000     -10.032031      -272.9854
  12   2.0000     -10.032011      -272.9849
  13   2.0000     -10.026894      -272.8456
  14   2.0000     -10.026745      -272.8416
  15   2.0000     -10.024597      -272.7832
  16   2.0000      -1.074238       -29.2315
  17   2.0000      -1.040821       -28.3222
  18   2.0000      -0.979581       -26.6558
  19   2.0000      -0.896133       -24.3850
  20   2.0000      -0.822561       -22.3830
  21   2.0000      -0.782749       -21.2997
  22   2.0000      -0.737343       -20.0641
  23   2.0000      -0.716407       -19.4944
  24   2.0000      -0.675632       -18.3849
  25   2.0000      -0.666528       -18.1371
  26   2.0000      -0.655834       -17.8462
  27   2.0000      -0.595543       -16.2056
  28   2.0000      -0.579781       -15.7766
  29   2.0000      -0.550390       -14.9769
  30   2.0000      -0.542735       -14.7686
  31   2.0000      -0.524143       -14.2627
  32   2.0000      -0.477377       -12.9901
  33   2.0000      -0.454721       -12.3736
  34   2.0000      -0.451254       -12.2792
  35   2.0000      -0.445229       -12.1153
  36   2.0000      -0.442885       -12.0515
  37   2.0000      -0.430867       -11.7245
  38   2.0000      -0.412892       -11.2353
  39   2.0000      -0.409135       -11.1331
  40   2.0000      -0.389536       -10.5998
  41   2.0000      -0.385948       -10.5022
  42   2.0000      -0.382512       -10.4087
  43   2.0000      -0.374450       -10.1893
  44   2.0000      -0.373323       -10.1586
  45   2.0000      -0.360323        -9.8049
  46   2.0000      -0.355315        -9.6686
  47   2.0000      -0.348858        -9.4929
  48   2.0000      -0.341517        -9.2932
  49   2.0000      -0.332365        -9.0441
  50   2.0000      -0.327559        -8.9133
  51   2.0000      -0.316334        -8.6079
  52   2.0000      -0.298111        -8.1120
  53   2.0000      -0.287023        -7.8103
  54   2.0000      -0.271898        -7.3987
  55   2.0000      -0.241497        -6.5715
  56   2.0000      -0.228523        -6.2184
  57   2.0000      -0.223500        -6.0817
  58   2.0000      -0.191558        -5.2126
  59   0.0000      -0.028711        -0.7813
  60   0.0000      -0.010773        -0.2931
  61   0.0000       0.034268         0.9325
  62   0.0000       0.053039         1.4433
  63   0.0000       0.072646         1.9768

MULLIKEN ATOMIC CHARGES
-----------------------
   0 C :   -0.491874
   1 C :    0.298522
   2 C :   -0.463093
   3 C :    0.240885
   4 C :   -0.284723
   5 C :   -0.137507
   6 C :   -0.254157
   7 C :    0.049851
   8 C :    0.075622
   9 O :   -0.170554
  10 O :   -0.167899
  11 C :    0.364989
  12 O :   -0.481520
  13 N :   -0.163664
  14 C :   -0.396538
  15 C :   -0.492215
  16 H :    0.157019
  17 H :    0.156578
  18 H :    0.160297
  19 H :    0.171494
  20 H :    0.171283
  21 H :    0.148876
  22 H :    0.146137
  23 H :    0.154903
  24 H :    0.248027
  25 H :    0.142054
  26 H :    0.142123
  27 H :    0.195617
  28 H :    0.163848
  29 H :    0.156666
  30 H :    0.158953
Sum of atomic charges:   -0.0000000

LOEWDIN ATOMIC CHARGES
----------------------
   0 C :   -0.368636
   1 C :    0.101842
   2 C :   -0.219098
   3 C :   -0.053139
   4 C :   -0.152951
   5 C :   -0.176058
   6 C :   -0.111459
   7 C :    0.208374
   8 C :    0.239728
   9 O :   -0.626859
  10 O :   -0.486607
  11 C :    0.456669
  12 O :   -0.395723
  13 N :   -0.610692
  14 C :   -0.111067
  15 C :   -0.367402
  16 H :    0.165001
  17 H :    0.161397
  18 H :    0.165164
  19 H :    0.176055
  20 H :    0.174855
  21 H :    0.170019
  22 H :    0.167757
  23 H :    0.181626
  24 H :    0.276255
  25 H :    0.167204
  26 H :    0.167935
  27 H :    0.206010
  28 H :    0.168445
  29 H :    0.160115
  30 H :    0.165238

  Mayer bond orders larger than 0.100000
B(  0-C ,  1-C ) :   0.9591 B(  0-C , 16-H ) :   0.9676 B(  0-C , 17-H ) :   0.9765
B(  0-C , 18-H ) :   0.9731 B(  1-C ,  2-C ) :   0.8860 B(  1-C ,  8-C ) :   0.1256
B(  1-C ,  9-O ) :   0.6456 B(  1-C , 15-C ) :   0.9686 B(  2-C ,  3-C ) :   0.6866
B(  2-C , 19-H ) :   0.9617 B(  2-C , 20-H ) :   0.9681 B(  3-C ,  4-C ) :   1.3018
B(  3-C ,  7-C ) :  -0.1022 B(  3-C ,  8-C ) :   1.3834 B(  4-C ,  5-C ) :   1.4159
B(  4-C , 21-H ) :   0.9396 B(  5-C ,  6-C ) :   1.3904 B(  5-C ,  8-C ) :   0.1033
B(  5-C , 22-H ) :   0.9520 B(  6-C ,  7-C ) :   1.2970 B(  6-C , 23-H ) :   0.9340
B(  7-C ,  8-C ) :   1.6683 B(  7-C , 10-O ) :   0.9101 B(  8-C ,  9-O ) :   1.1209
B( 10-O , 11-C ) :   1.0620 B( 11-C , 12-O ) :   1.8414 B( 11-C , 13-N ) :   1.2620
B( 13-N , 14-C ) :   0.8995 B( 13-N , 24-H ) :   0.9107 B( 14-C , 25-H ) :   0.9603
B( 14-C , 26-H ) :   0.9640 B( 14-C , 27-H ) :   0.9598 B( 15-C , 28-H ) :   0.9605
B( 15-C , 29-H ) :   0.9785 B( 15-C , 30-H ) :   0.9710

Dispersion correction           -0.011954206
FINAL SINGLE POINT ENERGY      -746.591963125618

DIPOLE MOMENT
-------------

Method             : SCF
Type of density    : Electron Density
Multiplicity       :   1
Irrep              :   0
Energy             :  -746.6000151695891418 Eh
Relativity type    :
Basis              : AO
                                X                 Y                 Z
Electronic contribution:     -4.796503108      -9.390745552       2.062634418
Nuclear contribution   :      4.991309040      10.064281136      -1.500231025
                        -----------------------------------------
Total Dipole Moment    :      0.194805932       0.673535584       0.562403393
                        -----------------------------------------
Magnitude (a.u.)       :      0.898830969
Magnitude (Debye)      :      2.284646759

Rotational constants in cm-1:             0.026699             0.012441             0.009515
Rotational constants in MHz :           800.423724           372.975589           285.258533

                             ****ORCA TERMINATED NORMALLY****
TOTAL RUN TIME: 0 days 0 hours 1 minutes 38 seconds 54 msec
