                         Program Version 6.0.1  -  RELEASE   -
|  1> ! pbe def2-sv(p) def2/J RI DEFGRID1 loosescf d4 GCP(DFT/SV(P)) printgap
|  2> %output
|  3>     printlevel normal
|  4> end
|  5> * xyz 0 1
|  6> C 1.5698022286 -0.350898119 1.9147617683
|  7> C 2.9391960806 -0.4710416142 2.0525436609
|  8> C 3.7659101628 -0.2448916523 0.9621627132
|  9> C 3.2209176924 0.1145086523 -0.2698695644
| 10> C 1.8381678731 0.2313604066 -0.3973497477
| 11> C 1.0022612075 -0.0116866024 0.6922787301
| 12> C -0.465246693 0.0968720775 0.5523586698
| 13> C -1.1556651696 1.0949297679 1.2261041813
| 14> C -2.5292669749 1.2172815754 1.0938219977
| 15> C -3.2393269192 0.3327325641 0.2828449223
| 16> C -2.5556267629 -0.683916138 -0.3839755888
| 17> C -1.1737246441 -0.8016413364 -0.2459179578
| 18> Cl -0.3518883814 -2.0860154983 -1.0336939913
| 19> Cl -3.4195306037 -1.7887821184 -1.3678398305
| 20> Cl -4.9371205485 0.4818909456 0.109035358
| 21> Cl -3.3600505306 2.4636212041 1.930682166
| 22> Cl 1.1659848888 0.7195125965 -1.9012477995
| 23> Cl 4.2402229261 0.4157689954 -1.6168427145
| 24> Cl 5.467644076 -0.398011373 1.1296301343
| 25> H 0.9229033912 -0.5338806482 2.7580651038
| 26> H 3.3755931539 -0.7418373474 3.0001728696
| 27> H -0.6147143178 1.790096317 1.8477906277
| 28> *
| 29>
| 30>                          ****END OF INPUT****

CARTESIAN COORDINATES (ANGSTROEM)
---------------------------------
  C      1.569802   -0.350898    1.914762
  C      2.939196   -0.471042    2.052544
  C      3.765910   -0.244892    0.962163
  C      3.220918    0.114509   -0.269870
  C      1.838168    0.231360   -0.397350
  C      1.002261   -0.011687    0.692279
  C     -0.465247    0.096872    0.552359
  C     -1.155665    1.094930    1.226104
  C     -2.529267    1.217282    1.093822
  C     -3.239327    0.332733    0.282845
  C     -2.555627   -0.683916   -0.383976
  C     -1.173725   -0.801641   -0.245918
  Cl    -0.351888   -2.086015   -1.033694
  Cl    -3.419531   -1.788782   -1.367840
  Cl    -4.937121    0.481891    0.109035
  Cl    -3.360051    2.463621    1.930682
  Cl     1.165985    0.719513   -1.901248
  Cl     4.240223    0.415769   -1.616843
  Cl     5.467644   -0.398011    1.129630
  H      0.922903   -0.533881    2.758065
  H      3.375593   -0.741837    3.000173
  H     -0.614714    1.790096    1.847791

 Total Charge           Charge          ....    0
 Multiplicity           Mult            ....    1
 Number of Electrons    NEL             ....  194
 Basis Dimension        Dim             ....  300

ORBITAL ENERGIES
----------------

  NO   OCC          E(Eh)            E(eV)
   0   2.0000    -100.661797     -2739.1468
   1   2.0000    -100.661125     -2739.1285
   2   2.0000    -100.659965     -2739.0969
   3   2.0000    -100.659177     -2739.0755
   4   2.0000    -100.658999     -2739.0706
   5   2.0000    -100.658849     -2739.0665
   6   2.0000    -100.658653     -2739.0612
   7   2.0000      -9.982902      -271.6486
   8   2.0000      -9.982495      -271.6375
   9   2.0000      -9.978260      -271.5223
  10   2.0000      -9.978008      -271.5154
  11   2.0000      -9.977610      -271.5046
  12   2.0000      -9.977370      -271.4981
  13   2.0000      -9.976120      -271.4640
  14   2.0000      -9.943282      -270.5705
  15   2.0000      -9.939440      -270.4659
  16   2.0000      -9.928825      -270.1771
  17   2.0000      -9.923893      -270.0429
  18   2.0000      -9.923631      -270.0357
  19   2.0000      -9.197636      -250.2804
  20   2.0000      -9.196975      -250.2624
  21   2.0000      -9.195867      -250.2323
  22   2.0000      -9.194854      -250.2047
  23   2.0000      -9.194699      -250.2005
  24   2.0000      -9.194507      -250.1953
  25   2.0000      -9.194483      -250.1946
  26   2.0000      -7.029368      -191.2788
  27   2.0000      -7.028701      -191.2607
  28   2.0000      -7.027441      -191.2264
  29   2.0000      -7.026466      -191.1999
  30   2.0000      -7.026418      -191.1986
  31   2.0000      -7.026064      -191.1889
  32   2.0000      -7.026062      -191.1889
  33   2.0000      -7.017703      -190.9614
  34   2.0000      -7.017040      -190.9434
  35   2.0000      -7.016513      -190.9290
  36   2.0000      -7.015878      -190.9118
  37   2.0000      -7.015868      -190.9115
  38   2.0000      -7.014968      -190.8870
  39   2.0000      -7.014863      -190.8841
  40   2.0000      -7.014760      -190.8813
  41   2.0000      -7.014587      -190.8766
  42   2.0000      -7.014542      -190.8754
  43   2.0000      -7.013915      -190.8583
  44   2.0000      -7.013633      -190.8507
  45   2.0000      -7.013593      -190.8496
  46   2.0000      -7.013559      -190.8486
  47   2.0000      -0.875092       -23.8125
  48   2.0000      -0.864052       -23.5120
  49   2.0000      -0.835078       -22.7236
  50   2.0000      -0.822480       -22.3808
  51   2.0000      -0.811701       -22.0875
  52   2.0000      -0.794149       -21.6099
  53   2.0000      -0.785202       -21.3664
  54   2.0000      -0.775117       -21.0920
  55   2.0000      -0.761676       -20.7263
  56   2.0000      -0.706582       -19.2271
  57   2.0000      -0.677536       -18.4367
  58   2.0000      -0.669415       -18.2157
  59   2.0000      -0.653969       -17.7954
  60   2.0000      -0.587683       -15.9917
  61   2.0000      -0.571501       -15.5513
  62   2.0000      -0.563072       -15.3220
  63   2.0000      -0.544320       -14.8117
  64   2.0000      -0.496179       -13.5017
  65   2.0000      -0.489512       -13.3203
  66   2.0000      -0.473899       -12.8954
  67   2.0000      -0.468045       -12.7362
  68   2.0000      -0.441497       -12.0138
  69   2.0000      -0.430862       -11.7243
  70   2.0000      -0.420372       -11.4389
  71   2.0000      -0.417802       -11.3690
  72   2.0000      -0.415178       -11.2976
  73   2.0000      -0.411678       -11.2023
  74   2.0000      -0.403513       -10.9801
  75   2.0000      -0.389896       -10.6096
  76   2.0000      -0.374755       -10.1976
  77   2.0000      -0.364408        -9.9160
  78   2.0000      -0.358121        -9.7450
  79   2.0000      -0.354989        -9.6597
  80   2.0000      -0.340692        -9.2707
  81   2.0000      -0.332868        -9.0578
  82   2.0000      -0.317646        -8.6436
  83   2.0000      -0.306373        -8.3368
  84   2.0000      -0.303185        -8.2501
  85   2.0000      -0.299791        -8.1577
  86   2.0000      -0.296213        -8.0604
  87   2.0000      -0.295299        -8.0355
  88   2.0000      -0.287457        -7.8221
  89   2.0000      -0.285495        -7.7687
  90   2.0000      -0.280197        -7.6245
  91   2.0000      -0.264824        -7.2062
  92   2.0000      -0.262906        -7.1540
  93   2.0000      -0.240296        -6.5388
  94   2.0000      -0.233182        -6.3452
  95   2.0000      -0.229724        -6.2511
  96   2.0000      -0.223193        -6.0734
  97   0.0000      -0.082210        -2.2371
  98   0.0000      -0.073050        -1.9878
  99   0.0000      -0.064283        -1.7492
 100   0.0000      -0.056733        -1.5438
 101   0.0000      -0.049074        -1.3354

MULLIKEN ATOMIC CHARGES
-----------------------
   0 C :   -0.106304
   1 C :   -0.090504
   2 C :    0.070745
   3 C :    0.036542
   4 C :    0.025665
   5 C :    0.036712
   6 C :    0.032185
   7 C :   -0.174944
   8 C :    0.088902
   9 C :    0.027816
  10 C :    0.007295
  11 C :    0.043235
  12 Cl:   -0.018564
  13 Cl:   -0.013554
  14 Cl:   -0.013379
  15 Cl:   -0.039845
  16 Cl:   -0.020467
  17 Cl:   -0.019270
  18 Cl:   -0.040818
  19 H :    0.060515
  20 H :    0.057689
  21 H :    0.050351
Sum of atomic charges:   -0.0000000

LOEWDIN ATOMIC CHARGES
----------------------
   0 C :   -0.104528
   1 C :   -0.135096
   2 C :   -0.154325
   3 C :   -0.179089
   4 C :   -0.146979
   5 C :   -0.056655
   6 C :   -0.051107
   7 C :   -0.124316
   8 C :   -0.159974
   9 C :   -0.180144
  10 C :   -0.176326
  11 C :   -0.154990
  12 Cl:    0.178760
  13 Cl:    0.177466
  14 Cl:    0.176714
  15 Cl:    0.163780
  16 Cl:    0.177422
  17 Cl:    0.171102
  18 Cl:    0.162375
  19 H :    0.136837
  20 H :    0.137912
  21 H :    0.141159

  Mayer bond orders larger than 0.100000
B(  0-C ,  1-C ) :   1.2999 B(  0-C ,  5-C ) :   1.3649 B(  0-C , 19-H ) :   0.9679
B(  1-C ,  2-C ) :   1.3670 B(  1-C , 20-H ) :   0.9711 B(  2-C ,  3-C ) :   1.4030
B(  2-C , 18-Cl) :   1.0468 B(  3-C ,  4-C ) :   1.3938 B(  3-C , 17-Cl) :   1.1193
B(  4-C ,  5-C ) :   1.4129 B(  4-C , 16-Cl) :   1.1190 B(  5-C ,  6-C ) :   0.9488
B(  6-C ,  7-C ) :   1.3218 B(  6-C , 11-C ) :   1.3943 B(  7-C ,  8-C ) :   1.3118
B(  7-C , 21-H ) :   0.9799 B(  8-C ,  9-C ) :   1.3970 B(  8-C , 15-Cl) :   1.0365
B(  9-C , 10-C ) :   1.4112 B(  9-C , 14-Cl) :   1.1212 B( 10-C , 11-C ) :   1.3906
B( 10-C , 13-Cl) :   1.1222 B( 11-C , 12-Cl) :   1.1195

Dispersion correction           -0.050138782
FINAL SINGLE POINT ENERGY     -3677.237151394417

DIPOLE MOMENT
-------------

Method             : SCF
Type of density    : Electron Density
Multiplicity       :   1
Irrep              :   0
Energy             : -3677.2542201823030155 Eh
Relativity type    :
Basis              : AO
                                X                 Y                 Z
Electronic contribution:     -4.938925068      -0.732615892     -10.134984709
Nuclear contribution   :      5.059630215       0.740302763      10.827251156
                        -----------------------------------------
Total Dipole Moment    :      0.120705147       0.007686871       0.692266447
                        -----------------------------------------
Magnitude (a.u.)       :      0.702752911
Magnitude (Debye)      :      1.786255943

Rotational constants in cm-1:             0.013553             0.003657             0.003284
Rotational constants in MHz :           406.296492           109.626834            98.439599

                             ****ORCA TERMINATED NORMALLY****
TOTAL RUN TIME: 0 days 0 hours 0 minutes 21 seconds 464 msec
