                         Program Version 6.0.1  -  RELEASE   -
|  1> ! r2scan-3c def2/J RI DEFGRID2 scfconv6 printgap
|  2> %output
|  3>     printlevel normal
|  4> end
|  5> * xyz 0 1
|  6> C -2.1862507424 -0.908198766 -0.1473324166
|  7> C -1.1203625545 -0.3225733267 0.801319126
|  8> H -1.5738763003 -0.2868621021 1.8003567273
|  9> C -0.7331673107 1.1316162918 0.4619132801
| 10> H -1.5971280849 1.6126873726 -0.0264043184
| 11> C 0.4738143631 1.2379446183 -0.4866592223
| 12> H 0.8410491269 2.2759870176 -0.4680776384
| 13> C 1.6167743853 0.3287931679 0.0270318462
| 14> H 2.4496454482 0.3597105808 -0.6841728037
| 15> C 1.0921966141 -1.1136029729 0.1160963351
| 16> H 1.8322008415 -1.7554504577 0.612600337
| 17> O -0.0186266681 -1.2035241312 0.9712242723
| 18> O 0.8500745408 -1.647403829 -1.160062604
| 19> O 2.1241319583 0.7717891803 1.2509607294
| 20> O 0.1401091483 0.9432278339 -1.8215721189
| 21> O -0.4671639453 1.7628321371 1.697640673
| 22> O -1.781043563 -0.9777012648 -1.4916096861
| 23> H -3.0743460026 -0.2727098914 -0.1218474896
| 24> H -2.4512223074 -1.9045730069 0.2232999794
| 25> H 0.8768511808 -0.9261676626 -1.8121401133
| 26> H 1.4041361315 0.7638689389 1.9011336528
| 27> H -0.694566843 0.4269985109 -1.8491995454
| 28> H -0.2041653521 2.6783677294 1.544601235
| 29> H -1.0488052019 -1.6218929533 -1.5393937393
| 30> *
| 31>
| 32>                          ****END OF INPUT****

CARTESIAN COORDINATES (ANGSTROEM)
---------------------------------
  C     -2.186251   -0.908199   -0.147332
  C     -1.120363   -0.322573    0.801319
  H     -1.573876   -0.286862    1.800357
  C     -0.733167    1.131616    0.461913
  H     -1.597128    1.612687   -0.026404
  C      0.473814    1.237945   -0.486659
  H      0.841049    2.275987   -0.468078
  C      1.616774    0.328793    0.027032
  H      2.449645    0.359711   -0.684173
  C      1.092197   -1.113603    0.116096
  H      1.832201   -1.755450    0.612600
  O     -0.018627   -1.203524    0.971224
  O      0.850075   -1.647404   -1.160063
  O      2.124132    0.771789    1.250961
  O      0.140109    0.943228   -1.821572
  O     -0.467164    1.762832    1.697641
  O     -1.781044   -0.977701   -1.491610
  H     -3.074346   -0.272710   -0.121847
  H     -2.451222   -1.904573    0.223300
  H      0.876851   -0.926168   -1.812140
  H      1.404136    0.763869    1.901134
  H     -0.694567    0.426999   -1.849200
  H     -0.204165    2.678368    1.544601
  H     -1.048805   -1.621893   -1.539394

 Total Charge           Charge          ....    0
 Multiplicity           Mult            ....    1
 Number of Electrons    NEL             ....   96
 Basis Dimension        Dim             ....  318

ORBITAL ENERGIES
----------------

  NO   OCC          E(Eh)            E(eV)
   0   2.0000     -18.981994      -516.5263
   1   2.0000     -18.975745      -516.3563
   2   2.0000     -18.973915      -516.3065
   3   2.0000     -18.971850      -516.2503
   4   2.0000     -18.964225      -516.0428
   5   2.0000     -18.955544      -515.8066
   6   2.0000     -10.140004      -275.9235
   7   2.0000     -10.112015      -275.1619
   8   2.0000     -10.104782      -274.9651
   9   2.0000     -10.102404      -274.9004
  10   2.0000     -10.096154      -274.7303
  11   2.0000     -10.094426      -274.6833
  12   2.0000      -1.056569       -28.7507
  13   2.0000      -1.023446       -27.8494
  14   2.0000      -1.013494       -27.5786
  15   2.0000      -1.003712       -27.3124
  16   2.0000      -0.995820       -27.0976
  17   2.0000      -0.986415       -26.8417
  18   2.0000      -0.762950       -20.7609
  19   2.0000      -0.737307       -20.0631
  20   2.0000      -0.671243       -18.2655
  21   2.0000      -0.640411       -17.4265
  22   2.0000      -0.619251       -16.8507
  23   2.0000      -0.550348       -14.9757
  24   2.0000      -0.529639       -14.4122
  25   2.0000      -0.525727       -14.3058
  26   2.0000      -0.501827       -13.6554
  27   2.0000      -0.495071       -13.4716
  28   2.0000      -0.478282       -13.0147
  29   2.0000      -0.470156       -12.7936
  30   2.0000      -0.445462       -12.1216
  31   2.0000      -0.428187       -11.6516
  32   2.0000      -0.413163       -11.2427
  33   2.0000      -0.401643       -10.9293
  34   2.0000      -0.391863       -10.6631
  35   2.0000      -0.382395       -10.4055
  36   2.0000      -0.374002       -10.1771
  37   2.0000      -0.356464        -9.6999
  38   2.0000      -0.341559        -9.2943
  39   2.0000      -0.335424        -9.1274
  40   2.0000      -0.311159        -8.4671
  41   2.0000      -0.298390        -8.1196
  42   2.0000      -0.292812        -7.9678
  43   2.0000      -0.287140        -7.8135
  44   2.0000      -0.269129        -7.3234
  45   2.0000      -0.261489        -7.1155
  46   2.0000      -0.241168        -6.5625
  47   2.0000      -0.223386        -6.0786
  48   0.0000       0.024274         0.6605
  49   0.0000       0.038201         1.0395
  50   0.0000       0.063319         1.7230
  51   0.0000       0.073325         1.9953
  52   0.0000       0.085987         2.3398

MULLIKEN ATOMIC CHARGES
-----------------------
   0 C :   -0.242471
   1 C :    0.046701
   2 H :    0.169679
   3 C :   -0.125640
   4 H :    0.168662
   5 C :   -0.036440
   6 H :    0.164308
   7 C :   -0.084427
   8 H :    0.173747
   9 C :   -0.028630
  10 H :    0.150551
  11 O :   -0.188043
  12 O :   -0.420380
  13 O :   -0.401516
  14 O :   -0.474483
  15 O :   -0.426906
  16 O :   -0.471359
  17 H :    0.145703
  18 H :    0.153091
  19 H :    0.345811
  20 H :    0.338442
  21 H :    0.380636
  22 H :    0.300252
  23 H :    0.362714
Sum of atomic charges:   -0.0000000

LOEWDIN ATOMIC CHARGES
----------------------
   0 C :    0.028857
   1 C :    0.110345
   2 H :    0.215167
   3 C :    0.110667
   4 H :    0.183821
   5 C :    0.106058
   6 H :    0.189909
   7 C :    0.113120
   8 H :    0.199862
   9 C :    0.291219
  10 H :    0.212830
  11 O :   -0.647112
  12 O :   -0.532325
  13 O :   -0.554572
  14 O :   -0.599197
  15 O :   -0.592853
  16 O :   -0.615240
  17 H :    0.183823
  18 H :    0.176905
  19 H :    0.285775
  20 H :    0.285461
  21 H :    0.286725
  22 H :    0.274142
  23 H :    0.286615

  Mayer bond orders larger than 0.100000
B(  0-C ,  1-C ) :   0.8824 B(  0-C , 16-O ) :   1.0077 B(  0-C , 17-H ) :   0.9815
B(  0-C , 18-H ) :   0.9746 B(  1-C ,  2-H ) :   0.9380 B(  1-C ,  3-C ) :   0.8473
B(  1-C , 11-O ) :   0.9142 B(  1-C , 16-O ) :  -0.1117 B(  3-C ,  4-H ) :   0.9853
B(  3-C ,  5-C ) :   0.8494 B(  3-C , 15-O ) :   0.9306 B(  5-C ,  6-H ) :   0.9988
B(  5-C ,  7-C ) :   0.8112 B(  5-C , 14-O ) :   0.9337 B(  7-C ,  8-H ) :   0.9861
B(  7-C ,  9-C ) :   0.9218 B(  7-C , 13-O ) :   1.0020 B(  9-C , 10-H ) :   0.9660
B(  9-C , 11-O ) :   0.9816 B(  9-C , 12-O ) :   0.9691 B( 12-O , 19-H ) :   0.8219
B( 13-O , 20-H ) :   0.8343 B( 14-O , 21-H ) :   0.7780 B( 15-O , 22-H ) :   0.8944
B( 16-O , 23-H ) :   0.8157

Dispersion correction           -0.008963829
FINAL SINGLE POINT ENERGY      -687.076396845440

DIPOLE MOMENT
-------------

Method             : SCF
Type of density    : Electron Density
Multiplicity       :   1
Irrep              :   0
Energy             :  -687.0908825926245527 Eh
Relativity type    :
Basis              : AO
                                X                 Y                 Z
Electronic contribution:      2.349994703      -0.704541753       0.560747392
Nuclear contribution   :     -3.027329481       1.261299328      -0.401520544
                        -----------------------------------------
Total Dipole Moment    :     -0.677334778       0.556757576       0.159226848
                        -----------------------------------------
Magnitude (a.u.)       :      0.891131073
Magnitude (Debye)      :      2.265075178

Rotational constants in cm-1:             0.041130             0.032009             0.027623
Rotational constants in MHz :          1233.050823           959.619019           828.121061

                             ****ORCA TERMINATED NORMALLY****
TOTAL RUN TIME: 0 days 0 hours 0 minutes 41 seconds 497 msec
