                         Program Version 6.0.1  -  RELEASE   -
|  1> ! pbe def2-sv(p) def2/J RI DEFGRID1 loosescf d4 GCP(DFT/SV(P)) printgap
|  2> %output
|  3>     printlevel normal
|  4> end
|  5> * xyz 0 1
|  6> C -2.5491974115 -0.9057388746 0.2928632931
|  7> C -1.1264728208 -0.4395304137 0.6436637222
|  8> H -1.0116250309 -0.3788727601 1.7391128413
|  9> C -0.8458020734 0.9499750498 0.0317232077
| 10> H -1.0935188131 0.9089713893 -1.0366777686
| 11> C 0.6376213963 1.2885318306 0.2126928307
| 12> H 0.8625792633 1.3951185037 1.2839642958
| 13> C 1.5148097115 0.1535301099 -0.3443789807
| 14> H 1.3162481998 0.0431651347 -1.4279089184
| 15> C 1.1260582753 -1.1657165903 0.3504493451
| 16> H 1.3242558556 -1.0825063695 1.4299818467
| 17> O -0.2492874087 -1.4129834485 0.1169460709
| 18> O 1.8375509962 -2.2536418302 -0.0845151507
| 19> O 2.8691096529 0.4247798182 -0.1251249877
| 20> O 1.0019134221 2.5202468948 -0.3636547767
| 21> O -1.6814672802 1.9398622656 0.5648433684
| 22> O -2.6670017177 -1.1894433624 -1.0715525222
| 23> H -3.2561570292 -0.1036079831 0.5127128884
| 24> H -2.7925819641 -1.7888283915 0.8986141883
| 25> H 1.7531003648 -2.3340397367 -1.0429224231
| 26> H 2.9937437545 1.3786321623 -0.2338290352
| 27> H 0.5059559539 2.6504383462 -1.1804139039
| 28> H -1.4514026593 2.0943051949 1.4889402019
| 29> H -1.9712629018 -1.8227725241 -1.2894649051
| 30> *
| 31>
| 32>                          ****END OF INPUT****

CARTESIAN COORDINATES (ANGSTROEM)
---------------------------------
  C     -2.549197   -0.905739    0.292863
  C     -1.126473   -0.439530    0.643664
  H     -1.011625   -0.378873    1.739113
  C     -0.845802    0.949975    0.031723
  H     -1.093519    0.908971   -1.036678
  C      0.637621    1.288532    0.212693
  H      0.862579    1.395119    1.283964
  C      1.514810    0.153530   -0.344379
  H      1.316248    0.043165   -1.427909
  C      1.126058   -1.165717    0.350449
  H      1.324256   -1.082506    1.429982
  O     -0.249287   -1.412983    0.116946
  O      1.837551   -2.253642   -0.084515
  O      2.869110    0.424780   -0.125125
  O      1.001913    2.520247   -0.363655
  O     -1.681467    1.939862    0.564843
  O     -2.667002   -1.189443   -1.071553
  H     -3.256157   -0.103608    0.512713
  H     -2.792582   -1.788828    0.898614
  H      1.753100   -2.334040   -1.042922
  H      2.993744    1.378632   -0.233829
  H      0.505956    2.650438   -1.180414
  H     -1.451403    2.094305    1.488940
  H     -1.971263   -1.822773   -1.289465

 Total Charge           Charge          ....    0
 Multiplicity           Mult            ....    1
 Number of Electrons    NEL             ....   96
 Basis Dimension        Dim             ....  192

ORBITAL ENERGIES
----------------

  NO   OCC          E(Eh)            E(eV)
   0   2.0000     -18.783538      -511.1261
   1   2.0000     -18.769722      -510.7501
   2   2.0000     -18.766108      -510.6518
   3   2.0000     -18.764547      -510.6093
   4   2.0000     -18.752216      -510.2737
   5   2.0000     -18.750615      -510.2302
   6   2.0000      -9.993978      -271.9500
   7   2.0000      -9.954969      -270.8885
   8   2.0000      -9.953553      -270.8499
   9   2.0000      -9.953220      -270.8409
  10   2.0000      -9.946968      -270.6708
  11   2.0000      -9.934284      -270.3256
  12   2.0000      -0.992957       -27.0197
  13   2.0000      -0.959949       -26.1215
  14   2.0000      -0.945271       -25.7221
  15   2.0000      -0.934222       -25.4215
  16   2.0000      -0.924234       -25.1497
  17   2.0000      -0.917813       -24.9750
  18   2.0000      -0.710809       -19.3421
  19   2.0000      -0.696241       -18.9457
  20   2.0000      -0.622781       -16.9467
  21   2.0000      -0.594984       -16.1903
  22   2.0000      -0.573873       -15.6159
  23   2.0000      -0.555150       -15.1064
  24   2.0000      -0.510661       -13.8958
  25   2.0000      -0.485062       -13.1992
  26   2.0000      -0.479165       -13.0387
  27   2.0000      -0.463611       -12.6155
  28   2.0000      -0.458077       -12.4649
  29   2.0000      -0.441688       -12.0189
  30   2.0000      -0.429311       -11.6822
  31   2.0000      -0.421189       -11.4611
  32   2.0000      -0.382397       -10.4055
  33   2.0000      -0.378117       -10.2891
  34   2.0000      -0.371056       -10.0969
  35   2.0000      -0.360049        -9.7974
  36   2.0000      -0.331311        -9.0154
  37   2.0000      -0.319606        -8.6969
  38   2.0000      -0.313064        -8.5189
  39   2.0000      -0.297561        -8.0971
  40   2.0000      -0.291838        -7.9413
  41   2.0000      -0.281770        -7.6674
  42   2.0000      -0.264986        -7.2106
  43   2.0000      -0.257888        -7.0175
  44   2.0000      -0.235103        -6.3975
  45   2.0000      -0.226972        -6.1762
  46   2.0000      -0.222505        -6.0547
  47   2.0000      -0.212195        -5.7741
  48   0.0000       0.006012         0.1636
  49   0.0000       0.013785         0.3751
  50   0.0000       0.031819         0.8658
  51   0.0000       0.040923         1.1136
  52   0.0000       0.047667         1.2971

MULLIKEN ATOMIC CHARGES
-----------------------
   0 C :    0.105890
   1 C :   -0.031281
   2 H :    0.042027
   3 C :    0.043301
   4 H :    0.056009
   5 C :    0.034761
   6 H :    0.051441
   7 C :    0.045458
   8 H :    0.026979
   9 C :    0.204026
  10 H :    0.055162
  11 O :   -0.317236
  12 O :   -0.355029
  13 O :   -0.400660
  14 O :   -0.408282
  15 O :   -0.400478
  16 O :   -0.436548
  17 H :    0.088819
  18 H :    0.081738
  19 H :    0.302781
  20 H :    0.305215
  21 H :    0.307922
  22 H :    0.300765
  23 H :    0.297218
Sum of atomic charges:   -0.0000000

LOEWDIN ATOMIC CHARGES
----------------------
   0 C :   -0.123441
   1 C :   -0.081629
   2 H :    0.098961
   3 C :   -0.085918
   4 H :    0.114990
   5 C :   -0.091386
   6 H :    0.109175
   7 C :   -0.099299
   8 H :    0.090868
   9 C :    0.005475
  10 H :    0.101921
  11 O :   -0.159033
  12 O :   -0.271503
  13 O :   -0.315310
  14 O :   -0.311698
  15 O :   -0.301831
  16 O :   -0.328909
  17 H :    0.120130
  18 H :    0.101034
  19 H :    0.288730
  20 H :    0.283378
  21 H :    0.291314
  22 H :    0.286701
  23 H :    0.277281

  Mayer bond orders larger than 0.100000
B(  0-C ,  1-C ) :   1.0368 B(  0-C , 16-O ) :   1.0680 B(  0-C , 17-H ) :   0.9121
B(  0-C , 18-H ) :   0.9152 B(  1-C ,  2-H ) :   0.8706 B(  1-C ,  3-C ) :   0.9797
B(  1-C , 11-O ) :   0.9908 B(  3-C ,  4-H ) :   0.8534 B(  3-C ,  5-C ) :   1.0181
B(  3-C , 15-O ) :   1.0415 B(  5-C ,  6-H ) :   0.8656 B(  5-C ,  7-C ) :   0.9950
B(  5-C , 14-O ) :   1.0607 B(  7-C ,  8-H ) :   0.8523 B(  7-C ,  9-C ) :   0.9789
B(  7-C , 13-O ) :   1.1076 B(  9-C , 10-H ) :   0.8814 B(  9-C , 11-O ) :   0.9775
B(  9-C , 12-O ) :   1.1802 B( 12-O , 19-H ) :   0.8438 B( 13-O , 20-H ) :   0.8286
B( 14-O , 21-H ) :   0.8453 B( 15-O , 22-H ) :   0.8480 B( 16-O , 23-H ) :   0.8377

Dispersion correction           -0.024047747
FINAL SINGLE POINT ENERGY      -685.697660990412

DIPOLE MOMENT
-------------

Method             : SCF
Type of density    : Electron Density
Multiplicity       :   1
Irrep              :   0
Energy             :  -685.8281811253247042 Eh
Relativity type    :
Basis              : AO
                                X                 Y                 Z
Electronic contribution:      2.577410753      -0.527322234      -1.046278548
Nuclear contribution   :     -2.629807423       0.901073055       1.057225610
                        -----------------------------------------
Total Dipole Moment    :     -0.052396670       0.373750821       0.010947062
                        -----------------------------------------
Magnitude (a.u.)       :      0.377564465
Magnitude (Debye)      :      0.959692603

Rotational constants in cm-1:             0.038404             0.027595             0.017830
Rotational constants in MHz :          1151.320979           827.287440           534.516256

                             ****ORCA TERMINATED NORMALLY****
TOTAL RUN TIME: 0 days 0 hours 0 minutes 15 seconds 99 msec
