                         Program Version 6.0.1  -  RELEASE   -
|  1> ! pbe def2-sv(p) def2/J RI DEFGRID1 loosescf d4 GCP(DFT/SV(P)) printgap
|  2> %output
|  3>     printlevel normal
|  4> end
|  5> * xyz 0 1
|  6> C -1.3606305393 -0.8890870749 0.2235570101
|  7> S 2.64766e-05 0.1807312361 -0.4318406954
|  8> O 0.000182236 1.3818879195 0.4008363871
|  9> C 1.3603960023 -0.8894440165 0.2235635623
| 10> H -2.3017540872 -0.4044245529 -0.0146062761
| 11> H -1.2611523618 -0.9836669116 1.2989949416
| 12> H -1.3073388426 -1.8565025445 -0.2618072791
| 13> H 2.3016321816 -0.4050489827 -0.014707569
| 14> H 1.3067602165 -1.856868212 -0.2617365699
| 15> H 1.2609128393 -0.9838986287 1.2990118821
| 16> *
| 17>
| 18>                          ****END OF INPUT****

CARTESIAN COORDINATES (ANGSTROEM)
---------------------------------
  C     -1.360631   -0.889087    0.223557
  S      0.000026    0.180731   -0.431841
  O      0.000182    1.381888    0.400836
  C      1.360396   -0.889444    0.223564
  H     -2.301754   -0.404425   -0.014606
  H     -1.261152   -0.983667    1.298995
  H     -1.307339   -1.856503   -0.261807
  H      2.301632   -0.405049   -0.014708
  H      1.306760   -1.856868   -0.261737
  H      1.260913   -0.983899    1.299012

 Total Charge           Charge          ....    0
 Multiplicity           Mult            ....    1
 Number of Electrons    NEL             ....   42
 Basis Dimension        Dim             ....   72

ORBITAL ENERGIES
----------------

  NO   OCC          E(Eh)            E(eV)
   0   2.0000     -88.126613     -2398.0471
   1   2.0000     -18.706690      -509.0349
   2   2.0000      -9.903338      -269.4835
   3   2.0000      -9.903301      -269.4825
   4   2.0000      -7.759717      -211.1526
   5   2.0000      -5.787115      -157.4754
   6   2.0000      -5.785678      -157.4363
   7   2.0000      -5.778546      -157.2422
   8   2.0000      -0.931612       -25.3504
   9   2.0000      -0.706255       -19.2182
  10   2.0000      -0.643506       -17.5107
  11   2.0000      -0.536715       -14.6048
  12   2.0000      -0.417147       -11.3511
  13   2.0000      -0.410441       -11.1687
  14   2.0000      -0.406197       -11.0532
  15   2.0000      -0.377479       -10.2717
  16   2.0000      -0.354575        -9.6485
  17   2.0000      -0.348525        -9.4839
  18   2.0000      -0.314059        -8.5460
  19   2.0000      -0.223886        -6.0922
  20   2.0000      -0.185041        -5.0352
  21   0.0000       0.011115         0.3024
  22   0.0000       0.023707         0.6451
  23   0.0000       0.032904         0.8954
  24   0.0000       0.061958         1.6860
  25   0.0000       0.081977         2.2307

MULLIKEN ATOMIC CHARGES
-----------------------
   0 C :   -0.380375
   1 S :    0.422476
   2 O :   -0.509531
   3 C :   -0.380367
   4 H :    0.152817
   5 H :    0.142569
   6 H :    0.128510
   7 H :    0.152818
   8 H :    0.128510
   9 H :    0.142572
Sum of atomic charges:    0.0000000

LOEWDIN ATOMIC CHARGES
----------------------
   0 C :   -0.492236
   1 S :    0.759160
   2 O :   -0.553629
   3 C :   -0.492230
   4 H :    0.132974
   5 H :    0.130591
   6 H :    0.125901
   7 H :    0.132973
   8 H :    0.125902
   9 H :    0.130592

  Mayer bond orders larger than 0.100000
B(  0-C ,  1-S ) :   0.8834 B(  0-C ,  4-H ) :   0.9441 B(  0-C ,  5-H ) :   0.9363
B(  0-C ,  6-H ) :   0.9339 B(  1-S ,  2-O ) :   1.5981 B(  1-S ,  3-C ) :   0.8835
B(  3-C ,  7-H ) :   0.9441 B(  3-C ,  8-H ) :   0.9339 B(  3-C ,  9-H ) :   0.9363

Dispersion correction           -0.006814393
FINAL SINGLE POINT ENERGY      -552.527653817856

DIPOLE MOMENT
-------------

Method             : SCF
Type of density    : Electron Density
Multiplicity       :   1
Irrep              :   0
Energy             :  -552.5614513915304542 Eh
Relativity type    :
Basis              : AO
                                X                 Y                 Z
Electronic contribution:      0.000710940       4.791713538      -2.188544812
Nuclear contribution   :     -0.000879996      -6.073857952       1.937137065
                        -----------------------------------------
Total Dipole Moment    :     -0.000169056      -1.282144414      -0.251407747
                        -----------------------------------------
Magnitude (a.u.)       :      1.306560440
Magnitude (Debye)      :      3.321012712

Rotational constants in cm-1:             0.230557             0.224513             0.138607
Rotational constants in MHz :          6911.931761          6730.744189          4155.343724

                             ****ORCA TERMINATED NORMALLY****
TOTAL RUN TIME: 0 days 0 hours 0 minutes 2 seconds 818 msec
