                         Program Version 6.0.1  -  RELEASE   -
|  1> ! pbe def2-sv(p) def2/J RI DEFGRID1 loosescf d4 GCP(DFT/SV(P)) printgap
|  2> %output
|  3>     printlevel normal
|  4> end
|  5> * xyz 0 1
|  6> C -2.6233833786 -1.5443964081 -0.1113692022
|  7> C -1.9661172227 -0.1750583148 0.0101066111
|  8> C -0.4537070891 -0.1799784115 -0.0112370959
|  9> C 0.298219694 -1.3388849062 -0.1331612175
| 10> C 1.6821288102 -1.3040790252 -0.1488243519
| 11> C 2.3438998446 -0.0946030568 -0.041435852
| 12> C 1.6182481477 1.0738454398 0.0809835812
| 13> C 0.2295202161 1.0379914962 0.096558578
| 14> O -0.4175918765 2.233113792 0.2203864388
| 15> H -3.7054911142 -1.4323879883 -0.0852966617
| 16> H -2.329078031 -2.1902799601 0.7122700404
| 17> H -2.3541455577 -2.0219427017 -1.050315351
| 18> H -2.303617616 0.282705901 0.9487021135
| 19> H -2.3280013479 0.4509909412 -0.8154342954
| 20> H -0.1980772457 -2.2922651061 -0.218132247
| 21> H 2.2396234519 -2.2235978972 -0.2450233469
| 22> H 3.4227567093 -0.0582376465 -0.0527153475
| 23> H 2.1043312335 2.0328263316 0.1666245145
| 24> H -1.3713044452 2.0957581542 0.2199722033
| 25> *
| 26>
| 27>                          ****END OF INPUT****

CARTESIAN COORDINATES (ANGSTROEM)
---------------------------------
  C     -2.623383   -1.544396   -0.111369
  C     -1.966117   -0.175058    0.010107
  C     -0.453707   -0.179978   -0.011237
  C      0.298220   -1.338885   -0.133161
  C      1.682129   -1.304079   -0.148824
  C      2.343900   -0.094603   -0.041436
  C      1.618248    1.073845    0.080984
  C      0.229520    1.037991    0.096559
  O     -0.417592    2.233114    0.220386
  H     -3.705491   -1.432388   -0.085297
  H     -2.329078   -2.190280    0.712270
  H     -2.354146   -2.021943   -1.050315
  H     -2.303618    0.282706    0.948702
  H     -2.328001    0.450991   -0.815434
  H     -0.198077   -2.292265   -0.218132
  H      2.239623   -2.223598   -0.245023
  H      3.422757   -0.058238   -0.052715
  H      2.104331    2.032826    0.166625
  H     -1.371304    2.095758    0.219972

 Total Charge           Charge          ....    0
 Multiplicity           Mult            ....    1
 Number of Electrons    NEL             ....   66
 Basis Dimension        Dim             ....  146

ORBITAL ENERGIES
----------------

  NO   OCC          E(Eh)            E(eV)
   0   2.0000     -18.778271      -510.9827
   1   2.0000      -9.945049      -270.6185
   2   2.0000      -9.907311      -269.5916
   3   2.0000      -9.897384      -269.3215
   4   2.0000      -9.887548      -269.0539
   5   2.0000      -9.887286      -269.0467
   6   2.0000      -9.886115      -269.0149
   7   2.0000      -9.880446      -268.8606
   8   2.0000      -9.880205      -268.8540
   9   2.0000      -0.960631       -26.1401
  10   2.0000      -0.770829       -20.9753
  11   2.0000      -0.716580       -19.4991
  12   2.0000      -0.660761       -17.9802
  13   2.0000      -0.649575       -17.6758
  14   2.0000      -0.585697       -15.9376
  15   2.0000      -0.541861       -14.7448
  16   2.0000      -0.523433       -14.2433
  17   2.0000      -0.487153       -13.2561
  18   2.0000      -0.436579       -11.8799
  19   2.0000      -0.420205       -11.4344
  20   2.0000      -0.416454       -11.3323
  21   2.0000      -0.386908       -10.5283
  22   2.0000      -0.380046       -10.3416
  23   2.0000      -0.358346        -9.7511
  24   2.0000      -0.341349        -9.2886
  25   2.0000      -0.333639        -9.0788
  26   2.0000      -0.330457        -8.9922
  27   2.0000      -0.318977        -8.6798
  28   2.0000      -0.301001        -8.1906
  29   2.0000      -0.292891        -7.9700
  30   2.0000      -0.286217        -7.7883
  31   2.0000      -0.220369        -5.9965
  32   2.0000      -0.189866        -5.1665
  33   0.0000      -0.026850        -0.7306
  34   0.0000      -0.015214        -0.4140
  35   0.0000       0.022079         0.6008
  36   0.0000       0.043694         1.1890
  37   0.0000       0.060495         1.6462

MULLIKEN ATOMIC CHARGES
-----------------------
   0 C :   -0.256051
   1 C :   -0.243695
   2 C :    0.043133
   3 C :   -0.164056
   4 C :   -0.037612
   5 C :   -0.043546
   6 C :   -0.127635
   7 C :    0.136120
   8 O :   -0.332935
   9 H :    0.105711
  10 H :    0.114275
  11 H :    0.114505
  12 H :    0.104274
  13 H :    0.104374
  14 H :    0.037218
  15 H :    0.042220
  16 H :    0.050475
  17 H :    0.040549
  18 H :    0.312676
Sum of atomic charges:    0.0000000

LOEWDIN ATOMIC CHARGES
----------------------
   0 C :   -0.335709
   1 C :   -0.235772
   2 C :   -0.087248
   3 C :   -0.124681
   4 C :   -0.148083
   5 C :   -0.120416
   6 C :   -0.148459
   7 C :    0.027597
   8 O :   -0.235267
   9 H :    0.123680
  10 H :    0.124072
  11 H :    0.124143
  12 H :    0.123847
  13 H :    0.123889
  14 H :    0.122624
  15 H :    0.120608
  16 H :    0.123268
  17 H :    0.129141
  18 H :    0.292768

  Mayer bond orders larger than 0.100000
B(  0-C ,  1-C ) :   1.2088 B(  0-C ,  9-H ) :   0.9446 B(  0-C , 10-H ) :   0.9425
B(  0-C , 11-H ) :   0.9423 B(  1-C ,  2-C ) :   1.0258 B(  1-C , 12-H ) :   0.8976
B(  1-C , 13-H ) :   0.8976 B(  2-C ,  3-C ) :   1.4192 B(  2-C ,  7-C ) :   1.3091
B(  3-C ,  4-C ) :   1.3423 B(  3-C , 14-H ) :   0.9513 B(  4-C ,  5-C ) :   1.3618
B(  4-C , 15-H ) :   0.9643 B(  5-C ,  6-C ) :   1.3634 B(  5-C , 16-H ) :   0.9673
B(  6-C ,  7-C ) :   1.3770 B(  6-C , 17-H ) :   0.9613 B(  7-C ,  8-O ) :   1.2318
B(  8-O , 18-H ) :   0.8317

Dispersion correction           -0.019006383
FINAL SINGLE POINT ENERGY      -385.234890384162

DIPOLE MOMENT
-------------

Method             : SCF
Type of density    : Electron Density
Multiplicity       :   1
Irrep              :   0
Energy             :  -385.2952929784511866 Eh
Relativity type    :
Basis              : AO
                                X                 Y                 Z
Electronic contribution:      5.699474591       4.778944806       0.379335590
Nuclear contribution   :     -6.407317666      -4.992140187      -0.390153392
                        -----------------------------------------
Total Dipole Moment    :     -0.707843075      -0.213195381      -0.010817801
                        -----------------------------------------
Magnitude (a.u.)       :      0.739331532
Magnitude (Debye)      :      1.879231409

Rotational constants in cm-1:             0.083676             0.049378             0.031419
Rotational constants in MHz :          2508.530074          1480.322429           941.930883

                             ****ORCA TERMINATED NORMALLY****
TOTAL RUN TIME: 0 days 0 hours 0 minutes 7 seconds 729 msec
