                         Program Version 6.0.1  -  RELEASE   -
|  1> ! pbe def2-sv(p) def2/J RI DEFGRID1 loosescf d4 GCP(DFT/SV(P)) printgap
|  2> %output
|  3>     printlevel normal
|  4> end
|  5> * xyz 0 1
|  6> C -2.1912079379 0.3506103191 0.0676427914
|  7> O -1.0278315819 -0.1419961365 0.6990851556
|  8> S 0.3937326758 0.0467254953 -0.0496970559
|  9> O 1.2281098841 0.8963356192 0.7349920392
| 10> O 0.1491179753 0.4026683674 -1.4144147458
| 11> C 1.0163173199 -1.6435617637 0.0457690487
| 12> H -2.9673321535 -0.4119719475 0.146693869
| 13> H -1.9701084623 0.5586177266 -0.9807954526
| 14> H -2.5195036032 1.2663411392 0.5632360382
| 15> H 0.2190422114 -2.2686597269 0.4209773347
| 16> H 1.3068627604 -1.9411925151 -0.9523015974
| 17> H 1.8615986554 -1.6478325371 0.7193548189
| 18> *
| 19>
| 20>                          ****END OF INPUT****

CARTESIAN COORDINATES (ANGSTROEM)
---------------------------------
  C     -2.191208    0.350610    0.067643
  O     -1.027832   -0.141996    0.699085
  S      0.393733    0.046725   -0.049697
  O      1.228110    0.896336    0.734992
  O      0.149118    0.402668   -1.414415
  C      1.016317   -1.643562    0.045769
  H     -2.967332   -0.411972    0.146694
  H     -1.970108    0.558618   -0.980795
  H     -2.519504    1.266341    0.563236
  H      0.219042   -2.268660    0.420977
  H      1.306863   -1.941193   -0.952302
  H      1.861599   -1.647833    0.719355

 Total Charge           Charge          ....    0
 Multiplicity           Mult            ....    1
 Number of Electrons    NEL             ....   58
 Basis Dimension        Dim             ....  100

ORBITAL ENERGIES
----------------

  NO   OCC          E(Eh)            E(eV)
   0   2.0000     -88.253451     -2401.4985
   1   2.0000     -18.802449      -511.6407
   2   2.0000     -18.749372      -510.1963
   3   2.0000     -18.744808      -510.0721
   4   2.0000      -9.947054      -270.6731
   5   2.0000      -9.925320      -270.0817
   6   2.0000      -7.868096      -214.1018
   7   2.0000      -5.896652      -160.4560
   8   2.0000      -5.893336      -160.3658
   9   2.0000      -5.892198      -160.3349
  10   2.0000      -1.058126       -28.7931
  11   2.0000      -0.951981       -25.9047
  12   2.0000      -0.919937       -25.0328
  13   2.0000      -0.715210       -19.4619
  14   2.0000      -0.655059       -17.8251
  15   2.0000      -0.540487       -14.7074
  16   2.0000      -0.489398       -13.3172
  17   2.0000      -0.450414       -12.2564
  18   2.0000      -0.437947       -11.9171
  19   2.0000      -0.417205       -11.3527
  20   2.0000      -0.412595       -11.2273
  21   2.0000      -0.397357       -10.8126
  22   2.0000      -0.380217       -10.3462
  23   2.0000      -0.339233        -9.2310
  24   2.0000      -0.298693        -8.1279
  25   2.0000      -0.283745        -7.7211
  26   2.0000      -0.277122        -7.5409
  27   2.0000      -0.265923        -7.2361
  28   2.0000      -0.248829        -6.7710
  29   0.0000       0.012232         0.3329
  30   0.0000       0.031921         0.8686
  31   0.0000       0.048155         1.3104
  32   0.0000       0.053902         1.4667
  33   0.0000       0.065674         1.7871

MULLIKEN ATOMIC CHARGES
-----------------------
   0 C :   -0.139229
   1 O :   -0.410071
   2 S :    0.794174
   3 O :   -0.382642
   4 O :   -0.402585
   5 C :   -0.336919
   6 H :    0.120872
   7 H :    0.144467
   8 H :    0.125435
   9 H :    0.158700
  10 H :    0.163970
  11 H :    0.163828
Sum of atomic charges:    0.0000000

LOEWDIN ATOMIC CHARGES
----------------------
   0 C :   -0.233223
   1 O :   -0.299923
   2 S :    1.113771
   3 O :   -0.446947
   4 O :   -0.456511
   5 C :   -0.474118
   6 H :    0.117599
   7 H :    0.120319
   8 H :    0.117132
   9 H :    0.145749
  10 H :    0.148244
  11 H :    0.147909

  Mayer bond orders larger than 0.100000
B(  0-C ,  1-O ) :   0.9351 B(  0-C ,  6-H ) :   0.9557 B(  0-C ,  7-H ) :   0.9268
B(  0-C ,  8-H ) :   0.9557 B(  1-O ,  2-S ) :   0.9397 B(  2-S ,  3-O ) :   1.8232
B(  2-S ,  4-O ) :   1.7430 B(  2-S ,  5-C ) :   0.9103 B(  5-C ,  9-H ) :   0.9358
B(  5-C , 10-H ) :   0.9336 B(  5-C , 11-H ) :   0.9345

Dispersion correction           -0.009978464
FINAL SINGLE POINT ENERGY      -702.672082170212

DIPOLE MOMENT
-------------

Method             : SCF
Type of density    : Electron Density
Multiplicity       :   1
Irrep              :   0
Energy             :  -702.7225747943479064 Eh
Relativity type    :
Basis              : AO
                                X                 Y                 Z
Electronic contribution:      3.207078825       3.031805334       0.122731824
Nuclear contribution   :     -3.824056116      -4.154105544      -0.075983519
                        -----------------------------------------
Total Dipole Moment    :     -0.616977291      -1.122300210       0.046748305
                        -----------------------------------------
Magnitude (a.u.)       :      1.281563164
Magnitude (Debye)      :      3.257474686

Rotational constants in cm-1:             0.151162             0.086101             0.082337
Rotational constants in MHz :          4531.733882          2581.228436          2468.390352

                             ****ORCA TERMINATED NORMALLY****
TOTAL RUN TIME: 0 days 0 hours 0 minutes 11 seconds 621 msec
