                         Program Version 6.0.1  -  RELEASE   -
|  1> ! pbe def2-sv(p) def2/J RI DEFGRID1 loosescf d4 GCP(DFT/SV(P)) printgap
|  2> %output
|  3>     printlevel normal
|  4> end
|  5> * xyz 0 1
|  6> C 1.9886003579 2.8880504914 0.9091880117
|  7> C 2.129079654 1.7335471181 -0.079326637
|  8> C 2.8666713453 0.5171424988 0.5371931363
|  9> C 1.8771783619 -0.5946868103 0.3621384123
| 10> C 1.9556213118 -1.9352650498 0.6656074221
| 11> C 0.8595895854 -2.7443334921 0.3932159653
| 12> C -0.2855350386 -2.2137727288 -0.1729487764
| 13> C -0.3751644309 -0.8578236118 -0.4819865251
| 14> C 0.7223824385 -0.0498789593 -0.2008655748
| 15> O 0.7983240536 1.2771126215 -0.4148228543
| 16> O -1.4898909935 -0.3368054288 -1.1157468891
| 17> C -2.6750118017 -0.1934176773 -0.4695951026
| 18> O -3.6599145129 0.1139598256 -1.0846899873
| 19> N -2.6473569735 -0.4177536538 0.8669194267
| 20> C -3.82322319 -0.2663832761 1.6867722767
| 21> C 2.7973416754 2.1988450203 -1.3722353977
| 22> H 2.9688488281 3.2768044792 1.1715601768
| 23> H 1.3980183934 3.6836224477 0.4629485544
| 24> H 1.4851465561 2.5504902045 1.8125316731
| 25> H 3.8024290898 0.3124536471 0.0157328247
| 26> H 3.0967760112 0.6808498239 1.5922609304
| 27> H 2.8513192979 -2.3483385487 1.102967534
| 28> H 0.9008076268 -3.7983477254 0.6186186762
| 29> H -1.1318268459 -2.8461433604 -0.395114821
| 30> H -1.7678300355 -0.6051673787 1.3226649893
| 31> H -3.702229641 0.5544607144 2.3968033635
| 32> H -4.0269176183 -1.1885657786 2.2342122021
| 33> H -4.6567853404 -0.0467231611 1.0221564865
| 34> H 3.794050259 2.5796269597 -1.165429541
| 35> H 2.203236819 2.9850655309 -1.8303761402
| 36> H 2.868349015 1.3694774134 -2.0725489711
| 37> *
| 38>
| 39>                          ****END OF INPUT****

CARTESIAN COORDINATES (ANGSTROEM)
---------------------------------
  C      1.988600    2.888050    0.909188
  C      2.129080    1.733547   -0.079327
  C      2.866671    0.517142    0.537193
  C      1.877178   -0.594687    0.362138
  C      1.955621   -1.935265    0.665607
  C      0.859590   -2.744333    0.393216
  C     -0.285535   -2.213773   -0.172949
  C     -0.375164   -0.857824   -0.481987
  C      0.722382   -0.049879   -0.200866
  O      0.798324    1.277113   -0.414823
  O     -1.489891   -0.336805   -1.115747
  C     -2.675012   -0.193418   -0.469595
  O     -3.659915    0.113960   -1.084690
  N     -2.647357   -0.417754    0.866919
  C     -3.823223   -0.266383    1.686772
  C      2.797342    2.198845   -1.372235
  H      2.968849    3.276804    1.171560
  H      1.398018    3.683622    0.462949
  H      1.485147    2.550490    1.812532
  H      3.802429    0.312454    0.015733
  H      3.096776    0.680850    1.592261
  H      2.851319   -2.348339    1.102968
  H      0.900808   -3.798348    0.618619
  H     -1.131827   -2.846143   -0.395115
  H     -1.767830   -0.605167    1.322665
  H     -3.702230    0.554461    2.396803
  H     -4.026918   -1.188566    2.234212
  H     -4.656785   -0.046723    1.022156
  H      3.794050    2.579627   -1.165430
  H      2.203237    2.985066   -1.830376
  H      2.868349    1.369477   -2.072549

 Total Charge           Charge          ....    0
 Multiplicity           Mult            ....    1
 Number of Electrons    NEL             ....  118
 Basis Dimension        Dim             ....  254

ORBITAL ENERGIES
----------------

  NO   OCC          E(Eh)            E(eV)
   0   2.0000     -18.797092      -511.4949
   1   2.0000     -18.792013      -511.3567
   2   2.0000     -18.704265      -508.9689
   3   2.0000     -14.016803      -381.4166
   4   2.0000     -10.018025      -272.6043
   5   2.0000      -9.970741      -271.3177
   6   2.0000      -9.957319      -270.9524
   7   2.0000      -9.954762      -270.8828
   8   2.0000      -9.916184      -269.8331
   9   2.0000      -9.908372      -269.6205
  10   2.0000      -9.908297      -269.6185
  11   2.0000      -9.902891      -269.4714
  12   2.0000      -9.902327      -269.4560
  13   2.0000      -9.898918      -269.3633
  14   2.0000      -9.890055      -269.1221
  15   2.0000      -9.887815      -269.0611
  16   2.0000      -1.006942       -27.4003
  17   2.0000      -0.986927       -26.8557
  18   2.0000      -0.913313       -24.8525
  19   2.0000      -0.834375       -22.7045
  20   2.0000      -0.784668       -21.3519
  21   2.0000      -0.745405       -20.2835
  22   2.0000      -0.702355       -19.1121
  23   2.0000      -0.678037       -18.4503
  24   2.0000      -0.638158       -17.3652
  25   2.0000      -0.633704       -17.2440
  26   2.0000      -0.626335       -17.0434
  27   2.0000      -0.580321       -15.7913
  28   2.0000      -0.562188       -15.2979
  29   2.0000      -0.529716       -14.4143
  30   2.0000      -0.523841       -14.2544
  31   2.0000      -0.511864       -13.9285
  32   2.0000      -0.466135       -12.6842
  33   2.0000      -0.446935       -12.1617
  34   2.0000      -0.439520       -11.9600
  35   2.0000      -0.435983       -11.8637
  36   2.0000      -0.430120       -11.7042
  37   2.0000      -0.413594       -11.2545
  38   2.0000      -0.399949       -10.8832
  39   2.0000      -0.381980       -10.3942
  40   2.0000      -0.378469       -10.2987
  41   2.0000      -0.370967       -10.0945
  42   2.0000      -0.368228       -10.0200
  43   2.0000      -0.362625        -9.8675
  44   2.0000      -0.361266        -9.8306
  45   2.0000      -0.348938        -9.4951
  46   2.0000      -0.345275        -9.3954
  47   2.0000      -0.340240        -9.2584
  48   2.0000      -0.330887        -9.0039
  49   2.0000      -0.328496        -8.9388
  50   2.0000      -0.321100        -8.7376
  51   2.0000      -0.311090        -8.4652
  52   2.0000      -0.294081        -8.0024
  53   2.0000      -0.287011        -7.8100
  54   2.0000      -0.257268        -7.0006
  55   2.0000      -0.227524        -6.1912
  56   2.0000      -0.216292        -5.8856
  57   2.0000      -0.209696        -5.7061
  58   2.0000      -0.193898        -5.2762
  59   0.0000      -0.046447        -1.2639
  60   0.0000      -0.028323        -0.7707
  61   0.0000       0.021360         0.5812
  62   0.0000       0.032242         0.8774
  63   0.0000       0.041568         1.1311

MULLIKEN ATOMIC CHARGES
-----------------------
   0 C :   -0.200831
   1 C :   -0.092442
   2 C :   -0.004716
   3 C :   -0.048309
   4 C :   -0.149733
   5 C :   -0.046688
   6 C :   -0.135079
   7 C :    0.029480
   8 C :    0.204945
   9 O :   -0.235525
  10 O :   -0.202039
  11 C :    0.202561
  12 O :   -0.196161
  13 N :   -0.335658
  14 C :   -0.179958
  15 C :   -0.194262
  16 H :    0.105751
  17 H :    0.113806
  18 H :    0.102628
  19 H :    0.095161
  20 H :    0.092776
  21 H :    0.035344
  22 H :    0.053701
  23 H :    0.050231
  24 H :    0.246185
  25 H :    0.111790
  26 H :    0.110493
  27 H :    0.139438
  28 H :    0.103556
  29 H :    0.114325
  30 H :    0.109230
Sum of atomic charges:   -0.0000000

LOEWDIN ATOMIC CHARGES
----------------------
   0 C :   -0.326647
   1 C :    0.015624
   2 C :   -0.199444
   3 C :   -0.067890
   4 C :   -0.126337
   5 C :   -0.140601
   6 C :   -0.138864
   7 C :   -0.016315
   8 C :    0.018884
   9 O :   -0.060886
  10 O :   -0.037823
  11 C :    0.028940
  12 O :   -0.182372
  13 N :   -0.195441
  14 C :   -0.258594
  15 C :   -0.326799
  16 H :    0.126256
  17 H :    0.128249
  18 H :    0.122365
  19 H :    0.133871
  20 H :    0.131561
  21 H :    0.125541
  22 H :    0.125882
  23 H :    0.135249
  24 H :    0.237058
  25 H :    0.115319
  26 H :    0.115427
  27 H :    0.138314
  28 H :    0.124750
  29 H :    0.128339
  30 H :    0.126385

  Mayer bond orders larger than 0.100000
B(  0-C ,  1-C ) :   1.1032 B(  0-C , 16-H ) :   0.9409 B(  0-C , 17-H ) :   0.9406
B(  0-C , 18-H ) :   0.9380 B(  1-C ,  2-C ) :   1.0550 B(  1-C ,  9-O ) :   0.9367
B(  1-C , 15-C ) :   1.1000 B(  2-C ,  3-C ) :   1.0655 B(  2-C , 19-H ) :   0.8802
B(  2-C , 20-H ) :   0.8786 B(  3-C ,  4-C ) :   1.3880 B(  3-C ,  6-C ) :   0.1026
B(  3-C ,  8-C ) :   1.3269 B(  4-C ,  5-C ) :   1.2985 B(  4-C , 21-H ) :   0.9853
B(  5-C ,  6-C ) :   1.3338 B(  5-C , 22-H ) :   0.9646 B(  6-C ,  7-C ) :   1.3720
B(  6-C , 23-H ) :   0.9725 B(  7-C ,  8-C ) :   1.3291 B(  7-C , 10-O ) :   1.0573
B(  8-C ,  9-O ) :   1.1738 B( 10-O , 11-C ) :   1.0549 B( 11-C , 12-O ) :   2.0967
B( 11-C , 13-N ) :   1.1823 B( 13-N , 14-C ) :   1.0296 B( 13-N , 24-H ) :   0.8392
B( 14-C , 25-H ) :   0.9591 B( 14-C , 26-H ) :   0.9581 B( 14-C , 27-H ) :   0.9345
B( 15-C , 28-H ) :   0.9396 B( 15-C , 29-H ) :   0.9394 B( 15-C , 30-H ) :   0.9371

Dispersion correction           -0.036298685
FINAL SINGLE POINT ENERGY      -745.170440815564

DIPOLE MOMENT
-------------

Method             : SCF
Type of density    : Electron Density
Multiplicity       :   1
Irrep              :   0
Energy             :  -745.2719093086784596 Eh
Relativity type    :
Basis              : AO
                                X                 Y                 Z
Electronic contribution:     -7.693365412      -6.840062763      -6.155850994
Nuclear contribution   :      9.380942760       6.730215948       7.742492688
                        -----------------------------------------
Total Dipole Moment    :      1.687577348      -0.109846815       1.586641695
                        -----------------------------------------
Magnitude (a.u.)       :      2.318925505
Magnitude (Debye)      :      5.894240210

Rotational constants in cm-1:             0.027357             0.012182             0.010075
Rotational constants in MHz :           820.143587           365.204869           302.053884

                             ****ORCA TERMINATED NORMALLY****
TOTAL RUN TIME: 0 days 0 hours 0 minutes 27 seconds 147 msec
