                         Program Version 6.0.1  -  RELEASE   -
|  1> ! pbe def2-sv(p) def2/J RI DEFGRID1 loosescf d4 GCP(DFT/SV(P)) printgap
|  2> %output
|  3>     printlevel normal
|  4> end
|  5> * xyz 0 1
|  6> C -2.3896478244 0.2124048468 0.0025620519
|  7> C -0.9121532238 0.3218539246 0.0043194396
|  8> C -0.0588659357 -0.7053207224 -0.0098894257
|  9> C 1.3862230303 -0.4950749796 -0.0067476282
| 10> O 1.9382756343 0.5777626806 0.0085054398
| 11> H -2.7129674845 -0.8254763257 -0.0120941414
| 12> H -2.7974208592 0.7273118941 -0.8671880083
| 13> H -2.7976717162 0.7026212409 0.8863501846
| 14> H -0.5001399259 1.3236637176 0.0183828316
| 15> H -0.4072855187 -1.7282669987 -0.0242440977
| 16> H 1.9764728493 -1.4329972516 -0.0199664426
| 17> *
| 18>
| 19>                          ****END OF INPUT****

CARTESIAN COORDINATES (ANGSTROEM)
---------------------------------
  C     -2.389648    0.212405    0.002562
  C     -0.912153    0.321854    0.004319
  C     -0.058866   -0.705321   -0.009889
  C      1.386223   -0.495075   -0.006748
  O      1.938276    0.577763    0.008505
  H     -2.712967   -0.825476   -0.012094
  H     -2.797421    0.727312   -0.867188
  H     -2.797672    0.702621    0.886350
  H     -0.500140    1.323664    0.018383
  H     -0.407286   -1.728267   -0.024244
  H      1.976473   -1.432997   -0.019966

 Total Charge           Charge          ....    0
 Multiplicity           Mult            ....    1
 Number of Electrons    NEL             ....   38
 Basis Dimension        Dim             ....   82

ORBITAL ENERGIES
----------------

  NO   OCC          E(Eh)            E(eV)
   0   2.0000     -18.743099      -510.0256
   1   2.0000      -9.962328      -271.0887
   2   2.0000      -9.918221      -269.8885
   3   2.0000      -9.900269      -269.4000
   4   2.0000      -9.897362      -269.3209
   5   2.0000      -0.938041       -25.5254
   6   2.0000      -0.734529       -19.9875
   7   2.0000      -0.652852       -17.7650
   8   2.0000      -0.557694       -15.1756
   9   2.0000      -0.483300       -13.1513
  10   2.0000      -0.441747       -12.0206
  11   2.0000      -0.402726       -10.9587
  12   2.0000      -0.391180       -10.6445
  13   2.0000      -0.362701        -9.8696
  14   2.0000      -0.353565        -9.6210
  15   2.0000      -0.352792        -9.6000
  16   2.0000      -0.325169        -8.8483
  17   2.0000      -0.244950        -6.6654
  18   2.0000      -0.201580        -5.4853
  19   0.0000      -0.092849        -2.5265
  20   0.0000       0.033835         0.9207
  21   0.0000       0.046669         1.2699
  22   0.0000       0.053721         1.4618
  23   0.0000       0.093671         2.5489

MULLIKEN ATOMIC CHARGES
-----------------------
   0 C :   -0.234167
   1 C :   -0.110124
   2 C :   -0.115571
   3 C :    0.051133
   4 O :   -0.168613
   5 H :    0.112720
   6 H :    0.129780
   7 H :    0.129789
   8 H :    0.099904
   9 H :    0.066823
  10 H :    0.038326
Sum of atomic charges:   -0.0000000

LOEWDIN ATOMIC CHARGES
----------------------
   0 C :   -0.332661
   1 C :   -0.062021
   2 C :   -0.207182
   3 C :   -0.008643
   4 O :   -0.131188
   5 H :    0.128209
   6 H :    0.141466
   7 H :    0.141469
   8 H :    0.132502
   9 H :    0.123462
  10 H :    0.074587

  Mayer bond orders larger than 0.100000
B(  0-C ,  1-C ) :   1.1252 B(  0-C ,  5-H ) :   0.9479 B(  0-C ,  6-H ) :   0.9260
B(  0-C ,  7-H ) :   0.9260 B(  1-C ,  2-C ) :   1.8517 B(  1-C ,  4-O ) :   0.1087
B(  1-C ,  8-H ) :   0.9201 B(  2-C ,  3-C ) :   1.0386 B(  2-C ,  9-H ) :   0.9191
B(  3-C ,  4-O ) :   2.1291 B(  3-C , 10-H ) :   0.9114

Dispersion correction           -0.006745746
FINAL SINGLE POINT ENERGY      -230.720118895773

DIPOLE MOMENT
-------------

Method             : SCF
Type of density    : Electron Density
Multiplicity       :   1
Irrep              :   0
Energy             :  -230.7550479483712422 Eh
Relativity type    :
Basis              : AO
                                X                 Y                 Z
Electronic contribution:      5.663610039       0.688862818       0.010766236
Nuclear contribution   :     -6.762684496      -1.148333116      -0.017473669
                        -----------------------------------------
Total Dipole Moment    :     -1.099074457      -0.459470299      -0.006707433
                        -----------------------------------------
Magnitude (a.u.)       :      1.191269326
Magnitude (Debye)      :      3.027965990

Rotational constants in cm-1:             0.646729             0.088254             0.078782
Rotational constants in MHz :         19388.440311          2645.785035          2361.818517

                             ****ORCA TERMINATED NORMALLY****
TOTAL RUN TIME: 0 days 0 hours 0 minutes 12 seconds 329 msec
