                         Program Version 6.0.1  -  RELEASE   -
|  1> ! pbe def2-sv(p) def2/J RI DEFGRID1 loosescf d4 GCP(DFT/SV(P)) printgap
|  2> %output
|  3>     printlevel normal
|  4> end
|  5> * xyz 0 1
|  6> C 0.7261947326 -1.1978320583 0.2460160604
|  7> C -0.7252449469 -1.1896101245 -0.2494671403
|  8> N -1.4450943134 5.65645e-05 0.1684851431
|  9> C -0.7253025275 1.1897456673 -0.2495182837
| 10> C 0.7261058275 1.1976869132 0.2460505101
| 11> N 1.3836061341 -4.38239e-05 -0.2464524687
| 12> H 1.2526305629 -2.0717010315 -0.1431701042
| 13> H 0.7289394336 -1.2522286491 1.3524321696
| 14> H -0.7254644923 -1.2039115076 -1.3421901585
| 15> H -1.2564545861 -2.0704642185 0.1171252313
| 16> H -1.5300234126 0.0001005333 1.1829606544
| 17> H -0.7254827197 1.2039681124 -1.3422545707
| 18> H -1.2565627782 2.0705983343 0.1170092029
| 19> H 1.2525367891 2.0715855531 -0.1430423146
| 20> H 0.7288034147 1.252026189 1.3524832776
| 21> H 2.3646824813 -3.5941e-05 0.0146028471
| 22> *
| 23>
| 24>                          ****END OF INPUT****

CARTESIAN COORDINATES (ANGSTROEM)
---------------------------------
  C      0.726195   -1.197832    0.246016
  C     -0.725245   -1.189610   -0.249467
  N     -1.445094    0.000057    0.168485
  C     -0.725303    1.189746   -0.249518
  C      0.726106    1.197687    0.246051
  N      1.383606   -0.000044   -0.246452
  H      1.252631   -2.071701   -0.143170
  H      0.728939   -1.252229    1.352432
  H     -0.725464   -1.203912   -1.342190
  H     -1.256455   -2.070464    0.117125
  H     -1.530023    0.000101    1.182961
  H     -0.725483    1.203968   -1.342255
  H     -1.256563    2.070598    0.117009
  H      1.252537    2.071586   -0.143042
  H      0.728803    1.252026    1.352483
  H      2.364682   -0.000036    0.014603

 Total Charge           Charge          ....    0
 Multiplicity           Mult            ....    1
 Number of Electrons    NEL             ....   48
 Basis Dimension        Dim             ....  104

ORBITAL ENERGIES
----------------

  NO   OCC          E(Eh)            E(eV)
   0   2.0000     -13.971049      -380.1716
   1   2.0000     -13.965596      -380.0232
   2   2.0000      -9.904842      -269.5245
   3   2.0000      -9.904839      -269.5244
   4   2.0000      -9.901565      -269.4353
   5   2.0000      -9.901559      -269.4351
   6   2.0000      -0.845799       -23.0154
   7   2.0000      -0.790310       -21.5054
   8   2.0000      -0.678036       -18.4503
   9   2.0000      -0.591825       -16.1044
  10   2.0000      -0.564292       -15.3552
  11   2.0000      -0.514050       -13.9880
  12   2.0000      -0.467046       -12.7090
  13   2.0000      -0.408889       -11.1264
  14   2.0000      -0.406298       -11.0559
  15   2.0000      -0.395383       -10.7589
  16   2.0000      -0.381699       -10.3866
  17   2.0000      -0.344053        -9.3622
  18   2.0000      -0.339013        -9.2250
  19   2.0000      -0.305836        -8.3222
  20   2.0000      -0.303898        -8.2695
  21   2.0000      -0.292600        -7.9621
  22   2.0000      -0.185965        -5.0604
  23   2.0000      -0.163856        -4.4587
  24   0.0000       0.029538         0.8038
  25   0.0000       0.061523         1.6741
  26   0.0000       0.067117         1.8264
  27   0.0000       0.072523         1.9735
  28   0.0000       0.099290         2.7018

MULLIKEN ATOMIC CHARGES
-----------------------
   0 C :   -0.068964
   1 C :   -0.073883
   2 N :   -0.333732
   3 C :   -0.073811
   4 C :   -0.069036
   5 N :   -0.359269
   6 H :    0.080313
   7 H :    0.044902
   8 H :    0.081015
   9 H :    0.086196
  10 H :    0.189374
  11 H :    0.081015
  12 H :    0.086210
  13 H :    0.080299
  14 H :    0.044909
  15 H :    0.204462
Sum of atomic charges:    0.0000000

LOEWDIN ATOMIC CHARGES
----------------------
   0 C :   -0.186766
   1 C :   -0.178536
   2 N :   -0.257345
   3 C :   -0.178531
   4 C :   -0.186761
   5 N :   -0.268423
   6 H :    0.112672
   7 H :    0.082545
   8 H :    0.116538
   9 H :    0.111635
  10 H :    0.201663
  11 H :    0.116539
  12 H :    0.111641
  13 H :    0.112668
  14 H :    0.082544
  15 H :    0.207917

  Mayer bond orders larger than 0.100000
B(  0-C ,  1-C ) :   1.1143 B(  0-C ,  5-N ) :   1.0672 B(  0-C ,  6-H ) :   0.9195
B(  0-C ,  7-H ) :   0.8892 B(  1-C ,  2-N ) :   1.1106 B(  1-C ,  8-H ) :   0.9074
B(  1-C ,  9-H ) :   0.9328 B(  2-N ,  3-C ) :   1.1105 B(  2-N , 10-H ) :   0.8781
B(  3-C ,  4-C ) :   1.1143 B(  3-C , 11-H ) :   0.9074 B(  3-C , 12-H ) :   0.9328
B(  4-C ,  5-N ) :   1.0673 B(  4-C , 13-H ) :   0.9195 B(  4-C , 14-H ) :   0.8892
B(  5-N , 15-H ) :   0.8794

Dispersion correction           -0.012993978
FINAL SINGLE POINT ENERGY      -267.290454122551

DIPOLE MOMENT
-------------

Method             : SCF
Type of density    : Electron Density
Multiplicity       :   1
Irrep              :   0
Energy             :  -267.3555897572186950 Eh
Relativity type    :
Basis              : AO
                                X                 Y                 Z
Electronic contribution:     -0.282551498       0.000121328      -0.575493366
Nuclear contribution   :      0.781722591      -0.000058683       1.093433140
                        -----------------------------------------
Total Dipole Moment    :      0.499171092       0.000062644       0.517939774
                        -----------------------------------------
Magnitude (a.u.)       :      0.719328432
Magnitude (Debye)      :      1.828387569

Rotational constants in cm-1:             0.160868             0.152091             0.088852
Rotational constants in MHz :          4822.714731          4559.572802          2663.723303

                             ****ORCA TERMINATED NORMALLY****
TOTAL RUN TIME: 0 days 0 hours 0 minutes 17 seconds 42 msec
