                         Program Version 6.0.1  -  RELEASE   -
|  1> ! pbe def2-sv(p) def2/J RI DEFGRID1 loosescf d4 GCP(DFT/SV(P)) printgap
|  2> %output
|  3>     printlevel normal
|  4> end
|  5> * xyz 0 1
|  6> C -2.1165055277 -1.1872372298 -0.1962061303
|  7> C -1.2589277777 -0.3238548285 0.7507078676
|  8> H -1.8581245784 -0.1372979434 1.6487692759
|  9> C -0.906932809 1.0555478316 0.1548243933
| 10> H -1.1717287029 1.1054651254 -0.9172860784
| 11> C 0.6032533605 1.2898507259 0.2471149903
| 12> H 0.8991657147 1.3519589716 1.305453271
| 13> C 1.3154131503 0.0981675821 -0.3932184163
| 14> H 0.9548889784 -0.0215606269 -1.4297611494
| 15> C 0.9834674253 -1.1858178789 0.4070511793
| 16> H 1.8129929526 -1.3964279832 1.0955896577
| 17> O -0.12584208 -1.0118438036 1.2508860815
| 18> O 0.8884730899 -2.294759145 -0.4220966661
| 19> O 2.6964093145 0.3757295692 -0.4062290421
| 20> O 0.8967748765 2.4941584431 -0.4166723228
| 21> O -1.6290868221 2.0360093418 0.8484563276
| 22> O -1.5371779976 -1.4195588546 -1.4638813225
| 23> H -3.0987541465 -0.7154477899 -0.3022474915
| 24> H -2.2385928762 -2.1738242155 0.2559333524
| 25> H 0.0613305035 -2.2356830839 -0.935862473
| 26> H 3.1652663205 -0.4113867912 -0.7046396777
| 27> H 1.8537836618 2.5207859332 -0.5399316627
| 28> H -1.2395040949 2.8920038977 0.6273212809
| 29> H -1.5756117934 -0.6126450408 -1.9901665934
| 30> *
| 31>
| 32>                          ****END OF INPUT****

CARTESIAN COORDINATES (ANGSTROEM)
---------------------------------
  C     -2.116506   -1.187237   -0.196206
  C     -1.258928   -0.323855    0.750708
  H     -1.858125   -0.137298    1.648769
  C     -0.906933    1.055548    0.154824
  H     -1.171729    1.105465   -0.917286
  C      0.603253    1.289851    0.247115
  H      0.899166    1.351959    1.305453
  C      1.315413    0.098168   -0.393218
  H      0.954889   -0.021561   -1.429761
  C      0.983467   -1.185818    0.407051
  H      1.812993   -1.396428    1.095590
  O     -0.125842   -1.011844    1.250886
  O      0.888473   -2.294759   -0.422097
  O      2.696409    0.375730   -0.406229
  O      0.896775    2.494158   -0.416672
  O     -1.629087    2.036009    0.848456
  O     -1.537178   -1.419559   -1.463881
  H     -3.098754   -0.715448   -0.302247
  H     -2.238593   -2.173824    0.255933
  H      0.061331   -2.235683   -0.935862
  H      3.165266   -0.411387   -0.704640
  H      1.853784    2.520786   -0.539932
  H     -1.239504    2.892004    0.627321
  H     -1.575612   -0.612645   -1.990167

 Total Charge           Charge          ....    0
 Multiplicity           Mult            ....    1
 Number of Electrons    NEL             ....   96
 Basis Dimension        Dim             ....  192

ORBITAL ENERGIES
----------------

  NO   OCC          E(Eh)            E(eV)
   0   2.0000     -18.789141      -511.2785
   1   2.0000     -18.767274      -510.6835
   2   2.0000     -18.766181      -510.6538
   3   2.0000     -18.757812      -510.4260
   4   2.0000     -18.755327      -510.3584
   5   2.0000     -18.740077      -509.9434
   6   2.0000      -9.980594      -271.5858
   7   2.0000      -9.953323      -270.8437
   8   2.0000      -9.951264      -270.7877
   9   2.0000      -9.949909      -270.7508
  10   2.0000      -9.944831      -270.6126
  11   2.0000      -9.944346      -270.5994
  12   2.0000      -0.980118       -26.6704
  13   2.0000      -0.957135       -26.0450
  14   2.0000      -0.950158       -25.8551
  15   2.0000      -0.939927       -25.5767
  16   2.0000      -0.921409       -25.0728
  17   2.0000      -0.903116       -24.5750
  18   2.0000      -0.711176       -19.3521
  19   2.0000      -0.696645       -18.9567
  20   2.0000      -0.630280       -17.1508
  21   2.0000      -0.589516       -16.0415
  22   2.0000      -0.577556       -15.7161
  23   2.0000      -0.524182       -14.2637
  24   2.0000      -0.508113       -13.8265
  25   2.0000      -0.497713       -13.5435
  26   2.0000      -0.484261       -13.1774
  27   2.0000      -0.462513       -12.5856
  28   2.0000      -0.446433       -12.1481
  29   2.0000      -0.435074       -11.8390
  30   2.0000      -0.420274       -11.4362
  31   2.0000      -0.417883       -11.3712
  32   2.0000      -0.400633       -10.9018
  33   2.0000      -0.383881       -10.4459
  34   2.0000      -0.364303        -9.9132
  35   2.0000      -0.355582        -9.6759
  36   2.0000      -0.325015        -8.8441
  37   2.0000      -0.319837        -8.7032
  38   2.0000      -0.311768        -8.4837
  39   2.0000      -0.307976        -8.3805
  40   2.0000      -0.290267        -7.8986
  41   2.0000      -0.277196        -7.5429
  42   2.0000      -0.272186        -7.4066
  43   2.0000      -0.253056        -6.8860
  44   2.0000      -0.229964        -6.2576
  45   2.0000      -0.225755        -6.1431
  46   2.0000      -0.216153        -5.8818
  47   2.0000      -0.211046        -5.7428
  48   0.0000      -0.002835        -0.0771
  49   0.0000       0.016781         0.4566
  50   0.0000       0.042460         1.1554
  51   0.0000       0.045848         1.2476
  52   0.0000       0.063908         1.7390

MULLIKEN ATOMIC CHARGES
-----------------------
   0 C :   -0.017500
   1 C :    0.089979
   2 H :    0.090111
   3 C :    0.032950
   4 H :    0.025525
   5 C :    0.064139
   6 H :    0.068638
   7 C :   -0.007734
   8 H :    0.035248
   9 C :    0.200646
  10 H :    0.063716
  11 O :   -0.300391
  12 O :   -0.415835
  13 O :   -0.423997
  14 O :   -0.429300
  15 O :   -0.411845
  16 O :   -0.438851
  17 H :    0.104149
  18 H :    0.110968
  19 H :    0.304690
  20 H :    0.312853
  21 H :    0.313414
  22 H :    0.309913
  23 H :    0.318512
Sum of atomic charges:    0.0000000

LOEWDIN ATOMIC CHARGES
----------------------
   0 C :   -0.137996
   1 C :   -0.066420
   2 H :    0.133831
   3 C :   -0.064574
   4 H :    0.084845
   5 C :   -0.079077
   6 H :    0.111837
   7 C :   -0.096342
   8 H :    0.094398
   9 C :   -0.012116
  10 H :    0.109310
  11 O :   -0.136635
  12 O :   -0.324420
  13 O :   -0.322791
  14 O :   -0.326192
  15 O :   -0.315023
  16 O :   -0.320731
  17 H :    0.115656
  18 H :    0.124702
  19 H :    0.269079
  20 H :    0.293856
  21 H :    0.290207
  22 H :    0.288887
  23 H :    0.285710

  Mayer bond orders larger than 0.100000
B(  0-C ,  1-C ) :   1.0259 B(  0-C , 16-O ) :   1.0249 B(  0-C , 17-H ) :   0.9201
B(  0-C , 18-H ) :   0.9187 B(  1-C ,  2-H ) :   0.8746 B(  1-C ,  3-C ) :   0.9656
B(  1-C , 11-O ) :   1.0445 B(  3-C ,  4-H ) :   0.8760 B(  3-C ,  5-C ) :   1.0345
B(  3-C , 15-O ) :   1.0917 B(  5-C ,  6-H ) :   0.8665 B(  5-C ,  7-C ) :   1.0092
B(  5-C , 14-O ) :   1.0752 B(  7-C ,  8-H ) :   0.8766 B(  7-C ,  9-C ) :   0.9769
B(  7-C , 13-O ) :   1.0645 B(  9-C , 10-H ) :   0.8906 B(  9-C , 11-O ) :   1.0469
B(  9-C , 12-O ) :   1.1318 B( 12-O , 19-H ) :   0.7911 B( 13-O , 20-H ) :   0.8412
B( 14-O , 21-H ) :   0.8321 B( 15-O , 22-H ) :   0.8371 B( 16-O , 19-H ) :   0.1129
B( 16-O , 23-H ) :   0.8262

Dispersion correction           -0.025242937
FINAL SINGLE POINT ENERGY      -685.698160795946

DIPOLE MOMENT
-------------

Method             : SCF
Type of density    : Electron Density
Multiplicity       :   1
Irrep              :   0
Energy             :  -685.8313094277284563 Eh
Relativity type    :
Basis              : AO
                                X                 Y                 Z
Electronic contribution:      2.173607177       0.266732754       1.082258397
Nuclear contribution   :     -2.266716635       0.158343065      -1.779195897
                        -----------------------------------------
Total Dipole Moment    :     -0.093109458       0.425075819      -0.696937500
                        -----------------------------------------
Magnitude (a.u.)       :      0.821632949
Magnitude (Debye)      :      2.088424986

Rotational constants in cm-1:             0.036083             0.032364             0.021266
Rotational constants in MHz :          1081.743073           970.248681           637.528623

                             ****ORCA TERMINATED NORMALLY****
TOTAL RUN TIME: 0 days 0 hours 0 minutes 30 seconds 925 msec
