                         Program Version 6.0.1  -  RELEASE   -
|  1> ! pbe def2-sv(p) def2/J RI DEFGRID1 loosescf d4 GCP(DFT/SV(P)) printgap
|  2> %output
|  3>     printlevel normal
|  4> end
|  5> * xyz 0 1
|  6> C -2.3359999034 -0.8088895502 0.6811951534
|  7> C -0.877616115 -0.3237745197 0.7610047018
|  8> H -0.6379663718 -0.042952607 1.7977239917
|  9> C -0.6526704474 0.8927092873 -0.1542227023
| 10> H -0.9417144121 0.6227594247 -1.1763039157
| 11> C 0.8342113517 1.3285150228 -0.1436322438
| 12> H 0.9409732883 2.1788175621 0.5438500723
| 13> C 1.7537849013 0.1842720135 0.3462876083
| 14> H 2.7365408107 0.317478677 -0.1288481778
| 15> C 1.1853696987 -1.1501476118 -0.1427213945
| 16> H 1.836233012 -1.9785428253 0.1796236874
| 17> O -0.070399426 -1.4381287447 0.3852819571
| 18> O 1.1483924374 -1.0730652843 -1.5459974005
| 19> O 1.8713254488 0.1235188902 1.7452071412
| 20> O 1.2616754042 1.8037129732 -1.3878723389
| 21> O -1.5102015418 1.9449984567 0.1986728054
| 22> O -2.5991182126 -1.4456563008 -0.5373211027
| 23> H -3.0072332813 0.0493375818 0.7419092358
| 24> H -2.5292583312 -1.4887624899 1.5224759488
| 25> H 0.7150100529 -1.8637820233 -1.8887056794
| 26> H 2.3689852682 0.891104359 2.048899718
| 27> H 1.2258265933 1.0682673362 -2.014856565
| 28> H -1.2995819096 2.2449512201 1.0909083609
| 29> H -1.9144686152 -2.1174338823 -0.6509783942
| 30> *
| 31>
| 32>                          ****END OF INPUT****

CARTESIAN COORDINATES (ANGSTROEM)
---------------------------------
  C     -2.336000   -0.808890    0.681195
  C     -0.877616   -0.323775    0.761005
  H     -0.637966   -0.042953    1.797724
  C     -0.652670    0.892709   -0.154223
  H     -0.941714    0.622759   -1.176304
  C      0.834211    1.328515   -0.143632
  H      0.940973    2.178818    0.543850
  C      1.753785    0.184272    0.346288
  H      2.736541    0.317479   -0.128848
  C      1.185370   -1.150148   -0.142721
  H      1.836233   -1.978543    0.179624
  O     -0.070399   -1.438129    0.385282
  O      1.148392   -1.073065   -1.545997
  O      1.871325    0.123519    1.745207
  O      1.261675    1.803713   -1.387872
  O     -1.510202    1.944998    0.198673
  O     -2.599118   -1.445656   -0.537321
  H     -3.007233    0.049338    0.741909
  H     -2.529258   -1.488762    1.522476
  H      0.715010   -1.863782   -1.888706
  H      2.368985    0.891104    2.048900
  H      1.225827    1.068267   -2.014857
  H     -1.299582    2.244951    1.090908
  H     -1.914469   -2.117434   -0.650978

 Total Charge           Charge          ....    0
 Multiplicity           Mult            ....    1
 Number of Electrons    NEL             ....   96
 Basis Dimension        Dim             ....  192

ORBITAL ENERGIES
----------------

  NO   OCC          E(Eh)            E(eV)
   0   2.0000     -18.784461      -511.1512
   1   2.0000     -18.782218      -511.0901
   2   2.0000     -18.770384      -510.7681
   3   2.0000     -18.753387      -510.3056
   4   2.0000     -18.741866      -509.9921
   5   2.0000     -18.740280      -509.9489
   6   2.0000      -9.999206      -272.0922
   7   2.0000      -9.951028      -270.7812
   8   2.0000      -9.943158      -270.5671
   9   2.0000      -9.942531      -270.5500
  10   2.0000      -9.938899      -270.4512
  11   2.0000      -9.925633      -270.0902
  12   2.0000      -0.997921       -27.1548
  13   2.0000      -0.947937       -25.7947
  14   2.0000      -0.939012       -25.5518
  15   2.0000      -0.934069       -25.4173
  16   2.0000      -0.918755       -25.0006
  17   2.0000      -0.913996       -24.8711
  18   2.0000      -0.699886       -19.0449
  19   2.0000      -0.697509       -18.9802
  20   2.0000      -0.624275       -16.9874
  21   2.0000      -0.589991       -16.0545
  22   2.0000      -0.571007       -15.5379
  23   2.0000      -0.534178       -14.5357
  24   2.0000      -0.510093       -13.8803
  25   2.0000      -0.497755       -13.5446
  26   2.0000      -0.471950       -12.8424
  27   2.0000      -0.450064       -12.2469
  28   2.0000      -0.445374       -12.1192
  29   2.0000      -0.437465       -11.9040
  30   2.0000      -0.430393       -11.7116
  31   2.0000      -0.393525       -10.7084
  32   2.0000      -0.381104       -10.3704
  33   2.0000      -0.377170       -10.2633
  34   2.0000      -0.365822        -9.9545
  35   2.0000      -0.354062        -9.6345
  36   2.0000      -0.351673        -9.5695
  37   2.0000      -0.323615        -8.8060
  38   2.0000      -0.306150        -8.3308
  39   2.0000      -0.291443        -7.9306
  40   2.0000      -0.281427        -7.6580
  41   2.0000      -0.274331        -7.4649
  42   2.0000      -0.260302        -7.0832
  43   2.0000      -0.254943        -6.9374
  44   2.0000      -0.240291        -6.5387
  45   2.0000      -0.223980        -6.0948
  46   2.0000      -0.215081        -5.8527
  47   2.0000      -0.198154        -5.3920
  48   0.0000       0.003256         0.0886
  49   0.0000       0.013513         0.3677
  50   0.0000       0.027908         0.7594
  51   0.0000       0.051580         1.4036
  52   0.0000       0.063896         1.7387

MULLIKEN ATOMIC CHARGES
-----------------------
   0 C :    0.100065
   1 C :   -0.004240
   2 H :    0.050227
   3 C :    0.063999
   4 H :    0.050207
   5 C :    0.124268
   6 H :    0.029474
   7 C :   -0.012875
   8 H :    0.082176
   9 C :    0.192220
  10 H :    0.073213
  11 O :   -0.321822
  12 O :   -0.410436
  13 O :   -0.409874
  14 O :   -0.424314
  15 O :   -0.408210
  16 O :   -0.437624
  17 H :    0.088851
  18 H :    0.074920
  19 H :    0.307076
  20 H :    0.308500
  21 H :    0.304128
  22 H :    0.294578
  23 H :    0.285494
Sum of atomic charges:   -0.0000000

LOEWDIN ATOMIC CHARGES
----------------------
   0 C :   -0.127106
   1 C :   -0.083009
   2 H :    0.104550
   3 C :   -0.078651
   4 H :    0.118653
   5 C :   -0.074796
   6 H :    0.105833
   7 C :   -0.093469
   8 H :    0.112807
   9 C :    0.005525
  10 H :    0.101935
  11 O :   -0.138837
  12 O :   -0.316233
  13 O :   -0.311352
  14 O :   -0.313166
  15 O :   -0.299678
  16 O :   -0.332145
  17 H :    0.119777
  18 H :    0.097339
  19 H :    0.287361
  20 H :    0.291463
  21 H :    0.275967
  22 H :    0.279294
  23 H :    0.267936

  Mayer bond orders larger than 0.100000
B(  0-C ,  1-C ) :   1.0252 B(  0-C , 16-O ) :   1.0684 B(  0-C , 17-H ) :   0.9101
B(  0-C , 18-H ) :   0.9143 B(  1-C ,  2-H ) :   0.8618 B(  1-C ,  3-C ) :   1.0420
B(  1-C , 11-O ) :   0.9584 B(  3-C ,  4-H ) :   0.8440 B(  3-C ,  5-C ) :   0.9912
B(  3-C , 15-O ) :   1.0143 B(  5-C ,  6-H ) :   0.8648 B(  5-C ,  7-C ) :   0.9684
B(  5-C , 14-O ) :   1.0540 B(  7-C ,  8-H ) :   0.8859 B(  7-C ,  9-C ) :   1.0314
B(  7-C , 13-O ) :   1.0356 B(  9-C , 10-H ) :   0.8939 B(  9-C , 11-O ) :   1.0797
B(  9-C , 12-O ) :   1.0900 B( 12-O , 19-H ) :   0.8371 B( 13-O , 20-H ) :   0.8479
B( 14-O , 21-H ) :   0.8308 B( 15-O , 22-H ) :   0.8491 B( 16-O , 23-H ) :   0.8361

Dispersion correction           -0.025199056
FINAL SINGLE POINT ENERGY      -685.691372658873

DIPOLE MOMENT
-------------

Method             : SCF
Type of density    : Electron Density
Multiplicity       :   1
Irrep              :   0
Energy             :  -685.8232199521169150 Eh
Relativity type    :
Basis              : AO
                                X                 Y                 Z
Electronic contribution:      1.418336055      -0.329662602      -1.258149952
Nuclear contribution   :     -0.473821295      -0.112668497       1.921057824
                        -----------------------------------------
Total Dipole Moment    :      0.944514760      -0.442331098       0.662907872
                        -----------------------------------------
Magnitude (a.u.)       :      1.235804102
Magnitude (Debye)      :      3.141164395

Rotational constants in cm-1:             0.040150             0.027451             0.023663
Rotational constants in MHz :          1203.662767           822.963419           709.399238

                             ****ORCA TERMINATED NORMALLY****
TOTAL RUN TIME: 0 days 0 hours 0 minutes 10 seconds 489 msec
