                         Program Version 6.0.1  -  RELEASE   -
|  1> ! r2scan-3c def2/J RI DEFGRID2 scfconv6 printgap
|  2> %output
|  3>     printlevel normal
|  4> end
|  5> * xyz 0 1
|  6> C -2.0055260496 0.6818801487 0.4232053459
|  7> O -1.108646324 -0.4122690513 0.432048832
|  8> S 0.3645083938 -0.0050318904 -0.1069600505
|  9> O 0.9449613042 0.9408102571 0.793173062
| 10> O 0.2714979392 0.3629096746 -1.4845573381
| 11> C 1.1313383983 -1.6149012012 0.0741988942
| 12> H -2.1150035999 1.0599652104 -0.5957666536
| 13> H -1.6215266353 1.4777899301 1.0653145311
| 14> H -2.959510273 0.3158887426 0.7986342673
| 15> H 2.1615255308 -1.539016939 -0.2475378233
| 16> H 1.0678440322 -1.8832045303 1.1188259363
| 17> H 0.5782760184 -2.3035733705 -0.5480143661
| 18> *
| 19>
| 20>                          ****END OF INPUT****

CARTESIAN COORDINATES (ANGSTROEM)
---------------------------------
  C     -2.005526    0.681880    0.423205
  O     -1.108646   -0.412269    0.432049
  S      0.364508   -0.005032   -0.106960
  O      0.944961    0.940810    0.793173
  O      0.271498    0.362910   -1.484557
  C      1.131338   -1.614901    0.074199
  H     -2.115004    1.059965   -0.595767
  H     -1.621527    1.477790    1.065315
  H     -2.959510    0.315889    0.798634
  H      2.161526   -1.539017   -0.247538
  H      1.067844   -1.883205    1.118826
  H      0.578276   -2.303573   -0.548014

 Total Charge           Charge          ....    0
 Multiplicity           Mult            ....    1
 Number of Electrons    NEL             ....   58
 Basis Dimension        Dim             ....  167

ORBITAL ENERGIES
----------------

  NO   OCC          E(Eh)            E(eV)
   0   2.0000     -88.788976     -2416.0709
   1   2.0000     -19.007157      -517.2110
   2   2.0000     -18.950928      -515.6810
   3   2.0000     -18.950893      -515.6800
   4   2.0000     -10.096109      -274.7291
   5   2.0000     -10.081593      -274.3341
   6   2.0000      -8.057074      -219.2441
   7   2.0000      -6.004322      -163.3859
   8   2.0000      -6.001000      -163.2955
   9   2.0000      -6.000647      -163.2859
  10   2.0000      -1.122041       -30.5323
  11   2.0000      -1.020080       -27.7578
  12   2.0000      -0.986958       -26.8565
  13   2.0000      -0.764433       -20.8013
  14   2.0000      -0.688554       -18.7365
  15   2.0000      -0.578181       -15.7331
  16   2.0000      -0.513143       -13.9633
  17   2.0000      -0.481009       -13.0889
  18   2.0000      -0.463334       -12.6079
  19   2.0000      -0.435949       -11.8628
  20   2.0000      -0.431364       -11.7380
  21   2.0000      -0.410291       -11.1646
  22   2.0000      -0.407007       -11.0752
  23   2.0000      -0.373409       -10.1610
  24   2.0000      -0.314617        -8.5612
  25   2.0000      -0.314214        -8.5502
  26   2.0000      -0.298798        -8.1307
  27   2.0000      -0.293251        -7.9798
  28   2.0000      -0.261497        -7.1157
  29   0.0000       0.023596         0.6421
  30   0.0000       0.046585         1.2677
  31   0.0000       0.056561         1.5391
  32   0.0000       0.087843         2.3903
  33   0.0000       0.088657         2.4125

MULLIKEN ATOMIC CHARGES
-----------------------
   0 C :   -0.294518
   1 O :   -0.242881
   2 S :    0.994635
   3 O :   -0.525620
   4 O :   -0.525400
   5 C :   -0.468719
   6 H :    0.170259
   7 H :    0.170372
   8 H :    0.156795
   9 H :    0.188409
  10 H :    0.188296
  11 H :    0.188371
Sum of atomic charges:   -0.0000000

LOEWDIN ATOMIC CHARGES
----------------------
   0 C :   -0.058012
   1 O :   -0.627773
   2 S :    0.817568
   3 O :   -0.440909
   4 O :   -0.440826
   5 C :   -0.339129
   6 H :    0.176197
   7 H :    0.176280
   8 H :    0.181041
   9 H :    0.185327
  10 H :    0.185102
  11 H :    0.185134

  Mayer bond orders larger than 0.100000
B(  0-C ,  1-O ) :   0.8344 B(  0-C ,  6-H ) :   0.9591 B(  0-C ,  7-H ) :   0.9591
B(  0-C ,  8-H ) :   0.9620 B(  1-O ,  2-S ) :   0.9073 B(  2-S ,  3-O ) :   1.6852
B(  2-S ,  4-O ) :   1.6855 B(  2-S ,  5-C ) :   0.9345 B(  5-C ,  9-H ) :   0.9305
B(  5-C , 10-H ) :   0.9328 B(  5-C , 11-H ) :   0.9327

Dispersion correction           -0.003060636
FINAL SINGLE POINT ENERGY      -703.553624602196

DIPOLE MOMENT
-------------

Method             : SCF
Type of density    : Electron Density
Multiplicity       :   1
Irrep              :   0
Energy             :  -703.5700845528798482 Eh
Relativity type    :
Basis              : AO
                                X                 Y                 Z
Electronic contribution:      2.291031258       1.681314367      -1.110429986
Nuclear contribution   :     -2.718764759      -2.681221692       1.492313937
                        -----------------------------------------
Total Dipole Moment    :     -0.427733501      -0.999907325       0.381883951
                        -----------------------------------------
Magnitude (a.u.)       :      1.152651708
Magnitude (Debye)      :      2.929807805

Rotational constants in cm-1:             0.151814             0.088474             0.084477
Rotational constants in MHz :          4551.255789          2652.385201          2532.554080

                             ****ORCA TERMINATED NORMALLY****
TOTAL RUN TIME: 0 days 0 hours 0 minutes 16 seconds 425 msec
