                         Program Version 6.0.1  -  RELEASE   -
|  1> ! r2scan-3c def2/J RI DEFGRID2 scfconv6 printgap
|  2> %output
|  3>     printlevel normal
|  4> end
|  5> * xyz 0 1
|  6> C 1.8419456349 -0.4225592765 -0.4833903341
|  7> C 0.8298103244 -0.3643640399 0.6633460903
|  8> C -0.4694434515 0.201717889 0.1508228319
|  9> O -0.8007567226 1.3549435073 0.198764637
| 10> O -1.2354362944 -0.742437864 -0.4126186607
| 11> H 2.0080761648 0.5719341115 -0.8908829892
| 12> H 2.7894098396 -0.8136296753 -0.1218548409
| 13> H 1.4772338637 -1.0702154251 -1.2769825034
| 14> H 0.6507793537 -1.3668882721 1.0513772152
| 15> H 1.202653003 0.282025822 1.4575552338
| 16> H -2.0502764183 -0.3523290521 -0.7663353975
| 17> *
| 18>
| 19>                          ****END OF INPUT****

CARTESIAN COORDINATES (ANGSTROEM)
---------------------------------
  C      1.841946   -0.422559   -0.483390
  C      0.829810   -0.364364    0.663346
  C     -0.469443    0.201718    0.150823
  O     -0.800757    1.354944    0.198765
  O     -1.235436   -0.742438   -0.412619
  H      2.008076    0.571934   -0.890883
  H      2.789410   -0.813630   -0.121855
  H      1.477234   -1.070215   -1.276983
  H      0.650779   -1.366888    1.051377
  H      1.202653    0.282026    1.457555
  H     -2.050276   -0.352329   -0.766335

 Total Charge           Charge          ....    0
 Multiplicity           Mult            ....    1
 Number of Electrons    NEL             ....   40
 Basis Dimension        Dim             ....  135

ORBITAL ENERGIES
----------------

  NO   OCC          E(Eh)            E(eV)
   0   2.0000     -19.001079      -517.0456
   1   2.0000     -18.937107      -515.3049
   2   2.0000     -10.161471      -276.5077
   3   2.0000     -10.049927      -273.4724
   4   2.0000     -10.036464      -273.1061
   5   2.0000      -1.076832       -29.3021
   6   2.0000      -0.984121       -26.7793
   7   2.0000      -0.761969       -20.7342
   8   2.0000      -0.642163       -17.4742
   9   2.0000      -0.573719       -15.6117
  10   2.0000      -0.467484       -12.7209
  11   2.0000      -0.449063       -12.2196
  12   2.0000      -0.425965       -11.5911
  13   2.0000      -0.417467       -11.3599
  14   2.0000      -0.379104       -10.3159
  15   2.0000      -0.348219        -9.4755
  16   2.0000      -0.341600        -9.2954
  17   2.0000      -0.332826        -9.0567
  18   2.0000      -0.294226        -8.0063
  19   2.0000      -0.242049        -6.5865
  20   0.0000      -0.020770        -0.5652
  21   0.0000       0.057949         1.5769
  22   0.0000       0.107534         2.9262
  23   0.0000       0.121787         3.3140
  24   0.0000       0.144358         3.9282

MULLIKEN ATOMIC CHARGES
-----------------------
   0 C :   -0.466663
   1 C :   -0.259908
   2 C :    0.370631
   3 O :   -0.395428
   4 O :   -0.355213
   5 H :    0.159820
   6 H :    0.153631
   7 H :    0.157310
   8 H :    0.151748
   9 H :    0.160072
  10 H :    0.324000
Sum of atomic charges:    0.0000000

LOEWDIN ATOMIC CHARGES
----------------------
   0 C :   -0.391508
   1 C :   -0.244045
   2 C :    0.336327
   3 O :   -0.408034
   4 O :   -0.408858
   5 H :    0.159799
   6 H :    0.154185
   7 H :    0.158580
   8 H :    0.174989
   9 H :    0.175316
  10 H :    0.293249

  Mayer bond orders larger than 0.100000
B(  0-C ,  1-C ) :   0.8979 B(  0-C ,  5-H ) :   0.9738 B(  0-C ,  6-H ) :   0.9692
B(  0-C ,  7-H ) :   0.9755 B(  1-C ,  2-C ) :   0.9749 B(  1-C ,  8-H ) :   0.9604
B(  1-C ,  9-H ) :   0.9646 B(  2-C ,  3-O ) :   1.9389 B(  2-C ,  4-O ) :   1.0184
B(  4-O , 10-H ) :   0.8653

Dispersion correction           -0.002114612
FINAL SINGLE POINT ENERGY      -268.349104558461

DIPOLE MOMENT
-------------

Method             : SCF
Type of density    : Electron Density
Multiplicity       :   1
Irrep              :   0
Energy             :  -268.3533414077018051 Eh
Relativity type    :
Basis              : AO
                                X                 Y                 Z
Electronic contribution:     -5.468693303       1.868584792       0.377520377
Nuclear contribution   :      5.671897236      -2.570044881      -0.516463266
                        -----------------------------------------
Total Dipole Moment    :      0.203203933      -0.701460089      -0.138942889
                        -----------------------------------------
Magnitude (a.u.)       :      0.743399772
Magnitude (Debye)      :      1.889572054

Rotational constants in cm-1:             0.286028             0.132612             0.107740
Rotational constants in MHz :          8574.895111          3975.595374          3229.954039

                             ****ORCA TERMINATED NORMALLY****
TOTAL RUN TIME: 0 days 0 hours 0 minutes 8 seconds 954 msec
