                         Program Version 6.0.1  -  RELEASE   -
|  1> ! r2scan-3c def2/J RI DEFGRID2 scfconv6 printgap
|  2> %output
|  3>     printlevel normal
|  4> end
|  5> * xyz 0 1
|  6> C -1.7280056026 0.3487984409 0.5883762391
|  7> C -0.8817505197 0.3411407928 -0.6798560313
|  8> C 0.5842145487 -0.0710176002 -0.48174756
|  9> C 1.3317564158 0.8950236693 0.4350018665
| 10> C 0.7115795848 -1.5017424075 0.0371684088
| 11> H -1.7681042035 -0.6397472299 1.0378184848
| 12> H -2.7453742772 0.6515855493 0.3492666659
| 13> H -1.3316170094 1.048782794 1.3189433353
| 14> H -1.3367325405 -0.3424022834 -1.4013833534
| 15> H -0.9012674645 1.3410699908 -1.1209812555
| 16> H 1.0576216419 -0.0293334564 -1.470824226
| 17> H 0.960863426 0.8272433732 1.4545683672
| 18> H 1.2149022348 1.9201860084 0.0902325422
| 19> H 2.3931852396 0.6566741314 0.4464970907
| 20> H 1.7549293567 -1.8100282238 0.0367156609
| 21> H 0.1510582587 -2.189980205 -0.5917845643
| 22> H 0.3384816997 -1.5794706038 1.0552139693
| 23> *
| 24>
| 25>                          ****END OF INPUT****

CARTESIAN COORDINATES (ANGSTROEM)
---------------------------------
  C     -1.728006    0.348798    0.588376
  C     -0.881751    0.341141   -0.679856
  C      0.584215   -0.071018   -0.481748
  C      1.331756    0.895024    0.435002
  C      0.711580   -1.501742    0.037168
  H     -1.768104   -0.639747    1.037818
  H     -2.745374    0.651586    0.349267
  H     -1.331617    1.048783    1.318943
  H     -1.336733   -0.342402   -1.401383
  H     -0.901267    1.341070   -1.120981
  H      1.057622   -0.029333   -1.470824
  H      0.960863    0.827243    1.454568
  H      1.214902    1.920186    0.090233
  H      2.393185    0.656674    0.446497
  H      1.754929   -1.810028    0.036716
  H      0.151058   -2.189980   -0.591785
  H      0.338482   -1.579471    1.055214

 Total Charge           Charge          ....    0
 Multiplicity           Mult            ....    1
 Number of Electrons    NEL             ....   42
 Basis Dimension        Dim             ....  155

ORBITAL ENERGIES
----------------

  NO   OCC          E(Eh)            E(eV)
   0   2.0000     -10.029475      -272.9159
   1   2.0000     -10.020152      -272.6622
   2   2.0000     -10.012909      -272.4651
   3   2.0000     -10.011935      -272.4386
   4   2.0000     -10.011932      -272.4385
   5   2.0000      -0.775071       -21.0908
   6   2.0000      -0.695717       -18.9314
   7   2.0000      -0.647122       -17.6091
   8   2.0000      -0.597550       -16.2601
   9   2.0000      -0.507162       -13.8006
  10   2.0000      -0.436150       -11.8682
  11   2.0000      -0.418775       -11.3954
  12   2.0000      -0.400943       -10.9102
  13   2.0000      -0.366758        -9.9800
  14   2.0000      -0.352332        -9.5874
  15   2.0000      -0.342177        -9.3111
  16   2.0000      -0.341754        -9.2996
  17   2.0000      -0.313021        -8.5177
  18   2.0000      -0.287014        -7.8101
  19   2.0000      -0.282762        -7.6943
  20   2.0000      -0.280895        -7.6435
  21   0.0000       0.081747         2.2244
  22   0.0000       0.117351         3.1933
  23   0.0000       0.129683         3.5289
  24   0.0000       0.131705         3.5839
  25   0.0000       0.143501         3.9048

MULLIKEN ATOMIC CHARGES
-----------------------
   0 C :   -0.505545
   1 C :   -0.237374
   2 C :   -0.008039
   3 C :   -0.504621
   4 C :   -0.504626
   5 H :    0.151777
   6 H :    0.145177
   7 H :    0.151767
   8 H :    0.139907
   9 H :    0.139830
  10 H :    0.144695
  11 H :    0.152716
  12 H :    0.145845
  13 H :    0.144983
  14 H :    0.144970
  15 H :    0.145820
  16 H :    0.152716
Sum of atomic charges:   -0.0000000

LOEWDIN ATOMIC CHARGES
----------------------
   0 C :   -0.426203
   1 C :   -0.314365
   2 C :   -0.251821
   3 C :   -0.419497
   4 C :   -0.419492
   5 H :    0.150619
   6 H :    0.151415
   7 H :    0.150614
   8 H :    0.153308
   9 H :    0.153309
  10 H :    0.154485
  11 H :    0.151915
  12 H :    0.153543
  13 H :    0.153358
  14 H :    0.153356
  15 H :    0.153545
  16 H :    0.151912

  Mayer bond orders larger than 0.100000
B(  0-C ,  1-C ) :   0.8834 B(  0-C ,  5-H ) :   0.9817 B(  0-C ,  6-H ) :   0.9671
B(  0-C ,  7-H ) :   0.9817 B(  1-C ,  2-C ) :   0.9063 B(  1-C ,  8-H ) :   0.9756
B(  1-C ,  9-H ) :   0.9756 B(  2-C ,  3-C ) :   0.9119 B(  2-C ,  4-C ) :   0.9120
B(  2-C , 10-H ) :   0.9612 B(  3-C , 11-H ) :   0.9845 B(  3-C , 12-H ) :   0.9738
B(  3-C , 13-H ) :   0.9701 B(  4-C , 14-H ) :   0.9701 B(  4-C , 15-H ) :   0.9738
B(  4-C , 16-H ) :   0.9844

Dispersion correction           -0.003982610
FINAL SINGLE POINT ENERGY      -197.688545348205

DIPOLE MOMENT
-------------

Method             : SCF
Type of density    : Electron Density
Multiplicity       :   1
Irrep              :   0
Energy             :  -197.6927721977208989 Eh
Relativity type    :
Basis              : AO
                                X                 Y                 Z
Electronic contribution:      0.206114435       0.143958265      -1.186237443
Nuclear contribution   :     -0.198940413      -0.136427491       1.129810853
                        -----------------------------------------
Total Dipole Moment    :      0.007174022       0.007530774      -0.056426590
                        -----------------------------------------
Magnitude (a.u.)       :      0.057377166
Magnitude (Debye)      :      0.145841167

Rotational constants in cm-1:             0.203348             0.126146             0.102623
Rotational constants in MHz :          6096.234320          3781.775255          3076.572144

                             ****ORCA TERMINATED NORMALLY****
TOTAL RUN TIME: 0 days 0 hours 0 minutes 20 seconds 871 msec
