                         Program Version 6.0.1  -  RELEASE   -
|  1> ! pbe def2-sv(p) def2/J RI DEFGRID1 loosescf d4 GCP(DFT/SV(P)) printgap
|  2> %output
|  3>     printlevel normal
|  4> end
|  5> * xyz 0 1
|  6> C -2.4892146525 -0.4346216917 -0.2912521595
|  7> C -1.0787728182 -0.2038256765 0.2633820595
|  8> H -1.06611245 -0.4608215206 1.3371179595
|  9> C -0.6401402863 1.2791602164 0.1177050787
| 10> H -1.3360509972 1.8130947333 -0.5386239669
| 11> C 0.7626449254 1.3271855742 -0.5284784256
| 12> H 1.1535884354 2.3479942288 -0.441226746
| 13> C 1.6938915031 0.3482875639 0.2219150811
| 14> H 2.6742014929 0.3265820035 -0.2725679537
| 15> C 1.0989077356 -1.0868169724 0.1585287825
| 16> H 1.0552660375 -1.4770045742 1.1885710294
| 17> O -0.1865390049 -1.0670327554 -0.4189410374
| 18> O 1.8839934119 -1.9596242832 -0.5627147188
| 19> O 1.8241827779 0.7056030975 1.5838715105
| 20> O 0.7236835503 1.0384568272 -1.8986514511
| 21> O -0.6757882179 1.9528332885 1.3442912452
| 22> O -2.9765292911 -1.7255498924 -0.0658482452
| 23> H -2.4773572186 -0.3100389666 -1.3761955633
| 24> H -3.1506298644 0.3242851484 0.1520807782
| 25> H 1.7670928496 -1.7821312569 -1.5048631916
| 26> H 2.405624541 1.471124413 1.6561179934
| 27> H 0.2495495203 0.2000369928 -2.0062049201
| 28> H 0.0177145951 1.575219736 1.9091647424
| 29> H -2.9282805138 -1.9265103295 0.8758019295
| 30> *
| 31>
| 32>                          ****END OF INPUT****

CARTESIAN COORDINATES (ANGSTROEM)
---------------------------------
  C     -2.489215   -0.434622   -0.291252
  C     -1.078773   -0.203826    0.263382
  H     -1.066112   -0.460822    1.337118
  C     -0.640140    1.279160    0.117705
  H     -1.336051    1.813095   -0.538624
  C      0.762645    1.327186   -0.528478
  H      1.153588    2.347994   -0.441227
  C      1.693892    0.348288    0.221915
  H      2.674201    0.326582   -0.272568
  C      1.098908   -1.086817    0.158529
  H      1.055266   -1.477005    1.188571
  O     -0.186539   -1.067033   -0.418941
  O      1.883993   -1.959624   -0.562715
  O      1.824183    0.705603    1.583872
  O      0.723684    1.038457   -1.898651
  O     -0.675788    1.952833    1.344291
  O     -2.976529   -1.725550   -0.065848
  H     -2.477357   -0.310039   -1.376196
  H     -3.150630    0.324285    0.152081
  H      1.767093   -1.782131   -1.504863
  H      2.405625    1.471124    1.656118
  H      0.249550    0.200037   -2.006205
  H      0.017715    1.575220    1.909165
  H     -2.928281   -1.926510    0.875802

 Total Charge           Charge          ....    0
 Multiplicity           Mult            ....    1
 Number of Electrons    NEL             ....   96
 Basis Dimension        Dim             ....  192

ORBITAL ENERGIES
----------------

  NO   OCC          E(Eh)            E(eV)
   0   2.0000     -18.787869      -511.2439
   1   2.0000     -18.787744      -511.2405
   2   2.0000     -18.767111      -510.6790
   3   2.0000     -18.757033      -510.4048
   4   2.0000     -18.749753      -510.2067
   5   2.0000     -18.746318      -510.1132
   6   2.0000      -9.997829      -272.0548
   7   2.0000      -9.953098      -270.8376
   8   2.0000      -9.951834      -270.8032
   9   2.0000      -9.947161      -270.6760
  10   2.0000      -9.945254      -270.6241
  11   2.0000      -9.941080      -270.5105
  12   2.0000      -1.000931       -27.2367
  13   2.0000      -0.960885       -26.1470
  14   2.0000      -0.942424       -25.6447
  15   2.0000      -0.933673       -25.4065
  16   2.0000      -0.925496       -25.1840
  17   2.0000      -0.921020       -25.0622
  18   2.0000      -0.703398       -19.1404
  19   2.0000      -0.695839       -18.9347
  20   2.0000      -0.626532       -17.0488
  21   2.0000      -0.591973       -16.1084
  22   2.0000      -0.578834       -15.7509
  23   2.0000      -0.543816       -14.7980
  24   2.0000      -0.506791       -13.7905
  25   2.0000      -0.504954       -13.7405
  26   2.0000      -0.493607       -13.4317
  27   2.0000      -0.467656       -12.7256
  28   2.0000      -0.461131       -12.5480
  29   2.0000      -0.428451       -11.6587
  30   2.0000      -0.411172       -11.1886
  31   2.0000      -0.408576       -11.1179
  32   2.0000      -0.396083       -10.7780
  33   2.0000      -0.382161       -10.3991
  34   2.0000      -0.361092        -9.8258
  35   2.0000      -0.352897        -9.6028
  36   2.0000      -0.344477        -9.3737
  37   2.0000      -0.329253        -8.9594
  38   2.0000      -0.318537        -8.6678
  39   2.0000      -0.309974        -8.4348
  40   2.0000      -0.286381        -7.7928
  41   2.0000      -0.281091        -7.6489
  42   2.0000      -0.267277        -7.2730
  43   2.0000      -0.259598        -7.0640
  44   2.0000      -0.251358        -6.8398
  45   2.0000      -0.224896        -6.1197
  46   2.0000      -0.213402        -5.8070
  47   2.0000      -0.202247        -5.5034
  48   0.0000      -0.002099        -0.0571
  49   0.0000       0.018992         0.5168
  50   0.0000       0.021152         0.5756
  51   0.0000       0.050732         1.3805
  52   0.0000       0.054345         1.4788

MULLIKEN ATOMIC CHARGES
-----------------------
   0 C :    0.075226
   1 C :   -0.017999
   2 H :    0.046314
   3 C :    0.059244
   4 H :    0.077249
   5 C :    0.017056
   6 H :    0.069948
   7 C :    0.000506
   8 H :    0.080995
   9 C :    0.202259
  10 H :    0.072157
  11 O :   -0.298902
  12 O :   -0.374769
  13 O :   -0.418025
  14 O :   -0.421304
  15 O :   -0.428968
  16 O :   -0.420403
  17 H :    0.084999
  18 H :    0.092368
  19 H :    0.298685
  20 H :    0.315134
  21 H :    0.301261
  22 H :    0.291019
  23 H :    0.295949
Sum of atomic charges:    0.0000000

LOEWDIN ATOMIC CHARGES
----------------------
   0 C :   -0.126944
   1 C :   -0.081978
   2 H :    0.101620
   3 C :   -0.076345
   4 H :    0.118033
   5 C :   -0.086767
   6 H :    0.112914
   7 C :   -0.099362
   8 H :    0.111892
   9 C :    0.007469
  10 H :    0.105458
  11 O :   -0.149166
  12 O :   -0.284998
  13 O :   -0.308668
  14 O :   -0.315437
  15 O :   -0.320727
  16 O :   -0.327103
  17 H :    0.117451
  18 H :    0.106143
  19 H :    0.284083
  20 H :    0.295605
  21 H :    0.268175
  22 H :    0.264893
  23 H :    0.283759

  Mayer bond orders larger than 0.100000
B(  0-C ,  1-C ) :   1.0415 B(  0-C , 16-O ) :   1.0878 B(  0-C , 17-H ) :   0.9054
B(  0-C , 18-H ) :   0.9176 B(  1-C ,  2-H ) :   0.8625 B(  1-C ,  3-C ) :   0.9512
B(  1-C , 11-O ) :   0.9920 B(  3-C ,  4-H ) :   0.8965 B(  3-C ,  5-C ) :   0.9820
B(  3-C , 15-O ) :   1.0465 B(  5-C ,  6-H ) :   0.8932 B(  5-C ,  7-C ) :   0.9716
B(  5-C , 14-O ) :   1.0440 B(  7-C ,  8-H ) :   0.9006 B(  7-C ,  9-C ) :   0.9475
B(  7-C , 13-O ) :   1.0186 B(  9-C , 10-H ) :   0.8868 B(  9-C , 11-O ) :   1.0154
B(  9-C , 12-O ) :   1.1481 B( 12-O , 19-H ) :   0.8408 B( 13-O , 20-H ) :   0.8384
B( 13-O , 22-H ) :   0.1099 B( 14-O , 21-H ) :   0.8204 B( 15-O , 22-H ) :   0.8118
B( 16-O , 23-H ) :   0.8527

Dispersion correction           -0.024905341
FINAL SINGLE POINT ENERGY      -685.688095133765

DIPOLE MOMENT
-------------

Method             : SCF
Type of density    : Electron Density
Multiplicity       :   1
Irrep              :   0
Energy             :  -685.8205935495860786 Eh
Relativity type    :
Basis              : AO
                                X                 Y                 Z
Electronic contribution:      2.048544738      -1.600599774      -0.439327299
Nuclear contribution   :     -1.525492340       1.956240734       0.918363443
                        -----------------------------------------
Total Dipole Moment    :      0.523052398       0.355640960       0.479036145
                        -----------------------------------------
Magnitude (a.u.)       :      0.793435524
Magnitude (Debye)      :      2.016752829

Rotational constants in cm-1:             0.038397             0.027012             0.021699
Rotational constants in MHz :          1151.117835           809.793745           650.525832

                             ****ORCA TERMINATED NORMALLY****
TOTAL RUN TIME: 0 days 0 hours 0 minutes 8 seconds 826 msec
