                         Program Version 6.0.1  -  RELEASE   -
|  1> ! pbe def2-sv(p) def2/J RI DEFGRID1 loosescf d4 GCP(DFT/SV(P)) printgap
|  2> %output
|  3>     printlevel normal
|  4> end
|  5> * xyz 0 1
|  6> C -2.3933568766 -0.787417903 -0.06022261
|  7> C -1.0113373856 -0.2799040134 0.3706817325
|  8> H -1.0689749803 0.0793420722 1.4115238075
|  9> C -0.515488694 0.8605584655 -0.5229214708
| 10> H -0.40722705 0.5069921182 -1.5537156305
| 11> C 0.8509873563 1.3448744211 -0.0120360251
| 12> H 0.6844688187 1.934135352 0.9083025995
| 13> C 1.7549474899 0.16854147 0.3874469437
| 14> H 2.7248814785 0.3159573565 -0.1055802128
| 15> C 1.1791465398 -1.1729215573 -0.096724987
| 16> H 1.759916612 -2.0001721522 0.3531786414
| 17> O -0.1278534 -1.4025168493 0.3433201181
| 18> O 1.2842057474 -1.2137098695 -1.4872651608
| 19> O 1.8708460172 0.1832594637 1.7879242025
| 20> O 1.5078026637 2.1262976038 -0.9721210225
| 21> O -1.4291338651 1.9269027126 -0.585455524
| 22> O -2.9199544864 -1.701129068 0.8611719765
| 23> H -2.3042898045 -1.2422334455 -1.0575867325
| 24> H -3.0945543276 0.0473526536 -0.1147627766
| 25> H 0.8684027554 -2.0233459499 -1.8088114802
| 26> H 2.487187693 -0.5025265688 2.0683772837
| 27> H 0.8495218811 2.6941495824 -1.3928584366
| 28> H -1.5965156344 2.2503996185 0.3089406452
| 29> H -2.2440083538 -2.3695595824 1.0260160542
| 30> *
| 31>
| 32>                          ****END OF INPUT****

CARTESIAN COORDINATES (ANGSTROEM)
---------------------------------
  C     -2.393357   -0.787418   -0.060223
  C     -1.011337   -0.279904    0.370682
  H     -1.068975    0.079342    1.411524
  C     -0.515489    0.860558   -0.522921
  H     -0.407227    0.506992   -1.553716
  C      0.850987    1.344874   -0.012036
  H      0.684469    1.934135    0.908303
  C      1.754947    0.168541    0.387447
  H      2.724881    0.315957   -0.105580
  C      1.179147   -1.172922   -0.096725
  H      1.759917   -2.000172    0.353179
  O     -0.127853   -1.402517    0.343320
  O      1.284206   -1.213710   -1.487265
  O      1.870846    0.183259    1.787924
  O      1.507803    2.126298   -0.972121
  O     -1.429134    1.926903   -0.585456
  O     -2.919954   -1.701129    0.861172
  H     -2.304290   -1.242233   -1.057587
  H     -3.094554    0.047353   -0.114763
  H      0.868403   -2.023346   -1.808811
  H      2.487188   -0.502527    2.068377
  H      0.849522    2.694150   -1.392858
  H     -1.596516    2.250400    0.308941
  H     -2.244008   -2.369560    1.026016

 Total Charge           Charge          ....    0
 Multiplicity           Mult            ....    1
 Number of Electrons    NEL             ....   96
 Basis Dimension        Dim             ....  192

ORBITAL ENERGIES
----------------

  NO   OCC          E(Eh)            E(eV)
   0   2.0000     -18.779583      -511.0184
   1   2.0000     -18.767971      -510.7024
   2   2.0000     -18.766307      -510.6572
   3   2.0000     -18.762518      -510.5541
   4   2.0000     -18.746591      -510.1207
   5   2.0000     -18.741682      -509.9871
   6   2.0000      -9.993911      -271.9481
   7   2.0000      -9.947057      -270.6732
   8   2.0000      -9.945572      -270.6328
   9   2.0000      -9.944104      -270.5928
  10   2.0000      -9.942840      -270.5584
  11   2.0000      -9.929081      -270.1840
  12   2.0000      -0.990308       -26.9477
  13   2.0000      -0.950657       -25.8687
  14   2.0000      -0.940003       -25.5788
  15   2.0000      -0.928698       -25.2712
  16   2.0000      -0.921189       -25.0668
  17   2.0000      -0.912751       -24.8372
  18   2.0000      -0.708265       -19.2729
  19   2.0000      -0.694259       -18.8917
  20   2.0000      -0.618335       -16.8258
  21   2.0000      -0.599705       -16.3188
  22   2.0000      -0.563520       -15.3342
  23   2.0000      -0.525877       -14.3098
  24   2.0000      -0.516391       -14.0517
  25   2.0000      -0.489805       -13.3283
  26   2.0000      -0.473441       -12.8830
  27   2.0000      -0.470981       -12.8160
  28   2.0000      -0.452553       -12.3146
  29   2.0000      -0.418482       -11.3875
  30   2.0000      -0.414751       -11.2860
  31   2.0000      -0.398565       -10.8455
  32   2.0000      -0.382322       -10.4035
  33   2.0000      -0.375873       -10.2280
  34   2.0000      -0.373411       -10.1610
  35   2.0000      -0.353362        -9.6155
  36   2.0000      -0.350475        -9.5369
  37   2.0000      -0.313709        -8.5364
  38   2.0000      -0.303398        -8.2559
  39   2.0000      -0.299320        -8.1449
  40   2.0000      -0.287289        -7.8175
  41   2.0000      -0.274303        -7.4642
  42   2.0000      -0.253790        -6.9060
  43   2.0000      -0.241532        -6.5724
  44   2.0000      -0.236849        -6.4450
  45   2.0000      -0.227604        -6.1934
  46   2.0000      -0.217265        -5.9121
  47   2.0000      -0.204551        -5.5661
  48   0.0000       0.015211         0.4139
  49   0.0000       0.018215         0.4957
  50   0.0000       0.021790         0.5929
  51   0.0000       0.045380         1.2349
  52   0.0000       0.057228         1.5572

MULLIKEN ATOMIC CHARGES
-----------------------
   0 C :    0.110720
   1 C :   -0.026143
   2 H :    0.058235
   3 C :    0.033559
   4 H :    0.069734
   5 C :    0.091421
   6 H :    0.050473
   7 C :    0.069770
   8 H :    0.085773
   9 C :    0.136261
  10 H :    0.048272
  11 O :   -0.323292
  12 O :   -0.381066
  13 O :   -0.416696
  14 O :   -0.405746
  15 O :   -0.409897
  16 O :   -0.430787
  17 H :    0.055731
  18 H :    0.081249
  19 H :    0.300957
  20 H :    0.300952
  21 H :    0.301926
  22 H :    0.300271
  23 H :    0.298324
Sum of atomic charges:    0.0000000

LOEWDIN ATOMIC CHARGES
----------------------
   0 C :   -0.126637
   1 C :   -0.077059
   2 H :    0.106950
   3 C :   -0.092890
   4 H :    0.121354
   5 C :   -0.063063
   6 H :    0.102388
   7 C :   -0.072144
   8 H :    0.119056
   9 C :   -0.013138
  10 H :    0.088821
  11 O :   -0.150634
  12 O :   -0.307878
  13 O :   -0.311400
  14 O :   -0.313697
  15 O :   -0.306050
  16 O :   -0.335132
  17 H :    0.095372
  18 H :    0.114487
  19 H :    0.284631
  20 H :    0.286882
  21 H :    0.284154
  22 H :    0.284743
  23 H :    0.280885

  Mayer bond orders larger than 0.100000
B(  0-C ,  1-C ) :   1.0531 B(  0-C , 16-O ) :   1.0790 B(  0-C , 17-H ) :   0.9024
B(  0-C , 18-H ) :   0.9103 B(  1-C ,  2-H ) :   0.8725 B(  1-C ,  3-C ) :   1.0177
B(  1-C , 11-O ) :   0.9502 B(  3-C ,  4-H ) :   0.8197 B(  3-C ,  5-C ) :   1.0820
B(  3-C , 15-O ) :   1.0104 B(  5-C ,  6-H ) :   0.8661 B(  5-C ,  7-C ) :   0.9710
B(  5-C , 14-O ) :   1.1015 B(  7-C ,  8-H ) :   0.8689 B(  7-C ,  9-C ) :   1.0415
B(  7-C , 13-O ) :   1.0359 B(  9-C , 10-H ) :   0.8943 B(  9-C , 11-O ) :   1.0685
B(  9-C , 12-O ) :   1.1327 B( 12-O , 19-H ) :   0.8397 B( 13-O , 20-H ) :   0.8478
B( 14-O , 21-H ) :   0.8396 B( 15-O , 22-H ) :   0.8451 B( 16-O , 23-H ) :   0.8465

Dispersion correction           -0.024466626
FINAL SINGLE POINT ENERGY      -685.690835359233

DIPOLE MOMENT
-------------

Method             : SCF
Type of density    : Electron Density
Multiplicity       :   1
Irrep              :   0
Energy             :  -685.8212231600072073 Eh
Relativity type    :
Basis              : AO
                                X                 Y                 Z
Electronic contribution:      1.702990378      -0.220269734       0.105421945
Nuclear contribution   :     -1.255511034      -0.291570477       0.039586952
                        -----------------------------------------
Total Dipole Moment    :      0.447479343      -0.511840211       0.145008897
                        -----------------------------------------
Magnitude (a.u.)       :      0.695158791
Magnitude (Debye)      :      1.766953225

Rotational constants in cm-1:             0.040262             0.025717             0.020701
Rotational constants in MHz :          1207.030658           770.970544           620.600841

                             ****ORCA TERMINATED NORMALLY****
TOTAL RUN TIME: 0 days 0 hours 0 minutes 8 seconds 279 msec
