                         Program Version 6.0.0  -   RELEASE  -
|  1> ! r2SCAN-3c DEF2-TZVP FREQ
|  2> * xyzfile 0 1 censo.xyz
|  3>
|  4>                          ****END OF INPUT****

CARTESIAN COORDINATES (ANGSTROEM)
---------------------------------
  C     -1.862989   -1.413083   -0.000080
  C     -0.539193   -0.708998    0.000121
  C      0.670518   -1.404285    0.000248
  C      1.898001   -0.742701    0.000064
  C      1.926747    0.648795   -0.000097
  C      0.735843    1.370645   -0.000203
  C     -0.481205    0.692532   -0.000204
  O     -1.685458    1.364409   -0.000664
  H     -2.455949   -1.148053   -0.882560
  H     -1.720921   -2.496210    0.005559
  H     -2.461001   -1.139304    0.876235
  H      0.642968   -2.490706    0.000519
  H      2.822155   -1.311267    0.000121
  H      2.873467    1.179984   -0.000152
  H      0.743451    2.457495   -0.000328
  H     -1.511548    2.315870   -0.000531

 Total Charge           Charge          ....    0
 Multiplicity           Mult            ....    1
 Number of Electrons    NEL             ....   58
 Basis Dimension        Dim             ....  296

ORBITAL ENERGIES
----------------

  NO   OCC          E(Eh)            E(eV)
   0   2.0000     -18.986273      -516.6428
   1   2.0000     -10.092898      -274.6417
   2   2.0000     -10.040285      -273.2101
   3   2.0000     -10.036042      -273.0946
   4   2.0000     -10.035522      -273.0804
   5   2.0000     -10.033344      -273.0212
   6   2.0000     -10.028310      -272.8842
   7   2.0000     -10.025519      -272.8082
   8   2.0000      -1.023739       -27.8574
   9   2.0000      -0.818097       -22.2615
  10   2.0000      -0.739610       -20.1258
  11   2.0000      -0.704491       -19.1702
  12   2.0000      -0.650039       -17.6885
  13   2.0000      -0.591635       -16.0992
  14   2.0000      -0.551851       -15.0166
  15   2.0000      -0.507955       -13.8221
  16   2.0000      -0.455951       -12.4070
  17   2.0000      -0.439491       -11.9592
  18   2.0000      -0.402254       -10.9459
  19   2.0000      -0.398000       -10.8301
  20   2.0000      -0.381751       -10.3880
  21   2.0000      -0.362483        -9.8637
  22   2.0000      -0.355564        -9.6754
  23   2.0000      -0.351332        -9.5602
  24   2.0000      -0.319601        -8.6968
  25   2.0000      -0.309444        -8.4204
  26   2.0000      -0.306134        -8.3303
  27   2.0000      -0.229690        -6.2502
  28   2.0000      -0.202832        -5.5193
  29   0.0000      -0.030864        -0.8399
  30   0.0000      -0.017560        -0.4778
  31   0.0000       0.033903         0.9226
  32   0.0000       0.061498         1.6735
  33   0.0000       0.072456         1.9716

MULLIKEN ATOMIC CHARGES
-----------------------
   0 C :   -0.305996
   1 C :    0.026903
   2 C :   -0.143477
   3 C :   -0.141149
   4 C :   -0.110349
   5 C :   -0.221148
   6 C :    0.256673
   7 O :   -0.405489
   8 H :    0.116535
   9 H :    0.103676
  10 H :    0.116656
  11 H :    0.097599
  12 H :    0.103829
  13 H :    0.107988
  14 H :    0.087495
  15 H :    0.310254
Sum of atomic charges:    0.0000000

LOEWDIN ATOMIC CHARGES
----------------------
   0 C :   -0.250400
   1 C :   -0.156718
   2 C :   -0.117023
   3 C :   -0.160060
   4 C :   -0.148107
   5 C :   -0.150175
   6 C :   -0.237017
   7 O :    0.075606
   8 H :    0.131676
   9 H :    0.124960
  10 H :    0.131658
  11 H :    0.144922
  12 H :    0.141380
  13 H :    0.142525
  14 H :    0.139857
  15 H :    0.186916

  Mayer bond orders larger than 0.100000
B(  0-C ,  1-C ) :   0.9519 B(  0-C ,  8-H ) :   0.9577 B(  0-C ,  9-H ) :   0.9830
B(  0-C , 10-H ) :   0.9579 B(  1-C ,  2-C ) :   1.3866 B(  1-C ,  6-C ) :   1.3120
B(  2-C ,  3-C ) :   1.3979 B(  2-C , 11-H ) :   0.9744 B(  3-C ,  4-C ) :   1.4037
B(  3-C , 12-H ) :   0.9761 B(  4-C ,  5-C ) :   1.3851 B(  4-C , 13-H ) :   0.9612
B(  5-C ,  6-C ) :   1.3623 B(  5-C , 14-H ) :   0.9716 B(  6-C ,  7-O ) :   1.1404
B(  7-O , 15-H ) :   0.8854

Dispersion correction           -0.004965274
FINAL SINGLE POINT ENERGY      -346.729252271296

DIPOLE MOMENT
-------------

Method             : SCF
Type of density    : Electron Density
Multiplicity       :   1
Irrep              :   0
Energy             :  -346.7297217870065538 Eh
Relativity type    :
Basis              : AO
                                X                 Y                 Z
Electronic contribution:      1.105547006       2.888066750       0.000035019
Nuclear contribution   :     -1.037229034      -2.482219115      -0.000130741
                        -----------------------------------------
Total Dipole Moment    :      0.068317972       0.405847635      -0.000095722
                        -----------------------------------------
Magnitude (a.u.)       :      0.411557599
Magnitude (Debye)      :      1.046096281

VIBRATIONAL FREQUENCIES
-----------------------

Scaling factor for frequencies =  1.000000000  (already applied!)

     0:       0.00 cm**-1
     1:       0.00 cm**-1
     2:       0.00 cm**-1
     3:       0.00 cm**-1
     4:       0.00 cm**-1
     5:       0.00 cm**-1
     6:     155.05 cm**-1
     7:     179.70 cm**-1
     8:     270.73 cm**-1
     9:     297.04 cm**-1
    10:     425.18 cm**-1
    11:     446.33 cm**-1
    12:     447.34 cm**-1
    13:     534.50 cm**-1
    14:     552.81 cm**-1
    15:     594.10 cm**-1
    16:     711.00 cm**-1
    17:     748.19 cm**-1
    18:     759.69 cm**-1
    19:     830.58 cm**-1
    20:     853.01 cm**-1
    21:     908.31 cm**-1
    22:     940.01 cm**-1
    23:    1004.49 cm**-1
    24:    1055.44 cm**-1
    25:    1062.67 cm**-1
    26:    1125.68 cm**-1
    27:    1177.99 cm**-1
    28:    1188.21 cm**-1
    29:    1242.23 cm**-1
    30:    1260.68 cm**-1
    31:    1330.18 cm**-1
    32:    1368.48 cm**-1
    33:    1406.51 cm**-1
    34:    1461.05 cm**-1
    35:    1471.35 cm**-1
    36:    1498.72 cm**-1
    37:    1527.56 cm**-1
    38:    1622.53 cm**-1
    39:    1641.66 cm**-1
    40:    3007.14 cm**-1
    41:    3066.36 cm**-1
    42:    3102.43 cm**-1
    43:    3145.95 cm**-1
    44:    3151.05 cm**-1
    45:    3165.73 cm**-1
    46:    3181.53 cm**-1
    47:    3759.47 cm**-1

IR SPECTRUM
-----------

 Mode   freq       eps      Int      T**2         TX        TY        TZ
       cm**-1   L/(mol*cm) km/mol    a.u.
----------------------------------------------------------------------------
  6:    155.05   0.000010    0.05  0.000021  ( 0.000069 -0.000438 -0.004554)
  7:    179.70   0.000262    1.32  0.000455  ( 0.000091 -0.000017  0.021325)
  8:    270.73   0.001284    6.49  0.001480  ( 0.000050 -0.000021  0.038476)
  9:    297.04   0.000752    3.80  0.000790  ( 0.020206 -0.019530 -0.000089)
 10:    425.18   0.017682   89.36  0.012978  (-0.000026  0.000015 -0.113922)
 11:    446.33   0.000456    2.30  0.000318  (-0.009850  0.014879 -0.000296)
 12:    447.34   0.000453    2.29  0.000316  (-0.000333  0.000402  0.017769)
 13:    534.50   0.001253    6.33  0.000732  (-0.025639  0.008616  0.000005)
 14:    552.81   0.000435    2.20  0.000246  (-0.000066 -0.000007  0.015675)
 15:    594.10   0.000057    0.29  0.000030  ( 0.001010 -0.005363 -0.000013)
 16:    711.00   0.002122   10.73  0.000931  (-0.000028 -0.000023 -0.030520)
 17:    748.19   0.012374   62.53  0.005161  (-0.000008 -0.000033  0.071841)
 18:    759.69   0.000431    2.18  0.000177  ( 0.012288 -0.005083  0.000102)
 19:    830.58   0.000145    0.73  0.000054  ( 0.000035 -0.000008 -0.007379)
 20:    853.01   0.004046   20.45  0.001480  ( 0.026221 -0.028152 -0.000012)
 21:    908.31   0.000176    0.89  0.000060  ( 0.000030  0.000013 -0.007770)
 22:    940.01   0.000065    0.33  0.000021  (-0.000002  0.000044 -0.004631)
 23:   1004.49   0.001571    7.94  0.000488  (-0.022092 -0.000313  0.000002)
 24:   1055.44   0.000269    1.36  0.000080  ( 0.000240  0.000055  0.008922)
 25:   1062.67   0.001750    8.85  0.000514  (-0.022304 -0.004067  0.000017)
 26:   1125.68   0.014526   73.41  0.004027  (-0.048056  0.041441 -0.000008)
 27:   1177.99   0.000536    2.71  0.000142  (-0.011481 -0.003202 -0.000002)
 28:   1188.21   0.008547   43.19  0.002245  (-0.041604  0.022668 -0.000011)
 29:   1242.23   0.005227   26.41  0.001313  (-0.034413  0.011346 -0.000045)
 30:   1260.68   0.016190   81.82  0.004008  (-0.054728  0.031820 -0.000024)
 31:   1330.18   0.004543   22.96  0.001066  (-0.029996  0.012881 -0.000006)
 32:   1368.48   0.006213   31.40  0.001417  ( 0.027829 -0.025344  0.000022)
 33:   1406.51   0.000284    1.44  0.000063  ( 0.005624  0.005612  0.000024)
 34:   1461.05   0.002614   13.21  0.000558  ( 0.019979 -0.012616  0.000083)
 35:   1471.35   0.001505    7.60  0.000319  (-0.000302  0.000037  0.017862)
 36:   1498.72   0.006773   34.23  0.001410  ( 0.024349 -0.028590  0.000064)
 37:   1527.56   0.005444   27.51  0.001112  ( 0.032412 -0.007851  0.000025)
 38:   1622.53   0.005338   26.97  0.001027  ( 0.020456 -0.024660  0.000012)
 39:   1641.66   0.001366    6.90  0.000260  (-0.014505  0.007013 -0.000004)
 40:   3007.14   0.005602   28.31  0.000581  ( 0.020671  0.012410  0.000108)
 41:   3066.36   0.002636   13.32  0.000268  (-0.000077 -0.000084  0.016377)
 42:   3102.43   0.003165   15.99  0.000318  ( 0.003535 -0.017489  0.000019)
 43:   3145.95   0.002921   14.76  0.000290  (-0.006680  0.015657 -0.000002)
 44:   3151.05   0.000952    4.81  0.000094  (-0.007106 -0.006618  0.000003)
 45:   3165.73   0.003613   18.26  0.000356  ( 0.002128  0.018753 -0.000003)
 46:   3181.53   0.002691   13.60  0.000264  ( 0.016072 -0.002379  0.000001)
 47:   3759.47   0.009616   48.59  0.000798  (-0.008994  0.026783 -0.000000)

--------------------------
THERMOCHEMISTRY AT 298.15K
--------------------------

Temperature         ...   298.15 K
Pressure            ...     1.00 atm
Total Mass          ...   108.14 AMU
Quasi RRHO          ...     True
Cut-Off Frequency   ...     1.00 cm^-1

Throughout the following assumptions are being made:
  (1) The electronic state is orbitally nondegenerate
  (2) There are no thermally accessible electronically excited states
  (3) Hindered rotations indicated by low frequency modes are not
      treated as such but are treated as vibrations and this may
      cause some error
  (4) All equations used are the standard statistical mechanics
      equations for an ideal gas
  (5) All vibrations are strictly harmonic

freq.     155.05  E(vib)   ...       0.40
freq.     179.70  E(vib)   ...       0.37
freq.     270.73  E(vib)   ...       0.29
freq.     297.04  E(vib)   ...       0.27
freq.     425.18  E(vib)   ...       0.18
freq.     446.33  E(vib)   ...       0.17
freq.     447.34  E(vib)   ...       0.17
freq.     534.50  E(vib)   ...       0.13
freq.     552.81  E(vib)   ...       0.12
freq.     594.10  E(vib)   ...       0.10
freq.     711.00  E(vib)   ...       0.07
freq.     748.19  E(vib)   ...       0.06
freq.     759.69  E(vib)   ...       0.06
freq.     830.58  E(vib)   ...       0.04
freq.     853.01  E(vib)   ...       0.04
freq.     908.31  E(vib)   ...       0.03
freq.     940.01  E(vib)   ...       0.03
freq.    1004.49  E(vib)   ...       0.02
freq.    1055.44  E(vib)   ...       0.02
freq.    1062.67  E(vib)   ...       0.02
freq.    1125.68  E(vib)   ...       0.01
freq.    1177.99  E(vib)   ...       0.01
freq.    1188.21  E(vib)   ...       0.01
freq.    1242.23  E(vib)   ...       0.01
freq.    1260.68  E(vib)   ...       0.01
freq.    1330.18  E(vib)   ...       0.01
freq.    1368.48  E(vib)   ...       0.01
freq.    1406.51  E(vib)   ...       0.00
freq.    1461.05  E(vib)   ...       0.00
freq.    1471.35  E(vib)   ...       0.00
freq.    1498.72  E(vib)   ...       0.00
freq.    1527.56  E(vib)   ...       0.00
freq.    1622.53  E(vib)   ...       0.00
freq.    1641.66  E(vib)   ...       0.00
freq.    3007.14  E(vib)   ...       0.00
freq.    3066.36  E(vib)   ...       0.00
freq.    3102.43  E(vib)   ...       0.00
freq.    3145.95  E(vib)   ...       0.00
freq.    3151.05  E(vib)   ...       0.00
freq.    3165.73  E(vib)   ...       0.00
freq.    3181.53  E(vib)   ...       0.00
freq.    3759.47  E(vib)   ...       0.00

------------
INNER ENERGY
------------

The inner energy is: U= E(el) + E(ZPE) + E(vib) + E(rot) + E(trans)
    E(el)   - is the total energy from the electronic structure calculation
              = E(kin-el) + E(nuc-el) + E(el-el) + E(nuc-nuc)
    E(ZPE)  - the the zero temperature vibrational energy from the frequency calculation
    E(vib)  - the the finite temperature correction to E(ZPE) due to population
              of excited vibrational states
    E(rot)  - is the rotational thermal energy
    E(trans)- is the translational thermal energy

Summary of contributions to the inner energy U:
Electronic energy                ...   -346.72925227 Eh
Zero point energy                ...      0.13140165 Eh      82.46 kcal/mol
Thermal vibrational correction   ...      0.00423905 Eh       2.66 kcal/mol
Thermal rotational correction    ...      0.00141627 Eh       0.89 kcal/mol
Thermal translational correction ...      0.00141627 Eh       0.89 kcal/mol
-----------------------------------------------------------------------
Total thermal energy                   -346.59077903 Eh

Summary of corrections to the electronic energy:
(perhaps to be used in another calculation)
Total thermal correction                  0.00707159 Eh       4.44 kcal/mol
Non-thermal (ZPE) correction              0.13140165 Eh      82.46 kcal/mol
-----------------------------------------------------------------------
Total correction                          0.13847325 Eh      86.89 kcal/mol

--------
ENTHALPY
--------

The enthalpy is H = U + kB*T
                kB is Boltzmann's constant
Total thermal energy              ...   -346.59077903 Eh
Thermal Enthalpy correction       ...      0.00094421 Eh       0.59 kcal/mol
-----------------------------------------------------------------------
Total Enthalpy                    ...   -346.58983482 Eh

Note: Only C1 symmetry has been detected, increase convergence thresholds
      if your molecule has a higher symmetry. Symmetry factor of 1.0 is
      used for the rotational entropy correction.

Note: Rotational entropy computed according to Herzberg
Infrared and Raman Spectra, Chapter V,1, Van Nostrand Reinhold, 1945
Point Group:  C1, Symmetry Number:   1
Rotational constants in cm-1:     0.108865     0.073443     0.044215

Vibrational entropy computed according to the QRRHO of S. Grimme
Chem.Eur.J. 2012 18 9955 using a reference frequency of 100.0 cm-1

-------
ENTROPY
-------

The entropy contributions are T*S = T*(S(el)+S(vib)+S(rot)+S(trans))
     S(el)   - electronic entropy
     S(vib)  - vibrational entropy
     S(rot)  - rotational entropy
     S(trans)- translational entropy
The entropies will be listed as multiplied by the temperature to get
units of energy

Electronic entropy                ...      0.00000000 Eh      0.00 kcal/mol
Vibrational entropy               ...      0.00664376 Eh      4.17 kcal/mol
Rotational entropy                ...      0.01326279 Eh      8.32 kcal/mol
Translational entropy             ...      0.01898207 Eh     11.91 kcal/mol
-----------------------------------------------------------------------
Final entropy term                ...      0.03888863 Eh     24.40 kcal/mol

In case the symmetry of your molecule has not been determined correctly
or in case you have a reason to use a different symmetry number we print
out the resulting rotational entropy values for sn=1,12:

 non-linear molecules -----------------------------------
|  sn= 1 | S(rot)=       0.01326279 Eh      8.32 kcal/mol|
|  sn= 2 | S(rot)=       0.01260834 Eh      7.91 kcal/mol|
|  sn= 3 | S(rot)=       0.01222550 Eh      7.67 kcal/mol|
|  sn= 4 | S(rot)=       0.01195388 Eh      7.50 kcal/mol|
|  sn= 5 | S(rot)=       0.01174319 Eh      7.37 kcal/mol|
|  sn= 6 | S(rot)=       0.01157105 Eh      7.26 kcal/mol|
|  sn= 7 | S(rot)=       0.01142550 Eh      7.17 kcal/mol|
|  sn= 8 | S(rot)=       0.01129942 Eh      7.09 kcal/mol|
|  sn= 9 | S(rot)=       0.01118821 Eh      7.02 kcal/mol|
|  sn=10 | S(rot)=       0.01108874 Eh      6.96 kcal/mol|
|  sn=11 | S(rot)=       0.01099875 Eh      6.90 kcal/mol|
|  sn=12 | S(rot)=       0.01091659 Eh      6.85 kcal/mol|
 linear molecules ---------------------------------------
|  Dinfh | S(rot)=       0.00827042 Eh      5.19 kcal/mol|
|  Cinfv | S(rot)=       0.00892487 Eh      5.60 kcal/mol|
 --------------------------------------------------------

                             ****ORCA TERMINATED NORMALLY****
TOTAL RUN TIME: 0 days 0 hours 11 minutes 3 seconds 222 msec
