                         Program Version 6.0.0  -   RELEASE  -
|  1> ! r2SCAN-3c DEF2-TZVP FREQ
|  2> * xyzfile 0 1 vacuum_censo.xyz
|  3>
|  4>                          ****END OF INPUT****

CARTESIAN COORDINATES (ANGSTROEM)
---------------------------------
  C     -1.864933   -1.406918   -0.000004
  C     -0.536060   -0.710394    0.000007
  C      0.672170   -1.403706    0.000009
  C      1.899245   -0.743494    0.000000
  C      1.928021    0.645980   -0.000004
  C      0.736888    1.365674   -0.000004
  C     -0.481001    0.690368   -0.000002
  O     -1.683448    1.350190   -0.000014
  H     -1.732885   -2.491225    0.000307
  H     -2.457105   -1.127124    0.877779
  H     -2.456833   -1.127608   -0.878129
  H      0.645862   -2.490074    0.000019
  H      2.823117   -1.311569    0.000001
  H      2.874454    1.176931   -0.000007
  H      0.753147    2.453352   -0.000006
  H     -1.518824    2.299611   -0.000004

 Total Charge           Charge          ....    0
 Multiplicity           Mult            ....    1
 Number of Electrons    NEL             ....   58
 Basis Dimension        Dim             ....  296

ORBITAL ENERGIES
----------------

  NO   OCC          E(Eh)            E(eV)
   0   2.0000     -18.986881      -516.6593
   1   2.0000     -10.092260      -274.6244
   2   2.0000     -10.039259      -273.1821
   3   2.0000     -10.035239      -273.0727
   4   2.0000     -10.034796      -273.0607
   5   2.0000     -10.032483      -272.9977
   6   2.0000     -10.027361      -272.8584
   7   2.0000     -10.025145      -272.7981
   8   2.0000      -1.027505       -27.9598
   9   2.0000      -0.818295       -22.2669
  10   2.0000      -0.739536       -20.1238
  11   2.0000      -0.704463       -19.1694
  12   2.0000      -0.650009       -17.6876
  13   2.0000      -0.592709       -16.1284
  14   2.0000      -0.551679       -15.0119
  15   2.0000      -0.509104       -13.8534
  16   2.0000      -0.456007       -12.4086
  17   2.0000      -0.439841       -11.9687
  18   2.0000      -0.401724       -10.9315
  19   2.0000      -0.398769       -10.8511
  20   2.0000      -0.381202       -10.3730
  21   2.0000      -0.362539        -9.8652
  22   2.0000      -0.356031        -9.6881
  23   2.0000      -0.352103        -9.5812
  24   2.0000      -0.319370        -8.6905
  25   2.0000      -0.310051        -8.4369
  26   2.0000      -0.305559        -8.3147
  27   2.0000      -0.229407        -6.2425
  28   2.0000      -0.202494        -5.5101
  29   0.0000      -0.030036        -0.8173
  30   0.0000      -0.016752        -0.4559
  31   0.0000       0.034590         0.9412
  32   0.0000       0.061823         1.6823
  33   0.0000       0.072864         1.9827

MULLIKEN ATOMIC CHARGES
-----------------------
   0 C :   -0.303756
   1 C :    0.027842
   2 C :   -0.145014
   3 C :   -0.140118
   4 C :   -0.110900
   5 C :   -0.221897
   6 C :    0.256297
   7 O :   -0.404279
   8 H :    0.103834
   9 H :    0.116156
  10 H :    0.116149
  11 H :    0.096916
  12 H :    0.103394
  13 H :    0.107898
  14 H :    0.087619
  15 H :    0.309860
Sum of atomic charges:   -0.0000000

LOEWDIN ATOMIC CHARGES
----------------------
   0 C :   -0.250090
   1 C :   -0.156887
   2 C :   -0.117571
   3 C :   -0.160575
   4 C :   -0.148801
   5 C :   -0.150427
   6 C :   -0.243149
   7 O :    0.084977
   8 H :    0.124639
   9 H :    0.131590
  10 H :    0.131591
  11 H :    0.145006
  12 H :    0.141332
  13 H :    0.142557
  14 H :    0.140132
  15 H :    0.185674

  Mayer bond orders larger than 0.100000
B(  0-C ,  1-C ) :   0.9516 B(  0-C ,  8-H ) :   0.9825 B(  0-C ,  9-H ) :   0.9582
B(  0-C , 10-H ) :   0.9582 B(  1-C ,  2-C ) :   1.3889 B(  1-C ,  6-C ) :   1.3092
B(  2-C ,  3-C ) :   1.3968 B(  2-C , 11-H ) :   0.9751 B(  3-C ,  4-C ) :   1.4064
B(  3-C , 12-H ) :   0.9763 B(  4-C ,  5-C ) :   1.3856 B(  4-C , 13-H ) :   0.9611
B(  5-C ,  6-C ) :   1.3627 B(  5-C , 14-H ) :   0.9709 B(  6-C ,  7-O ) :   1.1449
B(  7-O , 15-H ) :   0.8859

Dispersion correction           -0.004970099
FINAL SINGLE POINT ENERGY      -346.729404415255

DIPOLE MOMENT
-------------

Method             : SCF
Type of density    : Electron Density
Multiplicity       :   1
Irrep              :   0
Energy             :  -346.7298682650957744 Eh
Relativity type    :
Basis              : AO
                                X                 Y                 Z
Electronic contribution:      1.096201668       2.869518906       0.000016561
Nuclear contribution   :     -1.046420494      -2.449530123      -0.000020412
                        -----------------------------------------
Total Dipole Moment    :      0.049781174       0.419988783      -0.000003851
                        -----------------------------------------
Magnitude (a.u.)       :      0.422928768
Magnitude (Debye)      :      1.074999497

VIBRATIONAL FREQUENCIES
-----------------------

Scaling factor for frequencies =  1.000000000  (already applied!)

     0:       0.00 cm**-1
     1:       0.00 cm**-1
     2:       0.00 cm**-1
     3:       0.00 cm**-1
     4:       0.00 cm**-1
     5:       0.00 cm**-1
     6:     156.50 cm**-1
     7:     177.20 cm**-1
     8:     265.37 cm**-1
     9:     299.19 cm**-1
    10:     369.11 cm**-1
    11:     442.42 cm**-1
    12:     444.30 cm**-1
    13:     535.48 cm**-1
    14:     551.64 cm**-1
    15:     594.10 cm**-1
    16:     710.29 cm**-1
    17:     747.06 cm**-1
    18:     762.90 cm**-1
    19:     833.07 cm**-1
    20:     855.59 cm**-1
    21:     908.56 cm**-1
    22:     939.43 cm**-1
    23:    1004.86 cm**-1
    24:    1054.45 cm**-1
    25:    1065.76 cm**-1
    26:    1124.39 cm**-1
    27:    1179.21 cm**-1
    28:    1186.04 cm**-1
    29:    1238.88 cm**-1
    30:    1276.13 cm**-1
    31:    1332.16 cm**-1
    32:    1371.70 cm**-1
    33:    1404.51 cm**-1
    34:    1463.25 cm**-1
    35:    1470.49 cm**-1
    36:    1499.91 cm**-1
    37:    1532.06 cm**-1
    38:    1629.22 cm**-1
    39:    1644.77 cm**-1
    40:    3010.33 cm**-1
    41:    3070.36 cm**-1
    42:    3105.47 cm**-1
    43:    3138.71 cm**-1
    44:    3151.40 cm**-1
    45:    3168.09 cm**-1
    46:    3185.11 cm**-1
    47:    3806.80 cm**-1

IR SPECTRUM
-----------

 Mode   freq       eps      Int      T**2         TX        TY        TZ
       cm**-1   L/(mol*cm) km/mol    a.u.
----------------------------------------------------------------------------
  6:    156.50   0.000009    0.05  0.000018  (-0.000004  0.000024  0.004258)
  7:    177.20   0.000272    1.38  0.000479  ( 0.000008 -0.000004  0.021890)
  8:    265.37   0.002147   10.85  0.002525  ( 0.000002 -0.000006  0.050250)
  9:    299.19   0.000785    3.97  0.000819  ( 0.020697 -0.019768 -0.000008)
 10:    369.11   0.016991   85.87  0.014365  ( 0.000000 -0.000001 -0.119854)
 11:    442.42   0.000525    2.65  0.000370  (-0.011626  0.015336 -0.000014)
 12:    444.30   0.000599    3.03  0.000421  (-0.000014  0.000011  0.020513)
 13:    535.48   0.001214    6.14  0.000708  (-0.025381  0.007965 -0.000001)
 14:    551.64   0.000341    1.72  0.000193  (-0.000001 -0.000007  0.013885)
 15:    594.10   0.000046    0.23  0.000024  ( 0.000398 -0.004893 -0.000000)
 16:    710.29   0.001911    9.66  0.000840  (-0.000005  0.000003 -0.028978)
 17:    747.06   0.012381   62.57  0.005172  (-0.000002  0.000004  0.071916)
 18:    762.90   0.000295    1.49  0.000121  ( 0.010458 -0.003392  0.000005)
 19:    833.07   0.000199    1.00  0.000074  ( 0.000002 -0.000002 -0.008628)
 20:    855.59   0.003827   19.34  0.001396  ( 0.025520 -0.027285 -0.000001)
 21:    908.56   0.000210    1.06  0.000072  ( 0.000002 -0.000000 -0.008498)
 22:    939.43   0.000065    0.33  0.000022  ( 0.000000  0.000001 -0.004660)
 23:   1004.86   0.001610    8.14  0.000500  (-0.022357 -0.000434  0.000000)
 24:   1054.45   0.000270    1.36  0.000080  ( 0.000012  0.000002  0.008940)
 25:   1065.76   0.001610    8.14  0.000471  (-0.021231 -0.004554  0.000001)
 26:   1124.39   0.015338   77.51  0.004257  (-0.050302  0.041554  0.000000)
 27:   1179.21   0.000758    3.83  0.000201  (-0.014000 -0.002149 -0.000000)
 28:   1186.04   0.007509   37.95  0.001976  (-0.039401  0.020575 -0.000000)
 29:   1238.88   0.006276   31.71  0.001581  (-0.037546  0.013080 -0.000002)
 30:   1276.13   0.015566   78.66  0.003806  (-0.053303  0.031067 -0.000000)
 31:   1332.16   0.004984   25.19  0.001167  (-0.031083  0.014188 -0.000000)
 32:   1371.70   0.004878   24.65  0.001110  ( 0.023684 -0.023427  0.000001)
 33:   1404.51   0.000290    1.46  0.000064  ( 0.004987  0.006287  0.000001)
 34:   1463.25   0.002368   11.97  0.000505  ( 0.019261 -0.011579  0.000007)
 35:   1470.49   0.001526    7.71  0.000324  (-0.000019  0.000002  0.017996)
 36:   1499.91   0.006836   34.54  0.001422  ( 0.024651 -0.028539  0.000003)
 37:   1532.06   0.006528   32.99  0.001330  ( 0.035052 -0.010046  0.000001)
 38:   1629.22   0.005513   27.86  0.001056  ( 0.020813 -0.024954  0.000000)
 39:   1644.77   0.001724    8.71  0.000327  (-0.016099  0.008245 -0.000000)
 40:   3010.33   0.005611   28.36  0.000582  ( 0.020567  0.012596  0.000007)
 41:   3070.36   0.002641   13.35  0.000268  (-0.000004 -0.000006  0.016385)
 42:   3105.47   0.003081   15.57  0.000310  ( 0.003693 -0.017203  0.000000)
 43:   3138.71   0.003231   16.33  0.000321  (-0.007282  0.016379  0.000000)
 44:   3151.40   0.001430    7.22  0.000142  (-0.004878 -0.010852  0.000000)
 45:   3168.09   0.002935   14.83  0.000289  ( 0.003506  0.016637 -0.000000)
 46:   3185.11   0.002873   14.52  0.000282  ( 0.016455 -0.003278 -0.000000)
 47:   3806.80   0.009813   49.59  0.000804  (-0.009218  0.026822  0.000000)

--------------------------
THERMOCHEMISTRY AT 298.15K
--------------------------

Temperature         ...   298.15 K
Pressure            ...     1.00 atm
Total Mass          ...   108.14 AMU
Quasi RRHO          ...     True
Cut-Off Frequency   ...     1.00 cm^-1

Throughout the following assumptions are being made:
  (1) The electronic state is orbitally nondegenerate
  (2) There are no thermally accessible electronically excited states
  (3) Hindered rotations indicated by low frequency modes are not
      treated as such but are treated as vibrations and this may
      cause some error
  (4) All equations used are the standard statistical mechanics
      equations for an ideal gas
  (5) All vibrations are strictly harmonic

freq.     156.50  E(vib)   ...       0.40
freq.     177.20  E(vib)   ...       0.37
freq.     265.37  E(vib)   ...       0.29
freq.     299.19  E(vib)   ...       0.26
freq.     369.11  E(vib)   ...       0.21
freq.     442.42  E(vib)   ...       0.17
freq.     444.30  E(vib)   ...       0.17
freq.     535.48  E(vib)   ...       0.12
freq.     551.64  E(vib)   ...       0.12
freq.     594.10  E(vib)   ...       0.10
freq.     710.29  E(vib)   ...       0.07
freq.     747.06  E(vib)   ...       0.06
freq.     762.90  E(vib)   ...       0.06
freq.     833.07  E(vib)   ...       0.04
freq.     855.59  E(vib)   ...       0.04
freq.     908.56  E(vib)   ...       0.03
freq.     939.43  E(vib)   ...       0.03
freq.    1004.86  E(vib)   ...       0.02
freq.    1054.45  E(vib)   ...       0.02
freq.    1065.76  E(vib)   ...       0.02
freq.    1124.39  E(vib)   ...       0.01
freq.    1179.21  E(vib)   ...       0.01
freq.    1186.04  E(vib)   ...       0.01
freq.    1238.88  E(vib)   ...       0.01
freq.    1276.13  E(vib)   ...       0.01
freq.    1332.16  E(vib)   ...       0.01
freq.    1371.70  E(vib)   ...       0.01
freq.    1404.51  E(vib)   ...       0.00
freq.    1463.25  E(vib)   ...       0.00
freq.    1470.49  E(vib)   ...       0.00
freq.    1499.91  E(vib)   ...       0.00
freq.    1532.06  E(vib)   ...       0.00
freq.    1629.22  E(vib)   ...       0.00
freq.    1644.77  E(vib)   ...       0.00
freq.    3010.33  E(vib)   ...       0.00
freq.    3070.36  E(vib)   ...       0.00
freq.    3105.47  E(vib)   ...       0.00
freq.    3138.71  E(vib)   ...       0.00
freq.    3151.40  E(vib)   ...       0.00
freq.    3168.09  E(vib)   ...       0.00
freq.    3185.11  E(vib)   ...       0.00
freq.    3806.80  E(vib)   ...       0.00

------------
INNER ENERGY
------------

The inner energy is: U= E(el) + E(ZPE) + E(vib) + E(rot) + E(trans)
    E(el)   - is the total energy from the electronic structure calculation
              = E(kin-el) + E(nuc-el) + E(el-el) + E(nuc-nuc)
    E(ZPE)  - the the zero temperature vibrational energy from the frequency calculation
    E(vib)  - the the finite temperature correction to E(ZPE) due to population
              of excited vibrational states
    E(rot)  - is the rotational thermal energy
    E(trans)- is the translational thermal energy

Summary of contributions to the inner energy U:
Electronic energy                ...   -346.72940442 Eh
Zero point energy                ...      0.13146451 Eh      82.50 kcal/mol
Thermal vibrational correction   ...      0.00430355 Eh       2.70 kcal/mol
Thermal rotational correction    ...      0.00141627 Eh       0.89 kcal/mol
Thermal translational correction ...      0.00141627 Eh       0.89 kcal/mol
-----------------------------------------------------------------------
Total thermal energy                   -346.59080382 Eh

Summary of corrections to the electronic energy:
(perhaps to be used in another calculation)
Total thermal correction                  0.00713609 Eh       4.48 kcal/mol
Non-thermal (ZPE) correction              0.13146451 Eh      82.50 kcal/mol
-----------------------------------------------------------------------
Total correction                          0.13860060 Eh      86.97 kcal/mol

--------
ENTHALPY
--------

The enthalpy is H = U + kB*T
                kB is Boltzmann's constant
Total thermal energy              ...   -346.59080382 Eh
Thermal Enthalpy correction       ...      0.00094421 Eh       0.59 kcal/mol
-----------------------------------------------------------------------
Total Enthalpy                    ...   -346.58985961 Eh

Note: Only C1 symmetry has been detected, increase convergence thresholds
      if your molecule has a higher symmetry. Symmetry factor of 1.0 is
      used for the rotational entropy correction.

Note: Rotational entropy computed according to Herzberg
Infrared and Raman Spectra, Chapter V,1, Van Nostrand Reinhold, 1945
Point Group:  C1, Symmetry Number:   1
Rotational constants in cm-1:     0.109760     0.073388     0.044341

Vibrational entropy computed according to the QRRHO of S. Grimme
Chem.Eur.J. 2012 18 9955 using a reference frequency of 100.0 cm-1

-------
ENTROPY
-------

The entropy contributions are T*S = T*(S(el)+S(vib)+S(rot)+S(trans))
     S(el)   - electronic entropy
     S(vib)  - vibrational entropy
     S(rot)  - rotational entropy
     S(trans)- translational entropy
The entropies will be listed as multiplied by the temperature to get
units of energy

Electronic entropy                ...      0.00000000 Eh      0.00 kcal/mol
Vibrational entropy               ...      0.00676543 Eh      4.25 kcal/mol
Rotational entropy                ...      0.01325794 Eh      8.32 kcal/mol
Translational entropy             ...      0.01898207 Eh     11.91 kcal/mol
-----------------------------------------------------------------------
Final entropy term                ...      0.03900545 Eh     24.48 kcal/mol

In case the symmetry of your molecule has not been determined correctly
or in case you have a reason to use a different symmetry number we print
out the resulting rotational entropy values for sn=1,12:

 non-linear molecules -----------------------------------
|  sn= 1 | S(rot)=       0.01325794 Eh      8.32 kcal/mol|
|  sn= 2 | S(rot)=       0.01260349 Eh      7.91 kcal/mol|
|  sn= 3 | S(rot)=       0.01222065 Eh      7.67 kcal/mol|
|  sn= 4 | S(rot)=       0.01194903 Eh      7.50 kcal/mol|
|  sn= 5 | S(rot)=       0.01173834 Eh      7.37 kcal/mol|
|  sn= 6 | S(rot)=       0.01156620 Eh      7.26 kcal/mol|
|  sn= 7 | S(rot)=       0.01142065 Eh      7.17 kcal/mol|
|  sn= 8 | S(rot)=       0.01129457 Eh      7.09 kcal/mol|
|  sn= 9 | S(rot)=       0.01118336 Eh      7.02 kcal/mol|
|  sn=10 | S(rot)=       0.01108388 Eh      6.96 kcal/mol|
|  sn=11 | S(rot)=       0.01099389 Eh      6.90 kcal/mol|
|  sn=12 | S(rot)=       0.01091174 Eh      6.85 kcal/mol|
 linear molecules ---------------------------------------
|  Dinfh | S(rot)=       0.00826774 Eh      5.19 kcal/mol|
|  Cinfv | S(rot)=       0.00892219 Eh      5.60 kcal/mol|
 --------------------------------------------------------

                             ****ORCA TERMINATED NORMALLY****
TOTAL RUN TIME: 0 days 0 hours 11 minutes 6 seconds 223 msec
