                         Program Version 6.0.0  -   RELEASE  -
|  1> ! r2SCAN-3c DEF2-TZVP FREQ
|  2> * xyzfile 0 1 censo.xyz
|  3>
|  4>                          ****END OF INPUT****

CARTESIAN COORDINATES (ANGSTROEM)
---------------------------------
  C      1.949110   -0.131634   -0.000002
  C      0.565939    0.513262    0.000006
  C     -0.565945   -0.513264    0.000001
  C     -1.949117    0.131632   -0.000042
  H      2.086722   -0.763492   -0.884770
  H      2.744391    0.620937   -0.000004
  H      2.086730   -0.763498    0.884760
  H      0.461416    1.162802    0.879251
  H      0.461415    1.162812   -0.879232
  H     -0.461401   -1.162824   -0.879226
  H     -0.461442   -1.162793    0.879256
  H     -2.086756    0.763513    0.884705
  H     -2.744397   -0.620940   -0.000045
  H     -2.086713    0.763473   -0.884825

 Total Charge           Charge          ....    0
 Multiplicity           Mult            ....    1
 Number of Electrons    NEL             ....   34
 Basis Dimension        Dim             ....  184

ORBITAL ENERGIES
----------------

  NO   OCC          E(Eh)            E(eV)
   0   2.0000     -10.023895      -272.7640
   1   2.0000     -10.023769      -272.7606
   2   2.0000     -10.015712      -272.5414
   3   2.0000     -10.015709      -272.5413
   4   2.0000      -0.758680       -20.6447
   5   2.0000      -0.688280       -18.7290
   6   2.0000      -0.595088       -16.1932
   7   2.0000      -0.541103       -14.7242
   8   2.0000      -0.435610       -11.8536
   9   2.0000      -0.393476       -10.7070
  10   2.0000      -0.387145       -10.5348
  11   2.0000      -0.377898       -10.2831
  12   2.0000      -0.335957        -9.1419
  13   2.0000      -0.317491        -8.6394
  14   2.0000      -0.303381        -8.2554
  15   2.0000      -0.291081        -7.9207
  16   2.0000      -0.290142        -7.8952
  17   0.0000       0.046690         1.2705
  18   0.0000       0.070831         1.9274
  19   0.0000       0.089055         2.4233
  20   0.0000       0.092666         2.5216
  21   0.0000       0.118998         3.2381

MULLIKEN ATOMIC CHARGES
-----------------------
   0 C :   -0.311190
   1 C :   -0.139680
   2 C :   -0.139680
   3 C :   -0.311190
   4 H :    0.096931
   5 H :    0.105200
   6 H :    0.096930
   7 H :    0.075905
   8 H :    0.075904
   9 H :    0.075904
  10 H :    0.075905
  11 H :    0.096931
  12 H :    0.105200
  13 H :    0.096930
Sum of atomic charges:    0.0000000

LOEWDIN ATOMIC CHARGES
----------------------
   0 C :   -0.313338
   1 C :   -0.297762
   2 C :   -0.297762
   3 C :   -0.313338
   4 H :    0.116711
   5 H :    0.116595
   6 H :    0.116711
   7 H :    0.130541
   8 H :    0.130541
   9 H :    0.130541
  10 H :    0.130541
  11 H :    0.116711
  12 H :    0.116595
  13 H :    0.116711

  Mayer bond orders larger than 0.100000
B(  0-C ,  1-C ) :   0.9777 B(  0-C ,  4-H ) :   0.9766 B(  0-C ,  5-H ) :   0.9778
B(  0-C ,  6-H ) :   0.9766 B(  1-C ,  2-C ) :   0.9840 B(  1-C ,  7-H ) :   0.9662
B(  1-C ,  8-H ) :   0.9662 B(  2-C ,  3-C ) :   0.9777 B(  2-C ,  9-H ) :   0.9662
B(  2-C , 10-H ) :   0.9662 B(  3-C , 11-H ) :   0.9766 B(  3-C , 12-H ) :   0.9778
B(  3-C , 13-H ) :   0.9766

Dispersion correction           -0.002607297
FINAL SINGLE POINT ENERGY      -158.401351247307

DIPOLE MOMENT
-------------

Method             : SCF
Type of density    : Electron Density
Multiplicity       :   1
Irrep              :   0
Energy             :  -158.4052170664809012 Eh
Relativity type    :
Basis              : AO
                                X                 Y                 Z
Electronic contribution:      0.000000153       0.000001339       0.000028523
Nuclear contribution   :     -0.000000381      -0.000001346      -0.000027736
                        -----------------------------------------
Total Dipole Moment    :     -0.000000227      -0.000000007       0.000000787
                        -----------------------------------------
Magnitude (a.u.)       :      0.000000819
Magnitude (Debye)      :      0.000002082

VIBRATIONAL FREQUENCIES
-----------------------

Scaling factor for frequencies =  1.000000000  (already applied!)

     0:       0.00 cm**-1
     1:       0.00 cm**-1
     2:       0.00 cm**-1
     3:       0.00 cm**-1
     4:       0.00 cm**-1
     5:       0.00 cm**-1
     6:     126.51 cm**-1
     7:     242.90 cm**-1
     8:     264.84 cm**-1
     9:     276.01 cm**-1
    10:     431.14 cm**-1
    11:     744.14 cm**-1
    12:     817.97 cm**-1
    13:     845.14 cm**-1
    14:     963.97 cm**-1
    15:     981.57 cm**-1
    16:    1017.68 cm**-1
    17:    1064.31 cm**-1
    18:    1171.22 cm**-1
    19:    1209.31 cm**-1
    20:    1289.79 cm**-1
    21:    1316.07 cm**-1
    22:    1331.77 cm**-1
    23:    1381.24 cm**-1
    24:    1402.97 cm**-1
    25:    1405.40 cm**-1
    26:    1477.94 cm**-1
    27:    1483.34 cm**-1
    28:    1494.69 cm**-1
    29:    1496.76 cm**-1
    30:    1499.14 cm**-1
    31:    1503.60 cm**-1
    32:    2986.82 cm**-1
    33:    2995.32 cm**-1
    34:    2999.05 cm**-1
    35:    3000.15 cm**-1
    36:    3016.64 cm**-1
    37:    3040.17 cm**-1
    38:    3072.42 cm**-1
    39:    3076.94 cm**-1
    40:    3077.91 cm**-1
    41:    3078.87 cm**-1

IR SPECTRUM
-----------

 Mode   freq       eps      Int      T**2         TX        TY        TZ
       cm**-1   L/(mol*cm) km/mol    a.u.
----------------------------------------------------------------------------
  6:    126.51   0.000003    0.02  0.000008  (-0.000000  0.000000  0.002798)
  7:    242.90   0.000000    0.00  0.000000  (-0.000000  0.000000  0.000051)
  8:    264.84   0.000004    0.02  0.000004  (-0.000429  0.002018 -0.000000)
  9:    276.01   0.000000    0.00  0.000000  (-0.000000  0.000001 -0.000000)
 10:    431.14   0.000000    0.00  0.000000  (-0.000000  0.000000  0.000000)
 11:    744.14   0.000709    3.58  0.000297  (-0.000000  0.000000  0.017242)
 12:    817.97   0.000000    0.00  0.000000  ( 0.000000 -0.000000  0.000000)
 13:    845.14   0.000000    0.00  0.000000  ( 0.000000  0.000000 -0.000000)
 14:    963.97   0.000231    1.17  0.000075  ( 0.000000 -0.000000 -0.008650)
 15:    981.57   0.001238    6.26  0.000394  (-0.013812 -0.014242 -0.000000)
 16:   1017.68   0.000003    0.02  0.000001  (-0.000764 -0.000629  0.000000)
 17:   1064.31   0.000000    0.00  0.000000  (-0.000000 -0.000000 -0.000000)
 18:   1171.22   0.000000    0.00  0.000000  (-0.000000 -0.000000  0.000000)
 19:   1209.31   0.000000    0.00  0.000000  ( 0.000000 -0.000000  0.000000)
 20:   1289.79   0.000038    0.19  0.000009  ( 0.000000 -0.000000 -0.003050)
 21:   1316.07   0.000553    2.79  0.000131  ( 0.011450 -0.000140  0.000000)
 22:   1331.77   0.000000    0.00  0.000000  (-0.000000  0.000000  0.000000)
 23:   1381.24   0.000000    0.00  0.000000  (-0.000000  0.000000 -0.000000)
 24:   1402.97   0.000000    0.00  0.000000  (-0.000000  0.000000  0.000000)
 25:   1405.40   0.001089    5.50  0.000242  ( 0.012644 -0.009047  0.000000)
 26:   1477.94   0.000000    0.00  0.000000  ( 0.000000 -0.000000  0.000000)
 27:   1483.34   0.000360    1.82  0.000076  ( 0.008334  0.002501 -0.000000)
 28:   1494.69   0.000000    0.00  0.000000  (-0.000000  0.000001  0.000000)
 29:   1496.76   0.003245   16.40  0.000677  (-0.000000  0.000000  0.026011)
 30:   1499.14   0.000000    0.00  0.000000  ( 0.000000  0.000000  0.000001)
 31:   1503.60   0.002130   10.77  0.000442  (-0.005117 -0.020394 -0.000000)
 32:   2986.82   0.000000    0.00  0.000000  (-0.000000  0.000002  0.000000)
 33:   2995.32   0.005772   29.17  0.000601  (-0.010494 -0.022165 -0.000000)
 34:   2999.05   0.000000    0.00  0.000000  (-0.000012  0.000014  0.000000)
 35:   3000.15   0.022404  113.22  0.002330  ( 0.034673 -0.033588  0.000000)
 36:   3016.64   0.000000    0.00  0.000000  (-0.000000  0.000000 -0.000000)
 37:   3040.17   0.002996   15.14  0.000308  ( 0.000000  0.000000 -0.017536)
 38:   3072.42   0.000000    0.00  0.000000  ( 0.000001 -0.000001  0.000005)
 39:   3076.94   0.024441  123.51  0.002479  ( 0.000000  0.000001  0.049788)
 40:   3077.91   0.000000    0.00  0.000000  ( 0.000008  0.000014  0.000006)
 41:   3078.87   0.016168   81.71  0.001639  ( 0.019694  0.035368 -0.000001)

--------------------------
THERMOCHEMISTRY AT 298.15K
--------------------------

Temperature         ...   298.15 K
Pressure            ...     1.00 atm
Total Mass          ...    58.12 AMU
Quasi RRHO          ...     True
Cut-Off Frequency   ...     1.00 cm^-1

Throughout the following assumptions are being made:
  (1) The electronic state is orbitally nondegenerate
  (2) There are no thermally accessible electronically excited states
  (3) Hindered rotations indicated by low frequency modes are not
      treated as such but are treated as vibrations and this may
      cause some error
  (4) All equations used are the standard statistical mechanics
      equations for an ideal gas
  (5) All vibrations are strictly harmonic

freq.     126.51  E(vib)   ...       0.43
freq.     242.90  E(vib)   ...       0.31
freq.     264.84  E(vib)   ...       0.29
freq.     276.01  E(vib)   ...       0.28
freq.     431.14  E(vib)   ...       0.18
freq.     744.14  E(vib)   ...       0.06
freq.     817.97  E(vib)   ...       0.05
freq.     845.14  E(vib)   ...       0.04
freq.     963.97  E(vib)   ...       0.03
freq.     981.57  E(vib)   ...       0.02
freq.    1017.68  E(vib)   ...       0.02
freq.    1064.31  E(vib)   ...       0.02
freq.    1171.22  E(vib)   ...       0.01
freq.    1209.31  E(vib)   ...       0.01
freq.    1289.79  E(vib)   ...       0.01
freq.    1316.07  E(vib)   ...       0.01
freq.    1331.77  E(vib)   ...       0.01
freq.    1381.24  E(vib)   ...       0.01
freq.    1402.97  E(vib)   ...       0.00
freq.    1405.40  E(vib)   ...       0.00
freq.    1477.94  E(vib)   ...       0.00
freq.    1483.34  E(vib)   ...       0.00
freq.    1494.69  E(vib)   ...       0.00
freq.    1496.76  E(vib)   ...       0.00
freq.    1499.14  E(vib)   ...       0.00
freq.    1503.60  E(vib)   ...       0.00
freq.    2986.82  E(vib)   ...       0.00
freq.    2995.32  E(vib)   ...       0.00
freq.    2999.05  E(vib)   ...       0.00
freq.    3000.15  E(vib)   ...       0.00
freq.    3016.64  E(vib)   ...       0.00
freq.    3040.17  E(vib)   ...       0.00
freq.    3072.42  E(vib)   ...       0.00
freq.    3076.94  E(vib)   ...       0.00
freq.    3077.91  E(vib)   ...       0.00
freq.    3078.87  E(vib)   ...       0.00

------------
INNER ENERGY
------------

The inner energy is: U= E(el) + E(ZPE) + E(vib) + E(rot) + E(trans)
    E(el)   - is the total energy from the electronic structure calculation
              = E(kin-el) + E(nuc-el) + E(el-el) + E(nuc-nuc)
    E(ZPE)  - the the zero temperature vibrational energy from the frequency calculation
    E(vib)  - the the finite temperature correction to E(ZPE) due to population
              of excited vibrational states
    E(rot)  - is the rotational thermal energy
    E(trans)- is the translational thermal energy

Summary of contributions to the inner energy U:
Electronic energy                ...   -158.40135125 Eh
Zero point energy                ...      0.13118533 Eh      82.32 kcal/mol
Thermal vibrational correction   ...      0.00287994 Eh       1.81 kcal/mol
Thermal rotational correction    ...      0.00141627 Eh       0.89 kcal/mol
Thermal translational correction ...      0.00141627 Eh       0.89 kcal/mol
-----------------------------------------------------------------------
Total thermal energy                   -158.26445343 Eh

Summary of corrections to the electronic energy:
(perhaps to be used in another calculation)
Total thermal correction                  0.00571248 Eh       3.58 kcal/mol
Non-thermal (ZPE) correction              0.13118533 Eh      82.32 kcal/mol
-----------------------------------------------------------------------
Total correction                          0.13689781 Eh      85.90 kcal/mol

--------
ENTHALPY
--------

The enthalpy is H = U + kB*T
                kB is Boltzmann's constant
Total thermal energy              ...   -158.26445343 Eh
Thermal Enthalpy correction       ...      0.00094421 Eh       0.59 kcal/mol
-----------------------------------------------------------------------
Total Enthalpy                    ...   -158.26350922 Eh

Note: Rotational entropy computed according to Herzberg
Infrared and Raman Spectra, Chapter V,1, Van Nostrand Reinhold, 1945
Point Group:  C2h, Symmetry Number:   2
Rotational constants in cm-1:     0.780546     0.121429     0.113997

Vibrational entropy computed according to the QRRHO of S. Grimme
Chem.Eur.J. 2012 18 9955 using a reference frequency of 100.0 cm-1

-------
ENTROPY
-------

The entropy contributions are T*S = T*(S(el)+S(vib)+S(rot)+S(trans))
     S(el)   - electronic entropy
     S(vib)  - vibrational entropy
     S(rot)  - rotational entropy
     S(trans)- translational entropy
The entropies will be listed as multiplied by the temperature to get
units of energy

Electronic entropy                ...      0.00000000 Eh      0.00 kcal/mol
Vibrational entropy               ...      0.00476047 Eh      2.99 kcal/mol
Rotational entropy                ...      0.01099387 Eh      6.90 kcal/mol
Translational entropy             ...      0.01810279 Eh     11.36 kcal/mol
-----------------------------------------------------------------------
Final entropy term                ...      0.03385713 Eh     21.25 kcal/mol

In case the symmetry of your molecule has not been determined correctly
or in case you have a reason to use a different symmetry number we print
out the resulting rotational entropy values for sn=1,12:

 non-linear molecules -----------------------------------
|  sn= 1 | S(rot)=       0.01164833 Eh      7.31 kcal/mol|
|  sn= 2 | S(rot)=       0.01099387 Eh      6.90 kcal/mol|
|  sn= 3 | S(rot)=       0.01061104 Eh      6.66 kcal/mol|
|  sn= 4 | S(rot)=       0.01033942 Eh      6.49 kcal/mol|
|  sn= 5 | S(rot)=       0.01012873 Eh      6.36 kcal/mol|
|  sn= 6 | S(rot)=       0.00995658 Eh      6.25 kcal/mol|
|  sn= 7 | S(rot)=       0.00981104 Eh      6.16 kcal/mol|
|  sn= 8 | S(rot)=       0.00968496 Eh      6.08 kcal/mol|
|  sn= 9 | S(rot)=       0.00957375 Eh      6.01 kcal/mol|
|  sn=10 | S(rot)=       0.00947427 Eh      5.95 kcal/mol|
|  sn=11 | S(rot)=       0.00938428 Eh      5.89 kcal/mol|
|  sn=12 | S(rot)=       0.00930213 Eh      5.84 kcal/mol|
 linear molecules ---------------------------------------
|  Dinfh | S(rot)=       0.00737617 Eh      4.63 kcal/mol|
|  Cinfv | S(rot)=       0.00803063 Eh      5.04 kcal/mol|
 --------------------------------------------------------

-------------------
GIBBS FREE ENERGY
-------------------

The Gibbs free energy is G = H - T*S

Total enthalpy                    ...   -158.26350922 Eh
Total entropy correction          ...     -0.03385713 Eh    -21.25 kcal/mol
-----------------------------------------------------------------------
Final Gibbs free energy         ...   -158.29736635 Eh

                             ****ORCA TERMINATED NORMALLY****
TOTAL RUN TIME: 0 days 0 hours 4 minutes 24 seconds 712 msec
