                         Program Version 6.0.0  -   RELEASE  -
|  1> ! r2SCAN-3c DEF2-TZVP FREQ
|  2> * xyzfile 0 1 vacuum_censo.xyz
|  3>
|  4>                          ****END OF INPUT****

CARTESIAN COORDINATES (ANGSTROEM)
---------------------------------
  C      1.950810   -0.131635    0.000027
  C      0.566497    0.513090   -0.000004
  C     -0.566496   -0.513089   -0.000025
  C     -1.950808    0.131637    0.000020
  H      2.745603    0.620396    0.000199
  H      2.087845   -0.764007    0.883870
  H      2.088005   -0.763773   -0.883957
  H      0.461663    1.164184    0.877957
  H      0.461703    1.164185   -0.877971
  H     -0.461696   -1.164159   -0.878009
  H     -0.461668   -1.164210    0.877919
  H     -2.087947    0.763911   -0.883876
  H     -2.087899    0.763872    0.883951
  H     -2.745602   -0.620395    0.000026

 Total Charge           Charge          ....    0
 Multiplicity           Mult            ....    1
 Number of Electrons    NEL             ....   34
 Basis Dimension        Dim             ....  184

ORBITAL ENERGIES
----------------

  NO   OCC          E(Eh)            E(eV)
   0   2.0000     -10.024006      -272.7671
   1   2.0000     -10.023881      -272.7637
   2   2.0000     -10.015645      -272.5396
   3   2.0000     -10.015643      -272.5395
   4   2.0000      -0.758402       -20.6372
   5   2.0000      -0.688234       -18.7278
   6   2.0000      -0.595322       -16.1995
   7   2.0000      -0.541321       -14.7301
   8   2.0000      -0.435180       -11.8419
   9   2.0000      -0.393571       -10.7096
  10   2.0000      -0.387166       -10.5353
  11   2.0000      -0.377744       -10.2789
  12   2.0000      -0.336203        -9.1485
  13   2.0000      -0.317451        -8.6383
  14   2.0000      -0.303466        -8.2577
  15   2.0000      -0.291352        -7.9281
  16   2.0000      -0.289921        -7.8892
  17   0.0000       0.046805         1.2736
  18   0.0000       0.070901         1.9293
  19   0.0000       0.089249         2.4286
  20   0.0000       0.092664         2.5215
  21   0.0000       0.119149         3.2422

MULLIKEN ATOMIC CHARGES
-----------------------
   0 C :   -0.311065
   1 C :   -0.140347
   2 C :   -0.140346
   3 C :   -0.311066
   4 H :    0.105360
   5 H :    0.096994
   6 H :    0.096998
   7 H :    0.076029
   8 H :    0.076030
   9 H :    0.076031
  10 H :    0.076029
  11 H :    0.096996
  12 H :    0.096996
  13 H :    0.105360
Sum of atomic charges:    0.0000000

LOEWDIN ATOMIC CHARGES
----------------------
   0 C :   -0.313026
   1 C :   -0.297458
   2 C :   -0.297457
   3 C :   -0.313026
   4 H :    0.116460
   5 H :    0.116610
   6 H :    0.116610
   7 H :    0.130401
   8 H :    0.130402
   9 H :    0.130402
  10 H :    0.130401
  11 H :    0.116610
  12 H :    0.116610
  13 H :    0.116460

  Mayer bond orders larger than 0.100000
B(  0-C ,  1-C ) :   0.9775 B(  0-C ,  4-H ) :   0.9778 B(  0-C ,  5-H ) :   0.9767
B(  0-C ,  6-H ) :   0.9767 B(  1-C ,  2-C ) :   0.9840 B(  1-C ,  7-H ) :   0.9663
B(  1-C ,  8-H ) :   0.9663 B(  2-C ,  3-C ) :   0.9775 B(  2-C ,  9-H ) :   0.9663
B(  2-C , 10-H ) :   0.9663 B(  3-C , 11-H ) :   0.9767 B(  3-C , 12-H ) :   0.9767
B(  3-C , 13-H ) :   0.9778

Dispersion correction           -0.002606491
FINAL SINGLE POINT ENERGY      -158.401354390952

DIPOLE MOMENT
-------------

Method             : SCF
Type of density    : Electron Density
Multiplicity       :   1
Irrep              :   0
Energy             :  -158.4052217712979598 Eh
Relativity type    :
Basis              : AO
                                X                 Y                 Z
Electronic contribution:     -0.000000205      -0.000001080      -0.000051992
Nuclear contribution   :      0.000000181       0.000001109       0.000050045
                        -----------------------------------------
Total Dipole Moment    :     -0.000000024       0.000000029      -0.000001947
                        -----------------------------------------
Magnitude (a.u.)       :      0.000001948
Magnitude (Debye)      :      0.000004951

VIBRATIONAL FREQUENCIES
-----------------------

Scaling factor for frequencies =  1.000000000  (already applied!)

     0:       0.00 cm**-1
     1:       0.00 cm**-1
     2:       0.00 cm**-1
     3:       0.00 cm**-1
     4:       0.00 cm**-1
     5:       0.00 cm**-1
     6:     124.39 cm**-1
     7:     233.13 cm**-1
     8:     264.24 cm**-1
     9:     268.61 cm**-1
    10:     430.06 cm**-1
    11:     741.85 cm**-1
    12:     815.39 cm**-1
    13:     842.99 cm**-1
    14:     961.87 cm**-1
    15:     979.70 cm**-1
    16:    1015.44 cm**-1
    17:    1062.37 cm**-1
    18:    1170.02 cm**-1
    19:    1207.68 cm**-1
    20:    1288.48 cm**-1
    21:    1315.61 cm**-1
    22:    1330.87 cm**-1
    23:    1380.77 cm**-1
    24:    1401.33 cm**-1
    25:    1403.80 cm**-1
    26:    1478.43 cm**-1
    27:    1483.46 cm**-1
    28:    1493.68 cm**-1
    29:    1495.78 cm**-1
    30:    1498.81 cm**-1
    31:    1503.67 cm**-1
    32:    2988.18 cm**-1
    33:    2997.28 cm**-1
    34:    3003.96 cm**-1
    35:    3004.51 cm**-1
    36:    3016.92 cm**-1
    37:    3041.06 cm**-1
    38:    3076.75 cm**-1
    39:    3080.61 cm**-1
    40:    3084.39 cm**-1
    41:    3085.29 cm**-1

IR SPECTRUM
-----------

 Mode   freq       eps      Int      T**2         TX        TY        TZ
       cm**-1   L/(mol*cm) km/mol    a.u.
----------------------------------------------------------------------------
  6:    124.39   0.000003    0.02  0.000007  ( 0.000000  0.000000 -0.002729)
  7:    233.13   0.000000    0.00  0.000000  ( 0.000001 -0.000000 -0.000068)
  8:    264.24   0.000004    0.02  0.000004  ( 0.000392 -0.002085 -0.000000)
  9:    268.61   0.000000    0.00  0.000000  ( 0.000001 -0.000003  0.000000)
 10:    430.06   0.000000    0.00  0.000000  ( 0.000000 -0.000000 -0.000001)
 11:    741.85   0.000728    3.68  0.000306  (-0.000000 -0.000000  0.017497)
 12:    815.39   0.000000    0.00  0.000000  (-0.000001  0.000000  0.000000)
 13:    842.99   0.000000    0.00  0.000000  ( 0.000000  0.000000 -0.000001)
 14:    961.87   0.000233    1.18  0.000076  (-0.000001 -0.000001  0.008690)
 15:    979.70   0.001237    6.25  0.000394  (-0.013796 -0.014274 -0.000001)
 16:   1015.44   0.000004    0.02  0.000001  (-0.000858 -0.000787 -0.000000)
 17:   1062.37   0.000000    0.00  0.000000  ( 0.000000  0.000000  0.000000)
 18:   1170.02   0.000000    0.00  0.000000  (-0.000000  0.000000  0.000001)
 19:   1207.68   0.000000    0.00  0.000000  ( 0.000000 -0.000001 -0.000000)
 20:   1288.48   0.000036    0.18  0.000009  ( 0.000000 -0.000001  0.002969)
 21:   1315.61   0.000565    2.86  0.000134  (-0.011576  0.000081  0.000001)
 22:   1330.87   0.000000    0.00  0.000000  ( 0.000002 -0.000000 -0.000000)
 23:   1380.77   0.000000    0.00  0.000000  (-0.000000 -0.000000  0.000000)
 24:   1401.33   0.000000    0.00  0.000000  (-0.000000  0.000000 -0.000001)
 25:   1403.80   0.001091    5.51  0.000242  (-0.012676  0.009045 -0.000000)
 26:   1478.43   0.000000    0.00  0.000000  ( 0.000000  0.000000 -0.000001)
 27:   1483.46   0.000379    1.92  0.000080  ( 0.008440  0.002929  0.000001)
 28:   1493.68   0.000000    0.00  0.000000  ( 0.000001 -0.000000  0.000000)
 29:   1495.78   0.003259   16.47  0.000680  ( 0.000001 -0.000002  0.026075)
 30:   1498.81   0.000000    0.00  0.000000  ( 0.000000 -0.000000  0.000001)
 31:   1503.67   0.002113   10.68  0.000438  (-0.004934 -0.020349 -0.000000)
 32:   2988.18   0.000000    0.00  0.000000  ( 0.000000 -0.000000  0.000000)
 33:   2997.28   0.008383   42.37  0.000873  ( 0.002384  0.029447  0.000000)
 34:   3003.96   0.000000    0.00  0.000000  ( 0.000001 -0.000001 -0.000001)
 35:   3004.51   0.019908  100.60  0.002068  ( 0.035788 -0.028052 -0.000000)
 36:   3016.92   0.000000    0.00  0.000000  (-0.000001  0.000001  0.000000)
 37:   3041.06   0.003888   19.65  0.000399  (-0.000000  0.000001  0.019974)
 38:   3076.75   0.000000    0.00  0.000000  (-0.000006 -0.000006 -0.000000)
 39:   3080.61   0.023582  119.18  0.002389  ( 0.000004  0.000007 -0.048876)
 40:   3084.39   0.000000    0.00  0.000000  (-0.000000 -0.000000 -0.000018)
 41:   3085.29   0.015887   80.28  0.001607  ( 0.019886  0.034805  0.000009)

--------------------------
THERMOCHEMISTRY AT 298.15K
--------------------------

Temperature         ...   298.15 K
Pressure            ...     1.00 atm
Total Mass          ...    58.12 AMU
Quasi RRHO          ...     True
Cut-Off Frequency   ...     1.00 cm^-1

Throughout the following assumptions are being made:
  (1) The electronic state is orbitally nondegenerate
  (2) There are no thermally accessible electronically excited states
  (3) Hindered rotations indicated by low frequency modes are not
      treated as such but are treated as vibrations and this may
      cause some error
  (4) All equations used are the standard statistical mechanics
      equations for an ideal gas
  (5) All vibrations are strictly harmonic

freq.     124.39  E(vib)   ...       0.43
freq.     233.13  E(vib)   ...       0.32
freq.     264.24  E(vib)   ...       0.29
freq.     268.61  E(vib)   ...       0.29
freq.     430.06  E(vib)   ...       0.18
freq.     741.85  E(vib)   ...       0.06
freq.     815.39  E(vib)   ...       0.05
freq.     842.99  E(vib)   ...       0.04
freq.     961.87  E(vib)   ...       0.03
freq.     979.70  E(vib)   ...       0.03
freq.    1015.44  E(vib)   ...       0.02
freq.    1062.37  E(vib)   ...       0.02
freq.    1170.02  E(vib)   ...       0.01
freq.    1207.68  E(vib)   ...       0.01
freq.    1288.48  E(vib)   ...       0.01
freq.    1315.61  E(vib)   ...       0.01
freq.    1330.87  E(vib)   ...       0.01
freq.    1380.77  E(vib)   ...       0.01
freq.    1401.33  E(vib)   ...       0.00
freq.    1403.80  E(vib)   ...       0.00
freq.    1478.43  E(vib)   ...       0.00
freq.    1483.46  E(vib)   ...       0.00
freq.    1493.68  E(vib)   ...       0.00
freq.    1495.78  E(vib)   ...       0.00
freq.    1498.81  E(vib)   ...       0.00
freq.    1503.67  E(vib)   ...       0.00
freq.    2988.18  E(vib)   ...       0.00
freq.    2997.28  E(vib)   ...       0.00
freq.    3003.96  E(vib)   ...       0.00
freq.    3004.51  E(vib)   ...       0.00
freq.    3016.92  E(vib)   ...       0.00
freq.    3041.06  E(vib)   ...       0.00
freq.    3076.75  E(vib)   ...       0.00
freq.    3080.61  E(vib)   ...       0.00
freq.    3084.39  E(vib)   ...       0.00
freq.    3085.29  E(vib)   ...       0.00

------------
INNER ENERGY
------------

The inner energy is: U= E(el) + E(ZPE) + E(vib) + E(rot) + E(trans)
    E(el)   - is the total energy from the electronic structure calculation
              = E(kin-el) + E(nuc-el) + E(el-el) + E(nuc-nuc)
    E(ZPE)  - the the zero temperature vibrational energy from the frequency calculation
    E(vib)  - the the finite temperature correction to E(ZPE) due to population
              of excited vibrational states
    E(rot)  - is the rotational thermal energy
    E(trans)- is the translational thermal energy

Summary of contributions to the inner energy U:
Electronic energy                ...   -158.40135439 Eh
Zero point energy                ...      0.13115729 Eh      82.30 kcal/mol
Thermal vibrational correction   ...      0.00291320 Eh       1.83 kcal/mol
Thermal rotational correction    ...      0.00141627 Eh       0.89 kcal/mol
Thermal translational correction ...      0.00141627 Eh       0.89 kcal/mol
-----------------------------------------------------------------------
Total thermal energy                   -158.26445136 Eh

Summary of corrections to the electronic energy:
(perhaps to be used in another calculation)
Total thermal correction                  0.00574574 Eh       3.61 kcal/mol
Non-thermal (ZPE) correction              0.13115729 Eh      82.30 kcal/mol
-----------------------------------------------------------------------
Total correction                          0.13690304 Eh      85.91 kcal/mol

--------
ENTHALPY
--------

The enthalpy is H = U + kB*T
                kB is Boltzmann's constant
Total thermal energy              ...   -158.26445136 Eh
Thermal Enthalpy correction       ...      0.00094421 Eh       0.59 kcal/mol
-----------------------------------------------------------------------
Total Enthalpy                    ...   -158.26350715 Eh

Note: Rotational entropy computed according to Herzberg
Infrared and Raman Spectra, Chapter V,1, Van Nostrand Reinhold, 1945
Point Group:  C2, Symmetry Number:   2
Rotational constants in cm-1:     0.780741     0.121260     0.113829

Vibrational entropy computed according to the QRRHO of S. Grimme
Chem.Eur.J. 2012 18 9955 using a reference frequency of 100.0 cm-1

-------
ENTROPY
-------

The entropy contributions are T*S = T*(S(el)+S(vib)+S(rot)+S(trans))
     S(el)   - electronic entropy
     S(vib)  - vibrational entropy
     S(rot)  - rotational entropy
     S(trans)- translational entropy
The entropies will be listed as multiplied by the temperature to get
units of energy

Electronic entropy                ...      0.00000000 Eh      0.00 kcal/mol
Vibrational entropy               ...      0.00483658 Eh      3.03 kcal/mol
Rotational entropy                ...      0.01099511 Eh      6.90 kcal/mol
Translational entropy             ...      0.01810279 Eh     11.36 kcal/mol
-----------------------------------------------------------------------
Final entropy term                ...      0.03393448 Eh     21.29 kcal/mol

In case the symmetry of your molecule has not been determined correctly
or in case you have a reason to use a different symmetry number we print
out the resulting rotational entropy values for sn=1,12:

 non-linear molecules -----------------------------------
|  sn= 1 | S(rot)=       0.01164956 Eh      7.31 kcal/mol|
|  sn= 2 | S(rot)=       0.01099511 Eh      6.90 kcal/mol|
|  sn= 3 | S(rot)=       0.01061227 Eh      6.66 kcal/mol|
|  sn= 4 | S(rot)=       0.01034065 Eh      6.49 kcal/mol|
|  sn= 5 | S(rot)=       0.01012996 Eh      6.36 kcal/mol|
|  sn= 6 | S(rot)=       0.00995782 Eh      6.25 kcal/mol|
|  sn= 7 | S(rot)=       0.00981227 Eh      6.16 kcal/mol|
|  sn= 8 | S(rot)=       0.00968619 Eh      6.08 kcal/mol|
|  sn= 9 | S(rot)=       0.00957499 Eh      6.01 kcal/mol|
|  sn=10 | S(rot)=       0.00947551 Eh      5.95 kcal/mol|
|  sn=11 | S(rot)=       0.00938552 Eh      5.89 kcal/mol|
|  sn=12 | S(rot)=       0.00930336 Eh      5.84 kcal/mol|
 linear molecules ---------------------------------------
|  Dinfh | S(rot)=       0.00737757 Eh      4.63 kcal/mol|
|  Cinfv | S(rot)=       0.00803202 Eh      5.04 kcal/mol|
 --------------------------------------------------------

-------------------
GIBBS FREE ENERGY
-------------------

The Gibbs free energy is G = H - T*S

Total enthalpy                    ...   -158.26350715 Eh
Total entropy correction          ...     -0.03393448 Eh    -21.29 kcal/mol
-----------------------------------------------------------------------
Final Gibbs free energy         ...   -158.29744162 Eh

                             ****ORCA TERMINATED NORMALLY****
TOTAL RUN TIME: 0 days 0 hours 4 minutes 23 seconds 359 msec
