                         Program Version 6.0.1  -  RELEASE   -
|  1> ! r2scan-3c def2/J RI DEFGRID2 scfconv6 printgap
|  2> %output
|  3>     printlevel normal
|  4> end
|  5> * xyz 0 1
|  6> C -2.3395027702 -1.0160167361 0.4085079877
|  7> C -1.8082412953 0.3962472585 0.1888536773
|  8> C -0.5658872633 0.4967854921 -0.7032461471
|  9> C 0.8118169578 0.130832566 -0.113653448
| 10> C 1.8691545622 0.5845678522 -1.1295605543
| 11> C 1.0619329667 0.858949077 1.2085465422
| 12> C 0.9732727549 -1.3763140753 0.0963471798
| 13> H -3.3270975619 -0.9733419532 0.86437645
| 14> H -2.4244661826 -1.5439259455 -0.5387665264
| 15> H -1.6959164238 -1.5924390452 1.065494413
| 16> H -2.5968240603 0.9746742181 -0.3011510751
| 17> H -1.6186141435 0.8702367076 1.1522569071
| 18> H -0.4996314416 1.5364526984 -1.0364712451
| 19> H -0.7308134508 -0.1145650691 -1.5942701309
| 20> H 2.8680551113 0.3290837265 -0.7823833378
| 21> H 1.708353074 0.100972234 -2.0908173168
| 22> H 1.826435966 1.6616766421 -1.2772592227
| 23> H 2.0904404035 0.7066696419 1.5290435066
| 24> H 0.4090292337 0.4850418647 1.9929480222
| 25> H 0.8934872446 1.9277991134 1.0959245087
| 26> H 0.362926446 -1.7298125335 0.9211102445
| 27> H 0.6934603442 -1.9229261723 -0.8012064732
| 28> H 2.0108361616 -1.6099733262 0.3279530994
| 29> *
| 30>
| 31>                          ****END OF INPUT****

CARTESIAN COORDINATES (ANGSTROEM)
---------------------------------
  C     -2.339503   -1.016017    0.408508
  C     -1.808241    0.396247    0.188854
  C     -0.565887    0.496785   -0.703246
  C      0.811817    0.130833   -0.113653
  C      1.869155    0.584568   -1.129561
  C      1.061933    0.858949    1.208547
  C      0.973273   -1.376314    0.096347
  H     -3.327098   -0.973342    0.864376
  H     -2.424466   -1.543926   -0.538767
  H     -1.695916   -1.592439    1.065494
  H     -2.596824    0.974674   -0.301151
  H     -1.618614    0.870237    1.152257
  H     -0.499631    1.536453   -1.036471
  H     -0.730813   -0.114565   -1.594270
  H      2.868055    0.329084   -0.782383
  H      1.708353    0.100972   -2.090817
  H      1.826436    1.661677   -1.277259
  H      2.090440    0.706670    1.529044
  H      0.409029    0.485042    1.992948
  H      0.893487    1.927799    1.095925
  H      0.362926   -1.729813    0.921110
  H      0.693460   -1.922926   -0.801206
  H      2.010836   -1.609973    0.327953

 Total Charge           Charge          ....    0
 Multiplicity           Mult            ....    1
 Number of Electrons    NEL             ....   58
 Basis Dimension        Dim             ....  213

ORBITAL ENERGIES
----------------

  NO   OCC          E(Eh)            E(eV)
   0   2.0000     -10.038712      -273.1672
   1   2.0000     -10.021597      -272.7015
   2   2.0000     -10.018494      -272.6171
   3   2.0000     -10.012631      -272.4575
   4   2.0000     -10.012076      -272.4424
   5   2.0000     -10.011136      -272.4169
   6   2.0000     -10.010581      -272.4018
   7   2.0000      -0.791616       -21.5410
   8   2.0000      -0.731174       -19.8962
   9   2.0000      -0.651692       -17.7335
  10   2.0000      -0.649644       -17.6777
  11   2.0000      -0.640359       -17.4251
  12   2.0000      -0.556642       -15.1470
  13   2.0000      -0.491577       -13.3765
  14   2.0000      -0.436128       -11.8676
  15   2.0000      -0.423483       -11.5236
  16   2.0000      -0.410746       -11.1770
  17   2.0000      -0.388877       -10.5819
  18   2.0000      -0.385082       -10.4786
  19   2.0000      -0.366583        -9.9752
  20   2.0000      -0.349014        -9.4972
  21   2.0000      -0.344560        -9.3759
  22   2.0000      -0.332074        -9.0362
  23   2.0000      -0.319522        -8.6946
  24   2.0000      -0.306703        -8.3458
  25   2.0000      -0.304337        -8.2814
  26   2.0000      -0.284118        -7.7312
  27   2.0000      -0.276932        -7.5357
  28   2.0000      -0.268881        -7.3166
  29   0.0000       0.075436         2.0527
  30   0.0000       0.108467         2.9515
  31   0.0000       0.112800         3.0694
  32   0.0000       0.122345         3.3292
  33   0.0000       0.127709         3.4751

MULLIKEN ATOMIC CHARGES
-----------------------
   0 C :   -0.470171
   1 C :   -0.263051
   2 C :   -0.279293
   3 C :    0.154016
   4 C :   -0.483685
   5 C :   -0.521511
   6 C :   -0.517767
   7 H :    0.143797
   8 H :    0.145797
   9 H :    0.137269
  10 H :    0.138455
  11 H :    0.147072
  12 H :    0.145021
  13 H :    0.149708
  14 H :    0.153162
  15 H :    0.152038
  16 H :    0.152591
  17 H :    0.151268
  18 H :    0.156743
  19 H :    0.156242
  20 H :    0.146771
  21 H :    0.156914
  22 H :    0.148615
Sum of atomic charges:   -0.0000000

LOEWDIN ATOMIC CHARGES
----------------------
   0 C :   -0.425262
   1 C :   -0.312503
   2 C :   -0.299317
   3 C :   -0.211830
   4 C :   -0.410629
   5 C :   -0.409287
   6 C :   -0.406192
   7 H :    0.149474
   8 H :    0.150133
   9 H :    0.146509
  10 H :    0.152771
  11 H :    0.154312
  12 H :    0.161343
  13 H :    0.159405
  14 H :    0.153922
  15 H :    0.157009
  16 H :    0.155184
  17 H :    0.157399
  18 H :    0.154045
  19 H :    0.157704
  20 H :    0.153091
  21 H :    0.157118
  22 H :    0.155599

  Mayer bond orders larger than 0.100000
B(  0-C ,  1-C ) :   0.8962 B(  0-C ,  7-H ) :   0.9719 B(  0-C ,  8-H ) :   0.9858
B(  0-C ,  9-H ) :   0.9763 B(  1-C ,  2-C ) :   0.9081 B(  1-C , 10-H ) :   0.9684
B(  1-C , 11-H ) :   0.9809 B(  2-C ,  3-C ) :   0.8830 B(  2-C , 12-H ) :   0.9715
B(  2-C , 13-H ) :   0.9843 B(  3-C ,  4-C ) :   0.9289 B(  3-C ,  5-C ) :   0.9164
B(  3-C ,  6-C ) :   0.9244 B(  4-C , 14-H ) :   0.9796 B(  4-C , 15-H ) :   0.9765
B(  4-C , 16-H ) :   0.9773 B(  5-C , 17-H ) :   0.9723 B(  5-C , 18-H ) :   0.9760
B(  5-C , 19-H ) :   0.9743 B(  6-C , 20-H ) :   0.9729 B(  6-C , 21-H ) :   0.9750
B(  6-C , 22-H ) :   0.9734

Dispersion correction           -0.006679232
FINAL SINGLE POINT ENERGY      -276.285476475235

DIPOLE MOMENT
-------------

Method             : SCF
Type of density    : Electron Density
Multiplicity       :   1
Irrep              :   0
Energy             :  -276.2902136048655848 Eh
Relativity type    :
Basis              : AO
                                X                 Y                 Z
Electronic contribution:      0.001853869       0.871588272      -0.501195323
Nuclear contribution   :     -0.028463142      -0.839070197       0.494206392
                        -----------------------------------------
Total Dipole Moment    :     -0.026609273       0.032518076      -0.006988931
                        -----------------------------------------
Magnitude (a.u.)       :      0.042594880
Magnitude (Debye)      :      0.108267581

Rotational constants in cm-1:             0.125922             0.054438             0.052244
Rotational constants in MHz :          3775.057418          1632.002857          1566.245424

                             ****ORCA TERMINATED NORMALLY****
TOTAL RUN TIME: 0 days 0 hours 0 minutes 26 seconds 554 msec
