                         Program Version 6.0.0  -   RELEASE  -
|  1> ! M062X DEF2-TZVP FREQ
|  2> * xyzfile 0 1 censo.xyz
|  3>
|  4>                          ****END OF INPUT****

CARTESIAN COORDINATES (ANGSTROEM)
---------------------------------
  C      1.324768    1.232555    0.217398
  C      0.488655    0.105344   -0.413460
  C      0.908705   -1.276177    0.063596
  C     -0.957203    0.399005   -0.160857
  O     -1.741870   -0.355968    0.390263
  H      1.237532    1.207641    1.308532
  H      1.002313    2.217389   -0.134271
  H      2.377345    1.102419   -0.047827
  H      0.604547    0.185120   -1.506546
  H      1.963082   -1.448983   -0.169657
  H      0.317524   -2.061634   -0.415995
  H      0.779801   -1.366997    1.147000
  H     -1.301899    1.394513   -0.511318

 Total Charge           Charge          ....    0
 Multiplicity           Mult            ....    1
 Number of Electrons    NEL             ....   40
 Basis Dimension        Dim             ....  203

ORBITAL ENERGIES
----------------

  NO   OCC          E(Eh)            E(eV)
   0   2.0000     -19.628015      -534.1055
   1   2.0000     -10.628993      -289.2296
   2   2.0000     -10.557979      -287.2972
   3   2.0000     -10.544797      -286.9385
   4   2.0000     -10.530566      -286.5513
   5   2.0000      -1.165989       -31.7282
   6   2.0000      -0.916047       -24.9269
   7   2.0000      -0.790064       -21.4987
   8   2.0000      -0.744515       -20.2593
   9   2.0000      -0.634144       -17.2559
  10   2.0000      -0.574511       -15.6332
  11   2.0000      -0.531369       -14.4593
  12   2.0000      -0.529770       -14.4158
  13   2.0000      -0.478905       -13.0317
  14   2.0000      -0.462759       -12.5923
  15   2.0000      -0.448513       -12.2047
  16   2.0000      -0.441578       -12.0159
  17   2.0000      -0.414169       -11.2701
  18   2.0000      -0.405427       -11.0322
  19   2.0000      -0.329895        -8.9769
  20   0.0000       0.012314         0.3351
  21   0.0000       0.064404         1.7525
  22   0.0000       0.098205         2.6723
  23   0.0000       0.102212         2.7813
  24   0.0000       0.121541         3.3073

MULLIKEN ATOMIC CHARGES
-----------------------
   0 C :   -0.431420
   1 C :   -0.091225
   2 C :   -0.426035
   3 C :    0.114957
   4 O :   -0.295759
   5 H :    0.152813
   6 H :    0.144439
   7 H :    0.150414
   8 H :    0.135919
   9 H :    0.140201
  10 H :    0.154268
  11 H :    0.150116
  12 H :    0.101313
Sum of atomic charges:   -0.0000000

LOEWDIN ATOMIC CHARGES
----------------------
   0 C :   -0.279415
   1 C :   -0.320244
   2 C :   -0.282549
   3 C :   -0.263286
   4 O :    0.097701
   5 H :    0.128163
   6 H :    0.124295
   7 H :    0.126985
   8 H :    0.166878
   9 H :    0.124033
  10 H :    0.129867
  11 H :    0.130069
  12 H :    0.117503

  Mayer bond orders larger than 0.100000
B(  0-C ,  1-C ) :   0.9452 B(  0-C ,  5-H ) :   0.9591 B(  0-C ,  6-H ) :   0.9697
B(  0-C ,  7-H ) :   0.9705 B(  1-C ,  2-C ) :   0.9682 B(  1-C ,  3-C ) :   0.9296
B(  1-C ,  8-H ) :   0.9522 B(  2-C ,  9-H ) :   0.9731 B(  2-C , 10-H ) :   0.9692
B(  2-C , 11-H ) :   0.9564 B(  3-C ,  4-O ) :   2.0822 B(  3-C , 12-H ) :   0.9811

FINAL SINGLE POINT ENERGY      -232.436298083946

DIPOLE MOMENT
-------------

Method             : SCF
Type of density    : Electron Density
Multiplicity       :   1
Irrep              :   0
Energy             :  -232.4362980839459567 Eh
Relativity type    :
Basis              : AO
                                X                 Y                 Z
Electronic contribution:     -5.565050999      -0.494997813       0.086161874
Nuclear contribution   :      6.484725732       1.035771384      -0.552952467
                        -----------------------------------------
Total Dipole Moment    :      0.919674733       0.540773571      -0.466790592
                        -----------------------------------------
Magnitude (a.u.)       :      1.164530432
Magnitude (Debye)      :      2.960001122

VIBRATIONAL FREQUENCIES
-----------------------

Scaling factor for frequencies =  1.000000000  (already applied!)

     0:       0.00 cm**-1
     1:       0.00 cm**-1
     2:       0.00 cm**-1
     3:       0.00 cm**-1
     4:       0.00 cm**-1
     5:       0.00 cm**-1
     6:     198.08 cm**-1
     7:     263.90 cm**-1
     8:     279.58 cm**-1
     9:     304.73 cm**-1
    10:     365.58 cm**-1
    11:     416.90 cm**-1
    12:     659.80 cm**-1
    13:     822.11 cm**-1
    14:     932.99 cm**-1
    15:     954.40 cm**-1
    16:     967.58 cm**-1
    17:     988.79 cm**-1
    18:    1139.07 cm**-1
    19:    1168.44 cm**-1
    20:    1212.93 cm**-1
    21:    1311.03 cm**-1
    22:    1379.26 cm**-1
    23:    1407.32 cm**-1
    24:    1409.85 cm**-1
    25:    1434.33 cm**-1
    26:    1489.21 cm**-1
    27:    1494.95 cm**-1
    28:    1508.92 cm**-1
    29:    1514.17 cm**-1
    30:    1746.07 cm**-1
    31:    2916.11 cm**-1
    32:    2996.35 cm**-1
    33:    3032.11 cm**-1
    34:    3039.14 cm**-1
    35:    3107.29 cm**-1
    36:    3112.60 cm**-1
    37:    3118.22 cm**-1
    38:    3118.70 cm**-1

IR SPECTRUM
-----------

 Mode   freq       eps      Int      T**2         TX        TY        TZ
       cm**-1   L/(mol*cm) km/mol    a.u.
----------------------------------------------------------------------------
  6:    198.08   0.001140    5.76  0.001796  (-0.005272 -0.020701 -0.036595)
  7:    263.90   0.000041    0.21  0.000048  (-0.006293  0.002239 -0.001845)
  8:    279.58   0.001011    5.11  0.001128  (-0.026074  0.021120 -0.001496)
  9:    304.73   0.000414    2.09  0.000424  ( 0.018973 -0.004394  0.006685)
 10:    365.58   0.000331    1.67  0.000282  ( 0.011313 -0.005205  0.011279)
 11:    416.90   0.000288    1.46  0.000216  ( 0.005952 -0.005305 -0.012327)
 12:    659.80   0.001197    6.05  0.000566  ( 0.021274 -0.009763  0.004286)
 13:    822.11   0.001895    9.58  0.000719  ( 0.023317 -0.012821 -0.003347)
 14:    932.99   0.001177    5.95  0.000394  (-0.018990 -0.005624  0.001216)
 15:    954.40   0.001501    7.59  0.000491  (-0.021507  0.002518 -0.004688)
 16:    967.58   0.002872   14.52  0.000926  ( 0.027744 -0.012311 -0.002266)
 17:    988.79   0.000395    2.00  0.000125  ( 0.010405  0.003750 -0.001538)
 18:   1139.07   0.000985    4.98  0.000270  (-0.016022  0.001176  0.003429)
 19:   1168.44   0.000573    2.90  0.000153  (-0.009748 -0.001764 -0.007413)
 20:   1212.93   0.000104    0.53  0.000027  ( 0.004030 -0.003224 -0.000463)
 21:   1311.03   0.000269    1.36  0.000064  ( 0.006093  0.003595 -0.003743)
 22:   1379.26   0.000474    2.40  0.000107  (-0.007954  0.006377  0.001838)
 23:   1407.32   0.001174    5.93  0.000260  (-0.003228 -0.015759 -0.001269)
 24:   1409.85   0.000157    0.79  0.000035  ( 0.004185  0.003502  0.002207)
 25:   1434.33   0.001878    9.49  0.000408  (-0.004103  0.014672 -0.013281)
 26:   1489.21   0.000005    0.03  0.000001  (-0.000295 -0.000227  0.001004)
 27:   1494.95   0.000752    3.80  0.000157  (-0.005259 -0.009192 -0.006702)
 28:   1508.92   0.002016   10.19  0.000417  ( 0.002090  0.004542 -0.019800)
 29:   1514.17   0.002729   13.79  0.000562  (-0.020707  0.007135  0.009095)
 30:   1746.07   0.036912  186.54  0.006597  (-0.064568 -0.039135  0.029941)
 31:   2916.11   0.016619   83.99  0.001779  ( 0.016078 -0.036824  0.012805)
 32:   2996.35   0.002454   12.40  0.000256  (-0.006589  0.006898 -0.012830)
 33:   3032.11   0.003620   18.29  0.000373  ( 0.007772  0.016782  0.005523)
 34:   3039.14   0.002410   12.18  0.000247  ( 0.009116 -0.012125  0.004168)
 35:   3107.29   0.003229   16.32  0.000324  ( 0.005818 -0.013166  0.010823)
 36:   3112.60   0.001549    7.83  0.000155  ( 0.006317  0.000345 -0.010736)
 37:   3118.22   0.003681   18.60  0.000368  (-0.015650  0.004738  0.010050)
 38:   3118.70   0.002384   12.05  0.000239  (-0.011262 -0.007037 -0.007884)

--------------------------
THERMOCHEMISTRY AT 298.15K
--------------------------

Temperature         ...   298.15 K
Pressure            ...     1.00 atm
Total Mass          ...    72.11 AMU
Quasi RRHO          ...     True
Cut-Off Frequency   ...     1.00 cm^-1

Throughout the following assumptions are being made:
  (1) The electronic state is orbitally nondegenerate
  (2) There are no thermally accessible electronically excited states
  (3) Hindered rotations indicated by low frequency modes are not
      treated as such but are treated as vibrations and this may
      cause some error
  (4) All equations used are the standard statistical mechanics
      equations for an ideal gas
  (5) All vibrations are strictly harmonic

freq.     198.08  E(vib)   ...       0.35
freq.     263.90  E(vib)   ...       0.29
freq.     279.58  E(vib)   ...       0.28
freq.     304.73  E(vib)   ...       0.26
freq.     365.58  E(vib)   ...       0.22
freq.     416.90  E(vib)   ...       0.18
freq.     659.80  E(vib)   ...       0.08
freq.     822.11  E(vib)   ...       0.05
freq.     932.99  E(vib)   ...       0.03
freq.     954.40  E(vib)   ...       0.03
freq.     967.58  E(vib)   ...       0.03
freq.     988.79  E(vib)   ...       0.02
freq.    1139.07  E(vib)   ...       0.01
freq.    1168.44  E(vib)   ...       0.01
freq.    1212.93  E(vib)   ...       0.01
freq.    1311.03  E(vib)   ...       0.01
freq.    1379.26  E(vib)   ...       0.01
freq.    1407.32  E(vib)   ...       0.00
freq.    1409.85  E(vib)   ...       0.00
freq.    1434.33  E(vib)   ...       0.00
freq.    1489.21  E(vib)   ...       0.00
freq.    1494.95  E(vib)   ...       0.00
freq.    1508.92  E(vib)   ...       0.00
freq.    1514.17  E(vib)   ...       0.00
freq.    1746.07  E(vib)   ...       0.00
freq.    2916.11  E(vib)   ...       0.00
freq.    2996.35  E(vib)   ...       0.00
freq.    3032.11  E(vib)   ...       0.00
freq.    3039.14  E(vib)   ...       0.00
freq.    3107.29  E(vib)   ...       0.00
freq.    3112.60  E(vib)   ...       0.00
freq.    3118.22  E(vib)   ...       0.00
freq.    3118.70  E(vib)   ...       0.00

------------
INNER ENERGY
------------

The inner energy is: U= E(el) + E(ZPE) + E(vib) + E(rot) + E(trans)
    E(el)   - is the total energy from the electronic structure calculation
              = E(kin-el) + E(nuc-el) + E(el-el) + E(nuc-nuc)
    E(ZPE)  - the the zero temperature vibrational energy from the frequency calculation
    E(vib)  - the the finite temperature correction to E(ZPE) due to population
              of excited vibrational states
    E(rot)  - is the rotational thermal energy
    E(trans)- is the translational thermal energy

Summary of contributions to the inner energy U:
Electronic energy                ...   -232.43629808 Eh
Zero point energy                ...      0.11347671 Eh      71.21 kcal/mol
Thermal vibrational correction   ...      0.00302054 Eh       1.90 kcal/mol
Thermal rotational correction    ...      0.00141627 Eh       0.89 kcal/mol
Thermal translational correction ...      0.00141627 Eh       0.89 kcal/mol
-----------------------------------------------------------------------
Total thermal energy                   -232.31696830 Eh

Summary of corrections to the electronic energy:
(perhaps to be used in another calculation)
Total thermal correction                  0.00585308 Eh       3.67 kcal/mol
Non-thermal (ZPE) correction              0.11347671 Eh      71.21 kcal/mol
-----------------------------------------------------------------------
Total correction                          0.11932979 Eh      74.88 kcal/mol

--------
ENTHALPY
--------

The enthalpy is H = U + kB*T
                kB is Boltzmann's constant
Total thermal energy              ...   -232.31696830 Eh
Thermal Enthalpy correction       ...      0.00094421 Eh       0.59 kcal/mol
-----------------------------------------------------------------------
Total Enthalpy                    ...   -232.31602409 Eh

Note: Only C1 symmetry has been detected, increase convergence thresholds
      if your molecule has a higher symmetry. Symmetry factor of 1.0 is
      used for the rotational entropy correction.

Note: Rotational entropy computed according to Herzberg
Infrared and Raman Spectra, Chapter V,1, Van Nostrand Reinhold, 1945
Point Group:  C1, Symmetry Number:   1
Rotational constants in cm-1:     0.248139     0.137977     0.100052

Vibrational entropy computed according to the QRRHO of S. Grimme
Chem.Eur.J. 2012 18 9955 using a reference frequency of 100.0 cm-1

-------
ENTROPY
-------

The entropy contributions are T*S = T*(S(el)+S(vib)+S(rot)+S(trans))
     S(el)   - electronic entropy
     S(vib)  - vibrational entropy
     S(rot)  - rotational entropy
     S(trans)- translational entropy
The entropies will be listed as multiplied by the temperature to get
units of energy

Electronic entropy                ...      0.00000000 Eh      0.00 kcal/mol
Vibrational entropy               ...      0.00475535 Eh      2.98 kcal/mol
Rotational entropy                ...      0.01219063 Eh      7.65 kcal/mol
Translational entropy             ...      0.01840809 Eh     11.55 kcal/mol
-----------------------------------------------------------------------
Final entropy term                ...      0.03535408 Eh     22.18 kcal/mol

In case the symmetry of your molecule has not been determined correctly
or in case you have a reason to use a different symmetry number we print
out the resulting rotational entropy values for sn=1,12:

 non-linear molecules -----------------------------------
|  sn= 1 | S(rot)=       0.01219063 Eh      7.65 kcal/mol|
|  sn= 2 | S(rot)=       0.01153618 Eh      7.24 kcal/mol|
|  sn= 3 | S(rot)=       0.01115334 Eh      7.00 kcal/mol|
|  sn= 4 | S(rot)=       0.01088172 Eh      6.83 kcal/mol|
|  sn= 5 | S(rot)=       0.01067103 Eh      6.70 kcal/mol|
|  sn= 6 | S(rot)=       0.01049889 Eh      6.59 kcal/mol|
|  sn= 7 | S(rot)=       0.01035334 Eh      6.50 kcal/mol|
|  sn= 8 | S(rot)=       0.01022726 Eh      6.42 kcal/mol|
|  sn= 9 | S(rot)=       0.01011606 Eh      6.35 kcal/mol|
|  sn=10 | S(rot)=       0.01001658 Eh      6.29 kcal/mol|
|  sn=11 | S(rot)=       0.00992659 Eh      6.23 kcal/mol|
|  sn=12 | S(rot)=       0.00984443 Eh      6.18 kcal/mol|
 linear molecules ---------------------------------------
|  Dinfh | S(rot)=       0.00749938 Eh      4.71 kcal/mol|
|  Cinfv | S(rot)=       0.00815383 Eh      5.12 kcal/mol|
 --------------------------------------------------------

-------------------
GIBBS FREE ENERGY
-------------------

The Gibbs free energy is G = H - T*S

Total enthalpy                    ...   -232.31602409 Eh
Total entropy correction          ...     -0.03535408 Eh    -22.18 kcal/mol
-----------------------------------------------------------------------

                             ****ORCA TERMINATED NORMALLY****
TOTAL RUN TIME: 0 days 0 hours 11 minutes 41 seconds 205 msec
