                         Program Version 6.0.0  -   RELEASE  -
|  1> ! M062X DEF2-TZVP FREQ
|  2> * xyzfile 0 1 vacuum_censo.xyz
|  3>
|  4>                          ****END OF INPUT****

CARTESIAN COORDINATES (ANGSTROEM)
---------------------------------
  C      0.947755    1.285004   -0.062599
  C      0.457973   -0.127897   -0.346309
  C      1.395890   -1.209008    0.215703
  C     -0.934451   -0.368476    0.188283
  O     -1.601855    0.444232    0.782567
  H      0.257796    2.030136   -0.465773
  H      1.936166    1.444453   -0.503130
  H      1.017795    1.454040    1.015931
  H      0.382033   -0.291373   -1.434260
  H      2.386225   -1.124299   -0.239723
  H      1.017202   -2.216929    0.017156
  H      1.508205   -1.091862    1.298463
  H     -1.327116   -1.398492    0.002146

 Total Charge           Charge          ....    0
 Multiplicity           Mult            ....    1
 Number of Electrons    NEL             ....   40
 Basis Dimension        Dim             ....  203

ORBITAL ENERGIES
----------------

  NO   OCC          E(Eh)            E(eV)
   0   2.0000     -19.629503      -534.1459
   1   2.0000     -10.629331      -289.2388
   2   2.0000     -10.557775      -287.2917
   3   2.0000     -10.543823      -286.9120
   4   2.0000     -10.529643      -286.5262
   5   2.0000      -1.174168       -31.9507
   6   2.0000      -0.913561       -24.8593
   7   2.0000      -0.789299       -21.4779
   8   2.0000      -0.741245       -20.1703
   9   2.0000      -0.633564       -17.2402
  10   2.0000      -0.573827       -15.6146
  11   2.0000      -0.533606       -14.5202
  12   2.0000      -0.529984       -14.4216
  13   2.0000      -0.479546       -13.0491
  14   2.0000      -0.461872       -12.5682
  15   2.0000      -0.451272       -12.2797
  16   2.0000      -0.442625       -12.0444
  17   2.0000      -0.413418       -11.2497
  18   2.0000      -0.405787       -11.0420
  19   2.0000      -0.328768        -8.9462
  20   0.0000       0.014121         0.3843
  21   0.0000       0.065419         1.7801
  22   0.0000       0.098421         2.6782
  23   0.0000       0.102524         2.7898
  24   0.0000       0.121514         3.3066

MULLIKEN ATOMIC CHARGES
-----------------------
   0 C :   -0.426413
   1 C :   -0.096344
   2 C :   -0.432689
   3 C :    0.109824
   4 O :   -0.280822
   5 H :    0.154569
   6 H :    0.140374
   7 H :    0.148887
   8 H :    0.136579
   9 H :    0.150807
  10 H :    0.144690
  11 H :    0.151961
  12 H :    0.098579
Sum of atomic charges:   -0.0000000

LOEWDIN ATOMIC CHARGES
----------------------
   0 C :   -0.284287
   1 C :   -0.318332
   2 C :   -0.282442
   3 C :   -0.271489
   4 O :    0.113098
   5 H :    0.129616
   6 H :    0.123640
   7 H :    0.129422
   8 H :    0.165347
   9 H :    0.126800
  10 H :    0.124155
  11 H :    0.127768
  12 H :    0.116704

  Mayer bond orders larger than 0.100000
B(  0-C ,  1-C ) :   0.9683 B(  0-C ,  5-H ) :   0.9692 B(  0-C ,  6-H ) :   0.9731
B(  0-C ,  7-H ) :   0.9570 B(  1-C ,  2-C ) :   0.9469 B(  1-C ,  3-C ) :   0.9233
B(  1-C ,  8-H ) :   0.9525 B(  2-C ,  9-H ) :   0.9703 B(  2-C , 10-H ) :   0.9698
B(  2-C , 11-H ) :   0.9592 B(  3-C ,  4-O ) :   2.0923 B(  3-C , 12-H ) :   0.9777

FINAL SINGLE POINT ENERGY      -232.436917861670

DIPOLE MOMENT
-------------

Method             : SCF
Type of density    : Electron Density
Multiplicity       :   1
Irrep              :   0
Energy             :  -232.4369178616698548 Eh
Relativity type    :
Basis              : AO
                                X                 Y                 Z
Electronic contribution:     -5.494586500       0.622185022       0.999974946
Nuclear contribution   :      6.290091886      -1.203008598      -1.545600798
                        -----------------------------------------
Total Dipole Moment    :      0.795505386      -0.580823575      -0.545625852
                        -----------------------------------------
Magnitude (a.u.)       :      1.126007289
Magnitude (Debye)      :      2.862083075

VIBRATIONAL FREQUENCIES
-----------------------

Scaling factor for frequencies =  1.000000000  (already applied!)

     0:       0.00 cm**-1
     1:       0.00 cm**-1
     2:       0.00 cm**-1
     3:       0.00 cm**-1
     4:       0.00 cm**-1
     5:       0.00 cm**-1
     6:     183.73 cm**-1
     7:     280.92 cm**-1
     8:     287.18 cm**-1
     9:     319.82 cm**-1
    10:     363.51 cm**-1
    11:     422.25 cm**-1
    12:     654.87 cm**-1
    13:     814.92 cm**-1
    14:     939.16 cm**-1
    15:     948.67 cm**-1
    16:     966.79 cm**-1
    17:     991.51 cm**-1
    18:    1143.06 cm**-1
    19:    1171.94 cm**-1
    20:    1209.52 cm**-1
    21:    1315.95 cm**-1
    22:    1369.17 cm**-1
    23:    1408.80 cm**-1
    24:    1416.74 cm**-1
    25:    1438.96 cm**-1
    26:    1490.44 cm**-1
    27:    1493.99 cm**-1
    28:    1509.05 cm**-1
    29:    1513.91 cm**-1
    30:    1811.16 cm**-1
    31:    2849.06 cm**-1
    32:    2991.53 cm**-1
    33:    3033.13 cm**-1
    34:    3043.29 cm**-1
    35:    3105.98 cm**-1
    36:    3115.46 cm**-1
    37:    3118.67 cm**-1
    38:    3125.71 cm**-1

IR SPECTRUM
-----------

 Mode   freq       eps      Int      T**2         TX        TY        TZ
       cm**-1   L/(mol*cm) km/mol    a.u.
----------------------------------------------------------------------------
  6:    183.73   0.001104    5.58  0.001875  ( 0.013349 -0.016312  0.037819)
  7:    280.92   0.001369    6.92  0.001521  ( 0.032389  0.021319 -0.004190)
  8:    287.18   0.000038    0.19  0.000041  (-0.002064  0.004941 -0.003544)
  9:    319.82   0.000207    1.05  0.000202  (-0.013389 -0.004413 -0.001917)
 10:    363.51   0.000240    1.21  0.000206  (-0.010248 -0.006716 -0.007497)
 11:    422.25   0.000284    1.43  0.000210  (-0.004731 -0.002159  0.013509)
 12:    654.87   0.001039    5.25  0.000495  (-0.019932 -0.009862 -0.000701)
 13:    814.92   0.002598   13.13  0.000995  (-0.027326 -0.012293  0.009842)
 14:    939.16   0.002542   12.85  0.000845  ( 0.028732 -0.003084 -0.003101)
 15:    948.67   0.001282    6.48  0.000422  (-0.018588 -0.008731  0.000333)
 16:    966.79   0.001814    9.17  0.000586  (-0.020050 -0.009479  0.009684)
 17:    991.51   0.000302    1.52  0.000095  (-0.008562  0.003562  0.002985)
 18:   1143.06   0.001007    5.09  0.000275  ( 0.015495  0.000600 -0.005881)
 19:   1171.94   0.000507    2.56  0.000135  ( 0.009963 -0.001525  0.005789)
 20:   1209.52   0.000116    0.58  0.000030  (-0.003494 -0.002802  0.003125)
 21:   1315.95   0.000169    0.85  0.000040  ( 0.004183 -0.003189 -0.003527)
 22:   1369.17   0.000423    2.14  0.000096  ( 0.007841  0.004057 -0.004297)
 23:   1408.80   0.001123    5.67  0.000249  ( 0.004850 -0.014901  0.001775)
 24:   1416.74   0.000203    1.03  0.000045  ( 0.001016 -0.004815  0.004525)
 25:   1438.96   0.001953    9.87  0.000424  ( 0.007098  0.016731  0.009655)
 26:   1490.44   0.000075    0.38  0.000016  (-0.000182  0.002474 -0.003106)
 27:   1493.99   0.000848    4.29  0.000177  (-0.005884  0.008115 -0.008757)
 28:   1509.05   0.001738    8.78  0.000359  ( 0.003308  0.007352  0.017158)
 29:   1513.91   0.003051   15.42  0.000629  ( 0.019136  0.004316 -0.015623)
 30:   1811.16   0.037293  188.46  0.006426  ( 0.056825 -0.043366 -0.036276)
 31:   2849.06   0.018480   93.39  0.002024  ( 0.018977  0.040188  0.006996)
 32:   2991.53   0.002283   11.54  0.000238  (-0.008612 -0.006381 -0.011104)
 33:   3033.13   0.003521   17.79  0.000362  (-0.009212  0.015566 -0.005925)
 34:   3043.29   0.002652   13.40  0.000272  (-0.010522 -0.012637 -0.001224)
 35:   3105.98   0.003351   16.94  0.000337  (-0.007071 -0.013647 -0.010022)
 36:   3115.46   0.000679    3.43  0.000068  ( 0.006927  0.003876 -0.002248)
 37:   3118.67   0.004266   21.56  0.000427  ( 0.012197  0.001690 -0.016592)
 38:   3125.71   0.002213   11.18  0.000221  ( 0.011502 -0.006695  0.006621)

--------------------------
THERMOCHEMISTRY AT 298.15K
--------------------------

Temperature         ...   298.15 K
Pressure            ...     1.00 atm
Total Mass          ...    72.11 AMU
Quasi RRHO          ...     True
Cut-Off Frequency   ...     1.00 cm^-1

Throughout the following assumptions are being made:
  (1) The electronic state is orbitally nondegenerate
  (2) There are no thermally accessible electronically excited states
  (3) Hindered rotations indicated by low frequency modes are not
      treated as such but are treated as vibrations and this may
      cause some error
  (4) All equations used are the standard statistical mechanics
      equations for an ideal gas
  (5) All vibrations are strictly harmonic

freq.     183.73  E(vib)   ...       0.37
freq.     280.92  E(vib)   ...       0.28
freq.     287.18  E(vib)   ...       0.27
freq.     319.82  E(vib)   ...       0.25
freq.     363.51  E(vib)   ...       0.22
freq.     422.25  E(vib)   ...       0.18
freq.     654.87  E(vib)   ...       0.08
freq.     814.92  E(vib)   ...       0.05
freq.     939.16  E(vib)   ...       0.03
freq.     948.67  E(vib)   ...       0.03
freq.     966.79  E(vib)   ...       0.03
freq.     991.51  E(vib)   ...       0.02
freq.    1143.06  E(vib)   ...       0.01
freq.    1171.94  E(vib)   ...       0.01
freq.    1209.52  E(vib)   ...       0.01
freq.    1315.95  E(vib)   ...       0.01
freq.    1369.17  E(vib)   ...       0.01
freq.    1408.80  E(vib)   ...       0.00
freq.    1416.74  E(vib)   ...       0.00
freq.    1438.96  E(vib)   ...       0.00
freq.    1490.44  E(vib)   ...       0.00
freq.    1493.99  E(vib)   ...       0.00
freq.    1509.05  E(vib)   ...       0.00
freq.    1513.91  E(vib)   ...       0.00
freq.    1811.16  E(vib)   ...       0.00
freq.    2849.06  E(vib)   ...       0.00
freq.    2991.53  E(vib)   ...       0.00
freq.    3033.13  E(vib)   ...       0.00
freq.    3043.29  E(vib)   ...       0.00
freq.    3105.98  E(vib)   ...       0.00
freq.    3115.46  E(vib)   ...       0.00
freq.    3118.67  E(vib)   ...       0.00
freq.    3125.71  E(vib)   ...       0.00

------------
INNER ENERGY
------------

The inner energy is: U= E(el) + E(ZPE) + E(vib) + E(rot) + E(trans)
    E(el)   - is the total energy from the electronic structure calculation
              = E(kin-el) + E(nuc-el) + E(el-el) + E(nuc-nuc)
    E(ZPE)  - the the zero temperature vibrational energy from the frequency calculation
    E(vib)  - the the finite temperature correction to E(ZPE) due to population
              of excited vibrational states
    E(rot)  - is the rotational thermal energy
    E(trans)- is the translational thermal energy

Summary of contributions to the inner energy U:
Electronic energy                ...   -232.43691786 Eh
Zero point energy                ...      0.11356412 Eh      71.26 kcal/mol
Thermal vibrational correction   ...      0.00299259 Eh       1.88 kcal/mol
Thermal rotational correction    ...      0.00141627 Eh       0.89 kcal/mol
Thermal translational correction ...      0.00141627 Eh       0.89 kcal/mol
-----------------------------------------------------------------------
Total thermal energy                   -232.31752861 Eh

Summary of corrections to the electronic energy:
(perhaps to be used in another calculation)
Total thermal correction                  0.00582513 Eh       3.66 kcal/mol
Non-thermal (ZPE) correction              0.11356412 Eh      71.26 kcal/mol
-----------------------------------------------------------------------
Total correction                          0.11938925 Eh      74.92 kcal/mol

--------
ENTHALPY
--------

The enthalpy is H = U + kB*T
                kB is Boltzmann's constant
Total thermal energy              ...   -232.31752861 Eh
Thermal Enthalpy correction       ...      0.00094421 Eh       0.59 kcal/mol
-----------------------------------------------------------------------
Total Enthalpy                    ...   -232.31658440 Eh

Note: Only C1 symmetry has been detected, increase convergence thresholds
      if your molecule has a higher symmetry. Symmetry factor of 1.0 is
      used for the rotational entropy correction.

Note: Rotational entropy computed according to Herzberg
Infrared and Raman Spectra, Chapter V,1, Van Nostrand Reinhold, 1945
Point Group:  C1, Symmetry Number:   1
Rotational constants in cm-1:     0.249357     0.137342     0.099691

Vibrational entropy computed according to the QRRHO of S. Grimme
Chem.Eur.J. 2012 18 9955 using a reference frequency of 100.0 cm-1

-------
ENTROPY
-------

The entropy contributions are T*S = T*(S(el)+S(vib)+S(rot)+S(trans))
     S(el)   - electronic entropy
     S(vib)  - vibrational entropy
     S(rot)  - rotational entropy
     S(trans)- translational entropy
The entropies will be listed as multiplied by the temperature to get
units of energy

Electronic entropy                ...      0.00000000 Eh      0.00 kcal/mol
Vibrational entropy               ...      0.00470760 Eh      2.95 kcal/mol
Rotational entropy                ...      0.01219220 Eh      7.65 kcal/mol
Translational entropy             ...      0.01840809 Eh     11.55 kcal/mol
-----------------------------------------------------------------------
Final entropy term                ...      0.03530789 Eh     22.16 kcal/mol

In case the symmetry of your molecule has not been determined correctly
or in case you have a reason to use a different symmetry number we print
out the resulting rotational entropy values for sn=1,12:

 non-linear molecules -----------------------------------
|  sn= 1 | S(rot)=       0.01219220 Eh      7.65 kcal/mol|
|  sn= 2 | S(rot)=       0.01153774 Eh      7.24 kcal/mol|
|  sn= 3 | S(rot)=       0.01115491 Eh      7.00 kcal/mol|
|  sn= 4 | S(rot)=       0.01088329 Eh      6.83 kcal/mol|
|  sn= 5 | S(rot)=       0.01067260 Eh      6.70 kcal/mol|
|  sn= 6 | S(rot)=       0.01050045 Eh      6.59 kcal/mol|
|  sn= 7 | S(rot)=       0.01035491 Eh      6.50 kcal/mol|
|  sn= 8 | S(rot)=       0.01022883 Eh      6.42 kcal/mol|
|  sn= 9 | S(rot)=       0.01011762 Eh      6.35 kcal/mol|
|  sn=10 | S(rot)=       0.01001814 Eh      6.29 kcal/mol|
|  sn=11 | S(rot)=       0.00992815 Eh      6.23 kcal/mol|
|  sn=12 | S(rot)=       0.00984600 Eh      6.18 kcal/mol|
 linear molecules ---------------------------------------
|  Dinfh | S(rot)=       0.00750278 Eh      4.71 kcal/mol|
|  Cinfv | S(rot)=       0.00815724 Eh      5.12 kcal/mol|
 --------------------------------------------------------

-------------------
GIBBS FREE ENERGY
-------------------

The Gibbs free energy is G = H - T*S

Total enthalpy                    ...   -232.31658440 Eh
Total entropy correction          ...     -0.03530789 Eh    -22.16 kcal/mol
-----------------------------------------------------------------------

                             ****ORCA TERMINATED NORMALLY****
TOTAL RUN TIME: 0 days 0 hours 11 minutes 8 seconds 845 msec
