                         Program Version 6.0.1  -  RELEASE   -
|  1> ! r2scan-3c def2/J RI DEFGRID2 scfconv6 printgap
|  2> %output
|  3>     printlevel normal
|  4> end
|  5> * xyz 0 1
|  6> C -3.3221902155 -0.3195875308 -0.1879690338
|  7> C -2.1809600833 0.5472251747 0.3386748214
|  8> H -2.6062003292 1.3044110823 1.006499707
|  9> C -1.4573603853 1.249954249 -0.8225784558
| 10> C 0.0463227036 1.3513570229 -0.5811846881
| 11> C 0.6404197644 -0.0555730129 -0.571872326
| 12> H 0.5759744961 -0.4613237947 -1.5897612333
| 13> C -0.173266903 -0.9899948225 0.3051161271
| 14> O 0.0104400717 -2.1826855453 0.3192133704
| 15> C -1.2038612221 -0.3066245986 1.1663838528
| 16> C 2.1289450784 -0.1498323241 -0.1618805043
| 17> C 3.0175066861 0.6522959893 -1.1091053586
| 18> C 2.3700530211 0.2789134636 1.2837990974
| 19> H -2.9283909597 -1.1413773624 -0.7824776595
| 20> H -3.8999188746 -0.7377714478 0.6333451319
| 21> H -3.9910875576 0.2710716914 -0.8104376638
| 22> H -1.6176152617 0.6828165583 -1.742834419
| 23> H -1.8810665493 2.2441609691 -0.9739848868
| 24> H 0.5040859112 1.9377604745 -1.3792079487
| 25> H 0.2343742223 1.8660860242 0.3611172067
| 26> H -1.7494936821 -1.0551538562 1.7427510208
| 27> H -0.6623688076 0.3350577731 1.8649563564
| 28> H 2.3988362866 -1.2085628245 -0.2459359236
| 29> H 2.8309748059 0.3753813868 -2.1441646565
| 30> H 4.0647552022 0.4591266721 -0.8881383902
| 31> H 2.8400959744 1.7191897916 -0.996614664
| 32> H 2.1168038061 1.3258941251 1.4343253258
| 33> H 3.4211732873 0.1507880026 1.5328821296
| 34> H 1.7848673059 -0.3294698231 1.9695666649
| 35> *
| 36>
| 37>                          ****END OF INPUT****

CARTESIAN COORDINATES (ANGSTROEM)
---------------------------------
  C     -3.322190   -0.319588   -0.187969
  C     -2.180960    0.547225    0.338675
  H     -2.606200    1.304411    1.006500
  C     -1.457360    1.249954   -0.822578
  C      0.046323    1.351357   -0.581185
  C      0.640420   -0.055573   -0.571872
  H      0.575974   -0.461324   -1.589761
  C     -0.173267   -0.989995    0.305116
  O      0.010440   -2.182686    0.319213
  C     -1.203861   -0.306625    1.166384
  C      2.128945   -0.149832   -0.161881
  C      3.017507    0.652296   -1.109105
  C      2.370053    0.278913    1.283799
  H     -2.928391   -1.141377   -0.782478
  H     -3.899919   -0.737771    0.633345
  H     -3.991088    0.271072   -0.810438
  H     -1.617615    0.682817   -1.742834
  H     -1.881067    2.244161   -0.973985
  H      0.504086    1.937760   -1.379208
  H      0.234374    1.866086    0.361117
  H     -1.749494   -1.055154    1.742751
  H     -0.662369    0.335058    1.864956
  H      2.398836   -1.208563   -0.245936
  H      2.830975    0.375381   -2.144165
  H      4.064755    0.459127   -0.888138
  H      2.840096    1.719190   -0.996615
  H      2.116804    1.325894    1.434325
  H      3.421173    0.150788    1.532882
  H      1.784867   -0.329470    1.969567

 Total Charge           Charge          ....    0
 Multiplicity           Mult            ....    1
 Number of Electrons    NEL             ....   86
 Basis Dimension        Dim             ....  304

ORBITAL ENERGIES
----------------

  NO   OCC          E(Eh)            E(eV)
   0   2.0000     -18.931423      -515.1502
   1   2.0000     -10.110039      -275.1081
   2   2.0000     -10.046990      -273.3925
   3   2.0000     -10.041832      -273.2521
   4   2.0000     -10.038983      -273.1746
   5   2.0000     -10.033898      -273.0362
   6   2.0000     -10.033104      -273.0147
   7   2.0000     -10.032973      -273.0111
   8   2.0000     -10.021516      -272.6993
   9   2.0000     -10.020679      -272.6765
  10   2.0000     -10.020304      -272.6663
  11   2.0000      -1.003115       -27.2961
  12   2.0000      -0.816188       -22.2096
  13   2.0000      -0.777167       -21.1478
  14   2.0000      -0.722476       -19.6596
  15   2.0000      -0.694598       -18.9010
  16   2.0000      -0.656184       -17.8557
  17   2.0000      -0.652759       -17.7625
  18   2.0000      -0.593490       -16.1497
  19   2.0000      -0.553967       -15.0742
  20   2.0000      -0.530535       -14.4366
  21   2.0000      -0.483194       -13.1484
  22   2.0000      -0.459256       -12.4970
  23   2.0000      -0.444595       -12.0980
  24   2.0000      -0.437300       -11.8995
  25   2.0000      -0.411269       -11.1912
  26   2.0000      -0.407308       -11.0834
  27   2.0000      -0.396852       -10.7989
  28   2.0000      -0.385037       -10.4774
  29   2.0000      -0.375034       -10.2052
  30   2.0000      -0.368813       -10.0359
  31   2.0000      -0.360306        -9.8044
  32   2.0000      -0.351878        -9.5751
  33   2.0000      -0.348389        -9.4801
  34   2.0000      -0.335189        -9.1209
  35   2.0000      -0.327433        -8.9099
  36   2.0000      -0.313285        -8.5249
  37   2.0000      -0.308526        -8.3954
  38   2.0000      -0.301399        -8.2015
  39   2.0000      -0.292082        -7.9479
  40   2.0000      -0.284467        -7.7407
  41   2.0000      -0.279721        -7.6116
  42   2.0000      -0.203235        -5.5303
  43   0.0000      -0.045118        -1.2277
  44   0.0000       0.066519         1.8101
  45   0.0000       0.086923         2.3653
  46   0.0000       0.098331         2.6757
  47   0.0000       0.100881         2.7451

MULLIKEN ATOMIC CHARGES
-----------------------
   0 C :   -0.527558
   1 C :   -0.008039
   2 H :    0.160064
   3 C :   -0.382752
   4 C :   -0.325649
   5 C :   -0.116466
   6 H :    0.194441
   7 C :    0.086255
   8 O :   -0.319030
   9 C :   -0.260474
  10 C :   -0.003624
  11 C :   -0.504670
  12 C :   -0.558345
  13 H :    0.163523
  14 H :    0.147606
  15 H :    0.149907
  16 H :    0.155513
  17 H :    0.160864
  18 H :    0.161268
  19 H :    0.170678
  20 H :    0.174857
  21 H :    0.164862
  22 H :    0.183701
  23 H :    0.151370
  24 H :    0.152726
  25 H :    0.156545
  26 H :    0.158344
  27 H :    0.151810
  28 H :    0.162273
Sum of atomic charges:   -0.0000000

LOEWDIN ATOMIC CHARGES
----------------------
   0 C :   -0.408228
   1 C :   -0.220015
   2 H :    0.159637
   3 C :   -0.289124
   4 C :   -0.287204
   5 C :   -0.200383
   6 H :    0.188608
   7 C :    0.224830
   8 O :   -0.451248
   9 C :   -0.266250
  10 C :   -0.214489
  11 C :   -0.411060
  12 C :   -0.409488
  13 H :    0.158559
  14 H :    0.154046
  15 H :    0.155266
  16 H :    0.162674
  17 H :    0.160260
  18 H :    0.163572
  19 H :    0.161173
  20 H :    0.181229
  21 H :    0.179795
  22 H :    0.173713
  23 H :    0.155394
  24 H :    0.155822
  25 H :    0.153707
  26 H :    0.151724
  27 H :    0.157400
  28 H :    0.160079

  Mayer bond orders larger than 0.100000
B(  0-C ,  1-C ) :   0.9208 B(  0-C , 13-H ) :   0.9804 B(  0-C , 14-H ) :   0.9736
B(  0-C , 15-H ) :   0.9723 B(  1-C ,  2-H ) :   0.9408 B(  1-C ,  3-C ) :   0.9117
B(  1-C ,  9-C ) :   0.8869 B(  3-C ,  4-C ) :   0.8789 B(  3-C , 16-H ) :   0.9874
B(  3-C , 17-H ) :   0.9556 B(  4-C ,  5-C ) :   0.8492 B(  4-C , 18-H ) :   0.9479
B(  4-C , 19-H ) :   1.0158 B(  5-C ,  6-H ) :   0.9687 B(  5-C ,  7-C ) :   0.8800
B(  5-C , 10-C ) :   0.8362 B(  7-C ,  8-O ) :   2.0305 B(  7-C ,  9-C ) :   0.9275
B(  9-C , 20-H ) :   0.9675 B(  9-C , 21-H ) :   0.9224 B( 10-C , 11-C ) :   0.8790
B( 10-C , 12-C ) :   0.8765 B( 10-C , 22-H ) :   0.9691 B( 11-C , 23-H ) :   0.9820
B( 11-C , 24-H ) :   0.9718 B( 11-C , 25-H ) :   0.9816 B( 12-C , 26-H ) :   0.9887
B( 12-C , 27-H ) :   0.9699 B( 12-C , 28-H ) :   0.9672

Dispersion correction           -0.010457305
FINAL SINGLE POINT ENERGY      -467.003357126427

DIPOLE MOMENT
-------------

Method             : SCF
Type of density    : Electron Density
Multiplicity       :   1
Irrep              :   0
Energy             :  -467.0058632090533592 Eh
Relativity type    :
Basis              : AO
                                X                 Y                 Z
Electronic contribution:     -1.470576694      -6.070556869       0.883132671
Nuclear contribution   :      1.347172146       7.227228429      -0.941042709
                        -----------------------------------------
Total Dipole Moment    :     -0.123404548       1.156671560      -0.057910038
                        -----------------------------------------
Magnitude (a.u.)       :      1.164676501
Magnitude (Debye)      :      2.960372401

Rotational constants in cm-1:             0.062759             0.025344             0.021722
Rotational constants in MHz :          1881.470805           759.805920           651.198833

                             ****ORCA TERMINATED NORMALLY****
TOTAL RUN TIME: 0 days 0 hours 0 minutes 39 seconds 868 msec
