                         Program Version 6.0.1  -  RELEASE   -
|  1> ! pbe def2-sv(p) def2/J RI DEFGRID1 loosescf d4 GCP(DFT/SV(P)) printgap
|  2> %output
|  3>     printlevel normal
|  4> end
|  5> * xyz 0 1
|  6> C -2.3504444425 -0.8287008325 0.5835398274
|  7> C -0.9226957714 -0.2907385774 0.7943974803
|  8> H -0.8342696523 0.0723558945 1.8280563538
|  9> C -0.6448129479 0.8803656746 -0.1485038372
| 10> H -0.8844816724 0.5626055908 -1.1761545297
| 11> C 0.8343530087 1.3301094306 -0.1050646752
| 12> H 0.9391653935 2.1223239574 0.6455290725
| 13> C 1.7850868693 0.1729731115 0.2845042734
| 14> H 2.7275850709 0.3097313738 -0.2550291627
| 15> C 1.1380223996 -1.1495839965 -0.1400117606
| 16> H 1.7940456805 -1.9983150447 0.1117928474
| 17> O -0.0308435823 -1.3941758718 0.5944540394
| 18> O 0.9141405283 -1.0858957627 -1.5196691208
| 19> O 2.1142924543 0.1503131848 1.6440346869
| 20> O 1.2041028757 1.9053315095 -1.3311086752
| 21> O -1.4995847185 1.9276606282 0.2442817869
| 22> O -2.4573176859 -1.5380228192 -0.6197482106
| 23> H -3.0406929653 0.0129155124 0.5281261905
| 24> H -2.6184283826 -1.468768817 1.4346348139
| 25> H 0.4482267185 -1.8793371532 -1.8103586876
| 26> H 1.3694318928 -0.2017552182 2.1463200258
| 27> H 1.2213362026 1.203266182 -1.9951139566
| 28> H -1.3028955435 2.6914428864 -0.3111187436
| 29> H -1.7922691581 -2.2378067349 -0.5878965764
| 30> *
| 31>
| 32>                          ****END OF INPUT****

CARTESIAN COORDINATES (ANGSTROEM)
---------------------------------
  C     -2.350444   -0.828701    0.583540
  C     -0.922696   -0.290739    0.794397
  H     -0.834270    0.072356    1.828056
  C     -0.644813    0.880366   -0.148504
  H     -0.884482    0.562606   -1.176155
  C      0.834353    1.330109   -0.105065
  H      0.939165    2.122324    0.645529
  C      1.785087    0.172973    0.284504
  H      2.727585    0.309731   -0.255029
  C      1.138022   -1.149584   -0.140012
  H      1.794046   -1.998315    0.111793
  O     -0.030844   -1.394176    0.594454
  O      0.914141   -1.085896   -1.519669
  O      2.114292    0.150313    1.644035
  O      1.204103    1.905332   -1.331109
  O     -1.499585    1.927661    0.244282
  O     -2.457318   -1.538023   -0.619748
  H     -3.040693    0.012916    0.528126
  H     -2.618428   -1.468769    1.434635
  H      0.448227   -1.879337   -1.810359
  H      1.369432   -0.201755    2.146320
  H      1.221336    1.203266   -1.995114
  H     -1.302896    2.691443   -0.311119
  H     -1.792269   -2.237807   -0.587897

 Total Charge           Charge          ....    0
 Multiplicity           Mult            ....    1
 Number of Electrons    NEL             ....   96
 Basis Dimension        Dim             ....  192

ORBITAL ENERGIES
----------------

  NO   OCC          E(Eh)            E(eV)
   0   2.0000     -18.795163      -511.4424
   1   2.0000     -18.786542      -511.2078
   2   2.0000     -18.759940      -510.4839
   3   2.0000     -18.754449      -510.3345
   4   2.0000     -18.753513      -510.3090
   5   2.0000     -18.748358      -510.1688
   6   2.0000     -10.001472      -272.1539
   7   2.0000      -9.954107      -270.8650
   8   2.0000      -9.946808      -270.6664
   9   2.0000      -9.941508      -270.5222
  10   2.0000      -9.938576      -270.4424
  11   2.0000      -9.933246      -270.2974
  12   2.0000      -1.003345       -27.3024
  13   2.0000      -0.945731       -25.7347
  14   2.0000      -0.940520       -25.5928
  15   2.0000      -0.937709       -25.5164
  16   2.0000      -0.924140       -25.1471
  17   2.0000      -0.919673       -25.0256
  18   2.0000      -0.710015       -19.3205
  19   2.0000      -0.695344       -18.9213
  20   2.0000      -0.625366       -17.0171
  21   2.0000      -0.596148       -16.2220
  22   2.0000      -0.573325       -15.6010
  23   2.0000      -0.537917       -14.6375
  24   2.0000      -0.512617       -13.9490
  25   2.0000      -0.492816       -13.4102
  26   2.0000      -0.469109       -12.7651
  27   2.0000      -0.458936       -12.4883
  28   2.0000      -0.453142       -12.3306
  29   2.0000      -0.447701       -12.1826
  30   2.0000      -0.426353       -11.6016
  31   2.0000      -0.406111       -11.0508
  32   2.0000      -0.385542       -10.4911
  33   2.0000      -0.371886       -10.1195
  34   2.0000      -0.371099       -10.0981
  35   2.0000      -0.361001        -9.8233
  36   2.0000      -0.354693        -9.6517
  37   2.0000      -0.319904        -8.7050
  38   2.0000      -0.306782        -8.3480
  39   2.0000      -0.293312        -7.9814
  40   2.0000      -0.290146        -7.8953
  41   2.0000      -0.276030        -7.5111
  42   2.0000      -0.267469        -7.2782
  43   2.0000      -0.256021        -6.9667
  44   2.0000      -0.243747        -6.6327
  45   2.0000      -0.231615        -6.3026
  46   2.0000      -0.221939        -6.0393
  47   2.0000      -0.200983        -5.4690
  48   0.0000      -0.000553        -0.0151
  49   0.0000       0.014073         0.3830
  50   0.0000       0.038334         1.0431
  51   0.0000       0.052494         1.4284
  52   0.0000       0.061761         1.6806

MULLIKEN ATOMIC CHARGES
-----------------------
   0 C :    0.079249
   1 C :   -0.024429
   2 H :    0.060442
   3 C :    0.082761
   4 H :    0.045086
   5 C :    0.080798
   6 H :    0.067330
   7 C :    0.029892
   8 H :    0.085596
   9 C :    0.140139
  10 H :    0.078197
  11 O :   -0.328495
  12 O :   -0.397826
  13 O :   -0.409280
  14 O :   -0.431092
  15 O :   -0.417117
  16 O :   -0.434893
  17 H :    0.106277
  18 H :    0.077990
  19 H :    0.305935
  20 H :    0.306231
  21 H :    0.303840
  22 H :    0.309792
  23 H :    0.283579
Sum of atomic charges:    0.0000000

LOEWDIN ATOMIC CHARGES
----------------------
   0 C :   -0.124890
   1 C :   -0.074746
   2 H :    0.105931
   3 C :   -0.083525
   4 H :    0.104426
   5 C :   -0.080699
   6 H :    0.119723
   7 C :   -0.086599
   8 H :    0.124631
   9 C :   -0.012047
  10 H :    0.102340
  11 O :   -0.150086
  12 O :   -0.309511
  13 O :   -0.302097
  14 O :   -0.316788
  15 O :   -0.318274
  16 O :   -0.329578
  17 H :    0.126705
  18 H :    0.099017
  19 H :    0.285589
  20 H :    0.282367
  21 H :    0.279160
  22 H :    0.291880
  23 H :    0.267071

  Mayer bond orders larger than 0.100000
B(  0-C ,  1-C ) :   1.0359 B(  0-C , 16-O ) :   1.0650 B(  0-C , 17-H ) :   0.9124
B(  0-C , 18-H ) :   0.9169 B(  1-C ,  2-H ) :   0.8694 B(  1-C ,  3-C ) :   1.0373
B(  1-C , 11-O ) :   0.9558 B(  3-C ,  4-H ) :   0.8443 B(  3-C ,  5-C ) :   1.0215
B(  3-C , 15-O ) :   1.0489 B(  5-C ,  6-H ) :   0.8596 B(  5-C ,  7-C ) :   0.9692
B(  5-C , 14-O ) :   1.0239 B(  7-C ,  8-H ) :   0.8831 B(  7-C ,  9-C ) :   1.0404
B(  7-C , 13-O ) :   1.0555 B(  9-C , 10-H ) :   0.8982 B(  9-C , 11-O ) :   1.0521
B(  9-C , 12-O ) :   1.0994 B( 12-O , 19-H ) :   0.8318 B( 13-O , 20-H ) :   0.8404
B( 14-O , 21-H ) :   0.8391 B( 15-O , 22-H ) :   0.8429 B( 16-O , 23-H ) :   0.8350

Dispersion correction           -0.025405968
FINAL SINGLE POINT ENERGY      -685.692701510860

DIPOLE MOMENT
-------------

Method             : SCF
Type of density    : Electron Density
Multiplicity       :   1
Irrep              :   0
Energy             :  -685.8256403702911257 Eh
Relativity type    :
Basis              : AO
                                X                 Y                 Z
Electronic contribution:      1.855581811      -0.067407456      -0.694150192
Nuclear contribution   :     -1.847614385      -0.761691800       0.509604778
                        -----------------------------------------
Total Dipole Moment    :      0.007967426      -0.829099256      -0.184545414
                        -----------------------------------------
Magnitude (a.u.)       :      0.849426905
Magnitude (Debye)      :      2.159071608

Rotational constants in cm-1:             0.040328             0.027960             0.023623
Rotational constants in MHz :          1208.998867           838.230438           708.199542

                             ****ORCA TERMINATED NORMALLY****
TOTAL RUN TIME: 0 days 0 hours 5 minutes 5 seconds 223 msec
