                         Program Version 6.0.1  -  RELEASE   -
|  1> ! pbe def2-sv(p) def2/J RI DEFGRID1 loosescf d4 GCP(DFT/SV(P)) printgap
|  2> %output
|  3>     printlevel normal
|  4> end
|  5> * xyz 0 1
|  6> C -0.8214264393 -2.2877081301 0.0002113667
|  7> C 0.0714869713 -1.0842340628 2.76141e-05
|  8> C 1.4496824949 -1.253339188 -0.0003971521
|  9> C 2.3126095472 -0.1704888864 -0.0003505453
| 10> C 1.8098395034 1.121142466 0.0001969646
| 11> C 0.4443205519 1.3118004647 0.0004188906
| 12> C -0.434585027 0.2256649285 0.0002960472
| 13> C -1.8730882815 0.5166893718 0.0002216256
| 14> O -2.3508237213 1.624898563 -0.0005950359
| 15> H -1.4605991152 -2.2969925236 -0.8814739066
| 16> H -0.2264353598 -3.1978419521 -0.0002303337
| 17> H -1.4595862221 -2.2971952304 0.8826406617
| 18> H 1.8572541411 -2.2543945207 -0.0007591717
| 19> H 3.3798581951 -0.3367821884 -0.0007128125
| 20> H 2.4796546224 1.9676322841 0.0004448895
| 21> H 0.0180140992 2.3041701106 0.0006767306
| 22> H -2.5312599123 -0.37128318 0.0014137508
| 23> *
| 24>
| 25>                          ****END OF INPUT****

CARTESIAN COORDINATES (ANGSTROEM)
---------------------------------
  C     -0.821426   -2.287708    0.000211
  C      0.071487   -1.084234    0.000028
  C      1.449682   -1.253339   -0.000397
  C      2.312610   -0.170489   -0.000351
  C      1.809840    1.121142    0.000197
  C      0.444321    1.311800    0.000419
  C     -0.434585    0.225665    0.000296
  C     -1.873088    0.516689    0.000222
  O     -2.350824    1.624899   -0.000595
  H     -1.460599   -2.296993   -0.881474
  H     -0.226435   -3.197842   -0.000230
  H     -1.459586   -2.297195    0.882641
  H      1.857254   -2.254395   -0.000759
  H      3.379858   -0.336782   -0.000713
  H      2.479655    1.967632    0.000445
  H      0.018014    2.304170    0.000677
  H     -2.531260   -0.371283    0.001414

 Total Charge           Charge          ....    0
 Multiplicity           Mult            ....    1
 Number of Electrons    NEL             ....   64
 Basis Dimension        Dim             ....  142

ORBITAL ENERGIES
----------------

  NO   OCC          E(Eh)            E(eV)
   0   2.0000     -18.744344      -510.0595
   1   2.0000      -9.965665      -271.1795
   2   2.0000      -9.922705      -270.0105
   3   2.0000      -9.909076      -269.6397
   4   2.0000      -9.905338      -269.5379
   5   2.0000      -9.903820      -269.4966
   6   2.0000      -9.903133      -269.4779
   7   2.0000      -9.903033      -269.4752
   8   2.0000      -9.897115      -269.3142
   9   2.0000      -0.941408       -25.6170
  10   2.0000      -0.793435       -21.5905
  11   2.0000      -0.713737       -19.4218
  12   2.0000      -0.690817       -18.7981
  13   2.0000      -0.630939       -17.1687
  14   2.0000      -0.586449       -15.9581
  15   2.0000      -0.541193       -14.7266
  16   2.0000      -0.509362       -13.8604
  17   2.0000      -0.467408       -12.7188
  18   2.0000      -0.437433       -11.9032
  19   2.0000      -0.407830       -11.0976
  20   2.0000      -0.397123       -10.8063
  21   2.0000      -0.392452       -10.6792
  22   2.0000      -0.377817       -10.2809
  23   2.0000      -0.369757       -10.0616
  24   2.0000      -0.358928        -9.7669
  25   2.0000      -0.356102        -9.6900
  26   2.0000      -0.326504        -8.8846
  27   2.0000      -0.318184        -8.6582
  28   2.0000      -0.308860        -8.4045
  29   2.0000      -0.240954        -6.5567
  30   2.0000      -0.235889        -6.4189
  31   2.0000      -0.203422        -5.5354
  32   0.0000      -0.095880        -2.6090
  33   0.0000      -0.044097        -1.1999
  34   0.0000       0.002668         0.0726
  35   0.0000       0.040651         1.1062
  36   0.0000       0.044951         1.2232

MULLIKEN ATOMIC CHARGES
-----------------------
   0 C :   -0.223697
   1 C :    0.001816
   2 C :   -0.132935
   3 C :   -0.028913
   4 C :   -0.036072
   5 C :   -0.110664
   6 C :    0.030672
   7 C :    0.024656
   8 O :   -0.152445
   9 H :    0.127731
  10 H :    0.107268
  11 H :    0.127740
  12 H :    0.043505
  13 H :    0.060762
  14 H :    0.060364
  15 H :    0.063521
  16 H :    0.036688
Sum of atomic charges:    0.0000000

LOEWDIN ATOMIC CHARGES
----------------------
   0 C :   -0.327834
   1 C :   -0.022581
   2 C :   -0.124763
   3 C :   -0.100418
   4 C :   -0.124932
   5 C :   -0.078694
   6 C :   -0.097033
   7 C :   -0.000516
   8 O :   -0.118244
   9 H :    0.136766
  10 H :    0.127886
  11 H :    0.136776
  12 H :    0.123949
  13 H :    0.127658
  14 H :    0.127338
  15 H :    0.133542
  16 H :    0.081102

  Mayer bond orders larger than 0.100000
B(  0-C ,  1-C ) :   1.1348 B(  0-C ,  9-H ) :   0.9214 B(  0-C , 10-H ) :   0.9351
B(  0-C , 11-H ) :   0.9214 B(  1-C ,  2-C ) :   1.4062 B(  1-C ,  6-C ) :   1.3440
B(  2-C ,  3-C ) :   1.3675 B(  2-C , 12-H ) :   0.9555 B(  3-C ,  4-C ) :   1.3434
B(  3-C , 13-H ) :   0.9630 B(  4-C ,  5-C ) :   1.3660 B(  4-C , 14-H ) :   0.9704
B(  5-C ,  6-C ) :   1.3523 B(  5-C , 15-H ) :   0.9567 B(  6-C ,  7-C ) :   1.0086
B(  7-C ,  8-O ) :   2.1475 B(  7-C , 16-H ) :   0.9027

Dispersion correction           -0.017812511
FINAL SINGLE POINT ENERGY      -384.059100261312

DIPOLE MOMENT
-------------

Method             : SCF
Type of density    : Electron Density
Multiplicity       :   1
Irrep              :   0
Energy             :  -384.1055150434276584 Eh
Relativity type    :
Basis              : AO
                                X                 Y                 Z
Electronic contribution:     -1.104322565       5.118933165      -0.001316296
Nuclear contribution   :      1.894896730      -6.057791882       0.001867345
                        -----------------------------------------
Total Dipole Moment    :      0.790574165      -0.938858716       0.000551049
                        -----------------------------------------
Magnitude (a.u.)       :      1.227380749
Magnitude (Debye)      :      3.119753934

Rotational constants in cm-1:             0.084117             0.052596             0.032557
Rotational constants in MHz :          2521.753351          1576.797715           976.048775

                             ****ORCA TERMINATED NORMALLY****
TOTAL RUN TIME: 0 days 0 hours 0 minutes 7 seconds 379 msec
