                         Program Version 6.0.0  -   RELEASE  -
|  1> ! r2SCAN-3c DEF2-TZVP FREQ
|  2> * xyzfile 0 1 censo.xyz
|  3>
|  4>                          ****END OF INPUT****

CARTESIAN COORDINATES (ANGSTROEM)
---------------------------------
  C     -0.730846   -1.261318    0.233304
  C     -1.458191    0.002136   -0.233361
  C     -0.727106    1.263409    0.233349
  C      0.730807    1.261270   -0.233323
  C      1.458174   -0.002141    0.233403
  C      0.727118   -1.263465   -0.233223
  H     -1.248470   -2.155451   -0.134243
  H     -0.756896   -1.305625    1.331397
  H     -1.509642    0.002237   -1.331413
  H     -2.491153    0.003652    0.134553
  H     -1.242133    2.159098   -0.134056
  H     -0.752927    1.307690    1.331453
  H      0.756729    1.305441   -1.331428
  H      1.248469    2.155452    0.134052
  H      2.491127   -0.003676   -0.134536
  H      1.509661   -0.002168    1.331452
  H      0.753048   -1.307870   -1.331316
  H      1.242116   -2.159108    0.134330

 Total Charge           Charge          ....    0
 Multiplicity           Mult            ....    1
 Number of Electrons    NEL             ....   48
 Basis Dimension        Dim             ....  258

ORBITAL ENERGIES
----------------

  NO   OCC          E(Eh)            E(eV)
   0   2.0000     -10.020471      -272.6709
   1   2.0000     -10.020417      -272.6694
   2   2.0000     -10.020410      -272.6692
   3   2.0000     -10.020294      -272.6661
   4   2.0000     -10.020287      -272.6659
   5   2.0000     -10.020222      -272.6641
   6   2.0000      -0.791095       -21.5268
   7   2.0000      -0.702012       -19.1027
   8   2.0000      -0.701955       -19.1012
   9   2.0000      -0.568675       -15.4744
  10   2.0000      -0.568666       -15.4742
  11   2.0000      -0.513728       -13.9793
  12   2.0000      -0.444164       -12.0863
  13   2.0000      -0.405198       -11.0260
  14   2.0000      -0.400849       -10.9076
  15   2.0000      -0.400754       -10.9051
  16   2.0000      -0.343546        -9.3484
  17   2.0000      -0.343466        -9.3462
  18   2.0000      -0.339585        -9.2406
  19   2.0000      -0.306536        -8.3413
  20   2.0000      -0.306526        -8.3410
  21   2.0000      -0.282470        -7.6864
  22   2.0000      -0.265130        -7.2145
  23   2.0000      -0.265099        -7.2137
  24   0.0000       0.043025         1.1708
  25   0.0000       0.061866         1.6835
  26   0.0000       0.079712         2.1691
  27   0.0000       0.079751         2.1701
  28   0.0000       0.110965         3.0195

MULLIKEN ATOMIC CHARGES
-----------------------
   0 C :   -0.157048
   1 C :   -0.157385
   2 C :   -0.157040
   3 C :   -0.157039
   4 C :   -0.157386
   5 C :   -0.157051
   6 H :    0.084889
   7 H :    0.072229
   8 H :    0.072349
   9 H :    0.084890
  10 H :    0.084891
  11 H :    0.072226
  12 H :    0.072222
  13 H :    0.084893
  14 H :    0.084888
  15 H :    0.072350
  16 H :    0.072231
  17 H :    0.084892
Sum of atomic charges:   -0.0000000

LOEWDIN ATOMIC CHARGES
----------------------
   0 C :   -0.264484
   1 C :   -0.264525
   2 C :   -0.264485
   3 C :   -0.264485
   4 C :   -0.264526
   5 C :   -0.264484
   6 H :    0.131039
   7 H :    0.133463
   8 H :    0.133454
   9 H :    0.131038
  10 H :    0.131037
  11 H :    0.133464
  12 H :    0.133465
  13 H :    0.131037
  14 H :    0.131038
  15 H :    0.133453
  16 H :    0.133463
  17 H :    0.131039

  Mayer bond orders larger than 0.100000
B(  0-C ,  1-C ) :   0.9953 B(  0-C ,  5-C ) :   0.9954 B(  0-C ,  6-H ) :   0.9635
B(  0-C ,  7-H ) :   0.9637 B(  1-C ,  2-C ) :   0.9953 B(  1-C ,  8-H ) :   0.9637
B(  1-C ,  9-H ) :   0.9635 B(  2-C ,  3-C ) :   0.9954 B(  2-C , 10-H ) :   0.9635
B(  2-C , 11-H ) :   0.9637 B(  3-C ,  4-C ) :   0.9953 B(  3-C , 12-H ) :   0.9637
B(  3-C , 13-H ) :   0.9635 B(  4-C ,  5-C ) :   0.9953 B(  4-C , 14-H ) :   0.9635
B(  4-C , 15-H ) :   0.9637 B(  5-C , 16-H ) :   0.9637 B(  5-C , 17-H ) :   0.9635

Dispersion correction           -0.004778794
FINAL SINGLE POINT ENERGY      -235.811339532657

DIPOLE MOMENT
-------------

Method             : SCF
Type of density    : Electron Density
Multiplicity       :   1
Irrep              :   0
Energy             :  -235.8139240684395190 Eh
Relativity type    :
Basis              : AO
                                X                 Y                 Z
Electronic contribution:     -0.000010773       0.000080241       0.000038242
Nuclear contribution   :      0.000012531      -0.000086823      -0.000041289
                        -----------------------------------------
Total Dipole Moment    :      0.000001759      -0.000006582      -0.000003046
                        -----------------------------------------
Magnitude (a.u.)       :      0.000007463
Magnitude (Debye)      :      0.000018970

VIBRATIONAL FREQUENCIES
-----------------------

Scaling factor for frequencies =  1.000000000  (already applied!)

     0:       0.00 cm**-1
     1:       0.00 cm**-1
     2:       0.00 cm**-1
     3:       0.00 cm**-1
     4:       0.00 cm**-1
     5:       0.00 cm**-1
     6:     239.37 cm**-1
     7:     239.48 cm**-1
     8:     391.70 cm**-1
     9:     433.56 cm**-1
    10:     433.79 cm**-1
    11:     526.47 cm**-1
    12:     796.87 cm**-1
    13:     796.95 cm**-1
    14:     807.65 cm**-1
    15:     868.67 cm**-1
    16:     869.36 cm**-1
    17:     917.33 cm**-1
    18:     917.35 cm**-1
    19:    1038.67 cm**-1
    20:    1038.71 cm**-1
    21:    1051.80 cm**-1
    22:    1073.32 cm**-1
    23:    1095.33 cm**-1
    24:    1128.43 cm**-1
    25:    1180.49 cm**-1
    26:    1286.74 cm**-1
    27:    1286.90 cm**-1
    28:    1293.69 cm**-1
    29:    1293.75 cm**-1
    30:    1341.71 cm**-1
    31:    1363.57 cm**-1
    32:    1368.88 cm**-1
    33:    1368.89 cm**-1
    34:    1378.00 cm**-1
    35:    1378.11 cm**-1
    36:    1473.46 cm**-1
    37:    1473.73 cm**-1
    38:    1477.78 cm**-1
    39:    1477.99 cm**-1
    40:    1485.88 cm**-1
    41:    1500.02 cm**-1
    42:    2983.17 cm**-1
    43:    2983.26 cm**-1
    44:    2984.35 cm**-1
    45:    2988.37 cm**-1
    46:    2988.47 cm**-1
    47:    2989.69 cm**-1
    48:    3038.18 cm**-1
    49:    3038.49 cm**-1
    50:    3040.90 cm**-1
    51:    3042.60 cm**-1
    52:    3042.69 cm**-1
    53:    3051.60 cm**-1

IR SPECTRUM
-----------

 Mode   freq       eps      Int      T**2         TX        TY        TZ
       cm**-1   L/(mol*cm) km/mol    a.u.
----------------------------------------------------------------------------
  6:    239.37   0.000001    0.00  0.000001  ( 0.000043 -0.001085  0.000006)
  7:    239.48   0.000001    0.00  0.000001  (-0.001097 -0.000044 -0.000057)
  8:    391.70   0.000000    0.00  0.000000  ( 0.000000  0.000001 -0.000000)
  9:    433.56   0.000000    0.00  0.000000  (-0.000001  0.000000 -0.000001)
 10:    433.79   0.000000    0.00  0.000000  ( 0.000000 -0.000000  0.000000)
 11:    526.47   0.000131    0.66  0.000078  ( 0.000126 -0.000002  0.008823)
 12:    796.87   0.000000    0.00  0.000000  (-0.000001 -0.000000  0.000001)
 13:    796.95   0.000000    0.00  0.000000  (-0.000000  0.000001  0.000000)
 14:    807.65   0.000000    0.00  0.000000  (-0.000000  0.000000 -0.000000)
 15:    868.67   0.000488    2.47  0.000175  ( 0.000210 -0.013243  0.000004)
 16:    869.36   0.000470    2.37  0.000169  ( 0.012983  0.000214  0.000050)
 17:    917.33   0.000374    1.89  0.000127  (-0.000407  0.011274 -0.000004)
 18:    917.35   0.000404    2.04  0.000137  (-0.011712 -0.000389 -0.000106)
 19:   1038.67   0.000000    0.00  0.000000  (-0.000000 -0.000000  0.000000)
 20:   1038.71   0.000000    0.00  0.000000  ( 0.000000  0.000001 -0.000000)
 21:   1051.80   0.000431    2.18  0.000128  ( 0.000028 -0.000002  0.011310)
 22:   1073.32   0.000000    0.00  0.000000  ( 0.000001  0.000000  0.000000)
 23:   1095.33   0.000000    0.00  0.000000  (-0.000001 -0.000003  0.000002)
 24:   1128.43   0.000001    0.00  0.000000  ( 0.000004  0.000430 -0.000004)
 25:   1180.49   0.000000    0.00  0.000000  (-0.000000  0.000002 -0.000000)
 26:   1286.74   0.000353    1.78  0.000086  ( 0.000041 -0.009254  0.000004)
 27:   1286.90   0.000324    1.64  0.000079  ( 0.008862  0.000044 -0.000038)
 28:   1293.69   0.000000    0.00  0.000000  (-0.000003  0.000000 -0.000001)
 29:   1293.75   0.000000    0.00  0.000000  (-0.000000  0.000004 -0.000000)
 30:   1341.71   0.000000    0.00  0.000000  (-0.000000  0.000000 -0.000000)
 31:   1363.57   0.000000    0.00  0.000000  ( 0.000000  0.000115  0.000002)
 32:   1368.88   0.000000    0.00  0.000000  ( 0.000002 -0.000000 -0.000001)
 33:   1368.89   0.000000    0.00  0.000000  ( 0.000001  0.000002 -0.000000)
 34:   1378.00   0.000024    0.12  0.000005  ( 0.000040 -0.002326 -0.000003)
 35:   1378.11   0.000030    0.15  0.000007  ( 0.002617  0.000031 -0.000071)
 36:   1473.46   0.000000    0.00  0.000000  (-0.000003  0.000002  0.000007)
 37:   1473.73   0.000000    0.00  0.000000  (-0.000002  0.000003  0.000000)
 38:   1477.78   0.001294    6.54  0.000273  ( 0.000006 -0.016533  0.000004)
 39:   1477.99   0.001299    6.57  0.000274  ( 0.016556  0.000009 -0.000434)
 40:   1485.88   0.003299   16.67  0.000693  ( 0.000265  0.000002  0.026321)
 41:   1500.02   0.000000    0.00  0.000000  (-0.000000  0.000001 -0.000001)
 42:   2983.17   0.008552   43.22  0.000895  (-0.000325  0.029909  0.000017)
 43:   2983.26   0.008542   43.17  0.000894  ( 0.029890  0.000327 -0.000139)
 44:   2984.35   0.000001    0.01  0.000000  ( 0.000098 -0.000322 -0.000006)
 45:   2988.37   0.000000    0.00  0.000000  ( 0.000020  0.000046 -0.000109)
 46:   2988.47   0.000001    0.00  0.000000  (-0.000050  0.000007 -0.000270)
 47:   2989.69   0.014906   75.33  0.001556  (-0.000228  0.000015 -0.039444)
 48:   3038.18   0.022990  116.18  0.002361  (-0.048590  0.000046  0.000562)
 49:   3038.49   0.023167  117.08  0.002379  (-0.000043 -0.048779 -0.000002)
 50:   3040.90   0.000000    0.00  0.000000  (-0.000048  0.000056  0.000014)
 51:   3042.60   0.000000    0.00  0.000000  (-0.000012  0.000047  0.000019)
 52:   3042.69   0.000000    0.00  0.000000  ( 0.000038 -0.000054 -0.000054)
 53:   3051.60   0.029685  150.02  0.003036  (-0.000270 -0.000000 -0.055096)

--------------------------
THERMOCHEMISTRY AT 298.15K
--------------------------

Temperature         ...   298.15 K
Pressure            ...     1.00 atm
Total Mass          ...    84.16 AMU
Quasi RRHO          ...     True
Cut-Off Frequency   ...     1.00 cm^-1

Throughout the following assumptions are being made:
  (1) The electronic state is orbitally nondegenerate
  (2) There are no thermally accessible electronically excited states
  (3) Hindered rotations indicated by low frequency modes are not
      treated as such but are treated as vibrations and this may
      cause some error
  (4) All equations used are the standard statistical mechanics
      equations for an ideal gas
  (5) All vibrations are strictly harmonic

freq.     239.37  E(vib)   ...       0.31
freq.     239.48  E(vib)   ...       0.31
freq.     391.70  E(vib)   ...       0.20
freq.     433.56  E(vib)   ...       0.17
freq.     433.79  E(vib)   ...       0.17
freq.     526.47  E(vib)   ...       0.13
freq.     796.87  E(vib)   ...       0.05
freq.     796.95  E(vib)   ...       0.05
freq.     807.65  E(vib)   ...       0.05
freq.     868.67  E(vib)   ...       0.04
freq.     869.36  E(vib)   ...       0.04
freq.     917.33  E(vib)   ...       0.03
freq.     917.35  E(vib)   ...       0.03
freq.    1038.67  E(vib)   ...       0.02
freq.    1038.71  E(vib)   ...       0.02
freq.    1051.80  E(vib)   ...       0.02
freq.    1073.32  E(vib)   ...       0.02
freq.    1095.33  E(vib)   ...       0.02
freq.    1128.43  E(vib)   ...       0.01
freq.    1180.49  E(vib)   ...       0.01
freq.    1286.74  E(vib)   ...       0.01
freq.    1286.90  E(vib)   ...       0.01
freq.    1293.69  E(vib)   ...       0.01
freq.    1293.75  E(vib)   ...       0.01
freq.    1341.71  E(vib)   ...       0.01
freq.    1363.57  E(vib)   ...       0.01
freq.    1368.88  E(vib)   ...       0.01
freq.    1368.89  E(vib)   ...       0.01
freq.    1378.00  E(vib)   ...       0.01
freq.    1378.11  E(vib)   ...       0.01
freq.    1473.46  E(vib)   ...       0.00
freq.    1473.73  E(vib)   ...       0.00
freq.    1477.78  E(vib)   ...       0.00
freq.    1477.99  E(vib)   ...       0.00
freq.    1485.88  E(vib)   ...       0.00
freq.    1500.02  E(vib)   ...       0.00
freq.    2983.17  E(vib)   ...       0.00
freq.    2983.26  E(vib)   ...       0.00
freq.    2984.35  E(vib)   ...       0.00
freq.    2988.37  E(vib)   ...       0.00
freq.    2988.47  E(vib)   ...       0.00
freq.    2989.69  E(vib)   ...       0.00
freq.    3038.18  E(vib)   ...       0.00
freq.    3038.49  E(vib)   ...       0.00
freq.    3040.90  E(vib)   ...       0.00
freq.    3042.60  E(vib)   ...       0.00
freq.    3042.69  E(vib)   ...       0.00
freq.    3051.60  E(vib)   ...       0.00

------------
INNER ENERGY
------------

The inner energy is: U= E(el) + E(ZPE) + E(vib) + E(rot) + E(trans)
    E(el)   - is the total energy from the electronic structure calculation
              = E(kin-el) + E(nuc-el) + E(el-el) + E(nuc-nuc)
    E(ZPE)  - the the zero temperature vibrational energy from the frequency calculation
    E(vib)  - the the finite temperature correction to E(ZPE) due to population
              of excited vibrational states
    E(rot)  - is the rotational thermal energy
    E(trans)- is the translational thermal energy

Summary of contributions to the inner energy U:
Electronic energy                ...   -235.81133953 Eh
Zero point energy                ...      0.16919078 Eh     106.17 kcal/mol
Thermal vibrational correction   ...      0.00285611 Eh       1.79 kcal/mol
Thermal rotational correction    ...      0.00141627 Eh       0.89 kcal/mol
Thermal translational correction ...      0.00141627 Eh       0.89 kcal/mol
-----------------------------------------------------------------------
Total thermal energy                   -235.63646011 Eh

Summary of corrections to the electronic energy:
(perhaps to be used in another calculation)
Total thermal correction                  0.00568865 Eh       3.57 kcal/mol
Non-thermal (ZPE) correction              0.16919078 Eh     106.17 kcal/mol
-----------------------------------------------------------------------
Total correction                          0.17487942 Eh     109.74 kcal/mol

--------
ENTHALPY
--------

The enthalpy is H = U + kB*T
                kB is Boltzmann's constant
Total thermal energy              ...   -235.63646011 Eh
Thermal Enthalpy correction       ...      0.00094421 Eh       0.59 kcal/mol
-----------------------------------------------------------------------
Total Enthalpy                    ...   -235.63551590 Eh

WARNING (ORCA/SYM): A non-planar off-center atom subset has been encountered
in function TSymmetryFinder::FilterSubsetShapes() which cannot occur under
regular conditions. The full point group may not be assigned correctly. If the
symmetry appears to be too low, please try increasing the cleaning tolerance
using option SymThresh in the %symmetry input block. If the problem persists,
you may post a message in the ORCA forum.

Note: Rotational entropy computed according to Herzberg
Infrared and Raman Spectra, Chapter V,1, Van Nostrand Reinhold, 1945
Point Group:  C2, Symmetry Number:   2
Rotational constants in cm-1:     0.144128     0.144060     0.082444

Vibrational entropy computed according to the QRRHO of S. Grimme
Chem.Eur.J. 2012 18 9955 using a reference frequency of 100.0 cm-1

-------
ENTROPY
-------

The entropy contributions are T*S = T*(S(el)+S(vib)+S(rot)+S(trans))
     S(el)   - electronic entropy
     S(vib)  - vibrational entropy
     S(rot)  - rotational entropy
     S(trans)- translational entropy
The entropies will be listed as multiplied by the temperature to get
units of energy

Electronic entropy                ...      0.00000000 Eh      0.00 kcal/mol
Vibrational entropy               ...      0.00422668 Eh      2.65 kcal/mol
Rotational entropy                ...      0.01186367 Eh      7.44 kcal/mol
Translational entropy             ...      0.01862704 Eh     11.69 kcal/mol
-----------------------------------------------------------------------
Final entropy term                ...      0.03471740 Eh     21.79 kcal/mol

In case the symmetry of your molecule has not been determined correctly
or in case you have a reason to use a different symmetry number we print
out the resulting rotational entropy values for sn=1,12:

 non-linear molecules -----------------------------------
|  sn= 1 | S(rot)=       0.01251813 Eh      7.86 kcal/mol|
|  sn= 2 | S(rot)=       0.01186367 Eh      7.44 kcal/mol|
|  sn= 3 | S(rot)=       0.01148084 Eh      7.20 kcal/mol|
|  sn= 4 | S(rot)=       0.01120922 Eh      7.03 kcal/mol|
|  sn= 5 | S(rot)=       0.01099853 Eh      6.90 kcal/mol|
|  sn= 6 | S(rot)=       0.01082638 Eh      6.79 kcal/mol|
|  sn= 7 | S(rot)=       0.01068084 Eh      6.70 kcal/mol|
|  sn= 8 | S(rot)=       0.01055476 Eh      6.62 kcal/mol|
|  sn= 9 | S(rot)=       0.01044355 Eh      6.55 kcal/mol|
|  sn=10 | S(rot)=       0.01034407 Eh      6.49 kcal/mol|

                             ****ORCA TERMINATED NORMALLY****
TOTAL RUN TIME: 0 days 0 hours 11 minutes 53 seconds 311 msec
