                         Program Version 6.0.0  -   RELEASE  -
|  1> ! r2SCAN-3c DEF2-TZVP FREQ
|  2> * xyzfile 0 1 vacuum_censo.xyz
|  3>
|  4>                          ****END OF INPUT****

CARTESIAN COORDINATES (ANGSTROEM)
---------------------------------
  C     -1.424902   -0.310935   -0.233458
  C     -0.443130   -1.389093    0.233222
  C      0.981781   -1.078101   -0.233394
  C      1.424891    0.310939    0.233489
  C      0.443130    1.389110   -0.233183
  C     -0.981794    1.078117    0.233394
  H     -2.434638   -0.531051    0.132398
  H     -1.475989   -0.321655   -1.331404
  H     -0.458860   -1.438125    1.331252
  H     -0.757119   -2.373915   -0.131900
  H      1.677147   -1.842706    0.132212
  H      1.017011   -1.116681   -1.331405
  H      1.475964    0.321635    1.331436
  H      2.434633    0.531059   -0.132349
  H      0.757114    2.373927    0.131960
  H      0.458886    1.438155   -1.331210
  H     -1.017067    1.116744    1.331400
  H     -1.677147    1.842706   -0.132270

 Total Charge           Charge          ....    0
 Multiplicity           Mult            ....    1
 Number of Electrons    NEL             ....   48
 Basis Dimension        Dim             ....  258

ORBITAL ENERGIES
----------------

  NO   OCC          E(Eh)            E(eV)
   0   2.0000     -10.020510      -272.6719
   1   2.0000     -10.020458      -272.6705
   2   2.0000     -10.020448      -272.6702
   3   2.0000     -10.020336      -272.6672
   4   2.0000     -10.020325      -272.6669
   5   2.0000     -10.020262      -272.6652
   6   2.0000      -0.790922       -21.5221
   7   2.0000      -0.701958       -19.1012
   8   2.0000      -0.701864       -19.0987
   9   2.0000      -0.568782       -15.4773
  10   2.0000      -0.568752       -15.4765
  11   2.0000      -0.513834       -13.9821
  12   2.0000      -0.444247       -12.0886
  13   2.0000      -0.405085       -11.0229
  14   2.0000      -0.400626       -10.9016
  15   2.0000      -0.400544       -10.8994
  16   2.0000      -0.343671        -9.3518
  17   2.0000      -0.343593        -9.3496
  18   2.0000      -0.339501        -9.2383
  19   2.0000      -0.306463        -8.3393
  20   2.0000      -0.306426        -8.3383
  21   2.0000      -0.282343        -7.6829
  22   2.0000      -0.265267        -7.2183
  23   2.0000      -0.265228        -7.2172
  24   0.0000       0.043124         1.1735
  25   0.0000       0.061972         1.6863
  26   0.0000       0.079753         2.1702
  27   0.0000       0.079793         2.1713
  28   0.0000       0.110888         3.0174

MULLIKEN ATOMIC CHARGES
-----------------------
   0 C :   -0.157656
   1 C :   -0.157211
   2 C :   -0.157219
   3 C :   -0.157654
   4 C :   -0.157213
   5 C :   -0.157222
   6 H :    0.085023
   7 H :    0.072381
   8 H :    0.072334
   9 H :    0.085015
  10 H :    0.085006
  11 H :    0.072328
  12 H :    0.072379
  13 H :    0.085023
  14 H :    0.085016
  15 H :    0.072334
  16 H :    0.072331
  17 H :    0.085004
Sum of atomic charges:   -0.0000000

LOEWDIN ATOMIC CHARGES
----------------------
   0 C :   -0.264398
   1 C :   -0.264250
   2 C :   -0.264315
   3 C :   -0.264398
   4 C :   -0.264250
   5 C :   -0.264315
   6 H :    0.130937
   7 H :    0.133402
   8 H :    0.133432
   9 H :    0.130886
  10 H :    0.130910
  11 H :    0.133397
  12 H :    0.133402
  13 H :    0.130936
  14 H :    0.130887
  15 H :    0.133432
  16 H :    0.133396
  17 H :    0.130911

  Mayer bond orders larger than 0.100000
B(  0-C ,  1-C ) :   0.9955 B(  0-C ,  5-C ) :   0.9955 B(  0-C ,  6-H ) :   0.9635
B(  0-C ,  7-H ) :   0.9637 B(  1-C ,  2-C ) :   0.9952 B(  1-C ,  8-H ) :   0.9638
B(  1-C ,  9-H ) :   0.9636 B(  2-C ,  3-C ) :   0.9955 B(  2-C , 10-H ) :   0.9636
B(  2-C , 11-H ) :   0.9638 B(  3-C ,  4-C ) :   0.9955 B(  3-C , 12-H ) :   0.9637
B(  3-C , 13-H ) :   0.9635 B(  4-C ,  5-C ) :   0.9952 B(  4-C , 14-H ) :   0.9636
B(  4-C , 15-H ) :   0.9638 B(  5-C , 16-H ) :   0.9638 B(  5-C , 17-H ) :   0.9636

Dispersion correction           -0.004777883
FINAL SINGLE POINT ENERGY      -235.811359833037

DIPOLE MOMENT
-------------

Method             : SCF
Type of density    : Electron Density
Multiplicity       :   1
Irrep              :   0
Energy             :  -235.8139450019041305 Eh
Relativity type    :
Basis              : AO
                                X                 Y                 Z
Electronic contribution:      0.000014002      -0.000014461       0.000015951
Nuclear contribution   :     -0.000015839       0.000014964      -0.000016904
                        -----------------------------------------
Total Dipole Moment    :     -0.000001836       0.000000503      -0.000000953
                        -----------------------------------------
Magnitude (a.u.)       :      0.000002129
Magnitude (Debye)      :      0.000005412

VIBRATIONAL FREQUENCIES
-----------------------

Scaling factor for frequencies =  1.000000000  (already applied!)

     0:       0.00 cm**-1
     1:       0.00 cm**-1
     2:       0.00 cm**-1
     3:       0.00 cm**-1
     4:       0.00 cm**-1
     5:       0.00 cm**-1
     6:     239.00 cm**-1
     7:     239.94 cm**-1
     8:     391.28 cm**-1
     9:     433.50 cm**-1
    10:     433.84 cm**-1
    11:     525.67 cm**-1
    12:     796.01 cm**-1
    13:     796.33 cm**-1
    14:     806.93 cm**-1
    15:     867.78 cm**-1
    16:     868.61 cm**-1
    17:     915.88 cm**-1
    18:     916.49 cm**-1
    19:    1037.59 cm**-1
    20:    1037.74 cm**-1
    21:    1051.34 cm**-1
    22:    1072.38 cm**-1
    23:    1093.98 cm**-1
    24:    1127.89 cm**-1
    25:    1179.66 cm**-1
    26:    1286.26 cm**-1
    27:    1286.37 cm**-1
    28:    1292.77 cm**-1
    29:    1292.98 cm**-1
    30:    1340.99 cm**-1
    31:    1363.16 cm**-1
    32:    1368.49 cm**-1
    33:    1368.55 cm**-1
    34:    1377.27 cm**-1
    35:    1377.49 cm**-1
    36:    1474.04 cm**-1
    37:    1474.17 cm**-1
    38:    1478.29 cm**-1
    39:    1478.42 cm**-1
    40:    1486.48 cm**-1
    41:    1500.47 cm**-1
    42:    2983.98 cm**-1
    43:    2984.33 cm**-1
    44:    2985.12 cm**-1
    45:    2990.04 cm**-1
    46:    2990.17 cm**-1
    47:    2991.98 cm**-1
    48:    3040.18 cm**-1
    49:    3040.87 cm**-1
    50:    3043.12 cm**-1
    51:    3044.02 cm**-1
    52:    3044.63 cm**-1
    53:    3052.82 cm**-1

IR SPECTRUM
-----------

 Mode   freq       eps      Int      T**2         TX        TY        TZ
       cm**-1   L/(mol*cm) km/mol    a.u.
----------------------------------------------------------------------------
  6:    239.00   0.000001    0.00  0.000001  ( 0.000845  0.000445 -0.000044)
  7:    239.94   0.000001    0.00  0.000001  (-0.000540  0.000955 -0.000107)
  8:    391.28   0.000000    0.00  0.000000  (-0.000000  0.000000  0.000000)
  9:    433.50   0.000000    0.00  0.000000  (-0.000000 -0.000000 -0.000000)
 10:    433.84   0.000000    0.00  0.000000  (-0.000000  0.000000 -0.000000)
 11:    525.67   0.000139    0.70  0.000082  (-0.000078  0.000120  0.009071)
 12:    796.01   0.000000    0.00  0.000000  (-0.000000  0.000000  0.000000)
 13:    796.33   0.000000    0.00  0.000000  (-0.000000 -0.000000  0.000000)
 14:    806.93   0.000000    0.00  0.000000  (-0.000000 -0.000000  0.000000)
 15:    867.78   0.000483    2.44  0.000174  (-0.000144 -0.013172 -0.000279)
 16:    868.61   0.000487    2.46  0.000175  ( 0.013228 -0.000195 -0.000079)
 17:    915.88   0.000387    1.96  0.000132  (-0.007392  0.008786 -0.000133)
 18:    916.49   0.000392    1.98  0.000133  ( 0.008878  0.007387 -0.000051)
 19:   1037.59   0.000000    0.00  0.000000  (-0.000000  0.000000 -0.000000)
 20:   1037.74   0.000000    0.00  0.000000  (-0.000000  0.000000  0.000000)
 21:   1051.34   0.000446    2.25  0.000132  (-0.000071  0.000027  0.011500)
 22:   1072.38   0.000000    0.00  0.000000  ( 0.000000  0.000000  0.000000)
 23:   1093.98   0.000000    0.00  0.000000  ( 0.000057  0.000018 -0.000036)
 24:   1127.89   0.000001    0.01  0.000000  (-0.000295  0.000208  0.000401)
 25:   1179.66   0.000000    0.00  0.000000  (-0.000000  0.000000  0.000000)
 26:   1286.26   0.000332    1.68  0.000081  (-0.000743 -0.008943 -0.000151)
 27:   1286.37   0.000331    1.68  0.000080  ( 0.008927 -0.000842 -0.000108)
 28:   1292.77   0.000000    0.00  0.000000  ( 0.000001  0.000001  0.000000)
 29:   1292.98   0.000000    0.00  0.000000  ( 0.000001 -0.000001  0.000000)
 30:   1340.99   0.000000    0.00  0.000000  (-0.000000 -0.000000  0.000000)
 31:   1363.16   0.000000    0.00  0.000000  (-0.000078  0.000022  0.000039)
 32:   1368.49   0.000000    0.00  0.000000  ( 0.000000 -0.000000 -0.000000)
 33:   1368.55   0.000000    0.00  0.000000  (-0.000000 -0.000000 -0.000000)
 34:   1377.27   0.000035    0.18  0.000008  ( 0.000173 -0.002795  0.000283)
 35:   1377.49   0.000037    0.19  0.000008  (-0.002875 -0.000431  0.000083)
 36:   1474.04   0.000000    0.00  0.000000  ( 0.000000 -0.000000  0.000001)
 37:   1474.17   0.000000    0.00  0.000000  (-0.000000 -0.000000  0.000000)
 38:   1478.29   0.001312    6.63  0.000277  ( 0.010921 -0.012554 -0.000215)
 39:   1478.42   0.001287    6.50  0.000272  (-0.012469 -0.010780 -0.000097)
 40:   1486.48   0.003290   16.63  0.000691  ( 0.000049 -0.000210  0.026280)
 41:   1500.47   0.000000    0.00  0.000000  ( 0.000000  0.000000  0.000000)
 42:   2983.98   0.007979   40.32  0.000834  (-0.011242  0.026608 -0.000175)
 43:   2984.33   0.008137   41.12  0.000851  ( 0.026864  0.011353 -0.000587)
 44:   2985.12   0.000000    0.00  0.000000  (-0.000034  0.000102 -0.000011)
 45:   2990.04   0.000000    0.00  0.000000  (-0.000018  0.000009 -0.000045)
 46:   2990.17   0.000000    0.00  0.000000  ( 0.000005 -0.000009  0.000002)
 47:   2991.98   0.015682   79.25  0.001636  ( 0.000031 -0.000808 -0.040435)
 48:   3040.18   0.023496  118.74  0.002412  (-0.039109  0.029660 -0.001608)
 49:   3040.87   0.023667  119.60  0.002429  (-0.029782 -0.039253  0.001009)
 50:   3043.12   0.000000    0.00  0.000000  (-0.000010 -0.000025  0.000004)
 51:   3044.02   0.000000    0.00  0.000000  ( 0.000011  0.000018  0.000006)
 52:   3044.63   0.000000    0.00  0.000000  (-0.000001  0.000013 -0.000002)
 53:   3052.82   0.028958  146.34  0.002960  ( 0.000457 -0.001188 -0.054392)

--------------------------
THERMOCHEMISTRY AT 298.15K
--------------------------

Temperature         ...   298.15 K
Pressure            ...     1.00 atm
Total Mass          ...    84.16 AMU
Quasi RRHO          ...     True
Cut-Off Frequency   ...     1.00 cm^-1

Throughout the following assumptions are being made:
  (1) The electronic state is orbitally nondegenerate
  (2) There are no thermally accessible electronically excited states
  (3) Hindered rotations indicated by low frequency modes are not
      treated as such but are treated as vibrations and this may
      cause some error
  (4) All equations used are the standard statistical mechanics
      equations for an ideal gas
  (5) All vibrations are strictly harmonic

freq.     239.00  E(vib)   ...       0.32
freq.     239.94  E(vib)   ...       0.31
freq.     391.28  E(vib)   ...       0.20
freq.     433.50  E(vib)   ...       0.17
freq.     433.84  E(vib)   ...       0.17
freq.     525.67  E(vib)   ...       0.13
freq.     796.01  E(vib)   ...       0.05
freq.     796.33  E(vib)   ...       0.05
freq.     806.93  E(vib)   ...       0.05
freq.     867.78  E(vib)   ...       0.04
freq.     868.61  E(vib)   ...       0.04
freq.     915.88  E(vib)   ...       0.03
freq.     916.49  E(vib)   ...       0.03
freq.    1037.59  E(vib)   ...       0.02
freq.    1037.74  E(vib)   ...       0.02
freq.    1051.34  E(vib)   ...       0.02
freq.    1072.38  E(vib)   ...       0.02
freq.    1093.98  E(vib)   ...       0.02
freq.    1127.89  E(vib)   ...       0.01
freq.    1179.66  E(vib)   ...       0.01
freq.    1286.26  E(vib)   ...       0.01
freq.    1286.37  E(vib)   ...       0.01
freq.    1292.77  E(vib)   ...       0.01
freq.    1292.98  E(vib)   ...       0.01
freq.    1340.99  E(vib)   ...       0.01
freq.    1363.16  E(vib)   ...       0.01
freq.    1368.49  E(vib)   ...       0.01
freq.    1368.55  E(vib)   ...       0.01
freq.    1377.27  E(vib)   ...       0.01
freq.    1377.49  E(vib)   ...       0.01
freq.    1474.04  E(vib)   ...       0.00
freq.    1474.17  E(vib)   ...       0.00
freq.    1478.29  E(vib)   ...       0.00
freq.    1478.42  E(vib)   ...       0.00
freq.    1486.48  E(vib)   ...       0.00
freq.    1500.47  E(vib)   ...       0.00
freq.    2983.98  E(vib)   ...       0.00
freq.    2984.33  E(vib)   ...       0.00
freq.    2985.12  E(vib)   ...       0.00
freq.    2990.04  E(vib)   ...       0.00
freq.    2990.17  E(vib)   ...       0.00
freq.    2991.98  E(vib)   ...       0.00
freq.    3040.18  E(vib)   ...       0.00
freq.    3040.87  E(vib)   ...       0.00
freq.    3043.12  E(vib)   ...       0.00
freq.    3044.02  E(vib)   ...       0.00
freq.    3044.63  E(vib)   ...       0.00
freq.    3052.82  E(vib)   ...       0.00

------------
INNER ENERGY
------------

The inner energy is: U= E(el) + E(ZPE) + E(vib) + E(rot) + E(trans)
    E(el)   - is the total energy from the electronic structure calculation
              = E(kin-el) + E(nuc-el) + E(el-el) + E(nuc-nuc)
    E(ZPE)  - the the zero temperature vibrational energy from the frequency calculation
    E(vib)  - the the finite temperature correction to E(ZPE) due to population
              of excited vibrational states
    E(rot)  - is the rotational thermal energy
    E(trans)- is the translational thermal energy

Summary of contributions to the inner energy U:
Electronic energy                ...   -235.81135983 Eh
Zero point energy                ...      0.16919792 Eh     106.17 kcal/mol
Thermal vibrational correction   ...      0.00285924 Eh       1.79 kcal/mol
Thermal rotational correction    ...      0.00141627 Eh       0.89 kcal/mol
Thermal translational correction ...      0.00141627 Eh       0.89 kcal/mol
-----------------------------------------------------------------------
Total thermal energy                   -235.63647013 Eh

Summary of corrections to the electronic energy:
(perhaps to be used in another calculation)
Total thermal correction                  0.00569178 Eh       3.57 kcal/mol
Non-thermal (ZPE) correction              0.16919792 Eh     106.17 kcal/mol
-----------------------------------------------------------------------
Total correction                          0.17488970 Eh     109.74 kcal/mol

--------
ENTHALPY
--------

The enthalpy is H = U + kB*T
                kB is Boltzmann's constant
Total thermal energy              ...   -235.63647013 Eh
Thermal Enthalpy correction       ...      0.00094421 Eh       0.59 kcal/mol
-----------------------------------------------------------------------
Total Enthalpy                    ...   -235.63552592 Eh

Note: Rotational entropy computed according to Herzberg
Infrared and Raman Spectra, Chapter V,1, Van Nostrand Reinhold, 1945
Point Group:  Ci, Symmetry Number:   1
Rotational constants in cm-1:     0.144065     0.143993     0.082399

Vibrational entropy computed according to the QRRHO of S. Grimme
Chem.Eur.J. 2012 18 9955 using a reference frequency of 100.0 cm-1

-------
ENTROPY
-------

The entropy contributions are T*S = T*(S(el)+S(vib)+S(rot)+S(trans))
     S(el)   - electronic entropy
     S(vib)  - vibrational entropy
     S(rot)  - rotational entropy
     S(trans)- translational entropy
The entropies will be listed as multiplied by the temperature to get
units of energy

Electronic entropy                ...      0.00000000 Eh      0.00 kcal/mol
Vibrational entropy               ...      0.00423095 Eh      2.65 kcal/mol
Rotational entropy                ...      0.01251881 Eh      7.86 kcal/mol
Translational entropy             ...      0.01862704 Eh     11.69 kcal/mol
-----------------------------------------------------------------------
Final entropy term                ...      0.03537680 Eh     22.20 kcal/mol

In case the symmetry of your molecule has not been determined correctly
or in case you have a reason to use a different symmetry number we print
out the resulting rotational entropy values for sn=1,12:

 non-linear molecules -----------------------------------
|  sn= 1 | S(rot)=       0.01251881 Eh      7.86 kcal/mol|
|  sn= 2 | S(rot)=       0.01186436 Eh      7.44 kcal/mol|
|  sn= 3 | S(rot)=       0.01148152 Eh      7.20 kcal/mol|
|  sn= 4 | S(rot)=       0.01120990 Eh      7.03 kcal/mol|
|  sn= 5 | S(rot)=       0.01099921 Eh      6.90 kcal/mol|
|  sn= 6 | S(rot)=       0.01082707 Eh      6.79 kcal/mol|
|  sn= 7 | S(rot)=       0.01068152 Eh      6.70 kcal/mol|
|  sn= 8 | S(rot)=       0.01055544 Eh      6.62 kcal/mol|
|  sn= 9 | S(rot)=       0.01044423 Eh      6.55 kcal/mol|
|  sn=10 | S(rot)=       0.01034476 Eh      6.49 kcal/mol|
|  sn=11 | S(rot)=       0.01025477 Eh      6.43 kcal/mol|
|  sn=12 | S(rot)=       0.01017261 Eh      6.38 kcal/mol|
 linear molecules ---------------------------------------
|  Dinfh | S(rot)=       0.00768266 Eh      4.82 kcal/mol|
|  Cinfv | S(rot)=       0.00833711 Eh      5.23 kcal/mol|
 --------------------------------------------------------

                             ****ORCA TERMINATED NORMALLY****
TOTAL RUN TIME: 0 days 0 hours 11 minutes 48 seconds 265 msec
