                         Program Version 6.0.0  -   RELEASE  -
|  1> ! M062X DEF2-TZVP FREQ
|  2> * xyzfile 0 1 censo.xyz
|  3>
|  4>                          ****END OF INPUT****

CARTESIAN COORDINATES (ANGSTROEM)
---------------------------------
  C     -0.692899   -0.621131   -0.318501
  C      0.693779   -0.587954    0.285377
  O      1.452253    0.545076   -0.166353
  O     -1.456033    0.545050    0.041197
  H     -1.207105   -1.539317   -0.000902
  H     -0.630624   -0.616186   -1.411369
  H      1.246383   -1.482073   -0.021496
  H      0.622188   -0.587434    1.383960
  H      0.932311    1.330318    0.052587
  H     -1.586300    0.518926    0.998605

 Total Charge           Charge          ....    0
 Multiplicity           Mult            ....    1
 Number of Electrons    NEL             ....   34
 Basis Dimension        Dim             ....  160

ORBITAL ENERGIES
----------------

  NO   OCC          E(Eh)            E(eV)
   0   2.0000     -19.637119      -534.3532
   1   2.0000     -19.622994      -533.9688
   2   2.0000     -10.590456      -288.1810
   3   2.0000     -10.589091      -288.1438
   4   2.0000      -1.157044       -31.4848
   5   2.0000      -1.131551       -30.7911
   6   2.0000      -0.842217       -22.9179
   7   2.0000      -0.717071       -19.5125
   8   2.0000      -0.602071       -16.3832
   9   2.0000      -0.574797       -15.6410
  10   2.0000      -0.540464       -14.7068
  11   2.0000      -0.517558       -14.0835
  12   2.0000      -0.476711       -12.9720
  13   2.0000      -0.426491       -11.6054
  14   2.0000      -0.414920       -11.2906
  15   2.0000      -0.379882       -10.3371
  16   2.0000      -0.346975        -9.4417
  17   0.0000       0.047617         1.2957
  18   0.0000       0.091730         2.4961
  19   0.0000       0.104759         2.8506
  20   0.0000       0.116811         3.1786
  21   0.0000       0.139420         3.7938

MULLIKEN ATOMIC CHARGES
-----------------------
   0 C :   -0.092772
   1 C :   -0.094906
   2 O :   -0.468190
   3 O :   -0.476761
   4 H :    0.118290
   5 H :    0.138630
   6 H :    0.125081
   7 H :    0.116376
   8 H :    0.322059
   9 H :    0.312192
Sum of atomic charges:   -0.0000000

LOEWDIN ATOMIC CHARGES
----------------------
   0 C :   -0.353169
   1 C :   -0.358051
   2 O :   -0.064527
   3 O :   -0.069319
   4 H :    0.120357
   5 H :    0.132516
   6 H :    0.132408
   7 H :    0.114916
   8 H :    0.173461
   9 H :    0.171409

  Mayer bond orders larger than 0.100000
B(  0-C ,  1-C ) :   0.9737 B(  0-C ,  3-O ) :   0.9396 B(  0-C ,  4-H ) :   0.9699
B(  0-C ,  5-H ) :   0.9626 B(  1-C ,  2-O ) :   0.9589 B(  1-C ,  6-H ) :   0.9630
B(  1-C ,  7-H ) :   0.9642 B(  2-O ,  8-H ) :   0.8819 B(  3-O ,  9-H ) :   0.8936

FINAL SINGLE POINT ENERGY      -230.251071964684

DIPOLE MOMENT
-------------

Method             : SCF
Type of density    : Electron Density
Multiplicity       :   1
Irrep              :   0
Energy             :  -230.2510719646837742 Eh
Relativity type    :
Basis              : AO
                                X                 Y                 Z
Electronic contribution:      0.121309056       1.777413170      -0.361437743
Nuclear contribution   :     -0.522862299      -2.260521245       1.064424452
                        -----------------------------------------
Total Dipole Moment    :     -0.401553243      -0.483108075       0.702986709
                        -----------------------------------------
Magnitude (a.u.)       :      0.942777138
Magnitude (Debye)      :      2.396349045

VIBRATIONAL FREQUENCIES
-----------------------

Scaling factor for frequencies =  1.000000000  (already applied!)

     0:       0.00 cm**-1
     1:       0.00 cm**-1
     2:       0.00 cm**-1
     3:       0.00 cm**-1
     4:       0.00 cm**-1
     5:       0.00 cm**-1
     6:     204.71 cm**-1
     7:     344.76 cm**-1
     8:     418.77 cm**-1
     9:     460.59 cm**-1
    10:     558.37 cm**-1
    11:     880.33 cm**-1
    12:     898.14 cm**-1
    13:    1045.48 cm**-1
    14:    1073.20 cm**-1
    15:    1101.34 cm**-1
    16:    1192.52 cm**-1
    17:    1261.29 cm**-1
    18:    1376.49 cm**-1
    19:    1383.38 cm**-1
    20:    1410.84 cm**-1
    21:    1437.46 cm**-1
    22:    1503.80 cm**-1
    23:    1507.04 cm**-1
    24:    2994.13 cm**-1
    25:    3018.60 cm**-1
    26:    3088.03 cm**-1
    27:    3098.84 cm**-1
    28:    3801.74 cm**-1
    29:    3805.94 cm**-1

IR SPECTRUM
-----------

 Mode   freq       eps      Int      T**2         TX        TY        TZ
       cm**-1   L/(mol*cm) km/mol    a.u.
----------------------------------------------------------------------------
  6:    204.71   0.002264   11.44  0.003451  (-0.043578 -0.035679 -0.016707)
  7:    344.76   0.002147   10.85  0.001943  (-0.012681 -0.015360 -0.039328)
  8:    418.77   0.012687   64.11  0.009454  (-0.065098 -0.043241  0.057849)
  9:    460.59   0.029888  151.04  0.020250  (-0.107354 -0.039889 -0.084464)
 10:    558.37   0.010102   51.05  0.005646  (-0.065367 -0.020907 -0.030589)
 11:    880.33   0.006988   35.32  0.002477  (-0.004719  0.048777 -0.008707)
 12:    898.14   0.004731   23.91  0.001644  (-0.040147  0.001605  0.005443)
 13:   1045.48   0.013951   70.50  0.004164  ( 0.058478  0.000895 -0.027273)
 14:   1073.20   0.006815   34.44  0.001982  ( 0.004548 -0.044174  0.003100)
 15:   1101.34   0.010726   54.20  0.003039  ( 0.001162  0.055051 -0.002672)
 16:   1192.52   0.004902   24.77  0.001283  (-0.000068 -0.035475 -0.004922)
 17:   1261.29   0.004040   20.42  0.001000  ( 0.028459  0.005450 -0.012646)
 18:   1376.49   0.001268    6.41  0.000287  (-0.015935  0.004846  0.003157)
 19:   1383.38   0.001727    8.73  0.000390  ( 0.001381 -0.019518  0.002580)
 20:   1410.84   0.006302   31.85  0.001394  (-0.035383 -0.000560  0.011903)
 21:   1437.46   0.007673   38.78  0.001666  ( 0.004789  0.040219 -0.005032)
 22:   1503.80   0.001051    5.31  0.000218  ( 0.012331  0.002728  0.007662)
 23:   1507.04   0.000179    0.91  0.000037  ( 0.002785  0.003564 -0.004080)
 24:   2994.13   0.007966   40.26  0.000830  (-0.001547 -0.007343  0.027820)
 25:   3018.60   0.008353   42.21  0.000864  ( 0.009235  0.027839 -0.001800)
 26:   3088.03   0.003759   19.00  0.000380  ( 0.003863 -0.019103  0.000195)
 27:   3098.84   0.004386   22.16  0.000442  ( 0.007176 -0.002942 -0.019532)
 28:   3801.74   0.008545   43.18  0.000701  ( 0.011092 -0.012128 -0.020767)
 29:   3805.94   0.007567   38.24  0.000620  ( 0.006529 -0.023853  0.002971)

--------------------------
THERMOCHEMISTRY AT 298.15K
--------------------------

Temperature         ...   298.15 K
Pressure            ...     1.00 atm
Total Mass          ...    62.07 AMU
Quasi RRHO          ...     True
Cut-Off Frequency   ...     1.00 cm^-1

Throughout the following assumptions are being made:
  (1) The electronic state is orbitally nondegenerate
  (2) There are no thermally accessible electronically excited states
  (3) Hindered rotations indicated by low frequency modes are not
      treated as such but are treated as vibrations and this may
      cause some error
  (4) All equations used are the standard statistical mechanics
      equations for an ideal gas
  (5) All vibrations are strictly harmonic

freq.     204.71  E(vib)   ...       0.35
freq.     344.76  E(vib)   ...       0.23
freq.     418.77  E(vib)   ...       0.18
freq.     460.59  E(vib)   ...       0.16
freq.     558.37  E(vib)   ...       0.12
freq.     880.33  E(vib)   ...       0.04
freq.     898.14  E(vib)   ...       0.03
freq.    1045.48  E(vib)   ...       0.02
freq.    1073.20  E(vib)   ...       0.02
freq.    1101.34  E(vib)   ...       0.02
freq.    1192.52  E(vib)   ...       0.01
freq.    1261.29  E(vib)   ...       0.01
freq.    1376.49  E(vib)   ...       0.01
freq.    1383.38  E(vib)   ...       0.00
freq.    1410.84  E(vib)   ...       0.00
freq.    1437.46  E(vib)   ...       0.00
freq.    1503.80  E(vib)   ...       0.00
freq.    1507.04  E(vib)   ...       0.00
freq.    2994.13  E(vib)   ...       0.00
freq.    3018.60  E(vib)   ...       0.00
freq.    3088.03  E(vib)   ...       0.00
freq.    3098.84  E(vib)   ...       0.00
freq.    3801.74  E(vib)   ...       0.00
freq.    3805.94  E(vib)   ...       0.00

------------
INNER ENERGY
------------

The inner energy is: U= E(el) + E(ZPE) + E(vib) + E(rot) + E(trans)
    E(el)   - is the total energy from the electronic structure calculation
              = E(kin-el) + E(nuc-el) + E(el-el) + E(nuc-nuc)
    E(ZPE)  - the the zero temperature vibrational energy from the frequency calculation
    E(vib)  - the the finite temperature correction to E(ZPE) due to population
              of excited vibrational states
    E(rot)  - is the rotational thermal energy
    E(trans)- is the translational thermal energy

Summary of contributions to the inner energy U:
Electronic energy                ...   -230.25107196 Eh
Zero point energy                ...      0.08626459 Eh      54.13 kcal/mol
Thermal vibrational correction   ...      0.00191702 Eh       1.20 kcal/mol
Thermal rotational correction    ...      0.00141627 Eh       0.89 kcal/mol
Thermal translational correction ...      0.00141627 Eh       0.89 kcal/mol
-----------------------------------------------------------------------
Total thermal energy                   -230.16005781 Eh

Summary of corrections to the electronic energy:
(perhaps to be used in another calculation)
Total thermal correction                  0.00474956 Eh       2.98 kcal/mol
Non-thermal (ZPE) correction              0.08626459 Eh      54.13 kcal/mol
-----------------------------------------------------------------------
Total correction                          0.09101415 Eh      57.11 kcal/mol

--------
ENTHALPY
--------

The enthalpy is H = U + kB*T
                kB is Boltzmann's constant
Total thermal energy              ...   -230.16005781 Eh
Thermal Enthalpy correction       ...      0.00094421 Eh       0.59 kcal/mol
-----------------------------------------------------------------------
Total Enthalpy                    ...   -230.15911360 Eh

Note: Only C1 symmetry has been detected, increase convergence thresholds
      if your molecule has a higher symmetry. Symmetry factor of 1.0 is
      used for the rotational entropy correction.

Note: Rotational entropy computed according to Herzberg
Infrared and Raman Spectra, Chapter V,1, Van Nostrand Reinhold, 1945
Point Group:  C1, Symmetry Number:   1
Rotational constants in cm-1:     0.507013     0.179279     0.150356

Vibrational entropy computed according to the QRRHO of S. Grimme
Chem.Eur.J. 2012 18 9955 using a reference frequency of 100.0 cm-1

-------
ENTROPY
-------

The entropy contributions are T*S = T*(S(el)+S(vib)+S(rot)+S(trans))
     S(el)   - electronic entropy
     S(vib)  - vibrational entropy
     S(rot)  - rotational entropy
     S(trans)- translational entropy
The entropies will be listed as multiplied by the temperature to get
units of energy

Electronic entropy                ...      0.00000000 Eh      0.00 kcal/mol
Vibrational entropy               ...      0.00292134 Eh      1.83 kcal/mol
Rotational entropy                ...      0.01153739 Eh      7.24 kcal/mol
Translational entropy             ...      0.01819577 Eh     11.42 kcal/mol
-----------------------------------------------------------------------
Final entropy term                ...      0.03265450 Eh     20.49 kcal/mol

In case the symmetry of your molecule has not been determined correctly
or in case you have a reason to use a different symmetry number we print
out the resulting rotational entropy values for sn=1,12:

 non-linear molecules -----------------------------------
|  sn= 1 | S(rot)=       0.01153739 Eh      7.24 kcal/mol|
|  sn= 2 | S(rot)=       0.01088293 Eh      6.83 kcal/mol|
|  sn= 3 | S(rot)=       0.01050010 Eh      6.59 kcal/mol|
|  sn= 4 | S(rot)=       0.01022848 Eh      6.42 kcal/mol|
|  sn= 5 | S(rot)=       0.01001779 Eh      6.29 kcal/mol|
|  sn= 6 | S(rot)=       0.00984564 Eh      6.18 kcal/mol|
|  sn= 7 | S(rot)=       0.00970010 Eh      6.09 kcal/mol|
|  sn= 8 | S(rot)=       0.00957402 Eh      6.01 kcal/mol|
|  sn= 9 | S(rot)=       0.00946281 Eh      5.94 kcal/mol|
|  sn=10 | S(rot)=       0.00936333 Eh      5.88 kcal/mol|
|  sn=11 | S(rot)=       0.00927334 Eh      5.82 kcal/mol|
|  sn=12 | S(rot)=       0.00919119 Eh      5.77 kcal/mol|
 linear molecules ---------------------------------------
|  Dinfh | S(rot)=       0.00711479 Eh      4.46 kcal/mol|
|  Cinfv | S(rot)=       0.00776925 Eh      4.88 kcal/mol|
 --------------------------------------------------------

-------------------
GIBBS FREE ENERGY
-------------------

The Gibbs free energy is G = H - T*S

Total enthalpy                    ...   -230.15911360 Eh
Total entropy correction          ...     -0.03265450 Eh    -20.49 kcal/mol
-----------------------------------------------------------------------
Final Gibbs free energy         ...   -230.19176810 Eh

For completeness - the Gibbs free energy minus the electronic energy
G-E(el)                           ...      0.05930386 Eh     37.21 kcal/mol

                             ****ORCA TERMINATED NORMALLY****
TOTAL RUN TIME: 0 days 0 hours 4 minutes 34 seconds 541 msec
