                         Program Version 6.0.0  -   RELEASE  -
|  1> ! M062X DEF2-TZVP FREQ
|  2> * xyzfile 0 1 vacuum_censo.xyz
|  3>
|  4>                          ****END OF INPUT****

CARTESIAN COORDINATES (ANGSTROEM)
---------------------------------
  C     -0.710869   -0.590336   -0.280082
  C      0.699470   -0.646314    0.267630
  O      1.378370    0.515004   -0.234308
  O     -1.410001    0.558942    0.183020
  H     -1.272908   -1.465697    0.061986
  H     -0.672461   -0.614120   -1.381157
  H      1.195478   -1.570081   -0.069859
  H      0.667109   -0.636255    1.366678
  H      2.191407    0.635932    0.264536
  H     -0.843610    1.315014   -0.015929

 Total Charge           Charge          ....    0
 Multiplicity           Mult            ....    1
 Number of Electrons    NEL             ....   34
 Basis Dimension        Dim             ....  160

ORBITAL ENERGIES
----------------

  NO   OCC          E(Eh)            E(eV)
   0   2.0000     -19.636773      -534.3438
   1   2.0000     -19.616802      -533.8003
   2   2.0000     -10.590266      -288.1758
   3   2.0000     -10.582035      -287.9518
   4   2.0000      -1.158740       -31.5309
   5   2.0000      -1.130421       -30.7603
   6   2.0000      -0.840195       -22.8629
   7   2.0000      -0.705475       -19.1969
   8   2.0000      -0.614824       -16.7302
   9   2.0000      -0.569136       -15.4870
  10   2.0000      -0.543759       -14.7964
  11   2.0000      -0.502067       -13.6619
  12   2.0000      -0.476037       -12.9536
  13   2.0000      -0.436927       -11.8894
  14   2.0000      -0.405260       -11.0277
  15   2.0000      -0.367840       -10.0094
  16   2.0000      -0.347988        -9.4692
  17   0.0000       0.052050         1.4164
  18   0.0000       0.094104         2.5607
  19   0.0000       0.101453         2.7607
  20   0.0000       0.131149         3.5687
  21   0.0000       0.139366         3.7923

MULLIKEN ATOMIC CHARGES
-----------------------
   0 C :   -0.044017
   1 C :   -0.111307
   2 O :   -0.492098
   3 O :   -0.480681
   4 H :    0.119335
   5 H :    0.121470
   6 H :    0.111653
   7 H :    0.130379
   8 H :    0.321502
   9 H :    0.323766
Sum of atomic charges:    0.0000000

LOEWDIN ATOMIC CHARGES
----------------------
   0 C :   -0.356884
   1 C :   -0.357733
   2 O :   -0.067624
   3 O :   -0.055651
   4 H :    0.129988
   5 H :    0.121372
   6 H :    0.119462
   7 H :    0.119806
   8 H :    0.171893
   9 H :    0.175371

  Mayer bond orders larger than 0.100000
B(  0-C ,  1-C ) :   0.9733 B(  0-C ,  3-O ) :   0.9677 B(  0-C ,  4-H ) :   0.9638
B(  0-C ,  5-H ) :   0.9698 B(  1-C ,  2-O ) :   0.9773 B(  1-C ,  6-H ) :   0.9658
B(  1-C ,  7-H ) :   0.9681 B(  2-O ,  8-H ) :   0.8951 B(  3-O ,  9-H ) :   0.8800

FINAL SINGLE POINT ENERGY      -230.252708682318

DIPOLE MOMENT
-------------

Method             : SCF
Type of density    : Electron Density
Multiplicity       :   1
Irrep              :   0
Energy             :  -230.2527086823183993 Eh
Relativity type    :
Basis              : AO
                                X                 Y                 Z
Electronic contribution:     -0.236445791       1.791938491      -0.056835590
Nuclear contribution   :      1.128706915      -2.172653561       0.279158486
                        -----------------------------------------
Total Dipole Moment    :      0.892261124      -0.380715070       0.222322896
                        -----------------------------------------
Magnitude (a.u.)       :      0.995239342
Magnitude (Debye)      :      2.529697368

VIBRATIONAL FREQUENCIES
-----------------------

Scaling factor for frequencies =  1.000000000  (already applied!)

     0:       0.00 cm**-1
     1:       0.00 cm**-1
     2:       0.00 cm**-1
     3:       0.00 cm**-1
     4:       0.00 cm**-1
     5:       0.00 cm**-1
     6:     200.59 cm**-1
     7:     331.51 cm**-1
     8:     351.78 cm**-1
     9:     467.69 cm**-1
    10:     543.86 cm**-1
    11:     891.78 cm**-1
    12:     913.00 cm**-1
    13:    1064.94 cm**-1
    14:    1094.89 cm**-1
    15:    1128.01 cm**-1
    16:    1188.58 cm**-1
    17:    1276.26 cm**-1
    18:    1301.47 cm**-1
    19:    1389.35 cm**-1
    20:    1426.70 cm**-1
    21:    1462.25 cm**-1
    22:    1511.39 cm**-1
    23:    1520.03 cm**-1
    24:    2990.34 cm**-1
    25:    2993.12 cm**-1
    26:    3042.65 cm**-1
    27:    3088.95 cm**-1
    28:    3820.67 cm**-1
    29:    3876.67 cm**-1

IR SPECTRUM
-----------

 Mode   freq       eps      Int      T**2         TX        TY        TZ
       cm**-1   L/(mol*cm) km/mol    a.u.
----------------------------------------------------------------------------
  6:    200.59   0.001251    6.32  0.001946  (-0.029896  0.032229 -0.003615)
  7:    331.51   0.023127  116.88  0.021770  (-0.083246  0.082042  0.090053)
  8:    351.78   0.001004    5.07  0.000891  (-0.024269 -0.009354 -0.014634)
  9:    467.69   0.025331  128.01  0.016902  ( 0.058252 -0.023012  0.113926)
 10:    543.86   0.004432   22.40  0.002543  (-0.034227 -0.030042 -0.021660)
 11:    891.78   0.005935   29.99  0.002077  (-0.006045 -0.044283 -0.008902)
 12:    913.00   0.003265   16.50  0.001116  ( 0.029960  0.004189 -0.014172)
 13:   1064.94   0.012177   61.54  0.003568  (-0.049038  0.025694  0.022436)
 14:   1094.89   0.017072   86.27  0.004866  (-0.012141 -0.066940  0.015407)
 15:   1128.01   0.005000   25.27  0.001383  ( 0.017153 -0.030263 -0.013166)
 16:   1188.58   0.004774   24.13  0.001253  ( 0.030844  0.002800 -0.017152)
 17:   1276.26   0.001136    5.74  0.000278  (-0.008054 -0.002873  0.014307)
 18:   1301.47   0.009891   49.99  0.002372  (-0.002683 -0.046869  0.012956)
 19:   1389.35   0.001520    7.68  0.000341  (-0.014749  0.008459  0.007227)
 20:   1426.70   0.006719   33.95  0.001470  ( 0.028038 -0.025486 -0.005824)
 21:   1462.25   0.002199   11.11  0.000469  ( 0.011329 -0.015911 -0.009372)
 22:   1511.39   0.000762    3.85  0.000157  ( 0.010985  0.002488  0.005521)
 23:   1520.03   0.000896    4.53  0.000184  ( 0.013350  0.000178  0.002383)
 24:   2990.34   0.007129   36.03  0.000744  ( 0.006669 -0.020438  0.016787)
 25:   2993.12   0.006059   30.62  0.000632  (-0.001045  0.019533  0.015783)
 26:   3042.65   0.008732   44.13  0.000896  (-0.005138  0.014255  0.025806)
 27:   3088.95   0.004797   24.24  0.000485  ( 0.007534  0.017854 -0.010446)
 28:   3820.67   0.010461   52.86  0.000854  ( 0.012203  0.026424 -0.002689)
 29:   3876.67   0.011292   57.07  0.000909  ( 0.026123  0.010058  0.011199)

--------------------------
THERMOCHEMISTRY AT 298.15K
--------------------------

Temperature         ...   298.15 K
Pressure            ...     1.00 atm
Total Mass          ...    62.07 AMU
Quasi RRHO          ...     True
Cut-Off Frequency   ...     1.00 cm^-1

Throughout the following assumptions are being made:
  (1) The electronic state is orbitally nondegenerate
  (2) There are no thermally accessible electronically excited states
  (3) Hindered rotations indicated by low frequency modes are not
      treated as such but are treated as vibrations and this may
      cause some error
  (4) All equations used are the standard statistical mechanics
      equations for an ideal gas
  (5) All vibrations are strictly harmonic

freq.     200.59  E(vib)   ...       0.35
freq.     331.51  E(vib)   ...       0.24
freq.     351.78  E(vib)   ...       0.23
freq.     467.69  E(vib)   ...       0.16
freq.     543.86  E(vib)   ...       0.12
freq.     891.78  E(vib)   ...       0.03
freq.     913.00  E(vib)   ...       0.03
freq.    1064.94  E(vib)   ...       0.02
freq.    1094.89  E(vib)   ...       0.02
freq.    1128.01  E(vib)   ...       0.01
freq.    1188.58  E(vib)   ...       0.01
freq.    1276.26  E(vib)   ...       0.01
freq.    1301.47  E(vib)   ...       0.01
freq.    1389.35  E(vib)   ...       0.00
freq.    1426.70  E(vib)   ...       0.00
freq.    1462.25  E(vib)   ...       0.00
freq.    1511.39  E(vib)   ...       0.00
freq.    1520.03  E(vib)   ...       0.00
freq.    2990.34  E(vib)   ...       0.00
freq.    2993.12  E(vib)   ...       0.00
freq.    3042.65  E(vib)   ...       0.00
freq.    3088.95  E(vib)   ...       0.00
freq.    3820.67  E(vib)   ...       0.00
freq.    3876.67  E(vib)   ...       0.00

------------
INNER ENERGY
------------

The inner energy is: U= E(el) + E(ZPE) + E(vib) + E(rot) + E(trans)
    E(el)   - is the total energy from the electronic structure calculation
              = E(kin-el) + E(nuc-el) + E(el-el) + E(nuc-nuc)
    E(ZPE)  - the the zero temperature vibrational energy from the frequency calculation
    E(vib)  - the the finite temperature correction to E(ZPE) due to population
              of excited vibrational states
    E(rot)  - is the rotational thermal energy
    E(trans)- is the translational thermal energy

Summary of contributions to the inner energy U:
Electronic energy                ...   -230.25270868 Eh
Zero point energy                ...      0.08628892 Eh      54.15 kcal/mol
Thermal vibrational correction   ...      0.00199810 Eh       1.25 kcal/mol
Thermal rotational correction    ...      0.00141627 Eh       0.89 kcal/mol
Thermal translational correction ...      0.00141627 Eh       0.89 kcal/mol
-----------------------------------------------------------------------
Total thermal energy                   -230.16158912 Eh

Summary of corrections to the electronic energy:
(perhaps to be used in another calculation)
Total thermal correction                  0.00483064 Eh       3.03 kcal/mol
Non-thermal (ZPE) correction              0.08628892 Eh      54.15 kcal/mol
-----------------------------------------------------------------------
Total correction                          0.09111956 Eh      57.18 kcal/mol

--------
ENTHALPY
--------

The enthalpy is H = U + kB*T
                kB is Boltzmann's constant
Total thermal energy              ...   -230.16158912 Eh
Thermal Enthalpy correction       ...      0.00094421 Eh       0.59 kcal/mol
-----------------------------------------------------------------------
Total Enthalpy                    ...   -230.16064491 Eh

Note: Only C1 symmetry has been detected, increase convergence thresholds
      if your molecule has a higher symmetry. Symmetry factor of 1.0 is
      used for the rotational entropy correction.

Note: Rotational entropy computed according to Herzberg
Infrared and Raman Spectra, Chapter V,1, Van Nostrand Reinhold, 1945
Point Group:  C1, Symmetry Number:   1
Rotational constants in cm-1:     0.510496     0.185654     0.153543

Vibrational entropy computed according to the QRRHO of S. Grimme
Chem.Eur.J. 2012 18 9955 using a reference frequency of 100.0 cm-1

-------
ENTROPY
-------

The entropy contributions are T*S = T*(S(el)+S(vib)+S(rot)+S(trans))
     S(el)   - electronic entropy
     S(vib)  - vibrational entropy
     S(rot)  - rotational entropy
     S(trans)- translational entropy
The entropies will be listed as multiplied by the temperature to get
units of energy

Electronic entropy                ...      0.00000000 Eh      0.00 kcal/mol
Vibrational entropy               ...      0.00308352 Eh      1.93 kcal/mol
Rotational entropy                ...      0.01150776 Eh      7.22 kcal/mol
Translational entropy             ...      0.01819577 Eh     11.42 kcal/mol
-----------------------------------------------------------------------
Final entropy term                ...      0.03278704 Eh     20.57 kcal/mol

In case the symmetry of your molecule has not been determined correctly
or in case you have a reason to use a different symmetry number we print
out the resulting rotational entropy values for sn=1,12:

 non-linear molecules -----------------------------------
|  sn= 1 | S(rot)=       0.01150776 Eh      7.22 kcal/mol|
|  sn= 2 | S(rot)=       0.01085331 Eh      6.81 kcal/mol|
|  sn= 3 | S(rot)=       0.01047047 Eh      6.57 kcal/mol|
|  sn= 4 | S(rot)=       0.01019885 Eh      6.40 kcal/mol|
|  sn= 5 | S(rot)=       0.00998816 Eh      6.27 kcal/mol|
|  sn= 6 | S(rot)=       0.00981602 Eh      6.16 kcal/mol|
|  sn= 7 | S(rot)=       0.00967047 Eh      6.07 kcal/mol|
|  sn= 8 | S(rot)=       0.00954439 Eh      5.99 kcal/mol|
|  sn= 9 | S(rot)=       0.00943318 Eh      5.92 kcal/mol|
|  sn=10 | S(rot)=       0.00933371 Eh      5.86 kcal/mol|
|  sn=11 | S(rot)=       0.00924372 Eh      5.80 kcal/mol|
|  sn=12 | S(rot)=       0.00916156 Eh      5.75 kcal/mol|
 linear molecules ---------------------------------------
|  Dinfh | S(rot)=       0.00709499 Eh      4.45 kcal/mol|
|  Cinfv | S(rot)=       0.00774945 Eh      4.86 kcal/mol|
 --------------------------------------------------------

-------------------
GIBBS FREE ENERGY
-------------------

The Gibbs free energy is G = H - T*S

Total enthalpy                    ...   -230.16064491 Eh
Total entropy correction          ...     -0.03278704 Eh    -20.57 kcal/mol
-----------------------------------------------------------------------
Final Gibbs free energy         ...   -230.19343195 Eh

For completeness - the Gibbs free energy minus the electronic energy
G-E(el)                           ...      0.05927673 Eh     37.20 kcal/mol

                             ****ORCA TERMINATED NORMALLY****
TOTAL RUN TIME: 0 days 0 hours 4 minutes 24 seconds 933 msec
