                         Program Version 6.0.1  -  RELEASE   -
|  1> ! pbe def2-sv(p) def2/J RI DEFGRID1 loosescf d4 GCP(DFT/SV(P)) printgap
|  2> %output
|  3>     printlevel normal
|  4> end
|  5> * xyz 0 1
|  6> C -2.1862507424 -0.908198766 -0.1473324166
|  7> C -1.1203625545 -0.3225733267 0.801319126
|  8> H -1.5738763003 -0.2868621021 1.8003567273
|  9> C -0.7331673107 1.1316162918 0.4619132801
| 10> H -1.5971280849 1.6126873726 -0.0264043184
| 11> C 0.4738143631 1.2379446183 -0.4866592223
| 12> H 0.8410491269 2.2759870176 -0.4680776384
| 13> C 1.6167743853 0.3287931679 0.0270318462
| 14> H 2.4496454482 0.3597105808 -0.6841728037
| 15> C 1.0921966141 -1.1136029729 0.1160963351
| 16> H 1.8322008415 -1.7554504577 0.612600337
| 17> O -0.0186266681 -1.2035241312 0.9712242723
| 18> O 0.8500745408 -1.647403829 -1.160062604
| 19> O 2.1241319583 0.7717891803 1.2509607294
| 20> O 0.1401091483 0.9432278339 -1.8215721189
| 21> O -0.4671639453 1.7628321371 1.697640673
| 22> O -1.781043563 -0.9777012648 -1.4916096861
| 23> H -3.0743460026 -0.2727098914 -0.1218474896
| 24> H -2.4512223074 -1.9045730069 0.2232999794
| 25> H 0.8768511808 -0.9261676626 -1.8121401133
| 26> H 1.4041361315 0.7638689389 1.9011336528
| 27> H -0.694566843 0.4269985109 -1.8491995454
| 28> H -0.2041653521 2.6783677294 1.544601235
| 29> H -1.0488052019 -1.6218929533 -1.5393937393
| 30> *
| 31>
| 32>                          ****END OF INPUT****

CARTESIAN COORDINATES (ANGSTROEM)
---------------------------------
  C     -2.186251   -0.908199   -0.147332
  C     -1.120363   -0.322573    0.801319
  H     -1.573876   -0.286862    1.800357
  C     -0.733167    1.131616    0.461913
  H     -1.597128    1.612687   -0.026404
  C      0.473814    1.237945   -0.486659
  H      0.841049    2.275987   -0.468078
  C      1.616774    0.328793    0.027032
  H      2.449645    0.359711   -0.684173
  C      1.092197   -1.113603    0.116096
  H      1.832201   -1.755450    0.612600
  O     -0.018627   -1.203524    0.971224
  O      0.850075   -1.647404   -1.160063
  O      2.124132    0.771789    1.250961
  O      0.140109    0.943228   -1.821572
  O     -0.467164    1.762832    1.697641
  O     -1.781044   -0.977701   -1.491610
  H     -3.074346   -0.272710   -0.121847
  H     -2.451222   -1.904573    0.223300
  H      0.876851   -0.926168   -1.812140
  H      1.404136    0.763869    1.901134
  H     -0.694567    0.426999   -1.849200
  H     -0.204165    2.678368    1.544601
  H     -1.048805   -1.621893   -1.539394

 Total Charge           Charge          ....    0
 Multiplicity           Mult            ....    1
 Number of Electrons    NEL             ....   96
 Basis Dimension        Dim             ....  192

ORBITAL ENERGIES
----------------

  NO   OCC          E(Eh)            E(eV)
   0   2.0000     -18.781095      -511.0596
   1   2.0000     -18.776677      -510.9394
   2   2.0000     -18.775112      -510.8968
   3   2.0000     -18.774111      -510.8695
   4   2.0000     -18.764451      -510.6067
   5   2.0000     -18.749983      -510.2130
   6   2.0000      -9.989780      -271.8357
   7   2.0000      -9.966782      -271.2099
   8   2.0000      -9.958900      -270.9954
   9   2.0000      -9.955879      -270.9132
  10   2.0000      -9.949816      -270.7482
  11   2.0000      -9.947066      -270.6734
  12   2.0000      -0.992710       -27.0130
  13   2.0000      -0.959188       -26.1008
  14   2.0000      -0.950299       -25.8589
  15   2.0000      -0.939179       -25.5564
  16   2.0000      -0.929075       -25.2814
  17   2.0000      -0.921373       -25.0718
  18   2.0000      -0.718342       -19.5471
  19   2.0000      -0.692123       -18.8336
  20   2.0000      -0.633063       -17.2265
  21   2.0000      -0.608327       -16.5534
  22   2.0000      -0.586698       -15.9649
  23   2.0000      -0.526958       -14.3392
  24   2.0000      -0.508799       -13.8451
  25   2.0000      -0.505526       -13.7561
  26   2.0000      -0.485286       -13.2053
  27   2.0000      -0.476212       -12.9584
  28   2.0000      -0.458504       -12.4765
  29   2.0000      -0.449477       -12.2309
  30   2.0000      -0.426280       -11.5997
  31   2.0000      -0.410905       -11.1813
  32   2.0000      -0.392694       -10.6857
  33   2.0000      -0.382541       -10.4095
  34   2.0000      -0.373270       -10.1572
  35   2.0000      -0.361680        -9.8418
  36   2.0000      -0.349300        -9.5049
  37   2.0000      -0.335942        -9.1414
  38   2.0000      -0.319244        -8.6871
  39   2.0000      -0.313658        -8.5351
  40   2.0000      -0.290101        -7.8940
  41   2.0000      -0.278269        -7.5721
  42   2.0000      -0.273399        -7.4396
  43   2.0000      -0.267875        -7.2892
  44   2.0000      -0.249163        -6.7801
  45   2.0000      -0.243787        -6.6338
  46   2.0000      -0.224521        -6.1095
  47   2.0000      -0.205758        -5.5990
  48   0.0000       0.005424         0.1476
  49   0.0000       0.022000         0.5986
  50   0.0000       0.042820         1.1652
  51   0.0000       0.055138         1.5004
  52   0.0000       0.063421         1.7258

MULLIKEN ATOMIC CHARGES
-----------------------
   0 C :    0.037768
   1 C :    0.041779
   2 H :    0.091453
   3 C :   -0.020573
   4 H :    0.084271
   5 C :    0.038856
   6 H :    0.068957
   7 C :    0.013806
   8 H :    0.092234
   9 C :    0.206019
  10 H :    0.081477
  11 O :   -0.309597
  12 O :   -0.424319
  13 O :   -0.421316
  14 O :   -0.431433
  15 O :   -0.410193
  16 O :   -0.448363
  17 H :    0.095933
  18 H :    0.100532
  19 H :    0.300532
  20 H :    0.299652
  21 H :    0.297368
  22 H :    0.307758
  23 H :    0.307399
Sum of atomic charges:   -0.0000000

LOEWDIN ATOMIC CHARGES
----------------------
   0 C :   -0.131529
   1 C :   -0.073522
   2 H :    0.131565
   3 C :   -0.077511
   4 H :    0.109024
   5 C :   -0.080237
   6 H :    0.108169
   7 C :   -0.094202
   8 H :    0.122482
   9 C :   -0.005385
  10 H :    0.111560
  11 O :   -0.139879
  12 O :   -0.315164
  13 O :   -0.310813
  14 O :   -0.326751
  15 O :   -0.304616
  16 O :   -0.327958
  17 H :    0.119015
  18 H :    0.114373
  19 H :    0.272250
  20 H :    0.270912
  21 H :    0.264800
  22 H :    0.288427
  23 H :    0.274989

  Mayer bond orders larger than 0.100000
B(  0-C ,  1-C ) :   1.0411 B(  0-C , 16-O ) :   1.0478 B(  0-C , 17-H ) :   0.9195
B(  0-C , 18-H ) :   0.9158 B(  1-C ,  2-H ) :   0.8789 B(  1-C ,  3-C ) :   0.9749
B(  1-C , 11-O ) :   0.9995 B(  3-C ,  4-H ) :   0.8956 B(  3-C ,  5-C ) :   1.0062
B(  3-C , 15-O ) :   1.0332 B(  5-C ,  6-H ) :   0.9000 B(  5-C ,  7-C ) :   0.9361
B(  5-C , 14-O ) :   1.0681 B(  7-C ,  8-H ) :   0.8956 B(  7-C ,  9-C ) :   1.0055
B(  7-C , 13-O ) :   1.0692 B(  9-C , 10-H ) :   0.9072 B(  9-C , 11-O ) :   1.0541
B(  9-C , 12-O ) :   1.0509 B( 12-O , 19-H ) :   0.7830 B( 12-O , 23-H ) :   0.1297
B( 13-O , 20-H ) :   0.8123 B( 14-O , 19-H ) :   0.1264 B( 14-O , 21-H ) :   0.7520
B( 15-O , 22-H ) :   0.8367 B( 16-O , 21-H ) :   0.1736 B( 16-O , 23-H ) :   0.7745

Dispersion correction           -0.027011352
FINAL SINGLE POINT ENERGY      -685.706424892686

DIPOLE MOMENT
-------------

Method             : SCF
Type of density    : Electron Density
Multiplicity       :   1
Irrep              :   0
Energy             :  -685.8454653766481215 Eh
Relativity type    :
Basis              : AO
                                X                 Y                 Z
Electronic contribution:      2.342831774      -0.679559105       0.582414690
Nuclear contribution   :     -3.027329481       1.261299328      -0.401520544
                        -----------------------------------------
Total Dipole Moment    :     -0.684497707       0.581740224       0.180894146
                        -----------------------------------------
Magnitude (a.u.)       :      0.916341361
Magnitude (Debye)      :      2.329154639

Rotational constants in cm-1:             0.041130             0.032009             0.027623
Rotational constants in MHz :          1233.050823           959.619019           828.121061

                             ****ORCA TERMINATED NORMALLY****
TOTAL RUN TIME: 0 days 0 hours 0 minutes 13 seconds 435 msec
