                         Program Version 6.0.1  -  RELEASE   -
|  1> ! r2scan-3c def2/J RI DEFGRID2 scfconv6 printgap
|  2> %output
|  3>     printlevel normal
|  4> end
|  5> * xyz 0 1
|  6> C 3.5761245368 -1.4842170399 -0.0644470725
|  7> C 4.6802147058 -0.6068445409 -0.5899415418
|  8> C 4.5821339399 0.7016836581 -0.7784928398
|  9> C 3.3669293931 1.5276115964 -0.4527893456
| 10> C 2.4664773418 0.6943443618 0.4443410862
| 11> H 2.9551945301 0.5934988697 1.4229399133
| 12> C 2.2779550229 -0.6994018618 -0.1521809868
| 13> H 2.0100598151 -0.5935854607 -1.2123620199
| 14> C 1.0311607124 -1.2037943571 0.5310583238
| 15> O 0.6568914718 -2.3153150397 0.7436248645
| 16> N 0.3099774217 -0.0394133683 0.8628731301
| 17> C 1.0574464733 1.1464846735 0.741339656
| 18> O 0.6162790828 2.2424227776 0.9037373348
| 19> S -1.2921352117 -0.070290748 1.4103373932
| 20> C -2.1750859284 0.005297189 -0.1989780047
| 21> Cl -3.8886855512 -0.074832776 0.2093750063
| 22> Cl -1.8237633678 1.5161065631 -1.0675826466
| 23> Cl -1.7315239196 -1.3629298893 -1.2452749857
| 24> H 3.7856232805 -1.7713369647 0.970232696
| 25> H 3.5176572429 -2.4034608201 -0.6495587163
| 26> H 5.60238098 -1.1162403954 -0.8291879792
| 27> H 5.4191809437 1.2499142484 -1.1858030011
| 28> H 3.6645483948 2.4530979818 0.0428330363
| 29> H 2.8454608995 1.8058145981 -1.3735094765
| 30> *
| 31>
| 32>                          ****END OF INPUT****

CARTESIAN COORDINATES (ANGSTROEM)
---------------------------------
  C      3.576125   -1.484217   -0.064447
  C      4.680215   -0.606845   -0.589942
  C      4.582134    0.701684   -0.778493
  C      3.366929    1.527612   -0.452789
  C      2.466477    0.694344    0.444341
  H      2.955195    0.593499    1.422940
  C      2.277955   -0.699402   -0.152181
  H      2.010060   -0.593585   -1.212362
  C      1.031161   -1.203794    0.531058
  O      0.656891   -2.315315    0.743625
  N      0.309977   -0.039413    0.862873
  C      1.057446    1.146485    0.741340
  O      0.616279    2.242423    0.903737
  S     -1.292135   -0.070291    1.410337
  C     -2.175086    0.005297   -0.198978
  Cl    -3.888686   -0.074833    0.209375
  Cl    -1.823763    1.516107   -1.067583
  Cl    -1.731524   -1.362930   -1.245275
  H      3.785623   -1.771337    0.970233
  H      3.517657   -2.403461   -0.649559
  H      5.602381   -1.116240   -0.829188
  H      5.419181    1.249914   -1.185803
  H      3.664548    2.453098    0.042833
  H      2.845461    1.805815   -1.373509

 Total Charge           Charge          ....    0
 Multiplicity           Mult            ....    1
 Number of Electrons    NEL             ....  152
 Basis Dimension        Dim             ....  391

ORBITAL ENERGIES
----------------

  NO   OCC          E(Eh)            E(eV)
   0   2.0000    -101.252288     -2755.2148
   1   2.0000    -101.242598     -2754.9511
   2   2.0000    -101.240611     -2754.8971
   3   2.0000     -88.629831     -2411.7403
   4   2.0000     -18.960936      -515.9533
   5   2.0000     -18.959882      -515.9246
   6   2.0000     -14.250182      -387.7672
   7   2.0000     -10.253614      -279.0150
   8   2.0000     -10.166936      -276.6564
   9   2.0000     -10.166480      -276.6440
  10   2.0000     -10.078914      -274.2612
  11   2.0000     -10.078213      -274.2421
  12   2.0000     -10.061587      -273.7897
  13   2.0000     -10.061175      -273.7785
  14   2.0000     -10.051742      -273.5218
  15   2.0000     -10.050961      -273.5005
  16   2.0000      -9.408098      -256.0074
  17   2.0000      -9.398554      -255.7476
  18   2.0000      -9.396551      -255.6932
  19   2.0000      -7.920503      -215.5278
  20   2.0000      -7.155194      -194.7027
  21   2.0000      -7.145673      -194.4437
  22   2.0000      -7.143885      -194.3950
  23   2.0000      -7.143730      -194.3908
  24   2.0000      -7.143539      -194.3856
  25   2.0000      -7.134375      -194.1362
  26   2.0000      -7.133920      -194.1238
  27   2.0000      -7.132310      -194.0800
  28   2.0000      -7.131920      -194.0694
  29   2.0000      -5.870084      -159.7331
  30   2.0000      -5.864830      -159.5901
  31   2.0000      -5.854918      -159.3204
  32   2.0000      -1.060818       -28.8663
  33   2.0000      -1.041643       -28.3446
  34   2.0000      -0.954480       -25.9727
  35   2.0000      -0.924083       -25.1456
  36   2.0000      -0.849825       -23.1249
  37   2.0000      -0.816864       -22.2280
  38   2.0000      -0.808038       -21.9878
  39   2.0000      -0.779180       -21.2026
  40   2.0000      -0.749422       -20.3928
  41   2.0000      -0.719971       -19.5914
  42   2.0000      -0.661234       -17.9931
  43   2.0000      -0.635789       -17.3007
  44   2.0000      -0.595245       -16.1974
  45   2.0000      -0.594576       -16.1792
  46   2.0000      -0.535260       -14.5652
  47   2.0000      -0.529601       -14.4112
  48   2.0000      -0.491474       -13.3737
  49   2.0000      -0.485344       -13.2069
  50   2.0000      -0.474905       -12.9228
  51   2.0000      -0.465431       -12.6650
  52   2.0000      -0.454521       -12.3682
  53   2.0000      -0.448813       -12.2128
  54   2.0000      -0.438302       -11.9268
  55   2.0000      -0.422218       -11.4891
  56   2.0000      -0.415473       -11.3056
  57   2.0000      -0.407735       -11.0950
  58   2.0000      -0.397962       -10.8291
  59   2.0000      -0.393459       -10.7066
  60   2.0000      -0.382592       -10.4109
  61   2.0000      -0.371229       -10.1017
  62   2.0000      -0.340639        -9.2693
  63   2.0000      -0.338947        -9.2232
  64   2.0000      -0.333918        -9.0864
  65   2.0000      -0.330997        -9.0069
  66   2.0000      -0.326339        -8.8801
  67   2.0000      -0.321575        -8.7505
  68   2.0000      -0.306274        -8.3341
  69   2.0000      -0.304207        -8.2779
  70   2.0000      -0.286377        -7.7927
  71   2.0000      -0.279923        -7.6171
  72   2.0000      -0.264878        -7.2077
  73   2.0000      -0.253942        -6.9101
  74   2.0000      -0.248434        -6.7602
  75   2.0000      -0.240291        -6.5387
  76   0.0000      -0.083911        -2.2833
  77   0.0000      -0.067696        -1.8421
  78   0.0000      -0.049358        -1.3431
  79   0.0000      -0.043477        -1.1831
  80   0.0000      -0.028216        -0.7678

MULLIKEN ATOMIC CHARGES
-----------------------
   0 C :   -0.346752
   1 C :   -0.159298
   2 C :   -0.164116
   3 C :   -0.331954
   4 C :   -0.067433
   5 H :    0.219703
   6 C :   -0.050989
   7 H :    0.225954
   8 C :    0.102671
   9 O :   -0.346969
  10 N :    0.036709
  11 C :    0.133075
  12 O :   -0.353307
  13 S :    0.121623
  14 C :    0.136155
  15 Cl:   -0.043013
  16 Cl:   -0.051812
  17 Cl:   -0.058232
  18 H :    0.173082
  19 H :    0.169633
  20 H :    0.155551
  21 H :    0.155901
  22 H :    0.170216
  23 H :    0.173601
Sum of atomic charges:    0.0000000

LOEWDIN ATOMIC CHARGES
----------------------
   0 C :   -0.259221
   1 C :   -0.186890
   2 C :   -0.187139
   3 C :   -0.257985
   4 C :   -0.117260
   5 H :    0.200556
   6 C :   -0.119287
   7 H :    0.202399
   8 C :    0.355275
   9 O :   -0.366836
  10 N :   -0.888228
  11 C :    0.359254
  12 O :   -0.371196
  13 S :    0.588209
  14 C :   -0.458855
  15 Cl:    0.160638
  16 Cl:    0.153976
  17 Cl:    0.155431
  18 H :    0.176096
  19 H :    0.174598
  20 H :    0.167634
  21 H :    0.167734
  22 H :    0.174648
  23 H :    0.176450

  Mayer bond orders larger than 0.100000
B(  0-C ,  1-C ) :   0.9118 B(  0-C ,  6-C ) :   0.9149 B(  0-C , 18-H ) :   0.9900
B(  0-C , 19-H ) :   0.9661 B(  1-C ,  2-C ) :   1.9003 B(  1-C , 20-H ) :   0.9358
B(  2-C ,  3-C ) :   0.9161 B(  2-C , 21-H ) :   0.9357 B(  3-C ,  4-C ) :   0.9066
B(  3-C , 22-H ) :   0.9655 B(  3-C , 23-H ) :   0.9865 B(  4-C ,  5-H ) :   0.9114
B(  4-C ,  6-C ) :   0.8998 B(  4-C , 11-C ) :   0.8944 B(  6-C ,  7-H ) :   0.8930
B(  6-C ,  8-C ) :   0.8891 B(  8-C ,  9-O ) :   2.0272 B(  8-C , 10-N ) :   0.9560
B( 10-N , 11-C ) :   0.9857 B( 10-N , 13-S ) :   1.1031 B( 11-C , 12-O ) :   2.0102
B( 13-S , 14-C ) :   0.9143 B( 14-C , 15-Cl) :   1.0254 B( 14-C , 16-Cl) :   1.0418
B( 14-C , 17-Cl) :   1.0275

Dispersion correction           -0.012984997
FINAL SINGLE POINT ENERGY     -2331.544178045733

DIPOLE MOMENT
-------------

Method             : SCF
Type of density    : Electron Density
Multiplicity       :   1
Irrep              :   0
Energy             : -2331.5506018448600116 Eh
Relativity type    :
Basis              : AO
                                X                 Y                 Z
Electronic contribution:    -36.628243045      -0.078219938      -0.523301661
Nuclear contribution   :     38.007025392       0.099828524       0.171186299
                        -----------------------------------------
Total Dipole Moment    :      1.378782347       0.021608586      -0.352115362
                        -----------------------------------------
Magnitude (a.u.)       :      1.423198131
Magnitude (Debye)      :      3.617482164

Rotational constants in cm-1:             0.024991             0.007651             0.006966
Rotational constants in MHz :           749.206602           229.360933           208.844485

                             ****ORCA TERMINATED NORMALLY****
TOTAL RUN TIME: 0 days 0 hours 1 minutes 12 seconds 737 msec
