                         Program Version 6.0.1  -  RELEASE   -
|  1> ! r2scan-3c def2/J RI DEFGRID2 scfconv6 printgap
|  2> %output
|  3>     printlevel normal
|  4> end
|  5> * xyz 0 1
|  6> C 2.0635703851 0.0322485242 -0.1210986217
|  7> C 0.7584290639 0.7023084058 0.290838052
|  8> C -0.4602632807 0.003305523 -0.3272668755
|  9> H -0.3327164324 -0.0549370221 -1.4136926247
| 10> C -1.7485713149 0.7626763775 -0.0041878961
| 11> O -0.5475719013 -1.3434229521 0.0872774368
| 12> H 2.2200952056 0.1349542652 -1.1923400872
| 13> H 2.0298615752 -1.0281055206 0.1175263319
| 14> H 2.9067298781 0.4821951739 0.3977223649
| 15> H 0.7613556539 1.747783992 -0.0215935988
| 16> H 0.662000207 0.6780963876 1.3806143825
| 17> H -2.6046698792 0.2268808017 -0.4069725746
| 18> H -1.8724056551 0.8559909878 1.0741363352
| 19> H -1.7214861943 1.7580706274 -0.4384357571
| 20> H -0.663608267 -1.3571462964 1.0447321649
| 21> *
| 22>
| 23>                          ****END OF INPUT****

CARTESIAN COORDINATES (ANGSTROEM)
---------------------------------
  C      2.063570    0.032249   -0.121099
  C      0.758429    0.702308    0.290838
  C     -0.460263    0.003306   -0.327267
  H     -0.332716   -0.054937   -1.413693
  C     -1.748571    0.762676   -0.004188
  O     -0.547572   -1.343423    0.087277
  H      2.220095    0.134954   -1.192340
  H      2.029862   -1.028106    0.117526
  H      2.906730    0.482195    0.397722
  H      0.761356    1.747784   -0.021594
  H      0.662000    0.678096    1.380614
  H     -2.604670    0.226881   -0.406973
  H     -1.872406    0.855991    1.074136
  H     -1.721486    1.758071   -0.438436
  H     -0.663608   -1.357146    1.044732

 Total Charge           Charge          ....    0
 Multiplicity           Mult            ....    1
 Number of Electrons    NEL             ....   42
 Basis Dimension        Dim             ....  150

ORBITAL ENERGIES
----------------

  NO   OCC          E(Eh)            E(eV)
   0   2.0000     -18.944423      -515.5040
   1   2.0000     -10.079085      -274.2658
   2   2.0000     -10.026411      -272.8325
   3   2.0000     -10.018819      -272.6259
   4   2.0000     -10.013004      -272.4677
   5   2.0000      -0.986136       -26.8341
   6   2.0000      -0.750442       -20.4206
   7   2.0000      -0.692979       -18.8569
   8   2.0000      -0.600166       -16.3314
   9   2.0000      -0.562516       -15.3068
  10   2.0000      -0.448432       -12.2025
  11   2.0000      -0.437193       -11.8966
  12   2.0000      -0.410470       -11.1695
  13   2.0000      -0.390595       -10.6286
  14   2.0000      -0.375208       -10.2099
  15   2.0000      -0.340089        -9.2543
  16   2.0000      -0.335925        -9.1410
  17   2.0000      -0.312880        -8.5139
  18   2.0000      -0.308407        -8.3922
  19   2.0000      -0.282613        -7.6903
  20   2.0000      -0.233873        -6.3640
  21   0.0000       0.069658         1.8955
  22   0.0000       0.111229         3.0267
  23   0.0000       0.112732         3.0676
  24   0.0000       0.124513         3.3882
  25   0.0000       0.142242         3.8706

MULLIKEN ATOMIC CHARGES
-----------------------
   0 C :   -0.490572
   1 C :   -0.221125
   2 C :    0.012941
   3 H :    0.134031
   4 C :   -0.472378
   5 O :   -0.411489
   6 H :    0.142516
   7 H :    0.165812
   8 H :    0.144551
   9 H :    0.133702
  10 H :    0.132052
  11 H :    0.162254
  12 H :    0.134837
  13 H :    0.144180
  14 H :    0.288688
Sum of atomic charges:   -0.0000000

LOEWDIN ATOMIC CHARGES
----------------------
   0 C :   -0.421115
   1 C :   -0.298018
   2 C :    0.039943
   3 H :    0.179402
   4 C :   -0.401435
   5 O :   -0.608572
   6 H :    0.151393
   7 H :    0.161398
   8 H :    0.148977
   9 H :    0.157844
  10 H :    0.154045
  11 H :    0.160995
  12 H :    0.152921
  13 H :    0.157032
  14 H :    0.265188

  Mayer bond orders larger than 0.100000
B(  0-C ,  1-C ) :   0.9058 B(  0-C ,  6-H ) :   0.9818 B(  0-C ,  7-H ) :   0.9770
B(  0-C ,  8-H ) :   0.9756 B(  1-C ,  2-C ) :   0.9467 B(  1-C ,  9-H ) :   0.9625
B(  1-C , 10-H ) :   0.9704 B(  2-C ,  3-H ) :   0.9496 B(  2-C ,  4-C ) :   0.9456
B(  2-C ,  5-O ) :   0.9073 B(  4-C , 11-H ) :   0.9747 B(  4-C , 12-H ) :   0.9734
B(  4-C , 13-H ) :   0.9753 B(  5-O , 14-H ) :   0.8971

Dispersion correction           -0.003154092
FINAL SINGLE POINT ENERGY      -233.604342312405

DIPOLE MOMENT
-------------

Method             : SCF
Type of density    : Electron Density
Multiplicity       :   1
Irrep              :   0
Energy             :  -233.6093788812864318 Eh
Relativity type    :
Basis              : AO
                                X                 Y                 Z
Electronic contribution:     -1.320874932      -2.714512757      -0.163563237
Nuclear contribution   :      1.291377248       3.210896305       0.509495622
                        -----------------------------------------
Total Dipole Moment    :     -0.029497684       0.496383548       0.345932385
                        -----------------------------------------
Magnitude (a.u.)       :      0.605752387
Magnitude (Debye)      :      1.539700206

Rotational constants in cm-1:             0.266769             0.115886             0.090088
Rotational constants in MHz :          7997.532363          3474.173198          2700.759724

                             ****ORCA TERMINATED NORMALLY****
TOTAL RUN TIME: 0 days 0 hours 0 minutes 10 seconds 436 msec
