                         Program Version 6.0.1  -  RELEASE   -
|  1> ! pbe def2-sv(p) def2/J RI DEFGRID1 loosescf d4 GCP(DFT/SV(P)) printgap
|  2> %output
|  3>     printlevel normal
|  4> end
|  5> * xyz 0 1
|  6> C -2.3889475116 -0.9115544628 0.4026710215
|  7> C -0.942274573 -0.4445435709 0.6154340725
|  8> H -0.6767708645 -0.5576045685 1.6789285383
|  9> C -0.7444948752 1.0311312277 0.199544171
| 10> H -1.5052479513 1.3064893027 -0.5426092722
| 11> C 0.643236108 1.2307180557 -0.4626986295
| 12> H 0.9060763623 2.2885770243 -0.345496659
| 13> C 1.666158193 0.3586173722 0.2721881317
| 14> H 2.6548111359 0.4667527896 -0.1907411654
| 15> C 1.2624809597 -1.1264802242 0.0845754564
| 16> H 1.5341344711 -1.6779033384 1.0055000289
| 17> O -0.1222751517 -1.2965378878 -0.1621900793
| 18> O 1.9315595879 -1.6169602453 -1.0271340758
| 19> O 1.7804317562 0.6944451137 1.6274086331
| 20> O 0.6156930073 0.970247948 -1.835054274
| 21> O -0.8005478285 1.8819715356 1.3293253167
| 22> O -2.8320018842 -0.6787775684 -0.9036959589
| 23> H -3.059846701 -0.3553900461 1.0617096018
| 24> H -2.4484102506 -1.9792780421 0.6546574343
| 25> H 1.6648052997 -2.5319874139 -1.1775138468
| 26> H 1.0083292514 1.2186564018 1.8875916809
| 27> H 0.7451820204 0.0223661524 -1.97609997
| 28> H -1.7135822832 1.9650627116 1.62308503
| 29> H -2.1988399792 -1.0849068081 -1.5080969582
| 30> *
| 31>
| 32>                          ****END OF INPUT****

CARTESIAN COORDINATES (ANGSTROEM)
---------------------------------
  C     -2.388948   -0.911554    0.402671
  C     -0.942275   -0.444544    0.615434
  H     -0.676771   -0.557605    1.678929
  C     -0.744495    1.031131    0.199544
  H     -1.505248    1.306489   -0.542609
  C      0.643236    1.230718   -0.462699
  H      0.906076    2.288577   -0.345497
  C      1.666158    0.358617    0.272188
  H      2.654811    0.466753   -0.190741
  C      1.262481   -1.126480    0.084575
  H      1.534134   -1.677903    1.005500
  O     -0.122275   -1.296538   -0.162190
  O      1.931560   -1.616960   -1.027134
  O      1.780432    0.694445    1.627409
  O      0.615693    0.970248   -1.835054
  O     -0.800548    1.881972    1.329325
  O     -2.832002   -0.678778   -0.903696
  H     -3.059847   -0.355390    1.061710
  H     -2.448410   -1.979278    0.654657
  H      1.664805   -2.531987   -1.177514
  H      1.008329    1.218656    1.887592
  H      0.745182    0.022366   -1.976100
  H     -1.713582    1.965063    1.623085
  H     -2.198840   -1.084907   -1.508097

 Total Charge           Charge          ....    0
 Multiplicity           Mult            ....    1
 Number of Electrons    NEL             ....   96
 Basis Dimension        Dim             ....  192

ORBITAL ENERGIES
----------------

  NO   OCC          E(Eh)            E(eV)
   0   2.0000     -18.783783      -511.1327
   1   2.0000     -18.780344      -511.0391
   2   2.0000     -18.778132      -510.9790
   3   2.0000     -18.758720      -510.4507
   4   2.0000     -18.746148      -510.1086
   5   2.0000     -18.745705      -510.0966
   6   2.0000      -9.993219      -271.9293
   7   2.0000      -9.952474      -270.8206
   8   2.0000      -9.945952      -270.6431
   9   2.0000      -9.945450      -270.6294
  10   2.0000      -9.943528      -270.5771
  11   2.0000      -9.940400      -270.4920
  12   2.0000      -0.999117       -27.1874
  13   2.0000      -0.955793       -26.0084
  14   2.0000      -0.942798       -25.6548
  15   2.0000      -0.930664       -25.3247
  16   2.0000      -0.924886       -25.1674
  17   2.0000      -0.921192       -25.0669
  18   2.0000      -0.705156       -19.1883
  19   2.0000      -0.688355       -18.7311
  20   2.0000      -0.636848       -17.3295
  21   2.0000      -0.583352       -15.8738
  22   2.0000      -0.578314       -15.7367
  23   2.0000      -0.521381       -14.1875
  24   2.0000      -0.509713       -13.8700
  25   2.0000      -0.506322       -13.7777
  26   2.0000      -0.497786       -13.5454
  27   2.0000      -0.470161       -12.7937
  28   2.0000      -0.452202       -12.3051
  29   2.0000      -0.426921       -11.6171
  30   2.0000      -0.420060       -11.4304
  31   2.0000      -0.403591       -10.9823
  32   2.0000      -0.389382       -10.5956
  33   2.0000      -0.380059       -10.3419
  34   2.0000      -0.364968        -9.9313
  35   2.0000      -0.360567        -9.8115
  36   2.0000      -0.332730        -9.0541
  37   2.0000      -0.331172        -9.0117
  38   2.0000      -0.325958        -8.8698
  39   2.0000      -0.302686        -8.2365
  40   2.0000      -0.286645        -7.8000
  41   2.0000      -0.271086        -7.3766
  42   2.0000      -0.267242        -7.2720
  43   2.0000      -0.256925        -6.9913
  44   2.0000      -0.235759        -6.4153
  45   2.0000      -0.231766        -6.3067
  46   2.0000      -0.213484        -5.8092
  47   2.0000      -0.208263        -5.6671
  48   0.0000      -0.000573        -0.0156
  49   0.0000       0.016434         0.4472
  50   0.0000       0.032526         0.8851
  51   0.0000       0.049345         1.3427
  52   0.0000       0.064548         1.7564

MULLIKEN ATOMIC CHARGES
-----------------------
   0 C :    0.086886
   1 C :   -0.024980
   2 H :    0.055241
   3 C :    0.024664
   4 H :    0.081104
   5 C :    0.035034
   6 H :    0.086876
   7 C :    0.015469
   8 H :    0.093458
   9 C :    0.169575
  10 H :    0.069909
  11 O :   -0.327894
  12 O :   -0.381102
  13 O :   -0.420865
  14 O :   -0.404404
  15 O :   -0.416833
  16 O :   -0.425388
  17 H :    0.076514
  18 H :    0.084129
  19 H :    0.308140
  20 H :    0.309461
  21 H :    0.291983
  22 H :    0.312000
  23 H :    0.301021
Sum of atomic charges:    0.0000000

LOEWDIN ATOMIC CHARGES
----------------------
   0 C :   -0.124589
   1 C :   -0.089293
   2 H :    0.104583
   3 C :   -0.085496
   4 H :    0.115537
   5 C :   -0.069052
   6 H :    0.120692
   7 C :   -0.085153
   8 H :    0.121731
   9 C :   -0.006325
  10 H :    0.093530
  11 O :   -0.171101
  12 O :   -0.289745
  13 O :   -0.316998
  14 O :   -0.308775
  15 O :   -0.313254
  16 O :   -0.324620
  17 H :    0.111213
  18 H :    0.104581
  19 H :    0.291117
  20 H :    0.275889
  21 H :    0.268765
  22 H :    0.293525
  23 H :    0.283240

  Mayer bond orders larger than 0.100000
B(  0-C ,  1-C ) :   1.0402 B(  0-C , 16-O ) :   1.0751 B(  0-C , 17-H ) :   0.9227
B(  0-C , 18-H ) :   0.9098 B(  1-C ,  2-H ) :   0.8631 B(  1-C ,  3-C ) :   0.9872
B(  1-C , 11-O ) :   1.0175 B(  3-C ,  4-H ) :   0.8710 B(  3-C ,  5-C ) :   0.9703
B(  3-C , 15-O ) :   1.0256 B(  5-C ,  6-H ) :   0.8943 B(  5-C ,  7-C ) :   1.0393
B(  5-C , 14-O ) :   1.0919 B(  7-C ,  8-H ) :   0.8958 B(  7-C ,  9-C ) :   0.9370
B(  7-C , 13-O ) :   1.0869 B(  9-C , 10-H ) :   0.8989 B(  9-C , 11-O ) :   0.9991
B(  9-C , 12-O ) :   1.1258 B( 12-O , 19-H ) :   0.8407 B( 13-O , 20-H ) :   0.8099
B( 14-O , 21-H ) :   0.8270 B( 15-O , 22-H ) :   0.8422 B( 16-O , 23-H ) :   0.8401

Dispersion correction           -0.025358239
FINAL SINGLE POINT ENERGY      -685.693856259781

DIPOLE MOMENT
-------------

Method             : SCF
Type of density    : Electron Density
Multiplicity       :   1
Irrep              :   0
Energy             :  -685.8277879709793297 Eh
Relativity type    :
Basis              : AO
                                X                 Y                 Z
Electronic contribution:      2.189127612       0.003019644      -1.576438969
Nuclear contribution   :     -2.889858134      -0.863009625       2.022297144
                        -----------------------------------------
Total Dipole Moment    :     -0.700730522      -0.859989980       0.445858176
                        -----------------------------------------
Magnitude (a.u.)       :      1.195573312
Magnitude (Debye)      :      3.038905853

Rotational constants in cm-1:             0.039421             0.028771             0.023358
Rotational constants in MHz :          1181.801931           862.535537           700.241887

                             ****ORCA TERMINATED NORMALLY****
TOTAL RUN TIME: 0 days 0 hours 17 minutes 30 seconds 902 msec
