                         Program Version 6.0.1  -  RELEASE   -
|  1> ! r2scan-3c def2/J RI DEFGRID2 scfconv6 printgap
|  2> %output
|  3>     printlevel normal
|  4> end
|  5> * xyz 0 1
|  6> C -2.1926782668 0.1954944005 0.4893393616
|  7> C -1.0417403566 0.3409727836 -0.4987627281
|  8> C 0.0413589035 -0.7388847214 -0.289352344
|  9> C 1.3321767195 -0.1574662043 0.0161166745
| 10> C 2.3857517784 0.3499121329 0.269603901
| 11> H -2.9393614133 0.9682595862 0.3191053071
| 12> H -2.6743065938 -0.7744504423 0.3790969925
| 13> H -1.8318819415 0.2886943905 1.511717758
| 14> H -1.4317045357 0.2780569505 -1.5164247704
| 15> H -0.5931590187 1.3296912736 -0.3819872822
| 16> H 0.1446432869 -1.3586629278 -1.1840028775
| 17> H -0.2436170164 -1.3962908128 0.5368714608
| 18> H 3.3146011497 0.7835322158 0.4911995859
| 19> *
| 20>
| 21>                          ****END OF INPUT****

CARTESIAN COORDINATES (ANGSTROEM)
---------------------------------
  C     -2.192678    0.195494    0.489339
  C     -1.041740    0.340973   -0.498763
  C      0.041359   -0.738885   -0.289352
  C      1.332177   -0.157466    0.016117
  C      2.385752    0.349912    0.269604
  H     -2.939361    0.968260    0.319105
  H     -2.674307   -0.774450    0.379097
  H     -1.831882    0.288694    1.511718
  H     -1.431705    0.278057   -1.516425
  H     -0.593159    1.329691   -0.381987
  H      0.144643   -1.358663   -1.184003
  H     -0.243617   -1.396291    0.536871
  H      3.314601    0.783532    0.491200

 Total Charge           Charge          ....    0
 Multiplicity           Mult            ....    1
 Number of Electrons    NEL             ....   38
 Basis Dimension        Dim             ....  135

ORBITAL ENERGIES
----------------

  NO   OCC          E(Eh)            E(eV)
   0   2.0000     -10.055935      -273.6359
   1   2.0000     -10.037244      -273.1273
   2   2.0000     -10.029740      -272.9231
   3   2.0000     -10.023703      -272.7588
   4   2.0000     -10.014724      -272.5145
   5   2.0000      -0.780396       -21.2357
   6   2.0000      -0.714841       -19.4518
   7   2.0000      -0.659899       -17.9568
   8   2.0000      -0.571714       -15.5571
   9   2.0000      -0.498049       -13.5526
  10   2.0000      -0.446883       -12.1603
  11   2.0000      -0.434149       -11.8138
  12   2.0000      -0.391404       -10.6507
  13   2.0000      -0.384980       -10.4758
  14   2.0000      -0.334484        -9.1018
  15   2.0000      -0.324807        -8.8385
  16   2.0000      -0.310115        -8.4387
  17   2.0000      -0.242494        -6.5986
  18   2.0000      -0.241902        -6.5825
  19   0.0000       0.025038         0.6813
  20   0.0000       0.027363         0.7446
  21   0.0000       0.088965         2.4208
  22   0.0000       0.109801         2.9878
  23   0.0000       0.127842         3.4788

MULLIKEN ATOMIC CHARGES
-----------------------
   0 C :   -0.487866
   1 C :   -0.224178
   2 C :   -0.405152
   3 C :    0.040085
   4 C :   -0.168669
   5 H :    0.145096
   6 H :    0.149099
   7 H :    0.150607
   8 H :    0.141745
   9 H :    0.165214
  10 H :    0.167348
  11 H :    0.170308
  12 H :    0.156362
Sum of atomic charges:   -0.0000000

LOEWDIN ATOMIC CHARGES
----------------------
   0 C :   -0.422666
   1 C :   -0.296878
   2 C :   -0.280147
   3 C :   -0.080531
   4 C :   -0.223381
   5 H :    0.152354
   6 H :    0.149052
   7 H :    0.151896
   8 H :    0.154143
   9 H :    0.163138
  10 H :    0.176810
  11 H :    0.177315
  12 H :    0.178894

  Mayer bond orders larger than 0.100000
B(  0-C ,  1-C ) :   0.8982 B(  0-C ,  5-H ) :   0.9696 B(  0-C ,  6-H ) :   0.9827
B(  0-C ,  7-H ) :   0.9762 B(  1-C ,  2-C ) :   0.8180 B(  1-C ,  8-H ) :   0.9700
B(  1-C ,  9-H ) :   0.9838 B(  2-C ,  3-C ) :   0.9982 B(  2-C , 10-H ) :   0.9805
B(  2-C , 11-H ) :   0.9858 B(  3-C ,  4-C ) :   2.6098 B(  4-C , 12-H ) :   1.0457

Dispersion correction           -0.002691265
FINAL SINGLE POINT ENERGY      -195.204829251110

DIPOLE MOMENT
-------------

Method             : SCF
Type of density    : Electron Density
Multiplicity       :   1
Irrep              :   0
Energy             :  -195.2068500349836881 Eh
Relativity type    :
Basis              : AO
                                X                 Y                 Z
Electronic contribution:      5.489555996      -0.180433563      -0.229002247
Nuclear contribution   :     -5.868023876       0.111482413       0.145956183
                        -----------------------------------------
Total Dipole Moment    :     -0.378467881      -0.068951150      -0.083046064
                        -----------------------------------------
Magnitude (a.u.)       :      0.393559203
Magnitude (Debye)      :      1.000347996

Rotational constants in cm-1:             0.513873             0.081893             0.078877
Rotational constants in MHz :         15405.526146          2455.076410          2364.683623

                             ****ORCA TERMINATED NORMALLY****
TOTAL RUN TIME: 0 days 0 hours 0 minutes 10 seconds 468 msec
