                         Program Version 6.0.1  -  RELEASE   -
|  1> ! pbe def2-sv(p) def2/J RI DEFGRID1 loosescf d4 GCP(DFT/SV(P)) printgap
|  2> %output
|  3>     printlevel normal
|  4> end
|  5> * xyz 0 1
|  6> C 1.6862524757 0.3961870313 0.6284610867
|  7> C 0.8932261964 0.3698935724 -0.6725179026
|  8> C -0.5663272058 -0.0599824752 -0.4856224932
|  9> H -1.0582827005 -0.0168800592 -1.4746126502
| 10> C -1.3358430642 0.8470823664 0.4747970167
| 11> O -0.5601511408 -1.4013146204 -0.0330612993
| 12> H 2.74114404 0.5543188515 0.4175658998
| 13> H 1.5732325949 -0.5536485912 1.1436978873
| 14> H 1.3461816947 1.1962705653 1.2809146175
| 15> H 1.3557210076 -0.3451908491 -1.3548204849
| 16> H 0.9093945915 1.3533440987 -1.1458397163
| 17> H -2.3927519801 0.5829224101 0.4794862927
| 18> H -0.9494275283 0.7385950896 1.4846651117
| 19> H -1.2420046864 1.8848643187 0.1671882881
| 20> H -1.4627576396 -1.659163537 0.1805940896
| 21> *
| 22>
| 23>                          ****END OF INPUT****

CARTESIAN COORDINATES (ANGSTROEM)
---------------------------------
  C      1.686252    0.396187    0.628461
  C      0.893226    0.369894   -0.672518
  C     -0.566327   -0.059982   -0.485622
  H     -1.058283   -0.016880   -1.474613
  C     -1.335843    0.847082    0.474797
  O     -0.560151   -1.401315   -0.033061
  H      2.741144    0.554319    0.417566
  H      1.573233   -0.553649    1.143698
  H      1.346182    1.196271    1.280915
  H      1.355721   -0.345191   -1.354820
  H      0.909395    1.353344   -1.145840
  H     -2.392752    0.582922    0.479486
  H     -0.949428    0.738595    1.484665
  H     -1.242005    1.884864    0.167188
  H     -1.462758   -1.659164    0.180594

 Total Charge           Charge          ....    0
 Multiplicity           Mult            ....    1
 Number of Electrons    NEL             ....   42
 Basis Dimension        Dim             ....   90

ORBITAL ENERGIES
----------------

  NO   OCC          E(Eh)            E(eV)
   0   2.0000     -18.737943      -509.8854
   1   2.0000      -9.934559      -270.3331
   2   2.0000      -9.878589      -268.8101
   3   2.0000      -9.876120      -268.7429
   4   2.0000      -9.865373      -268.4504
   5   2.0000      -0.917526       -24.9672
   6   2.0000      -0.704096       -19.1594
   7   2.0000      -0.643318       -17.5056
   8   2.0000      -0.576538       -15.6884
   9   2.0000      -0.503866       -13.7109
  10   2.0000      -0.452487       -12.3128
  11   2.0000      -0.413937       -11.2638
  12   2.0000      -0.383718       -10.4415
  13   2.0000      -0.372961       -10.1488
  14   2.0000      -0.345216        -9.3938
  15   2.0000      -0.338609        -9.2140
  16   2.0000      -0.310558        -8.4507
  17   2.0000      -0.296148        -8.0586
  18   2.0000      -0.288693        -7.8557
  19   2.0000      -0.265050        -7.2124
  20   2.0000      -0.210552        -5.7294
  21   0.0000       0.023025         0.6266
  22   0.0000       0.065449         1.7809
  23   0.0000       0.073910         2.0112
  24   0.0000       0.087879         2.3913
  25   0.0000       0.091070         2.4781

MULLIKEN ATOMIC CHARGES
-----------------------
   0 C :   -0.296731
   1 C :   -0.155546
   2 C :    0.021922
   3 H :    0.057181
   4 C :   -0.289559
   5 O :   -0.424465
   6 H :    0.100320
   7 H :    0.115722
   8 H :    0.098551
   9 H :    0.090504
  10 H :    0.082733
  11 H :    0.094445
  12 H :    0.112544
  13 H :    0.099392
  14 H :    0.292987
Sum of atomic charges:    0.0000000

LOEWDIN ATOMIC CHARGES
----------------------
   0 C :   -0.345556
   1 C :   -0.236274
   2 C :   -0.058887
   3 H :    0.093148
   4 C :   -0.357092
   5 O :   -0.332272
   6 H :    0.119164
   7 H :    0.123628
   8 H :    0.114193
   9 H :    0.121291
  10 H :    0.116392
  11 H :    0.114161
  12 H :    0.122434
  13 H :    0.124425
  14 H :    0.281244

  Mayer bond orders larger than 0.100000
B(  0-C ,  1-C ) :   1.1500 B(  0-C ,  6-H ) :   0.9520 B(  0-C ,  7-H ) :   0.9489
B(  0-C ,  8-H ) :   0.9512 B(  1-C ,  2-C ) :   1.0815 B(  1-C ,  9-H ) :   0.9199
B(  1-C , 10-H ) :   0.9246 B(  2-C ,  3-H ) :   0.9089 B(  2-C ,  4-C ) :   1.1047
B(  2-C ,  5-O ) :   1.0540 B(  4-C , 11-H ) :   0.9458 B(  4-C , 12-H ) :   0.9382
B(  4-C , 13-H ) :   0.9396 B(  5-O , 14-H ) :   0.8546

Dispersion correction           -0.009832741
FINAL SINGLE POINT ENERGY      -233.091873133268

DIPOLE MOMENT
-------------

Method             : SCF
Type of density    : Electron Density
Multiplicity       :   1
Irrep              :   0
Energy             :  -233.1514510791716361 Eh
Relativity type    :
Basis              : AO
                                X                 Y                 Z
Electronic contribution:     -1.279197931      -3.227764495      -1.114609507
Nuclear contribution   :      0.761403225       3.483651615       1.105453689
                        -----------------------------------------
Total Dipole Moment    :     -0.517794705       0.255887121      -0.009155818
                        -----------------------------------------
Magnitude (a.u.)       :      0.577644704
Magnitude (Debye)      :      1.468256155

Rotational constants in cm-1:             0.215301             0.131286             0.107458
Rotational constants in MHz :          6454.567481          3935.849240          3221.517141

                             ****ORCA TERMINATED NORMALLY****
TOTAL RUN TIME: 0 days 0 hours 0 minutes 3 seconds 737 msec
