                         Program Version 6.0.1  -  RELEASE   -
|  1> ! pbe def2-sv(p) def2/J RI DEFGRID1 loosescf d4 GCP(DFT/SV(P)) printgap
|  2> %output
|  3>     printlevel normal
|  4> end
|  5> * xyz 0 1
|  6> C -1.7546706292 -1.0457990605 -0.6823367777
|  7> C -1.1123813336 -0.5066232488 0.6165455225
|  8> H -1.8245161714 -0.6467198852 1.4401901019
|  9> C -0.7413223477 0.9798893899 0.5764407469
| 10> H -1.6196392157 1.5800506037 0.3140322777
| 11> C 0.3787066835 1.2334049453 -0.4502365198
| 12> H 0.706326318 2.2818560832 -0.3440073365
| 13> C 1.5903209424 0.3520984719 -0.095748077
| 14> H 2.2651007435 0.2788837829 -0.9584786711
| 15> C 1.1999435154 -1.1048709114 0.2545841845
| 16> H 1.991703032 -1.504506026 0.9108195694
| 17> O 0.0333567533 -1.2513307519 1.0245130649
| 18> O 1.1509909143 -1.8239229421 -0.9435124752
| 19> O 2.3315774124 0.9389420915 0.938149677
| 20> O -0.1353111176 1.0220149171 -1.7410922146
| 21> O -0.2888744169 1.3872300146 1.855248043
| 22> O -2.703965587 -0.1658203674 -1.2175931255
| 23> H -2.2830503879 -1.9730488414 -0.4437961703
| 24> H -0.9716146768 -1.2621468702 -1.4137975284
| 25> H 0.9351017204 -2.743647755 -0.7480491246
| 26> H 1.7073404398 1.2877774294 1.5952363188
| 27> H 0.5959524842 0.9594486468 -2.3654748126
| 28> H -0.2019881064 0.598167907 2.4072428143
| 29> H -2.2199335692 0.5387383284 -1.6687053949
| 30> *
| 31>
| 32>                          ****END OF INPUT****

CARTESIAN COORDINATES (ANGSTROEM)
---------------------------------
  C     -1.754671   -1.045799   -0.682337
  C     -1.112381   -0.506623    0.616546
  H     -1.824516   -0.646720    1.440190
  C     -0.741322    0.979889    0.576441
  H     -1.619639    1.580051    0.314032
  C      0.378707    1.233405   -0.450237
  H      0.706326    2.281856   -0.344007
  C      1.590321    0.352098   -0.095748
  H      2.265101    0.278884   -0.958479
  C      1.199944   -1.104871    0.254584
  H      1.991703   -1.504506    0.910820
  O      0.033357   -1.251331    1.024513
  O      1.150991   -1.823923   -0.943512
  O      2.331577    0.938942    0.938150
  O     -0.135311    1.022015   -1.741092
  O     -0.288874    1.387230    1.855248
  O     -2.703966   -0.165820   -1.217593
  H     -2.283050   -1.973049   -0.443796
  H     -0.971615   -1.262147   -1.413798
  H      0.935102   -2.743648   -0.748049
  H      1.707340    1.287777    1.595236
  H      0.595952    0.959449   -2.365475
  H     -0.201988    0.598168    2.407243
  H     -2.219934    0.538738   -1.668705

 Total Charge           Charge          ....    0
 Multiplicity           Mult            ....    1
 Number of Electrons    NEL             ....   96
 Basis Dimension        Dim             ....  192

ORBITAL ENERGIES
----------------

  NO   OCC          E(Eh)            E(eV)
   0   2.0000     -18.783762      -511.1321
   1   2.0000     -18.779339      -511.0118
   2   2.0000     -18.775773      -510.9148
   3   2.0000     -18.769853      -510.7537
   4   2.0000     -18.748388      -510.1696
   5   2.0000     -18.737542      -509.8744
   6   2.0000      -9.990999      -271.8689
   7   2.0000      -9.954972      -270.8886
   8   2.0000      -9.954288      -270.8699
   9   2.0000      -9.950678      -270.7717
  10   2.0000      -9.949686      -270.7447
  11   2.0000      -9.923577      -270.0342
  12   2.0000      -0.993236       -27.0273
  13   2.0000      -0.959196       -26.1011
  14   2.0000      -0.949778       -25.8448
  15   2.0000      -0.928533       -25.2667
  16   2.0000      -0.921321       -25.0704
  17   2.0000      -0.914742       -24.8914
  18   2.0000      -0.709516       -19.3069
  19   2.0000      -0.692128       -18.8338
  20   2.0000      -0.628535       -17.1033
  21   2.0000      -0.588955       -16.0263
  22   2.0000      -0.581071       -15.8117
  23   2.0000      -0.535016       -14.5585
  24   2.0000      -0.509634       -13.8678
  25   2.0000      -0.497083       -13.5263
  26   2.0000      -0.482360       -13.1257
  27   2.0000      -0.459522       -12.5042
  28   2.0000      -0.449421       -12.2294
  29   2.0000      -0.431569       -11.7436
  30   2.0000      -0.410930       -11.1820
  31   2.0000      -0.406002       -11.0479
  32   2.0000      -0.391282       -10.6473
  33   2.0000      -0.385629       -10.4935
  34   2.0000      -0.371097       -10.0981
  35   2.0000      -0.361444        -9.8354
  36   2.0000      -0.345714        -9.4074
  37   2.0000      -0.327985        -8.9249
  38   2.0000      -0.319252        -8.6873
  39   2.0000      -0.303335        -8.2542
  40   2.0000      -0.287202        -7.8152
  41   2.0000      -0.271065        -7.3761
  42   2.0000      -0.260681        -7.0935
  43   2.0000      -0.245585        -6.6827
  44   2.0000      -0.243652        -6.6301
  45   2.0000      -0.233530        -6.3547
  46   2.0000      -0.218417        -5.9434
  47   2.0000      -0.205524        -5.5926
  48   0.0000       0.005383         0.1465
  49   0.0000       0.019806         0.5389
  50   0.0000       0.031415         0.8549
  51   0.0000       0.052130         1.4185
  52   0.0000       0.064394         1.7523

MULLIKEN ATOMIC CHARGES
-----------------------
   0 C :    0.037645
   1 C :   -0.026737
   2 H :    0.082040
   3 C :    0.021512
   4 H :    0.086789
   5 C :    0.061731
   6 H :    0.084775
   7 C :    0.011536
   8 H :    0.073290
   9 C :    0.208004
  10 H :    0.072857
  11 O :   -0.322730
  12 O :   -0.395630
  13 O :   -0.420895
  14 O :   -0.416900
  15 O :   -0.420004
  16 O :   -0.442245
  17 H :    0.079844
  18 H :    0.094051
  19 H :    0.303455
  20 H :    0.292176
  21 H :    0.317464
  22 H :    0.312323
  23 H :    0.305649
Sum of atomic charges:    0.0000000

LOEWDIN ATOMIC CHARGES
----------------------
   0 C :   -0.152310
   1 C :   -0.076281
   2 H :    0.116983
   3 C :   -0.069406
   4 H :    0.117415
   5 C :   -0.075446
   6 H :    0.108233
   7 C :   -0.083050
   8 H :    0.116650
   9 C :   -0.007532
  10 H :    0.101712
  11 O :   -0.149547
  12 O :   -0.309187
  13 O :   -0.315638
  14 O :   -0.301918
  15 O :   -0.307418
  16 O :   -0.335913
  17 H :    0.110384
  18 H :    0.103902
  19 H :    0.285998
  20 H :    0.269250
  21 H :    0.295082
  22 H :    0.284958
  23 H :    0.273080

  Mayer bond orders larger than 0.100000
B(  0-C ,  1-C ) :   1.0273 B(  0-C , 16-O ) :   1.1014 B(  0-C , 17-H ) :   0.9176
B(  0-C , 18-H ) :   0.8935 B(  1-C ,  2-H ) :   0.8925 B(  1-C ,  3-C ) :   1.0467
B(  1-C , 11-O ) :   0.9564 B(  3-C ,  4-H ) :   0.8879 B(  3-C ,  5-C ) :   0.9724
B(  3-C , 15-O ) :   1.0499 B(  5-C ,  6-H ) :   0.9046 B(  5-C ,  7-C ) :   0.9844
B(  5-C , 14-O ) :   1.0444 B(  7-C ,  8-H ) :   0.8902 B(  7-C ,  9-C ) :   0.9618
B(  7-C , 13-O ) :   1.0706 B(  9-C , 10-H ) :   0.9029 B(  9-C , 11-O ) :   1.0445
B(  9-C , 12-O ) :   1.0932 B( 12-O , 19-H ) :   0.8359 B( 13-O , 20-H ) :   0.8067
B( 14-O , 21-H ) :   0.8347 B( 15-O , 20-H ) :   0.1150 B( 15-O , 22-H ) :   0.8233
B( 16-O , 23-H ) :   0.8217

Dispersion correction           -0.026511387
FINAL SINGLE POINT ENERGY      -685.693954704443

DIPOLE MOMENT
-------------

Method             : SCF
Type of density    : Electron Density
Multiplicity       :   1
Irrep              :   0
Energy             :  -685.8290835854337502 Eh
Relativity type    :
Basis              : AO
                                X                 Y                 Z
Electronic contribution:      1.232877891       0.146792224       1.070119535
Nuclear contribution   :     -0.856637613      -0.566143630      -1.197216637
                        -----------------------------------------
Total Dipole Moment    :      0.376240278      -0.419351406      -0.127097102
                        -----------------------------------------
Magnitude (a.u.)       :      0.577551748
Magnitude (Debye)      :      1.468019878

Rotational constants in cm-1:             0.041113             0.029678             0.026368
Rotational constants in MHz :          1232.540331           889.736452           790.487252

                             ****ORCA TERMINATED NORMALLY****
TOTAL RUN TIME: 0 days 0 hours 0 minutes 8 seconds 102 msec
