                         Program Version 6.0.1  -  RELEASE   -
|  1> ! r2scan-3c def2/J RI DEFGRID2 scfconv6 printgap
|  2> %output
|  3>     printlevel normal
|  4> end
|  5> * xyz 0 1
|  6> C 1.9766258504 0.0059413446 -0.651543104
|  7> C 1.2681017947 -0.3465071536 0.6510938382
|  8> C -0.239972291 -0.5328423484 0.5078681961
|  9> H -0.6685515098 -0.7652415553 1.4873390428
| 10> C -0.6441700159 -1.5932555268 -0.5005110393
| 11> Cl -0.9901658332 1.0312779433 0.0327032025
| 12> H 1.5124585421 0.8757122407 -1.1094208731
| 13> H 1.9409607749 -0.8218042061 -1.3547628307
| 14> H 3.0199894365 0.2378252619 -0.4529526902
| 15> H 1.4491032735 0.4440039526 1.3825041148
| 16> H 1.6803884432 -1.2748051931 1.0550981745
| 17> H -0.338855441 -1.3093426302 -1.5036156039
| 18> H -0.1738514568 -2.5396538189 -0.2408245388
| 19> H -1.7232009609 -1.7271379591 -0.4960241026
| 20> *
| 21>
| 22>                          ****END OF INPUT****

CARTESIAN COORDINATES (ANGSTROEM)
---------------------------------
  C      1.976626    0.005941   -0.651543
  C      1.268102   -0.346507    0.651094
  C     -0.239972   -0.532842    0.507868
  H     -0.668552   -0.765242    1.487339
  C     -0.644170   -1.593256   -0.500511
  Cl    -0.990166    1.031278    0.032703
  H      1.512459    0.875712   -1.109421
  H      1.940961   -0.821804   -1.354763
  H      3.019989    0.237825   -0.452953
  H      1.449103    0.444004    1.382504
  H      1.680388   -1.274805    1.055098
  H     -0.338855   -1.309343   -1.503616
  H     -0.173851   -2.539654   -0.240825
  H     -1.723201   -1.727138   -0.496024

 Total Charge           Charge          ....    0
 Multiplicity           Mult            ....    1
 Number of Electrons    NEL             ....   50
 Basis Dimension        Dim             ....  148

ORBITAL ENERGIES
----------------

  NO   OCC          E(Eh)            E(eV)
   0   2.0000    -101.193497     -2753.6151
   1   2.0000     -10.097108      -274.7563
   2   2.0000     -10.040408      -273.2134
   3   2.0000     -10.032896      -273.0090
   4   2.0000     -10.021345      -272.6947
   5   2.0000      -9.349955      -254.4252
   6   2.0000      -7.095881      -193.0887
   7   2.0000      -7.086156      -192.8241
   8   2.0000      -7.086052      -192.8213
   9   2.0000      -0.830450       -22.5977
  10   2.0000      -0.736961       -20.0537
  11   2.0000      -0.696089       -18.9415
  12   2.0000      -0.620554       -16.8861
  13   2.0000      -0.533311       -14.5121
  14   2.0000      -0.453092       -12.3293
  15   2.0000      -0.438514       -11.9326
  16   2.0000      -0.410499       -11.1702
  17   2.0000      -0.378524       -10.3002
  18   2.0000      -0.363561        -9.8930
  19   2.0000      -0.353143        -9.6095
  20   2.0000      -0.323998        -8.8164
  21   2.0000      -0.318654        -8.6710
  22   2.0000      -0.312012        -8.4903
  23   2.0000      -0.262204        -7.1349
  24   2.0000      -0.260510        -7.0888
  25   0.0000       0.013988         0.3806
  26   0.0000       0.083302         2.2668
  27   0.0000       0.110569         3.0087
  28   0.0000       0.129995         3.5373
  29   0.0000       0.131869         3.5883

MULLIKEN ATOMIC CHARGES
-----------------------
   0 C :   -0.503652
   1 C :   -0.233335
   2 C :    0.046198
   3 H :    0.168820
   4 C :   -0.493805
   5 Cl:   -0.222370
   6 H :    0.171511
   7 H :    0.149329
   8 H :    0.148040
   9 H :    0.155740
  10 H :    0.139177
  11 H :    0.168619
  12 H :    0.145522
  13 H :    0.160206
Sum of atomic charges:    0.0000000

LOEWDIN ATOMIC CHARGES
----------------------
   0 C :   -0.430223
   1 C :   -0.326410
   2 C :   -0.262282
   3 H :    0.160619
   4 C :   -0.427210
   5 Cl:    0.017602
   6 H :    0.160499
   7 H :    0.150451
   8 H :    0.153619
   9 H :    0.162118
  10 H :    0.159690
  11 H :    0.161783
  12 H :    0.158907
  13 H :    0.160835

  Mayer bond orders larger than 0.100000
B(  0-C ,  1-C ) :   0.8953 B(  0-C ,  6-H ) :   0.9721 B(  0-C ,  7-H ) :   0.9789
B(  0-C ,  8-H ) :   0.9665 B(  1-C ,  2-C ) :   0.9250 B(  1-C ,  9-H ) :   0.9673
B(  1-C , 10-H ) :   0.9584 B(  2-C ,  3-H ) :   0.9514 B(  2-C ,  4-C ) :   0.9233
B(  2-C ,  5-Cl) :   0.9272 B(  4-C , 11-H ) :   0.9733 B(  4-C , 12-H ) :   0.9617
B(  4-C , 13-H ) :   0.9634

Dispersion correction           -0.003501298
FINAL SINGLE POINT ENERGY      -617.973672239621

DIPOLE MOMENT
-------------

Method             : SCF
Type of density    : Electron Density
Multiplicity       :   1
Irrep              :   0
Energy             :  -617.9789760384400097 Eh
Relativity type    :
Basis              : AO
                                X                 Y                 Z
Electronic contribution:     -7.194151262       7.105604837       1.370573483
Nuclear contribution   :      7.613276036      -7.839206360      -1.200336917
                        -----------------------------------------
Total Dipole Moment    :      0.419124775      -0.733601523       0.170236565
                        -----------------------------------------
Magnitude (a.u.)       :      0.861868470
Magnitude (Debye)      :      2.190695554

Rotational constants in cm-1:             0.161723             0.099910             0.076791
Rotational constants in MHz :          4848.346443          2995.228561          2302.147133

                             ****ORCA TERMINATED NORMALLY****
TOTAL RUN TIME: 0 days 0 hours 0 minutes 13 seconds 320 msec
