                         Program Version 6.0.1  -  RELEASE   -
|  1> ! r2scan-3c def2/J RI DEFGRID2 scfconv6 printgap
|  2> %output
|  3>     printlevel normal
|  4> end
|  5> * xyz 0 1
|  6> C 3.3046228697 -0.3329588765 0.8887979744
|  7> C 1.937432825 -0.1762172325 0.3100878634
|  8> C 1.4324835779 1.0165937045 -0.0204224228
|  9> C 0.084190655 1.2261352977 -0.5395462097
| 10> O -0.3621909044 2.3425374311 -0.7170062788
| 11> C -0.7667032513 -0.0038070426 -0.8255595684
| 12> H -1.2245934759 0.1763441392 -1.8065108479
| 13> C 0.0689423515 -1.2809899263 -0.9359114099
| 14> C 1.142645853 -1.4311477291 0.1385773859
| 15> C -1.9515353995 -0.0148376809 0.171470586
| 16> C -3.0265099857 -1.0173209486 -0.2420724038
| 17> C -1.5417247752 -0.253087984 1.6228731471
| 18> H 3.9397575446 -0.8857167132 0.1963021173
| 19> H 3.2569981898 -0.904271671 1.815360584
| 20> H 3.7637848105 0.6312097846 1.0888844294
| 21> H 2.0107757222 1.9198969569 0.1205277281
| 22> H -0.5846774257 -2.1541409687 -0.9284259768
| 23> H 0.5719429541 -1.2605809419 -1.9068941579
| 24> H 0.6975102548 -1.6893709557 1.1022553375
| 25> H 1.8109224619 -2.2538899681 -0.1299413126
| 26> H -2.3851366735 0.9901376816 0.1084086248
| 27> H -3.3422710456 -0.847300115 -1.2687009939
| 28> H -3.8951421855 -0.9142458471 0.404318434
| 29> H -2.6652166001 -2.0398699836 -0.1559958094
| 30> H -0.6965724657 0.3737846072 1.8974620452
| 31> H -1.2849623901 -1.2963065112 1.7912177028
| 32> H -2.3729825399 -0.0079856081 2.2811970283
| 33> *
| 34>
| 35>                          ****END OF INPUT****

CARTESIAN COORDINATES (ANGSTROEM)
---------------------------------
  C      3.304623   -0.332959    0.888798
  C      1.937433   -0.176217    0.310088
  C      1.432484    1.016594   -0.020422
  C      0.084191    1.226135   -0.539546
  O     -0.362191    2.342537   -0.717006
  C     -0.766703   -0.003807   -0.825560
  H     -1.224593    0.176344   -1.806511
  C      0.068942   -1.280990   -0.935911
  C      1.142646   -1.431148    0.138577
  C     -1.951535   -0.014838    0.171471
  C     -3.026510   -1.017321   -0.242072
  C     -1.541725   -0.253088    1.622873
  H      3.939758   -0.885717    0.196302
  H      3.256998   -0.904272    1.815361
  H      3.763785    0.631210    1.088884
  H      2.010776    1.919897    0.120528
  H     -0.584677   -2.154141   -0.928426
  H      0.571943   -1.260581   -1.906894
  H      0.697510   -1.689371    1.102255
  H      1.810922   -2.253890   -0.129941
  H     -2.385137    0.990138    0.108409
  H     -3.342271   -0.847300   -1.268701
  H     -3.895142   -0.914246    0.404318
  H     -2.665217   -2.039870   -0.155996
  H     -0.696572    0.373785    1.897462
  H     -1.284962   -1.296307    1.791218
  H     -2.372983   -0.007986    2.281197

 Total Charge           Charge          ....    0
 Multiplicity           Mult            ....    1
 Number of Electrons    NEL             ....   84
 Basis Dimension        Dim             ....  294

ORBITAL ENERGIES
----------------

  NO   OCC          E(Eh)            E(eV)
   0   2.0000     -18.921973      -514.8931
   1   2.0000     -10.102740      -274.9095
   2   2.0000     -10.068068      -273.9661
   3   2.0000     -10.046136      -273.3693
   4   2.0000     -10.041948      -273.2553
   5   2.0000     -10.038471      -273.1607
   6   2.0000     -10.038410      -273.1590
   7   2.0000     -10.036442      -273.1055
   8   2.0000     -10.029213      -272.9087
   9   2.0000     -10.018607      -272.6201
  10   2.0000     -10.018428      -272.6153
  11   2.0000      -0.991952       -26.9924
  12   2.0000      -0.822548       -22.3827
  13   2.0000      -0.779514       -21.2117
  14   2.0000      -0.728219       -19.8158
  15   2.0000      -0.698642       -19.0110
  16   2.0000      -0.667845       -18.1730
  17   2.0000      -0.653129       -17.7725
  18   2.0000      -0.595556       -16.2059
  19   2.0000      -0.551739       -15.0136
  20   2.0000      -0.526448       -14.3254
  21   2.0000      -0.476292       -12.9606
  22   2.0000      -0.458523       -12.4770
  23   2.0000      -0.442118       -12.0306
  24   2.0000      -0.421166       -11.4605
  25   2.0000      -0.418182       -11.3793
  26   2.0000      -0.410836       -11.1794
  27   2.0000      -0.390829       -10.6350
  28   2.0000      -0.387598       -10.5471
  29   2.0000      -0.377484       -10.2719
  30   2.0000      -0.365027        -9.9329
  31   2.0000      -0.358807        -9.7636
  32   2.0000      -0.354993        -9.6599
  33   2.0000      -0.350175        -9.5288
  34   2.0000      -0.339037        -9.2257
  35   2.0000      -0.326878        -8.8948
  36   2.0000      -0.311667        -8.4809
  37   2.0000      -0.300123        -8.1667
  38   2.0000      -0.287082        -7.8119
  39   2.0000      -0.280836        -7.6419
  40   2.0000      -0.241844        -6.5809
  41   2.0000      -0.201576        -5.4852
  42   0.0000      -0.075645        -2.0584
  43   0.0000       0.034820         0.9475
  44   0.0000       0.064373         1.7517
  45   0.0000       0.089603         2.4382
  46   0.0000       0.101012         2.7487

MULLIKEN ATOMIC CHARGES
-----------------------
   0 C :   -0.515937
   1 C :    0.189237
   2 C :   -0.294111
   3 C :    0.155894
   4 O :   -0.343479
   5 C :   -0.012699
   6 H :    0.177970
   7 C :   -0.420564
   8 C :   -0.257135
   9 C :   -0.052362
  10 C :   -0.499401
  11 C :   -0.560486
  12 H :    0.168117
  13 H :    0.157921
  14 H :    0.160067
  15 H :    0.168188
  16 H :    0.163998
  17 H :    0.167590
  18 H :    0.178280
  19 H :    0.161270
  20 H :    0.186672
  21 H :    0.151995
  22 H :    0.151299
  23 H :    0.149348
  24 H :    0.169265
  25 H :    0.145130
  26 H :    0.153932
Sum of atomic charges:   -0.0000000

LOEWDIN ATOMIC CHARGES
----------------------
   0 C :   -0.386436
   1 C :   -0.064907
   2 C :   -0.170831
   3 C :    0.226206
   4 O :   -0.471281
   5 C :   -0.191857
   6 H :    0.187460
   7 C :   -0.275082
   8 C :   -0.277753
   9 C :   -0.215142
  10 C :   -0.412301
  11 C :   -0.406702
  12 H :    0.169159
  13 H :    0.167795
  14 H :    0.163019
  15 H :    0.182543
  16 H :    0.162447
  17 H :    0.166184
  18 H :    0.176198
  19 H :    0.166394
  20 H :    0.175999
  21 H :    0.155485
  22 H :    0.156363
  23 H :    0.149176
  24 H :    0.162588
  25 H :    0.148778
  26 H :    0.156498

  Mayer bond orders larger than 0.100000
B(  0-C ,  1-C ) :   0.8360 B(  0-C , 12-H ) :   0.9674 B(  0-C , 13-H ) :   0.9609
B(  0-C , 14-H ) :   0.9932 B(  1-C ,  2-C ) :   1.6472 B(  1-C ,  8-C ) :   0.8586
B(  2-C ,  3-C ) :   1.1243 B(  2-C , 15-H ) :   0.9468 B(  3-C ,  4-O ) :   1.9219
B(  3-C ,  5-C ) :   0.9182 B(  5-C ,  6-H ) :   0.9701 B(  5-C ,  7-C ) :   0.8546
B(  5-C ,  9-C ) :   0.8625 B(  7-C ,  8-C ) :   0.9037 B(  7-C , 16-H ) :   0.9957
B(  7-C , 17-H ) :   0.9878 B(  8-C , 18-H ) :   0.9552 B(  8-C , 19-H ) :   0.9716
B(  9-C , 10-C ) :   0.8806 B(  9-C , 11-C ) :   0.8621 B(  9-C , 20-H ) :   0.9605
B( 10-C , 21-H ) :   0.9826 B( 10-C , 22-H ) :   0.9716 B( 10-C , 23-H ) :   0.9860
B( 11-C , 24-H ) :   0.9726 B( 11-C , 25-H ) :   0.9837 B( 11-C , 26-H ) :   0.9643

Dispersion correction           -0.009899913
FINAL SINGLE POINT ENERGY      -465.791305753237

DIPOLE MOMENT
-------------

Method             : SCF
Type of density    : Electron Density
Multiplicity       :   1
Irrep              :   0
Energy             :  -465.7930322706806692 Eh
Relativity type    :
Basis              : AO
                                X                 Y                 Z
Electronic contribution:      2.894351936       8.070197929      -3.931974079
Nuclear contribution   :     -2.256841903      -9.499198665       4.313813471
                        -----------------------------------------
Total Dipole Moment    :      0.637510032      -1.429000736       0.381839392
                        -----------------------------------------
Magnitude (a.u.)       :      1.610671743
Magnitude (Debye)      :      4.094002216

Rotational constants in cm-1:             0.055462             0.027968             0.023254
Rotational constants in MHz :          1662.707213           838.466615           697.129203

                             ****ORCA TERMINATED NORMALLY****
TOTAL RUN TIME: 0 days 0 hours 1 minutes 8 seconds 197 msec
