                         Program Version 6.0.1  -  RELEASE   -
|  1> ! r2scan-3c def2/J RI DEFGRID2 scfconv6 printgap
|  2> %output
|  3>     printlevel normal
|  4> end
|  5> * xyz 0 1
|  6> C -3.3902599137 -0.8227310104 -0.0914173841
|  7> O -1.9934394309 -0.7393089227 -0.3430016783
|  8> C -1.3495906189 0.3570842444 0.0750524515
|  9> O -1.8866206146 1.2665130287 0.6528620095
| 10> C 0.1246759049 0.3276909562 -0.282263776
| 11> C 0.6619981892 -1.0772739065 -0.5500887112
| 12> C 2.1399114731 -1.0103948811 -0.9273021908
| 13> C 2.9493678625 -0.3275843008 0.1710090736
| 14> C 2.4101798818 1.0748860435 0.4363786164
| 15> C 0.9363900949 1.0133245196 0.8209205534
| 16> H -3.5925679155 -1.8067687002 0.3293929344
| 17> H -3.9276609902 -0.7039337738 -1.0333455425
| 18> H -3.6895542774 -0.0385423408 0.6064421652
| 19> H 0.2195803252 0.9227199618 -1.2003499464
| 20> H 0.5411310306 -1.6857431571 0.348507992
| 21> H 0.0930452802 -1.5484447839 -1.3523212193
| 22> H 2.5202986543 -2.0195479072 -1.0973850643
| 23> H 2.2508691837 -0.4504711946 -1.8589800991
| 24> H 2.8864324353 -0.9185524524 1.087465331
| 25> H 4.0001170793 -0.2739608208 -0.120985231
| 26> H 2.9798321722 1.5480170711 1.2383997251
| 27> H 2.5273533838 1.6850335828 -0.4622176936
| 28> H 0.8238616966 0.4477386187 1.7486600616
| 29> H 0.5399465394 2.0149389096 0.9916216834
| 30> *
| 31>
| 32>                          ****END OF INPUT****

CARTESIAN COORDINATES (ANGSTROEM)
---------------------------------
  C     -3.390260   -0.822731   -0.091417
  O     -1.993439   -0.739309   -0.343002
  C     -1.349591    0.357084    0.075052
  O     -1.886621    1.266513    0.652862
  C      0.124676    0.327691   -0.282264
  C      0.661998   -1.077274   -0.550089
  C      2.139911   -1.010395   -0.927302
  C      2.949368   -0.327584    0.171009
  C      2.410180    1.074886    0.436379
  C      0.936390    1.013325    0.820921
  H     -3.592568   -1.806769    0.329393
  H     -3.927661   -0.703934   -1.033346
  H     -3.689554   -0.038542    0.606442
  H      0.219580    0.922720   -1.200350
  H      0.541131   -1.685743    0.348508
  H      0.093045   -1.548445   -1.352321
  H      2.520299   -2.019548   -1.097385
  H      2.250869   -0.450471   -1.858980
  H      2.886432   -0.918552    1.087465
  H      4.000117   -0.273961   -0.120985
  H      2.979832    1.548017    1.238400
  H      2.527353    1.685034   -0.462218
  H      0.823862    0.447739    1.748660
  H      0.539947    2.014939    0.991622

 Total Charge           Charge          ....    0
 Multiplicity           Mult            ....    1
 Number of Electrons    NEL             ....   78
 Basis Dimension        Dim             ....  270

ORBITAL ENERGIES
----------------

  NO   OCC          E(Eh)            E(eV)
   0   2.0000     -18.998109      -516.9648
   1   2.0000     -18.929874      -515.1081
   2   2.0000     -10.151104      -276.2256
   3   2.0000     -10.082411      -274.3564
   4   2.0000     -10.046736      -273.3856
   5   2.0000     -10.027053      -272.8500
   6   2.0000     -10.025603      -272.8105
   7   2.0000     -10.025495      -272.8076
   8   2.0000     -10.024628      -272.7840
   9   2.0000     -10.023505      -272.7534
  10   2.0000      -1.072352       -29.1802
  11   2.0000      -0.981305       -26.7027
  12   2.0000      -0.808731       -22.0067
  13   2.0000      -0.735557       -20.0155
  14   2.0000      -0.711220       -19.3533
  15   2.0000      -0.687348       -18.7037
  16   2.0000      -0.595757       -16.2114
  17   2.0000      -0.576517       -15.6878
  18   2.0000      -0.534663       -14.5489
  19   2.0000      -0.525304       -14.2942
  20   2.0000      -0.479215       -13.0401
  21   2.0000      -0.454294       -12.3620
  22   2.0000      -0.438312       -11.9271
  23   2.0000      -0.431676       -11.7465
  24   2.0000      -0.413771       -11.2593
  25   2.0000      -0.409528       -11.1438
  26   2.0000      -0.399242       -10.8639
  27   2.0000      -0.367007        -9.9868
  28   2.0000      -0.361653        -9.8411
  29   2.0000      -0.350028        -9.5248
  30   2.0000      -0.343621        -9.3504
  31   2.0000      -0.317647        -8.6436
  32   2.0000      -0.315993        -8.5986
  33   2.0000      -0.312332        -8.4990
  34   2.0000      -0.294846        -8.0232
  35   2.0000      -0.281684        -7.6650
  36   2.0000      -0.271474        -7.3872
  37   2.0000      -0.269244        -7.3265
  38   2.0000      -0.236154        -6.4261
  39   0.0000      -0.013796        -0.3754
  40   0.0000       0.065786         1.7901
  41   0.0000       0.094728         2.5777
  42   0.0000       0.100163         2.7256
  43   0.0000       0.107942         2.9373

MULLIKEN ATOMIC CHARGES
-----------------------
   0 C :   -0.312376
   1 O :   -0.164382
   2 C :    0.342221
   3 O :   -0.425915
   4 C :   -0.087292
   5 C :   -0.358710
   6 C :   -0.284818
   7 C :   -0.277910
   8 C :   -0.297866
   9 C :   -0.321680
  10 H :    0.146423
  11 H :    0.147225
  12 H :    0.188277
  13 H :    0.178616
  14 H :    0.160374
  15 H :    0.162860
  16 H :    0.147100
  17 H :    0.146043
  18 H :    0.140130
  19 H :    0.147180
  20 H :    0.149236
  21 H :    0.147640
  22 H :    0.151546
  23 H :    0.176077
Sum of atomic charges:   -0.0000000

LOEWDIN ATOMIC CHARGES
----------------------
   0 C :   -0.047358
   1 O :   -0.611850
   2 C :    0.371696
   3 O :   -0.436360
   4 C :   -0.150739
   5 C :   -0.274891
   6 C :   -0.302260
   7 C :   -0.304479
   8 C :   -0.301293
   9 C :   -0.271081
  10 H :    0.172936
  11 H :    0.171557
  12 H :    0.194140
  13 H :    0.185862
  14 H :    0.163223
  15 H :    0.171363
  16 H :    0.156080
  17 H :    0.155118
  18 H :    0.154649
  19 H :    0.154726
  20 H :    0.156831
  21 H :    0.155157
  22 H :    0.162615
  23 H :    0.174357

  Mayer bond orders larger than 0.100000
B(  0-C ,  1-O ) :   0.8412 B(  0-C , 10-H ) :   0.9676 B(  0-C , 11-H ) :   0.9613
B(  0-C , 12-H ) :   0.9717 B(  1-O ,  2-C ) :   1.0770 B(  2-C ,  3-O ) :   1.8634
B(  2-C ,  4-C ) :   1.0062 B(  4-C ,  5-C ) :   0.9241 B(  4-C ,  9-C ) :   0.9152
B(  4-C , 13-H ) :   0.9172 B(  5-C ,  6-C ) :   0.8746 B(  5-C , 14-H ) :   1.0031
B(  5-C , 15-H ) :   0.9457 B(  6-C ,  7-C ) :   0.9170 B(  6-C , 16-H ) :   0.9445
B(  6-C , 17-H ) :   0.9998 B(  7-C ,  8-C ) :   0.9115 B(  7-C , 18-H ) :   0.9872
B(  7-C , 19-H ) :   0.9488 B(  8-C ,  9-C ) :   0.8787 B(  8-C , 20-H ) :   0.9469
B(  8-C , 21-H ) :   1.0042 B(  9-C , 22-H ) :   0.9935 B(  9-C , 23-H ) :   0.9421

Dispersion correction           -0.007549839
FINAL SINGLE POINT ENERGY      -463.634123121864

DIPOLE MOMENT
-------------

Method             : SCF
Type of density    : Electron Density
Multiplicity       :   1
Irrep              :   0
Energy             :  -463.6398840276722240 Eh
Relativity type    :
Basis              : AO
                                X                 Y                 Z
Electronic contribution:     -7.466359407       2.014446872       0.388626620
Nuclear contribution   :      7.609817245      -2.644867077      -0.722574492
                        -----------------------------------------
Total Dipole Moment    :      0.143457839      -0.630420205      -0.333947872
                        -----------------------------------------
Magnitude (a.u.)       :      0.727688785
Magnitude (Debye)      :      1.849637898

Rotational constants in cm-1:             0.096726             0.026306             0.021712
Rotational constants in MHz :          2899.765724           788.635794           650.909068

                             ****ORCA TERMINATED NORMALLY****
TOTAL RUN TIME: 0 days 0 hours 0 minutes 24 seconds 29 msec
