                         Program Version 6.0.1  -  RELEASE   -
|  1> ! pbe def2-sv(p) def2/J RI DEFGRID1 loosescf d4 GCP(DFT/SV(P)) printgap
|  2> %output
|  3>     printlevel normal
|  4> end
|  5> * xyz 0 1
|  6> C -2.398318498 0.0001415099 0.5364799822
|  7> C -1.3772987769 5.81024e-05 -0.5999276081
|  8> C -0.4953812094 1.2522472274 -0.5808283762
|  9> C 0.4953478819 1.2521660394 0.5805485588
| 10> C 1.3772078481 -4.96037e-05 0.6000424553
| 11> C 0.4952920665 -1.2522501678 0.5804958455
| 12> C -0.4954925802 -1.252235151 -0.5808121617
| 13> C 2.3985978468 -8.39332e-05 -0.5360359012
| 14> H -3.0331772733 -0.8811596256 0.4715425727
| 15> H -1.9148876044 -0.0007202628 1.5086506988
| 16> H -3.0318526642 0.882443946 0.4724269141
| 17> H -1.9410657254 3.91813e-05 -1.5416406641
| 18> H 0.0532375375 1.3118260842 -1.5228339665
| 19> H -1.1265733029 2.1417601055 -0.5154727421
| 20> H 1.1266957143 2.14154142 0.5150740692
| 21> H -0.0532988968 1.3120152973 1.5225127816
| 22> H 1.9406569542 -0.0001189692 1.5419696668
| 23> H 1.1266139277 -2.1416226183 0.5149022239
| 24> H -0.0532382758 -1.3121340127 1.5225321267
| 25> H 0.0530737053 -1.3117960517 -1.5228452083
| 26> H -1.1267591142 -2.141690225 -0.515462981
| 27> H 3.0330343128 -0.8817287261 -0.4710114718
| 28> H 3.0325312165 0.8819364236 -0.471447327
| 29> H 1.9155507672 -0.0005207445 -1.5084533216
| 30> *
| 31>
| 32>                          ****END OF INPUT****

CARTESIAN COORDINATES (ANGSTROEM)
---------------------------------
  C     -2.398318    0.000142    0.536480
  C     -1.377299    0.000058   -0.599928
  C     -0.495381    1.252247   -0.580828
  C      0.495348    1.252166    0.580549
  C      1.377208   -0.000050    0.600042
  C      0.495292   -1.252250    0.580496
  C     -0.495493   -1.252235   -0.580812
  C      2.398598   -0.000084   -0.536036
  H     -3.033177   -0.881160    0.471543
  H     -1.914888   -0.000720    1.508651
  H     -3.031853    0.882444    0.472427
  H     -1.941066    0.000039   -1.541641
  H      0.053238    1.311826   -1.522834
  H     -1.126573    2.141760   -0.515473
  H      1.126696    2.141541    0.515074
  H     -0.053299    1.312015    1.522513
  H      1.940657   -0.000119    1.541970
  H      1.126614   -2.141623    0.514902
  H     -0.053238   -1.312134    1.522532
  H      0.053074   -1.311796   -1.522845
  H     -1.126759   -2.141690   -0.515463
  H      3.033034   -0.881729   -0.471011
  H      3.032531    0.881936   -0.471447
  H      1.915551   -0.000521   -1.508453

 Total Charge           Charge          ....    0
 Multiplicity           Mult            ....    1
 Number of Electrons    NEL             ....   64
 Basis Dimension        Dim             ....  144

ORBITAL ENERGIES
----------------

  NO   OCC          E(Eh)            E(eV)
   0   2.0000      -9.886309      -269.0201
   1   2.0000      -9.886292      -269.0197
   2   2.0000      -9.874809      -268.7072
   3   2.0000      -9.874778      -268.7064
   4   2.0000      -9.874748      -268.7056
   5   2.0000      -9.874747      -268.7055
   6   2.0000      -9.868903      -268.5465
   7   2.0000      -9.868889      -268.5461
   8   2.0000      -0.756376       -20.5820
   9   2.0000      -0.694287       -18.8925
  10   2.0000      -0.660387       -17.9700
  11   2.0000      -0.620771       -16.8920
  12   2.0000      -0.589235       -16.0339
  13   2.0000      -0.537598       -14.6288
  14   2.0000      -0.511259       -13.9121
  15   2.0000      -0.450227       -12.2513
  16   2.0000      -0.435380       -11.8473
  17   2.0000      -0.405610       -11.0372
  18   2.0000      -0.404230       -10.9997
  19   2.0000      -0.372457       -10.1351
  20   2.0000      -0.371256       -10.1024
  21   2.0000      -0.357546        -9.7293
  22   2.0000      -0.338047        -9.1987
  23   2.0000      -0.326125        -8.8743
  24   2.0000      -0.326096        -8.8735
  25   2.0000      -0.311974        -8.4892
  26   2.0000      -0.300440        -8.1754
  27   2.0000      -0.287874        -7.8335
  28   2.0000      -0.283170        -7.7054
  29   2.0000      -0.262108        -7.1323
  30   2.0000      -0.248000        -6.7484
  31   2.0000      -0.247279        -6.7288
  32   0.0000       0.025217         0.6862
  33   0.0000       0.044003         1.1974
  34   0.0000       0.064749         1.7619
  35   0.0000       0.079833         2.1724
  36   0.0000       0.093414         2.5419

MULLIKEN ATOMIC CHARGES
-----------------------
   0 C :   -0.263168
   1 C :   -0.154129
   2 C :   -0.128023
   3 C :   -0.128056
   4 C :   -0.154075
   5 C :   -0.128074
   6 C :   -0.127989
   7 C :   -0.263206
   8 H :    0.096591
   9 H :    0.105612
  10 H :    0.096582
  11 H :    0.063051
  12 H :    0.078937
  13 H :    0.076822
  14 H :    0.076800
  15 H :    0.078940
  16 H :    0.063067
  17 H :    0.076795
  18 H :    0.078954
  19 H :    0.078940
  20 H :    0.076819
  21 H :    0.096595
  22 H :    0.096594
  23 H :    0.105618
Sum of atomic charges:   -0.0000000

LOEWDIN ATOMIC CHARGES
----------------------
   0 C :   -0.332756
   1 C :   -0.150760
   2 C :   -0.218405
   3 C :   -0.218413
   4 C :   -0.150755
   5 C :   -0.218415
   6 C :   -0.218404
   7 C :   -0.332742
   8 H :    0.117999
   9 H :    0.114356
  10 H :    0.117994
  11 H :    0.113685
  12 H :    0.113758
  13 H :    0.114387
  14 H :    0.114379
  15 H :    0.113763
  16 H :    0.113695
  17 H :    0.114383
  18 H :    0.113759
  19 H :    0.113760
  20 H :    0.114392
  21 H :    0.117992
  22 H :    0.117990
  23 H :    0.114356

  Mayer bond orders larger than 0.100000
B(  0-C ,  1-C ) :   1.1047 B(  0-C ,  8-H ) :   0.9487 B(  0-C ,  9-H ) :   0.9422
B(  0-C , 10-H ) :   0.9487 B(  1-C ,  2-C ) :   1.0870 B(  1-C ,  6-C ) :   1.0870
B(  1-C , 11-H ) :   0.8964 B(  2-C ,  3-C ) :   1.1249 B(  2-C , 12-H ) :   0.9132
B(  2-C , 13-H ) :   0.9160 B(  3-C ,  4-C ) :   1.0870 B(  3-C , 14-H ) :   0.9160
B(  3-C , 15-H ) :   0.9132 B(  4-C ,  5-C ) :   1.0870 B(  4-C ,  7-C ) :   1.1048
B(  4-C , 16-H ) :   0.8964 B(  5-C ,  6-C ) :   1.1250 B(  5-C , 17-H ) :   0.9160
B(  5-C , 18-H ) :   0.9132 B(  6-C , 19-H ) :   0.9132 B(  6-C , 20-H ) :   0.9160
B(  7-C , 21-H ) :   0.9487 B(  7-C , 22-H ) :   0.9487 B(  7-C , 23-H ) :   0.9422

Dispersion correction           -0.023305247
FINAL SINGLE POINT ENERGY      -313.702117902446

DIPOLE MOMENT
-------------

Method             : SCF
Type of density    : Electron Density
Multiplicity       :   1
Irrep              :   0
Energy             :  -313.7822897303718719 Eh
Relativity type    :
Basis              : AO
                                X                 Y                 Z
Electronic contribution:     -0.000528219      -0.000107521      -0.000389128
Nuclear contribution   :      0.000507807       0.000066818       0.000415955
                        -----------------------------------------
Total Dipole Moment    :     -0.000020412      -0.000040703       0.000026826
                        -----------------------------------------
Magnitude (a.u.)       :      0.000052849
Magnitude (Debye)      :      0.000134332

Rotational constants in cm-1:             0.107818             0.055235             0.047266
Rotational constants in MHz :          3232.306003          1655.918233          1417.006249

                             ****ORCA TERMINATED NORMALLY****
TOTAL RUN TIME: 0 days 0 hours 0 minutes 6 seconds 815 msec
