                         Program Version 6.0.1  -  RELEASE   -
|  1> ! pbe def2-sv(p) def2/J RI DEFGRID1 loosescf d4 GCP(DFT/SV(P)) printgap
|  2> %output
|  3>     printlevel normal
|  4> end
|  5> * xyz 0 1
|  6> C 1.8608602901 0.9396098857 -0.2686638704
|  7> C 0.9667436322 -0.0788852999 0.426358447
|  8> C -0.3804478746 -0.2897215223 -0.2795700641
|  9> H -0.2018774057 -0.5340815961 -1.3325580308
| 10> C -1.2813230105 0.9417113745 -0.187809558
| 11> O -1.0362376576 -1.4313186012 0.2370492399
| 12> H 1.4206216136 1.9329488491 -0.2393467425
| 13> H 2.0174209628 0.6614266461 -1.3083254504
| 14> H 2.829320652 0.9839320115 0.2241511044
| 15> H 0.7837844798 0.2362510778 1.458059201
| 16> H 1.4769226683 -1.0444316062 0.4585733572
| 17> H -0.8499372342 1.7753215459 -0.7330355617
| 18> H -2.2547004731 0.7138813673 -0.6159806954
| 19> H -1.4183452427 1.2349101115 0.8525385717
| 20> H -1.2470435665 -1.2662148468 1.1634780446
| 21> *
| 22>
| 23>                          ****END OF INPUT****

CARTESIAN COORDINATES (ANGSTROEM)
---------------------------------
  C      1.860860    0.939610   -0.268664
  C      0.966744   -0.078885    0.426358
  C     -0.380448   -0.289722   -0.279570
  H     -0.201877   -0.534082   -1.332558
  C     -1.281323    0.941711   -0.187810
  O     -1.036238   -1.431319    0.237049
  H      1.420622    1.932949   -0.239347
  H      2.017421    0.661427   -1.308325
  H      2.829321    0.983932    0.224151
  H      0.783784    0.236251    1.458059
  H      1.476923   -1.044432    0.458573
  H     -0.849937    1.775322   -0.733036
  H     -2.254700    0.713881   -0.615981
  H     -1.418345    1.234910    0.852539
  H     -1.247044   -1.266215    1.163478

 Total Charge           Charge          ....    0
 Multiplicity           Mult            ....    1
 Number of Electrons    NEL             ....   42
 Basis Dimension        Dim             ....   90

ORBITAL ENERGIES
----------------

  NO   OCC          E(Eh)            E(eV)
   0   2.0000     -18.734841      -509.8009
   1   2.0000      -9.933698      -270.3097
   2   2.0000      -9.882757      -268.9235
   3   2.0000      -9.877592      -268.7829
   4   2.0000      -9.874828      -268.7077
   5   2.0000      -0.915838       -24.9212
   6   2.0000      -0.707690       -19.2572
   7   2.0000      -0.646248       -17.5853
   8   2.0000      -0.573639       -15.6095
   9   2.0000      -0.526774       -14.3342
  10   2.0000      -0.435859       -11.8603
  11   2.0000      -0.418092       -11.3769
  12   2.0000      -0.385794       -10.4980
  13   2.0000      -0.380230       -10.3466
  14   2.0000      -0.346200        -9.4206
  15   2.0000      -0.337821        -9.1926
  16   2.0000      -0.323321        -8.7980
  17   2.0000      -0.305321        -8.3082
  18   2.0000      -0.292837        -7.9685
  19   2.0000      -0.264481        -7.1969
  20   2.0000      -0.208534        -5.6745
  21   0.0000       0.030277         0.8239
  22   0.0000       0.048000         1.3061
  23   0.0000       0.072941         1.9848
  24   0.0000       0.080982         2.2036
  25   0.0000       0.094677         2.5763

MULLIKEN ATOMIC CHARGES
-----------------------
   0 C :   -0.289159
   1 C :   -0.170117
   2 C :    0.020428
   3 H :    0.069911
   4 C :   -0.267528
   5 O :   -0.424751
   6 H :    0.105790
   7 H :    0.102509
   8 H :    0.105468
   9 H :    0.067811
  10 H :    0.093075
  11 H :    0.103771
  12 H :    0.111422
  13 H :    0.083778
  14 H :    0.287592
Sum of atomic charges:    0.0000000

LOEWDIN ATOMIC CHARGES
----------------------
   0 C :   -0.341857
   1 C :   -0.248593
   2 C :   -0.061435
   3 H :    0.111092
   4 C :   -0.354528
   5 O :   -0.328209
   6 H :    0.116563
   7 H :    0.119270
   8 H :    0.122072
   9 H :    0.108286
  10 H :    0.119009
  11 H :    0.122842
  12 H :    0.123981
  13 H :    0.113255
  14 H :    0.278252

  Mayer bond orders larger than 0.100000
B(  0-C ,  1-C ) :   1.1365 B(  0-C ,  6-H ) :   0.9504 B(  0-C ,  7-H ) :   0.9542
B(  0-C ,  8-H ) :   0.9483 B(  1-C ,  2-C ) :   1.0758 B(  1-C ,  9-H ) :   0.9147
B(  1-C , 10-H ) :   0.9207 B(  2-C ,  3-H ) :   0.9046 B(  2-C ,  4-C ) :   1.1061
B(  2-C ,  5-O ) :   1.0393 B(  4-C , 11-H ) :   0.9353 B(  4-C , 12-H ) :   0.9456
B(  4-C , 13-H ) :   0.9427 B(  5-O , 14-H ) :   0.8576

Dispersion correction           -0.009593380
FINAL SINGLE POINT ENERGY      -233.092310967428

DIPOLE MOMENT
-------------

Method             : SCF
Type of density    : Electron Density
Multiplicity       :   1
Irrep              :   0
Energy             :  -233.1518631718932397 Eh
Relativity type    :
Basis              : AO
                                X                 Y                 Z
Electronic contribution:     -2.258623322      -3.908008131       0.398393797
Nuclear contribution   :      2.382724906       4.382446866      -0.064448588
                        -----------------------------------------
Total Dipole Moment    :      0.124101584       0.474438736       0.333945210
                        -----------------------------------------
Magnitude (a.u.)       :      0.593306599
Magnitude (Debye)      :      1.508065526

Rotational constants in cm-1:             0.255637             0.115417             0.088852
Rotational constants in MHz :          7663.814897          3460.123995          2663.703282

                             ****ORCA TERMINATED NORMALLY****
TOTAL RUN TIME: 0 days 0 hours 0 minutes 3 seconds 822 msec
