                         Program Version 6.0.1  -  RELEASE   -
|  1> ! pbe def2-sv(p) def2/J RI DEFGRID1 loosescf d4 GCP(DFT/SV(P)) printgap
|  2> %output
|  3>     printlevel normal
|  4> end
|  5> * xyz 0 1
|  6> C -1.9725102995 -1.0610084298 -0.8102916349
|  7> C -1.6004245078 -0.2182582946 0.4080126649
|  8> C -2.0416755521 1.2292023004 0.1988003294
|  9> C -0.1432794504 -0.3831686754 0.8846911081
| 10> C 1.0902435475 0.0084359672 0.041700269
| 11> C 1.2153713936 -0.8086573023 -1.2457891803
| 12> C 1.1317365513 1.4992980291 -0.298234268
| 13> C 2.3132886921 -0.3081959853 0.9177732527
| 14> H -1.5924694742 -0.6224831556 -1.7280262011
| 15> H -1.5821354777 -2.0713492937 -0.7181922839
| 16> H -3.0560578072 -1.121162317 -0.8971146901
| 17> H -2.1912399425 -0.6064199474 1.2497455364
| 18> H -1.7011335413 1.8613446427 1.0150162425
| 19> H -1.6607229538 1.6309692692 -0.7350218998
| 20> H -3.1285780072 1.2787376051 0.1607787985
| 21> H -0.0671911853 0.1730556291 1.8241634152
| 22> H -0.023510484 -1.4414208649 1.1364198933
| 23> H 2.2017627015 -0.6599614104 -1.6818204326
| 24> H 0.4795712059 -0.5057336282 -1.9833622758
| 25> H 1.0896163433 -1.8698210843 -1.0446909947
| 26> H 2.1161781826 1.7625788832 -0.6811934285
| 27> H 0.9381598111 2.103399152 0.5847251669
| 28> H 0.4025911541 1.753953384 -1.060448779
| 29> H 2.2869825192 0.2672104329 1.840735854
| 30> H 3.2333124522 -0.0630839533 0.3916077303
| 31> H 2.3412572513 -1.365105968 1.1747646884
| 32> *
| 33>
| 34>                          ****END OF INPUT****

CARTESIAN COORDINATES (ANGSTROEM)
---------------------------------
  C     -1.972510   -1.061008   -0.810292
  C     -1.600425   -0.218258    0.408013
  C     -2.041676    1.229202    0.198800
  C     -0.143279   -0.383169    0.884691
  C      1.090244    0.008436    0.041700
  C      1.215371   -0.808657   -1.245789
  C      1.131737    1.499298   -0.298234
  C      2.313289   -0.308196    0.917773
  H     -1.592469   -0.622483   -1.728026
  H     -1.582135   -2.071349   -0.718192
  H     -3.056058   -1.121162   -0.897115
  H     -2.191240   -0.606420    1.249746
  H     -1.701134    1.861345    1.015016
  H     -1.660723    1.630969   -0.735022
  H     -3.128578    1.278738    0.160779
  H     -0.067191    0.173056    1.824163
  H     -0.023510   -1.441421    1.136420
  H      2.201763   -0.659961   -1.681820
  H      0.479571   -0.505734   -1.983362
  H      1.089616   -1.869821   -1.044691
  H      2.116178    1.762579   -0.681193
  H      0.938160    2.103399    0.584725
  H      0.402591    1.753953   -1.060449
  H      2.286983    0.267210    1.840736
  H      3.233312   -0.063084    0.391608
  H      2.341257   -1.365106    1.174765

 Total Charge           Charge          ....    0
 Multiplicity           Mult            ....    1
 Number of Electrons    NEL             ....   66
 Basis Dimension        Dim             ....  148

ORBITAL ENERGIES
----------------

  NO   OCC          E(Eh)            E(eV)
   0   2.0000      -9.902144      -269.4510
   1   2.0000      -9.891057      -269.1493
   2   2.0000      -9.876773      -268.7606
   3   2.0000      -9.867784      -268.5161
   4   2.0000      -9.867592      -268.5108
   5   2.0000      -9.867228      -268.5009
   6   2.0000      -9.866958      -268.4936
   7   2.0000      -9.866873      -268.4913
   8   2.0000      -0.746495       -20.3132
   9   2.0000      -0.705102       -19.1868
  10   2.0000      -0.614236       -16.7142
  11   2.0000      -0.613847       -16.7036
  12   2.0000      -0.600533       -16.3413
  13   2.0000      -0.600087       -16.3292
  14   2.0000      -0.505705       -13.7609
  15   2.0000      -0.459483       -12.5032
  16   2.0000      -0.417108       -11.3501
  17   2.0000      -0.407380       -11.0854
  18   2.0000      -0.396337       -10.7849
  19   2.0000      -0.378148       -10.2899
  20   2.0000      -0.373390       -10.1605
  21   2.0000      -0.367813       -10.0087
  22   2.0000      -0.348821        -9.4919
  23   2.0000      -0.334100        -9.0913
  24   2.0000      -0.326662        -8.8889
  25   2.0000      -0.316392        -8.6095
  26   2.0000      -0.308960        -8.4072
  27   2.0000      -0.308680        -8.3996
  28   2.0000      -0.291351        -7.9281
  29   2.0000      -0.283375        -7.7110
  30   2.0000      -0.273490        -7.4420
  31   2.0000      -0.265028        -7.2118
  32   2.0000      -0.251607        -6.8466
  33   0.0000       0.021778         0.5926
  34   0.0000       0.057428         1.5627
  35   0.0000       0.063817         1.7365
  36   0.0000       0.070874         1.9286
  37   0.0000       0.077621         2.1122

MULLIKEN ATOMIC CHARGES
-----------------------
   0 C :   -0.244722
   1 C :   -0.140755
   2 C :   -0.244196
   3 C :   -0.108369
   4 C :   -0.257184
   5 C :   -0.204709
   6 C :   -0.203478
   7 C :   -0.212612
   8 H :    0.101473
   9 H :    0.093827
  10 H :    0.094548
  11 H :    0.066266
  12 H :    0.093150
  13 H :    0.100293
  14 H :    0.094675
  15 H :    0.069158
  16 H :    0.069547
  17 H :    0.089291
  18 H :    0.099638
  19 H :    0.089152
  20 H :    0.089247
  21 H :    0.089323
  22 H :    0.100331
  23 H :    0.091857
  24 H :    0.092864
  25 H :    0.091387
Sum of atomic charges:   -0.0000000

LOEWDIN ATOMIC CHARGES
----------------------
   0 C :   -0.330667
   1 C :   -0.154116
   2 C :   -0.330735
   3 C :   -0.203024
   4 C :   -0.103801
   5 C :   -0.316842
   6 C :   -0.316542
   7 C :   -0.315042
   8 H :    0.114384
   9 H :    0.115754
  10 H :    0.117203
  11 H :    0.117586
  12 H :    0.115489
  13 H :    0.114448
  14 H :    0.117124
  15 H :    0.112850
  16 H :    0.112844
  17 H :    0.115638
  18 H :    0.114414
  19 H :    0.115416
  20 H :    0.115667
  21 H :    0.115588
  22 H :    0.114299
  23 H :    0.114331
  24 H :    0.113374
  25 H :    0.114360

  Mayer bond orders larger than 0.100000
B(  0-C ,  1-C ) :   1.1224 B(  0-C ,  8-H ) :   0.9395 B(  0-C ,  9-H ) :   0.9466
B(  0-C , 10-H ) :   0.9457 B(  1-C ,  2-C ) :   1.1223 B(  1-C ,  3-C ) :   1.1010
B(  1-C , 11-H ) :   0.8909 B(  2-C , 12-H ) :   0.9466 B(  2-C , 13-H ) :   0.9397
B(  2-C , 14-H ) :   0.9460 B(  3-C ,  4-C ) :   1.0506 B(  3-C , 15-H ) :   0.9072
B(  3-C , 16-H ) :   0.9075 B(  4-C ,  5-C ) :   1.0852 B(  4-C ,  6-C ) :   1.0854
B(  4-C ,  7-C ) :   1.0644 B(  5-C , 17-H ) :   0.9434 B(  5-C , 18-H ) :   0.9363
B(  5-C , 19-H ) :   0.9440 B(  6-C , 20-H ) :   0.9431 B(  6-C , 21-H ) :   0.9436
B(  6-C , 22-H ) :   0.9366 B(  7-C , 23-H ) :   0.9482 B(  7-C , 24-H ) :   0.9439
B(  7-C , 25-H ) :   0.9486

Dispersion correction           -0.023919976
FINAL SINGLE POINT ENERGY      -314.868730199294

DIPOLE MOMENT
-------------

Method             : SCF
Type of density    : Electron Density
Multiplicity       :   1
Irrep              :   0
Energy             :  -314.9549781228633947 Eh
Relativity type    :
Basis              : AO
                                X                 Y                 Z
Electronic contribution:     -0.121904976      -0.485066738       1.104206002
Nuclear contribution   :      0.081050361       0.473497096      -1.080681201
                        -----------------------------------------
Total Dipole Moment    :     -0.040854615      -0.011569642       0.023524802
                        -----------------------------------------
Magnitude (a.u.)       :      0.048542481
Magnitude (Debye)      :      0.123385181

Rotational constants in cm-1:             0.094130             0.044647             0.040320
Rotational constants in MHz :          2821.932419          1338.479142          1208.748287

                             ****ORCA TERMINATED NORMALLY****
TOTAL RUN TIME: 0 days 0 hours 0 minutes 18 seconds 63 msec
