                         Program Version 6.0.1  -  RELEASE   -
|  1> ! pbe def2-sv(p) def2/J RI DEFGRID1 loosescf d4 GCP(DFT/SV(P)) printgap
|  2> %output
|  3>     printlevel normal
|  4> end
|  5> * xyz 0 1
|  6> C -2.0002969719 -1.4326253862 -0.138645263
|  7> C -1.012608847 -0.5278603055 0.613978069
|  8> H -1.4934328502 -0.1961559513 1.5431985723
|  9> C -0.6824847825 0.7184247348 -0.2204745074
| 10> H -0.6088599689 0.4473581828 -1.2864510331
| 11> C 0.6767604124 1.2522196534 0.2338522613
| 12> H 0.6681881449 1.3620030199 1.3305983934
| 13> C 1.7389053333 0.2218608078 -0.159824924
| 14> H 1.8876739031 0.2844363474 -1.2487880154
| 15> C 1.2477169919 -1.2021689218 0.1625175944
| 16> H 2.0422967007 -1.7091309812 0.7282154216
| 17> O 0.1419344093 -1.2408425167 1.0253145172
| 18> O 0.9844896884 -1.8528825611 -1.0469348287
| 19> O 2.9487677467 0.4356927854 0.515117578
| 20> O 0.99005933 2.479459426 -0.3727431512
| 21> O -1.6451089706 1.729022023 -0.0463829082
| 22> O -3.1801006654 -0.6828948603 -0.3554883197
| 23> H -2.2038463352 -2.3223822533 0.4706397948
| 24> H -1.5573439508 -1.743691588 -1.0936945189
| 25> H 0.8142318216 -2.7859635776 -0.8696858192
| 26> H 3.1822739353 1.3645761634 0.3927066357
| 27> H 0.1784080188 3.0032748176 -0.372447713
| 28> H -2.5118893917 1.3242869772 -0.1858895696
| 29> H -3.8266851816 -1.2390323824 -0.801932331
| 30> *
| 31>
| 32>                          ****END OF INPUT****

CARTESIAN COORDINATES (ANGSTROEM)
---------------------------------
  C     -2.000297   -1.432625   -0.138645
  C     -1.012609   -0.527860    0.613978
  H     -1.493433   -0.196156    1.543199
  C     -0.682485    0.718425   -0.220475
  H     -0.608860    0.447358   -1.286451
  C      0.676760    1.252220    0.233852
  H      0.668188    1.362003    1.330598
  C      1.738905    0.221861   -0.159825
  H      1.887674    0.284436   -1.248788
  C      1.247717   -1.202169    0.162518
  H      2.042297   -1.709131    0.728215
  O      0.141934   -1.240843    1.025315
  O      0.984490   -1.852883   -1.046935
  O      2.948768    0.435693    0.515118
  O      0.990059    2.479459   -0.372743
  O     -1.645109    1.729022   -0.046383
  O     -3.180101   -0.682895   -0.355488
  H     -2.203846   -2.322382    0.470640
  H     -1.557344   -1.743692   -1.093695
  H      0.814232   -2.785964   -0.869686
  H      3.182274    1.364576    0.392707
  H      0.178408    3.003275   -0.372448
  H     -2.511889    1.324287   -0.185890
  H     -3.826685   -1.239032   -0.801932

 Total Charge           Charge          ....    0
 Multiplicity           Mult            ....    1
 Number of Electrons    NEL             ....   96
 Basis Dimension        Dim             ....  192

ORBITAL ENERGIES
----------------

  NO   OCC          E(Eh)            E(eV)
   0   2.0000     -18.775816      -510.9159
   1   2.0000     -18.770092      -510.7602
   2   2.0000     -18.765407      -510.6327
   3   2.0000     -18.748952      -510.1849
   4   2.0000     -18.743391      -510.0336
   5   2.0000     -18.743222      -510.0290
   6   2.0000      -9.983999      -271.6784
   7   2.0000      -9.945311      -270.6257
   8   2.0000      -9.941471      -270.5212
   9   2.0000      -9.937699      -270.4185
  10   2.0000      -9.933247      -270.2974
  11   2.0000      -9.932155      -270.2677
  12   2.0000      -0.983147       -26.7528
  13   2.0000      -0.949498       -25.8372
  14   2.0000      -0.939114       -25.5546
  15   2.0000      -0.924917       -25.1683
  16   2.0000      -0.914575       -24.8868
  17   2.0000      -0.908455       -24.7203
  18   2.0000      -0.703752       -19.1501
  19   2.0000      -0.693133       -18.8611
  20   2.0000      -0.624670       -16.9981
  21   2.0000      -0.575510       -15.6604
  22   2.0000      -0.563677       -15.3384
  23   2.0000      -0.511621       -13.9219
  24   2.0000      -0.508599       -13.8397
  25   2.0000      -0.496489       -13.5101
  26   2.0000      -0.473290       -12.8789
  27   2.0000      -0.467261       -12.7148
  28   2.0000      -0.437191       -11.8966
  29   2.0000      -0.423760       -11.5311
  30   2.0000      -0.406837       -11.0706
  31   2.0000      -0.394890       -10.7455
  32   2.0000      -0.386567       -10.5190
  33   2.0000      -0.380662       -10.3583
  34   2.0000      -0.366485        -9.9726
  35   2.0000      -0.355408        -9.6711
  36   2.0000      -0.331339        -9.0162
  37   2.0000      -0.322181        -8.7670
  38   2.0000      -0.308721        -8.4007
  39   2.0000      -0.301389        -8.2012
  40   2.0000      -0.270266        -7.3543
  41   2.0000      -0.264379        -7.1941
  42   2.0000      -0.259678        -7.0662
  43   2.0000      -0.242771        -6.6061
  44   2.0000      -0.230203        -6.2641
  45   2.0000      -0.215712        -5.8698
  46   2.0000      -0.213641        -5.8135
  47   2.0000      -0.207622        -5.6497
  48   0.0000       0.003684         0.1002
  49   0.0000       0.021505         0.5852
  50   0.0000       0.045041         1.2256
  51   0.0000       0.058895         1.6026
  52   0.0000       0.065345         1.7781

MULLIKEN ATOMIC CHARGES
-----------------------
   0 C :    0.037561
   1 C :    0.046260
   2 H :    0.078854
   3 C :   -0.012487
   4 H :    0.065249
   5 C :    0.057262
   6 H :    0.054858
   7 C :    0.082860
   8 H :    0.071271
   9 C :    0.169535
  10 H :    0.077511
  11 O :   -0.311404
  12 O :   -0.396981
  13 O :   -0.415857
  14 O :   -0.427521
  15 O :   -0.432300
  16 O :   -0.449221
  17 H :    0.080769
  18 H :    0.076991
  19 H :    0.302143
  20 H :    0.309707
  21 H :    0.310535
  22 H :    0.311113
  23 H :    0.313292
Sum of atomic charges:    0.0000000

LOEWDIN ATOMIC CHARGES
----------------------
   0 C :   -0.136695
   1 C :   -0.066866
   2 H :    0.119620
   3 C :   -0.079697
   4 H :    0.105530
   5 C :   -0.075047
   6 H :    0.105360
   7 C :   -0.072300
   8 H :    0.111214
   9 C :    0.003990
  10 H :    0.107482
  11 O :   -0.137980
  12 O :   -0.308829
  13 O :   -0.316631
  14 O :   -0.326227
  15 O :   -0.327992
  16 O :   -0.340626
  17 H :    0.099480
  18 H :    0.098775
  19 H :    0.284116
  20 H :    0.290590
  21 H :    0.287590
  22 H :    0.280529
  23 H :    0.294616

  Mayer bond orders larger than 0.100000
B(  0-C ,  1-C ) :   1.0758 B(  0-C , 16-O ) :   1.0441 B(  0-C , 17-H ) :   0.9166
B(  0-C , 18-H ) :   0.9018 B(  1-C ,  2-H ) :   0.8836 B(  1-C ,  3-C ) :   0.9854
B(  1-C , 11-O ) :   0.9862 B(  3-C ,  4-H ) :   0.8846 B(  3-C ,  5-C ) :   1.0343
B(  3-C , 15-O ) :   1.0718 B(  5-C ,  6-H ) :   0.8570 B(  5-C ,  7-C ) :   1.0525
B(  5-C , 14-O ) :   1.0928 B(  7-C ,  8-H ) :   0.8797 B(  7-C ,  9-C ) :   0.9910
B(  7-C , 13-O ) :   1.0905 B(  9-C , 10-H ) :   0.8927 B(  9-C , 11-O ) :   1.0724
B(  9-C , 12-O ) :   1.0966 B( 12-O , 19-H ) :   0.8387 B( 13-O , 20-H ) :   0.8442
B( 14-O , 21-H ) :   0.8304 B( 15-O , 22-H ) :   0.8148 B( 16-O , 23-H ) :   0.8440

Dispersion correction           -0.024617567
FINAL SINGLE POINT ENERGY      -685.696971243498

DIPOLE MOMENT
-------------

Method             : SCF
Type of density    : Electron Density
Multiplicity       :   1
Irrep              :   0
Energy             :  -685.8288178886634796 Eh
Relativity type    :
Basis              : AO
                                X                 Y                 Z
Electronic contribution:      2.034297151       1.141268336       0.898191147
Nuclear contribution   :     -3.213415313      -2.060898766      -1.311532982
                        -----------------------------------------
Total Dipole Moment    :     -1.179118162      -0.919630431      -0.413341836
                        -----------------------------------------
Magnitude (a.u.)       :      1.551415883
Magnitude (Debye)      :      3.943385790

Rotational constants in cm-1:             0.043557             0.026828             0.018799
Rotational constants in MHz :          1305.815489           804.293002           563.578246

                             ****ORCA TERMINATED NORMALLY****
TOTAL RUN TIME: 0 days 0 hours 10 minutes 20 seconds 92 msec
