                         Program Version 6.0.1  -  RELEASE   -
|  1> ! r2scan-3c def2/J RI DEFGRID2 scfconv6 printgap
|  2> %output
|  3>     printlevel normal
|  4> end
|  5> * xyz 0 1
|  6> C -2.6491218168 -0.1564424778 -0.6383130881
|  7> O -1.8372275533 -0.2323414714 0.5116210807
|  8> C -0.4853633387 -0.0766953462 0.2530390927
|  9> C 0.089232946 1.1872012425 0.2967872967
| 10> C 1.4479207486 1.333614068 0.0816534613
| 11> C 2.2349409527 0.2256255433 -0.182920661
| 12> C 1.6614031849 -1.0337679095 -0.2279369218
| 13> C 0.3034621754 -1.1884624785 -0.0138900894
| 14> H -2.5543552489 0.8183499233 -1.1311089358
| 15> H -3.6740879778 -0.2932889343 -0.2981275968
| 16> H -2.3952007955 -0.9420092801 -1.3597342134
| 17> H -0.5337501793 2.042978861 0.5106199108
| 18> H 1.8934536648 2.3168244724 0.1211675651
| 19> H 3.295160382 0.343221341 -0.3510703416
| 20> H 2.2737473161 -1.9002857605 -0.4302906888
| 21> H -0.1541455818 -2.1662741666 -0.0398384895
| 22> *
| 23>
| 24>                          ****END OF INPUT****

CARTESIAN COORDINATES (ANGSTROEM)
---------------------------------
  C     -2.649122   -0.156442   -0.638313
  O     -1.837228   -0.232341    0.511621
  C     -0.485363   -0.076695    0.253039
  C      0.089233    1.187201    0.296787
  C      1.447921    1.333614    0.081653
  C      2.234941    0.225626   -0.182921
  C      1.661403   -1.033768   -0.227937
  C      0.303462   -1.188462   -0.013890
  H     -2.554355    0.818350   -1.131109
  H     -3.674088   -0.293289   -0.298128
  H     -2.395201   -0.942009   -1.359734
  H     -0.533750    2.042979    0.510620
  H      1.893454    2.316824    0.121168
  H      3.295160    0.343221   -0.351070
  H      2.273747   -1.900286   -0.430291
  H     -0.154146   -2.166274   -0.039838

 Total Charge           Charge          ....    0
 Multiplicity           Mult            ....    1
 Number of Electrons    NEL             ....   58
 Basis Dimension        Dim             ....  197

ORBITAL ENERGIES
----------------

  NO   OCC          E(Eh)            E(eV)
   0   2.0000     -18.967702      -516.1374
   1   2.0000     -10.089912      -274.5605
   2   2.0000     -10.078927      -274.2616
   3   2.0000     -10.038913      -273.1727
   4   2.0000     -10.038895      -273.1722
   5   2.0000     -10.035300      -273.0744
   6   2.0000     -10.035294      -273.0742
   7   2.0000     -10.034452      -273.0513
   8   2.0000      -1.018065       -27.7029
   9   2.0000      -0.825640       -22.4668
  10   2.0000      -0.721259       -19.6265
  11   2.0000      -0.720430       -19.6039
  12   2.0000      -0.654537       -17.8109
  13   2.0000      -0.582903       -15.8616
  14   2.0000      -0.562361       -15.3026
  15   2.0000      -0.500574       -13.6213
  16   2.0000      -0.456512       -12.4223
  17   2.0000      -0.444237       -12.0883
  18   2.0000      -0.428553       -11.6615
  19   2.0000      -0.412472       -11.2239
  20   2.0000      -0.400178       -10.8894
  21   2.0000      -0.392323       -10.6756
  22   2.0000      -0.349048        -9.4981
  23   2.0000      -0.337387        -9.1808
  24   2.0000      -0.322157        -8.7663
  25   2.0000      -0.308905        -8.4057
  26   2.0000      -0.242894        -6.6095
  27   2.0000      -0.236307        -6.4302
  28   2.0000      -0.227214        -6.1828
  29   0.0000      -0.034801        -0.9470
  30   0.0000      -0.028579        -0.7777
  31   0.0000       0.074371         2.0237
  32   0.0000       0.083239         2.2650
  33   0.0000       0.113134         3.0785

MULLIKEN ATOMIC CHARGES
-----------------------
   0 C :   -0.265506
   1 O :   -0.235062
   2 C :    0.214278
   3 C :   -0.250758
   4 C :   -0.117555
   5 C :   -0.166288
   6 C :   -0.117497
   7 C :   -0.250764
   8 H :    0.137988
   9 H :    0.147498
  10 H :    0.137974
  11 H :    0.160243
  12 H :    0.148780
  13 H :    0.147690
  14 H :    0.148764
  15 H :    0.160214
Sum of atomic charges:   -0.0000000

LOEWDIN ATOMIC CHARGES
----------------------
   0 C :   -0.049400
   1 O :   -0.710764
   2 C :    0.166327
   3 C :   -0.135044
   4 C :   -0.158301
   5 C :   -0.175295
   6 C :   -0.158294
   7 C :   -0.135061
   8 H :    0.159840
   9 H :    0.174879
  10 H :    0.159834
  11 H :    0.178842
  12 H :    0.168189
  13 H :    0.167235
  14 H :    0.168186
  15 H :    0.178827

  Mayer bond orders larger than 0.100000
B(  0-C ,  1-O ) :   0.8698 B(  0-C ,  8-H ) :   0.9648 B(  0-C ,  9-H ) :   0.9732
B(  0-C , 10-H ) :   0.9649 B(  1-O ,  2-C ) :   0.9716 B(  2-C ,  3-C ) :   1.4540
B(  2-C ,  7-C ) :   1.4538 B(  3-C ,  4-C ) :   1.3802 B(  3-C , 11-H ) :   0.9354
B(  4-C ,  5-C ) :   1.4287 B(  4-C , 12-H ) :   0.9455 B(  5-C ,  6-C ) :   1.4287
B(  5-C , 13-H ) :   0.9470 B(  6-C ,  7-C ) :   1.3803 B(  6-C , 14-H ) :   0.9455
B(  7-C , 15-H ) :   0.9355

Dispersion correction           -0.004860266
FINAL SINGLE POINT ENERGY      -346.675302313383

DIPOLE MOMENT
-------------

Method             : SCF
Type of density    : Electron Density
Multiplicity       :   1
Irrep              :   0
Energy             :  -346.6770863314429221 Eh
Relativity type    :
Basis              : AO
                                X                 Y                 Z
Electronic contribution:      1.783771054      -0.136339501       2.291923807
Nuclear contribution   :     -1.762065135       0.202501006      -2.786647032
                        -----------------------------------------
Total Dipole Moment    :      0.021705919       0.066161504      -0.494723225
                        -----------------------------------------
Magnitude (a.u.)       :      0.499599401
Magnitude (Debye)      :      1.269880758

Rotational constants in cm-1:             0.162421             0.052184             0.042392
Rotational constants in MHz :          4869.251730          1564.424156          1270.889721

                             ****ORCA TERMINATED NORMALLY****
TOTAL RUN TIME: 0 days 0 hours 0 minutes 28 seconds 958 msec
