                         Program Version 6.0.0  -   RELEASE  -
|  1> ! r2SCAN-3c DEF2-TZVP FREQ
|  2> * xyzfile 0 1 censo.xyz
|  3>
|  4>                          ****END OF INPUT****

CARTESIAN COORDINATES (ANGSTROEM)
---------------------------------
  C     -1.241717    0.000024   -0.000072
  Cl     0.581933    0.000055    0.000119
  H     -1.576495   -0.082961   -1.033343
  H     -1.576461   -0.853399    0.588327
  H     -1.576285    0.936287    0.444884

 Total Charge           Charge          ....    0
 Multiplicity           Mult            ....    1
 Number of Electrons    NEL             ....   26
 Basis Dimension        Dim             ....   86

ORBITAL ENERGIES
----------------

  NO   OCC          E(Eh)            E(eV)
   0   2.0000    -101.176391     -2753.1496
   1   2.0000     -10.094011      -274.6720
   2   2.0000      -9.352047      -254.4821
   3   2.0000      -7.097123      -193.1225
   4   2.0000      -7.086726      -192.8396
   5   2.0000      -7.086726      -192.8396
   6   2.0000      -0.805331       -21.9142
   7   2.0000      -0.646640       -17.5960
   8   2.0000      -0.418940       -11.3999
   9   2.0000      -0.418901       -11.3989
  10   2.0000      -0.384607       -10.4657
  11   2.0000      -0.269534        -7.3344
  12   2.0000      -0.269530        -7.3343
  13   0.0000      -0.009715        -0.2644
  14   0.0000       0.065091         1.7712
  15   0.0000       0.111677         3.0389
  16   0.0000       0.111700         3.0395
  17   0.0000       0.182234         4.9588

MULLIKEN ATOMIC CHARGES
-----------------------
   0 C :   -0.215029
   1 Cl:   -0.184284
   2 H :    0.133103
   3 H :    0.133096
   4 H :    0.133114
Sum of atomic charges:   -0.0000000

LOEWDIN ATOMIC CHARGES
----------------------
   0 C :   -0.500332
   1 Cl:    0.185853
   2 H :    0.104829
   3 H :    0.104829
   4 H :    0.104820

  Mayer bond orders larger than 0.100000
B(  0-C ,  1-Cl) :   1.0389 B(  0-C ,  2-H ) :   0.9674 B(  0-C ,  3-H ) :   0.9674
B(  0-C ,  4-H ) :   0.9674

Dispersion correction           -0.000564859
FINAL SINGLE POINT ENERGY      -500.074268562991

DIPOLE MOMENT
-------------

Method             : SCF
Type of density    : Electron Density
Multiplicity       :   1
Irrep              :   0
Energy             :  -500.0788213021746742 Eh
Relativity type    :
Basis              : AO
                                X                 Y                 Z
Electronic contribution:      4.433114556       0.000177359       0.000336940
Nuclear contribution   :     -5.245639765      -0.000204880      -0.000377130
                        -----------------------------------------
Total Dipole Moment    :     -0.812525209      -0.000027521      -0.000040189
                        -----------------------------------------
Magnitude (a.u.)       :      0.812525210
Magnitude (Debye)      :      2.065274954

VIBRATIONAL FREQUENCIES
-----------------------

Scaling factor for frequencies =  1.000000000  (already applied!)

     0:       0.00 cm**-1
     1:       0.00 cm**-1
     2:       0.00 cm**-1
     3:       0.00 cm**-1
     4:       0.00 cm**-1
     5:       0.00 cm**-1
     6:     663.03 cm**-1
     7:    1027.95 cm**-1
     8:    1028.22 cm**-1
     9:    1367.91 cm**-1
    10:    1473.62 cm**-1
    11:    1473.92 cm**-1
    12:    3049.23 cm**-1
    13:    3161.31 cm**-1
    14:    3162.31 cm**-1

IR SPECTRUM
-----------

 Mode   freq       eps      Int      T**2         TX        TY        TZ
       cm**-1   L/(mol*cm) km/mol    a.u.
----------------------------------------------------------------------------
  6:    663.03   0.005871   29.67  0.002763  (-0.052567  0.000008  0.000020)
  7:   1027.95   0.000627    3.17  0.000190  ( 0.000005  0.012588 -0.005635)
  8:   1028.22   0.000611    3.09  0.000185  (-0.000074 -0.005634 -0.012400)
  9:   1367.91   0.002477   12.52  0.000565  (-0.023773 -0.000019 -0.000022)
 10:   1473.62   0.001261    6.37  0.000267  ( 0.000065  0.003439 -0.015977)
 11:   1473.92   0.001282    6.48  0.000272  ( 0.000114  0.016150  0.003272)
 12:   3049.23   0.004122   20.83  0.000422  (-0.020538  0.000026  0.000067)
 13:   3161.31   0.001054    5.33  0.000104  ( 0.000037 -0.003179  0.009693)
 14:   3162.31   0.001015    5.13  0.000100  ( 0.000024 -0.009518 -0.003086)

--------------------------
THERMOCHEMISTRY AT 298.15K
--------------------------

Temperature         ...   298.15 K
Pressure            ...     1.00 atm
Total Mass          ...    50.49 AMU
Quasi RRHO          ...     True
Cut-Off Frequency   ...     1.00 cm^-1

Throughout the following assumptions are being made:
  (1) The electronic state is orbitally nondegenerate
  (2) There are no thermally accessible electronically excited states
  (3) Hindered rotations indicated by low frequency modes are not
      treated as such but are treated as vibrations and this may
      cause some error
  (4) All equations used are the standard statistical mechanics
      equations for an ideal gas
  (5) All vibrations are strictly harmonic

freq.     663.03  E(vib)   ...       0.08
freq.    1027.95  E(vib)   ...       0.02
freq.    1028.22  E(vib)   ...       0.02
freq.    1367.91  E(vib)   ...       0.01
freq.    1473.62  E(vib)   ...       0.00
freq.    1473.92  E(vib)   ...       0.00
freq.    3049.23  E(vib)   ...       0.00
freq.    3161.31  E(vib)   ...       0.00
freq.    3162.31  E(vib)   ...       0.00

------------
INNER ENERGY
------------

The inner energy is: U= E(el) + E(ZPE) + E(vib) + E(rot) + E(trans)
    E(el)   - is the total energy from the electronic structure calculation
              = E(kin-el) + E(nuc-el) + E(el-el) + E(nuc-nuc)
    E(ZPE)  - the the zero temperature vibrational energy from the frequency calculation
    E(vib)  - the the finite temperature correction to E(ZPE) due to population
              of excited vibrational states
    E(rot)  - is the rotational thermal energy
    E(trans)- is the translational thermal energy

Summary of contributions to the inner energy U:
Electronic energy                ...   -500.07426856 Eh
Zero point energy                ...      0.03737903 Eh      23.46 kcal/mol
Thermal vibrational correction   ...      0.00021399 Eh       0.13 kcal/mol
Thermal rotational correction    ...      0.00141627 Eh       0.89 kcal/mol
Thermal translational correction ...      0.00141627 Eh       0.89 kcal/mol
-----------------------------------------------------------------------
Total thermal energy                   -500.03384300 Eh

Summary of corrections to the electronic energy:
(perhaps to be used in another calculation)
Total thermal correction                  0.00304654 Eh       1.91 kcal/mol
Non-thermal (ZPE) correction              0.03737903 Eh      23.46 kcal/mol
-----------------------------------------------------------------------
Total correction                          0.04042556 Eh      25.37 kcal/mol

--------
ENTHALPY
--------

The enthalpy is H = U + kB*T
                kB is Boltzmann's constant
Total thermal energy              ...   -500.03384300 Eh
Thermal Enthalpy correction       ...      0.00094421 Eh       0.59 kcal/mol
-----------------------------------------------------------------------
Total Enthalpy                    ...   -500.03289879 Eh

Note: Only C1 symmetry has been detected, increase convergence thresholds
      if your molecule has a higher symmetry. Symmetry factor of 1.0 is
      used for the rotational entropy correction.

Note: Rotational entropy computed according to Herzberg
Infrared and Raman Spectra, Chapter V,1, Van Nostrand Reinhold, 1945
Point Group:  C1, Symmetry Number:   1
Rotational constants in cm-1:     5.187857     0.425195     0.425191

Vibrational entropy computed according to the QRRHO of S. Grimme
Chem.Eur.J. 2012 18 9955 using a reference frequency of 100.0 cm-1

-------
ENTROPY
-------

The entropy contributions are T*S = T*(S(el)+S(vib)+S(rot)+S(trans))
     S(el)   - electronic entropy
     S(vib)  - vibrational entropy
     S(rot)  - rotational entropy
     S(trans)- translational entropy
The entropies will be listed as multiplied by the temperature to get
units of energy

Electronic entropy                ...      0.00000000 Eh      0.00 kcal/mol
Vibrational entropy               ...      0.00026960 Eh      0.17 kcal/mol
Rotational entropy                ...      0.00954107 Eh      5.99 kcal/mol
Translational entropy             ...      0.01790331 Eh     11.23 kcal/mol
-----------------------------------------------------------------------
Final entropy term                ...      0.02771399 Eh     17.39 kcal/mol

In case the symmetry of your molecule has not been determined correctly
or in case you have a reason to use a different symmetry number we print
out the resulting rotational entropy values for sn=1,12:

 non-linear molecules -----------------------------------
|  sn= 1 | S(rot)=       0.00954107 Eh      5.99 kcal/mol|
|  sn= 2 | S(rot)=       0.00888662 Eh      5.58 kcal/mol|
|  sn= 3 | S(rot)=       0.00850378 Eh      5.34 kcal/mol|
|  sn= 4 | S(rot)=       0.00823216 Eh      5.17 kcal/mol|
|  sn= 5 | S(rot)=       0.00802147 Eh      5.03 kcal/mol|
|  sn= 6 | S(rot)=       0.00784933 Eh      4.93 kcal/mol|
|  sn= 7 | S(rot)=       0.00770378 Eh      4.83 kcal/mol|
|  sn= 8 | S(rot)=       0.00757770 Eh      4.76 kcal/mol|
|  sn= 9 | S(rot)=       0.00746650 Eh      4.69 kcal/mol|
|  sn=10 | S(rot)=       0.00736702 Eh      4.62 kcal/mol|
|  sn=11 | S(rot)=       0.00727703 Eh      4.57 kcal/mol|
|  sn=12 | S(rot)=       0.00719487 Eh      4.51 kcal/mol|
 linear molecules ---------------------------------------
|  Dinfh | S(rot)=       0.00613329 Eh      3.85 kcal/mol|
|  Cinfv | S(rot)=       0.00678774 Eh      4.26 kcal/mol|
 --------------------------------------------------------

-------------------
GIBBS FREE ENERGY
-------------------

The Gibbs free energy is G = H - T*S

Total enthalpy                    ...   -500.03289879 Eh
Total entropy correction          ...     -0.02771399 Eh    -17.39 kcal/mol
-----------------------------------------------------------------------
Final Gibbs free energy         ...   -500.06061278 Eh

For completeness - the Gibbs free energy minus the electronic energy
G-E(el)                           ...      0.01365579 Eh      8.57 kcal/mol

                             ****ORCA TERMINATED NORMALLY****
TOTAL RUN TIME: 0 days 0 hours 0 minutes 28 seconds 332 msec
