                         Program Version 6.0.0  -   RELEASE  -
|  1> ! r2SCAN-3c DEF2-TZVP FREQ
|  2> * xyzfile 0 1 vacuum_censo.xyz
|  3>
|  4>                          ****END OF INPUT****

CARTESIAN COORDINATES (ANGSTROEM)
---------------------------------
  C     -1.232532   -0.000000   -0.000004
  Cl     0.577201    0.000001    0.000007
  H     -1.575261    1.033326   -0.049043
  H     -1.575269   -0.559146   -0.870390
  H     -1.575249   -0.474214    0.919423

 Total Charge           Charge          ....    0
 Multiplicity           Mult            ....    1
 Number of Electrons    NEL             ....   26
 Basis Dimension        Dim             ....   86

ORBITAL ENERGIES
----------------

  NO   OCC          E(Eh)            E(eV)
   0   2.0000    -101.176427     -2753.1505
   1   2.0000     -10.092615      -274.6340
   2   2.0000      -9.352323      -254.4896
   3   2.0000      -7.097362      -193.1290
   4   2.0000      -7.086987      -192.8467
   5   2.0000      -7.086987      -192.8467
   6   2.0000      -0.808069       -21.9887
   7   2.0000      -0.645634       -17.5686
   8   2.0000      -0.418513       -11.3883
   9   2.0000      -0.418510       -11.3882
  10   2.0000      -0.386823       -10.5260
  11   2.0000      -0.269416        -7.3312
  12   2.0000      -0.269415        -7.3312
  13   0.0000      -0.005450        -0.1483
  14   0.0000       0.065675         1.7871
  15   0.0000       0.111380         3.0308
  16   0.0000       0.111386         3.0310
  17   0.0000       0.181021         4.9258

MULLIKEN ATOMIC CHARGES
-----------------------
   0 C :   -0.216799
   1 Cl:   -0.179144
   2 H :    0.131980
   3 H :    0.131978
   4 H :    0.131985
Sum of atomic charges:   -0.0000000

LOEWDIN ATOMIC CHARGES
----------------------
   0 C :   -0.512161
   1 Cl:    0.198070
   2 H :    0.104692
   3 H :    0.104700
   4 H :    0.104700

  Mayer bond orders larger than 0.100000
B(  0-C ,  1-Cl) :   1.0440 B(  0-C ,  2-H ) :   0.9675 B(  0-C ,  3-H ) :   0.9675
B(  0-C ,  4-H ) :   0.9675

Dispersion correction           -0.000565110
FINAL SINGLE POINT ENERGY      -500.074454197198

DIPOLE MOMENT
-------------

Method             : SCF
Type of density    : Electron Density
Multiplicity       :   1
Irrep              :   0
Energy             :  -500.0790766043351141 Eh
Relativity type    :
Basis              : AO
                                X                 Y                 Z
Electronic contribution:      4.437304757       0.000024353       0.000018638
Nuclear contribution   :     -5.234467561      -0.000032152      -0.000023475
                        -----------------------------------------
Total Dipole Moment    :     -0.797162804      -0.000007799      -0.000004838
                        -----------------------------------------
Magnitude (a.u.)       :      0.797162804
Magnitude (Debye)      :      2.026226821

VIBRATIONAL FREQUENCIES
-----------------------

Scaling factor for frequencies =  1.000000000  (already applied!)

     0:       0.00 cm**-1
     1:       0.00 cm**-1
     2:       0.00 cm**-1
     3:       0.00 cm**-1
     4:       0.00 cm**-1
     5:       0.00 cm**-1
     6:     685.91 cm**-1
     7:    1033.62 cm**-1
     8:    1033.89 cm**-1
     9:    1377.02 cm**-1
    10:    1475.96 cm**-1
    11:    1476.18 cm**-1
    12:    3045.63 cm**-1
    13:    3153.66 cm**-1
    14:    3154.36 cm**-1

IR SPECTRUM
-----------

 Mode   freq       eps      Int      T**2         TX        TY        TZ
       cm**-1   L/(mol*cm) km/mol    a.u.
----------------------------------------------------------------------------
  6:    685.91   0.005703   28.82  0.002594  (-0.050936 -0.000027  0.000004)
  7:   1033.62   0.000664    3.35  0.000200  (-0.000029 -0.002505 -0.013931)
  8:   1033.89   0.000645    3.26  0.000195  (-0.000062  0.013728 -0.002490)
  9:   1377.02   0.002513   12.70  0.000569  ( 0.023864 -0.000018  0.000008)
 10:   1475.96   0.001256    6.35  0.000265  ( 0.000056  0.015851  0.003771)
 11:   1476.18   0.001281    6.48  0.000271  ( 0.000114 -0.003642  0.016050)
 12:   3045.63   0.004492   22.70  0.000460  (-0.021453 -0.000094  0.000031)
 13:   3153.66   0.001198    6.06  0.000119  ( 0.000050 -0.010865 -0.000718)
 14:   3154.36   0.001167    5.90  0.000115  ( 0.000010 -0.000642  0.010724)

--------------------------
THERMOCHEMISTRY AT 298.15K
--------------------------

Temperature         ...   298.15 K
Pressure            ...     1.00 atm
Total Mass          ...    50.49 AMU
Quasi RRHO          ...     True
Cut-Off Frequency   ...     1.00 cm^-1

Throughout the following assumptions are being made:
  (1) The electronic state is orbitally nondegenerate
  (2) There are no thermally accessible electronically excited states
  (3) Hindered rotations indicated by low frequency modes are not
      treated as such but are treated as vibrations and this may
      cause some error
  (4) All equations used are the standard statistical mechanics
      equations for an ideal gas
  (5) All vibrations are strictly harmonic

freq.     685.91  E(vib)   ...       0.07
freq.    1033.62  E(vib)   ...       0.02
freq.    1033.89  E(vib)   ...       0.02
freq.    1377.02  E(vib)   ...       0.01
freq.    1475.96  E(vib)   ...       0.00
freq.    1476.18  E(vib)   ...       0.00
freq.    3045.63  E(vib)   ...       0.00
freq.    3153.66  E(vib)   ...       0.00
freq.    3154.36  E(vib)   ...       0.00

------------
INNER ENERGY
------------

The inner energy is: U= E(el) + E(ZPE) + E(vib) + E(rot) + E(trans)
    E(el)   - is the total energy from the electronic structure calculation
              = E(kin-el) + E(nuc-el) + E(el-el) + E(nuc-nuc)
    E(ZPE)  - the the zero temperature vibrational energy from the frequency calculation
    E(vib)  - the the finite temperature correction to E(ZPE) due to population
              of excited vibrational states
    E(rot)  - is the rotational thermal energy
    E(trans)- is the translational thermal energy

Summary of contributions to the inner energy U:
Electronic energy                ...   -500.07445420 Eh
Zero point energy                ...      0.03744448 Eh      23.50 kcal/mol
Thermal vibrational correction   ...      0.00020215 Eh       0.13 kcal/mol
Thermal rotational correction    ...      0.00141627 Eh       0.89 kcal/mol
Thermal translational correction ...      0.00141627 Eh       0.89 kcal/mol
-----------------------------------------------------------------------
Total thermal energy                   -500.03397502 Eh

Summary of corrections to the electronic energy:
(perhaps to be used in another calculation)
Total thermal correction                  0.00303469 Eh       1.90 kcal/mol
Non-thermal (ZPE) correction              0.03744448 Eh      23.50 kcal/mol
-----------------------------------------------------------------------
Total correction                          0.04047918 Eh      25.40 kcal/mol

--------
ENTHALPY
--------

The enthalpy is H = U + kB*T
                kB is Boltzmann's constant
Total thermal energy              ...   -500.03397502 Eh
Thermal Enthalpy correction       ...      0.00094421 Eh       0.59 kcal/mol
-----------------------------------------------------------------------
Total Enthalpy                    ...   -500.03303081 Eh

Note: Rotational entropy computed according to Herzberg
Infrared and Raman Spectra, Chapter V,1, Van Nostrand Reinhold, 1945
Point Group:  C3v, Symmetry Number:   3
Rotational constants in cm-1:     5.208937     0.430437     0.430437

Vibrational entropy computed according to the QRRHO of S. Grimme
Chem.Eur.J. 2012 18 9955 using a reference frequency of 100.0 cm-1

-------
ENTROPY
-------

The entropy contributions are T*S = T*(S(el)+S(vib)+S(rot)+S(trans))
     S(el)   - electronic entropy
     S(vib)  - vibrational entropy
     S(rot)  - rotational entropy
     S(trans)- translational entropy
The entropies will be listed as multiplied by the temperature to get
units of energy

Electronic entropy                ...      0.00000000 Eh      0.00 kcal/mol
Vibrational entropy               ...      0.00025312 Eh      0.16 kcal/mol
Rotational entropy                ...      0.00849030 Eh      5.33 kcal/mol
Translational entropy             ...      0.01790331 Eh     11.23 kcal/mol
-----------------------------------------------------------------------
Final entropy term                ...      0.02664673 Eh     16.72 kcal/mol

In case the symmetry of your molecule has not been determined correctly
or in case you have a reason to use a different symmetry number we print
out the resulting rotational entropy values for sn=1,12:

 non-linear molecules -----------------------------------
|  sn= 1 | S(rot)=       0.00952759 Eh      5.98 kcal/mol|
|  sn= 2 | S(rot)=       0.00887313 Eh      5.57 kcal/mol|
|  sn= 3 | S(rot)=       0.00849030 Eh      5.33 kcal/mol|
|  sn= 4 | S(rot)=       0.00821867 Eh      5.16 kcal/mol|
|  sn= 5 | S(rot)=       0.00800798 Eh      5.03 kcal/mol|
|  sn= 6 | S(rot)=       0.00783584 Eh      4.92 kcal/mol|
|  sn= 7 | S(rot)=       0.00769029 Eh      4.83 kcal/mol|
|  sn= 8 | S(rot)=       0.00756422 Eh      4.75 kcal/mol|
|  sn= 9 | S(rot)=       0.00745301 Eh      4.68 kcal/mol|
|  sn=10 | S(rot)=       0.00735353 Eh      4.61 kcal/mol|
|  sn=11 | S(rot)=       0.00726354 Eh      4.56 kcal/mol|
|  sn=12 | S(rot)=       0.00718138 Eh      4.51 kcal/mol|
 linear molecules ---------------------------------------
|  Dinfh | S(rot)=       0.00612171 Eh      3.84 kcal/mol|
|  Cinfv | S(rot)=       0.00677617 Eh      4.25 kcal/mol|
 --------------------------------------------------------

-------------------
GIBBS FREE ENERGY
-------------------

The Gibbs free energy is G = H - T*S

Total enthalpy                    ...   -500.03303081 Eh
Total entropy correction          ...     -0.02664673 Eh    -16.72 kcal/mol
-----------------------------------------------------------------------
Final Gibbs free energy         ...   -500.05967754 Eh

For completeness - the Gibbs free energy minus the electronic energy
G-E(el)                           ...      0.01477666 Eh      9.27 kcal/mol

                             ****ORCA TERMINATED NORMALLY****
TOTAL RUN TIME: 0 days 0 hours 0 minutes 30 seconds 385 msec
