                         Program Version 6.0.1  -  RELEASE   -
|  1> ! r2scan-3c def2/J RI DEFGRID2 scfconv6 printgap
|  2> %output
|  3>     printlevel normal
|  4> end
|  5> * xyz 0 1
|  6> C -1.2692132517 -0.942448659 -0.1085079174
|  7> C -0.4207412679 0.3120512418 -0.3039836488
|  8> C -1.1265247431 1.5630356826 0.2425387953
|  9> C 0.946887392 0.1255063423 0.3692224446
| 10> O 1.6839173444 -0.9489969161 -0.1626677507
| 11> H -2.1941592992 -0.8722091179 -0.6761939994
| 12> H -1.5127460421 -1.0707104992 0.9438922784
| 13> H -0.7207783455 -1.8213359081 -0.4401391486
| 14> H -0.2419363072 0.4386045547 -1.3794282247
| 15> H -2.0854056726 1.3019318114 0.6818476655
| 16> H -1.3057478878 2.290866252 -0.544266839
| 17> H -0.5268609925 2.042649373 1.0127141983
| 18> H 1.5253947174 1.058731442 0.2901241609
| 19> H 0.8126514711 -0.1102419225 1.4276085822
| 20> H 1.7987507733 -0.8036710676 -1.1086397131
| 21> *
| 22>
| 23>                          ****END OF INPUT****

CARTESIAN COORDINATES (ANGSTROEM)
---------------------------------
  C     -1.269213   -0.942449   -0.108508
  C     -0.420741    0.312051   -0.303984
  C     -1.126525    1.563036    0.242539
  C      0.946887    0.125506    0.369222
  O      1.683917   -0.948997   -0.162668
  H     -2.194159   -0.872209   -0.676194
  H     -1.512746   -1.070710    0.943892
  H     -0.720778   -1.821336   -0.440139
  H     -0.241936    0.438605   -1.379428
  H     -2.085406    1.301932    0.681848
  H     -1.305748    2.290866   -0.544267
  H     -0.526861    2.042649    1.012714
  H      1.525395    1.058731    0.290124
  H      0.812651   -0.110242    1.427609
  H      1.798751   -0.803671   -1.108640

 Total Charge           Charge          ....    0
 Multiplicity           Mult            ....    1
 Number of Electrons    NEL             ....   42
 Basis Dimension        Dim             ....  150

ORBITAL ENERGIES
----------------

  NO   OCC          E(Eh)            E(eV)
   0   2.0000     -18.947005      -515.5742
   1   2.0000     -10.071928      -274.0711
   2   2.0000     -10.036833      -273.1161
   3   2.0000     -10.020670      -272.6763
   4   2.0000     -10.013114      -272.4707
   5   2.0000      -0.986628       -26.8475
   6   2.0000      -0.766023       -20.8446
   7   2.0000      -0.652095       -17.7444
   8   2.0000      -0.639071       -17.3900
   9   2.0000      -0.545069       -14.8321
  10   2.0000      -0.465417       -12.6646
  11   2.0000      -0.439098       -11.9485
  12   2.0000      -0.412986       -11.2379
  13   2.0000      -0.384766       -10.4700
  14   2.0000      -0.366005        -9.9595
  15   2.0000      -0.358700        -9.7607
  16   2.0000      -0.331716        -9.0264
  17   2.0000      -0.309314        -8.4169
  18   2.0000      -0.302879        -8.2417
  19   2.0000      -0.281728        -7.6662
  20   2.0000      -0.234251        -6.3743
  21   0.0000       0.063676         1.7327
  22   0.0000       0.089673         2.4401
  23   0.0000       0.120730         3.2852
  24   0.0000       0.124470         3.3870
  25   0.0000       0.133088         3.6215

MULLIKEN ATOMIC CHARGES
-----------------------
   0 C :   -0.531527
   1 C :    0.107498
   2 C :   -0.562876
   3 C :   -0.231513
   4 O :   -0.418199
   5 H :    0.148943
   6 H :    0.148968
   7 H :    0.165369
   8 H :    0.130449
   9 H :    0.161508
  10 H :    0.151470
  11 H :    0.158008
  12 H :    0.136306
  13 H :    0.142816
  14 H :    0.292780
Sum of atomic charges:    0.0000000

LOEWDIN ATOMIC CHARGES
----------------------
   0 C :   -0.416752
   1 C :   -0.239057
   2 C :   -0.416900
   3 C :   -0.000712
   4 O :   -0.618426
   5 H :    0.151894
   6 H :    0.153992
   7 H :    0.163552
   8 H :    0.152313
   9 H :    0.158003
  10 H :    0.156215
  11 H :    0.157573
  12 H :    0.157223
  13 H :    0.178308
  14 H :    0.262774

  Mayer bond orders larger than 0.100000
B(  0-C ,  1-C ) :   0.8967 B(  0-C ,  5-H ) :   0.9751 B(  0-C ,  6-H ) :   0.9856
B(  0-C ,  7-H ) :   0.9692 B(  1-C ,  2-C ) :   0.8136 B(  1-C ,  3-C ) :   0.9002
B(  1-C ,  8-H ) :   0.9518 B(  2-C ,  9-H ) :   0.9843 B(  2-C , 10-H ) :   0.9697
B(  2-C , 11-H ) :   0.9878 B(  3-C ,  4-O ) :   0.9500 B(  3-C , 12-H ) :   0.9826
B(  3-C , 13-H ) :   0.9762 B(  4-O , 14-H ) :   0.8960

Dispersion correction           -0.003226906
FINAL SINGLE POINT ENERGY      -233.595574871296

DIPOLE MOMENT
-------------

Method             : SCF
Type of density    : Electron Density
Multiplicity       :   1
Irrep              :   0
Energy             :  -233.6009317379674997 Eh
Relativity type    :
Basis              : AO
                                X                 Y                 Z
Electronic contribution:      3.904892409      -1.827810975      -0.564840124
Nuclear contribution   :     -4.150625089       2.288747590       0.192272774
                        -----------------------------------------
Total Dipole Moment    :     -0.245732680       0.460936615      -0.372567350
                        -----------------------------------------
Magnitude (a.u.)       :      0.641602325
Magnitude (Debye)      :      1.630823507

Rotational constants in cm-1:             0.253566             0.116682             0.089026
Rotational constants in MHz :          7601.726475          3498.039941          2668.926233

                             ****ORCA TERMINATED NORMALLY****
TOTAL RUN TIME: 0 days 0 hours 0 minutes 12 seconds 567 msec
