                         Program Version 6.0.1  -  RELEASE   -
|  1> ! r2scan-3c def2/J RI DEFGRID2 scfconv6 printgap
|  2> %output
|  3>     printlevel normal
|  4> end
|  5> * xyz 0 1
|  6> C -3.3011161514 0.2646109815 0.008656779
|  7> C -1.8161069458 0.085044621 -0.0074013745
|  8> C -1.2507466706 -1.1867296594 -0.0042782164
|  9> C 0.1195804895 -1.3511823126 -0.0007408055
| 10> C 0.959956703 -0.2385487223 3.25216e-05
| 11> C 0.3958003109 1.0390526733 -0.002144238
| 12> C -0.973442706 1.1945996416 -0.0059009699
| 13> C 2.4150233074 -0.3998972263 0.0023282018
| 14> O 3.2200923344 0.4975875753 0.0035391502
| 15> H -3.5965672069 1.0948946679 -0.629185588
| 16> H -3.8086925585 -0.6373492066 -0.3237956603
| 17> H -3.6346964033 0.4888919882 1.0223861614
| 18> H -1.895465265 -2.0540022033 -0.0059651755
| 19> H 0.5479106546 -2.3435756393 2.87471e-05
| 20> H 1.0561977163 1.8933690144 -0.0021254423
| 21> H -1.4036431712 2.1858047614 -0.0085352403
| 22> H 2.7449137988 -1.4594442993 0.0036034214
| 23> *
| 24>
| 25>                          ****END OF INPUT****

CARTESIAN COORDINATES (ANGSTROEM)
---------------------------------
  C     -3.301116    0.264611    0.008657
  C     -1.816107    0.085045   -0.007401
  C     -1.250747   -1.186730   -0.004278
  C      0.119580   -1.351182   -0.000741
  C      0.959957   -0.238549    0.000033
  C      0.395800    1.039053   -0.002144
  C     -0.973443    1.194600   -0.005901
  C      2.415023   -0.399897    0.002328
  O      3.220092    0.497588    0.003539
  H     -3.596567    1.094895   -0.629186
  H     -3.808693   -0.637349   -0.323796
  H     -3.634696    0.488892    1.022386
  H     -1.895465   -2.054002   -0.005965
  H      0.547911   -2.343576    0.000029
  H      1.056198    1.893369   -0.002125
  H     -1.403643    2.185805   -0.008535
  H      2.744914   -1.459444    0.003603

 Total Charge           Charge          ....    0
 Multiplicity           Mult            ....    1
 Number of Electrons    NEL             ....   64
 Basis Dimension        Dim             ....  216

ORBITAL ENERGIES
----------------

  NO   OCC          E(Eh)            E(eV)
   0   2.0000     -18.942809      -515.4600
   1   2.0000     -10.114370      -275.2260
   2   2.0000     -10.065673      -273.9009
   3   2.0000     -10.056451      -273.6499
   4   2.0000     -10.050474      -273.4873
   5   2.0000     -10.050056      -273.4759
   6   2.0000     -10.048853      -273.4432
   7   2.0000     -10.047571      -273.4083
   8   2.0000     -10.042436      -273.2686
   9   2.0000      -1.009751       -27.4767
  10   2.0000      -0.847529       -23.0624
  11   2.0000      -0.767383       -20.8816
  12   2.0000      -0.733371       -19.9560
  13   2.0000      -0.685519       -18.6539
  14   2.0000      -0.604007       -16.4359
  15   2.0000      -0.592183       -16.1141
  16   2.0000      -0.545284       -14.8379
  17   2.0000      -0.484418       -13.1817
  18   2.0000      -0.455112       -12.3842
  19   2.0000      -0.436833       -11.8868
  20   2.0000      -0.410557       -11.1718
  21   2.0000      -0.407942       -11.1007
  22   2.0000      -0.405398       -11.0314
  23   2.0000      -0.395695       -10.7674
  24   2.0000      -0.381002       -10.3676
  25   2.0000      -0.366974        -9.9859
  26   2.0000      -0.337251        -9.1771
  27   2.0000      -0.336031        -9.1439
  28   2.0000      -0.321348        -8.7443
  29   2.0000      -0.254567        -6.9271
  30   2.0000      -0.243621        -6.6293
  31   2.0000      -0.222477        -6.0539
  32   0.0000      -0.092047        -2.5047
  33   0.0000      -0.047803        -1.3008
  34   0.0000       0.006237         0.1697
  35   0.0000       0.070156         1.9090
  36   0.0000       0.089544         2.4366

MULLIKEN ATOMIC CHARGES
-----------------------
   0 C :   -0.526996
   1 C :    0.221583
   2 C :   -0.212633
   3 C :   -0.226659
   4 C :    0.242857
   5 C :   -0.175943
   6 C :   -0.191263
   7 C :    0.000210
   8 O :   -0.345250
   9 H :    0.157844
  10 H :    0.153719
  11 H :    0.175874
  12 H :    0.147693
  13 H :    0.152339
  14 H :    0.177423
  15 H :    0.148935
  16 H :    0.100266
Sum of atomic charges:   -0.0000000

LOEWDIN ATOMIC CHARGES
----------------------
   0 C :   -0.386682
   1 C :   -0.074480
   2 C :   -0.162049
   3 C :   -0.127631
   4 C :   -0.108125
   5 C :   -0.097323
   6 C :   -0.154497
   7 C :    0.210492
   8 O :   -0.455687
   9 H :    0.165726
  10 H :    0.162027
  11 H :    0.171286
  12 H :    0.170678
  13 H :    0.173256
  14 H :    0.187242
  15 H :    0.171832
  16 H :    0.153934

  Mayer bond orders larger than 0.100000
B(  0-C ,  1-C ) :   0.8044 B(  0-C ,  9-H ) :   0.9815 B(  0-C , 10-H ) :   0.9895
B(  0-C , 11-H ) :   0.9647 B(  1-C ,  2-C ) :   1.3978 B(  1-C ,  6-C ) :   1.3504
B(  2-C ,  3-C ) :   1.4609 B(  2-C , 12-H ) :   0.9454 B(  3-C ,  4-C ) :   1.3691
B(  3-C , 13-H ) :   0.9321 B(  4-C ,  5-C ) :   1.3632 B(  4-C ,  7-C ) :   0.8327
B(  4-C ,  8-O ) :  -0.1098 B(  4-C , 16-H ) :  -0.1231 B(  5-C ,  6-C ) :   1.4534
B(  5-C , 14-H ) :   0.9676 B(  6-C , 15-H ) :   0.9538 B(  7-C ,  8-O ) :   1.9544
B(  7-C , 16-H ) :   1.0451

Dispersion correction           -0.005591294
FINAL SINGLE POINT ENERGY      -384.793594594431

DIPOLE MOMENT
-------------

Method             : SCF
Type of density    : Electron Density
Multiplicity       :   1
Irrep              :   0
Energy             :  -384.7933619426655696 Eh
Relativity type    :
Basis              : AO
                                X                 Y                 Z
Electronic contribution:      7.793468466       0.289975699      -0.033548228
Nuclear contribution   :     -9.324656161      -0.772633482       0.052975757
                        -----------------------------------------
Total Dipole Moment    :     -1.531187696      -0.482657783       0.019427528
                        -----------------------------------------
Magnitude (a.u.)       :      1.605575200
Magnitude (Debye)      :      4.081047833

Rotational constants in cm-1:             0.168189             0.033256             0.027909
Rotational constants in MHz :          5042.176685           996.980315           836.695244

                             ****ORCA TERMINATED NORMALLY****
TOTAL RUN TIME: 0 days 0 hours 0 minutes 31 seconds 912 msec
