                         Program Version 6.0.0  -   RELEASE  -
|  1> ! r2SCAN-3c DEF2-TZVP FREQ
|  2> * xyzfile 0 1 censo.xyz
|  3>
|  4>                          ****END OF INPUT****

CARTESIAN COORDINATES (ANGSTROEM)
---------------------------------
  C     -0.727683   -1.824103   -0.000049
  C      0.604738   -1.434063   -0.000165
  C      0.899612   -0.063278   -0.000296
  C     -0.111399    0.903757   -0.000121
  C     -1.437800    0.482889    0.000008
  C     -1.748174   -0.879133   -0.000012
  O     -2.401977    1.454421    0.000040
  C      2.257688    0.356893   -0.000437
  N      3.368863    0.693031    0.000695
  H     -0.979374   -2.879176   -0.000048
  H      1.406175   -2.163005   -0.000213
  H      0.128972    1.960678   -0.000145
  H     -2.788700   -1.190989   -0.000015
  H     -3.277033    1.040073    0.000059

 Total Charge           Charge          ....    0
 Multiplicity           Mult            ....    1
 Number of Electrons    NEL             ....   62
 Basis Dimension        Dim             ....  309

ORBITAL ENERGIES
----------------

  NO   OCC          E(Eh)            E(eV)
   0   2.0000     -19.009821      -517.2835
   1   2.0000     -14.159656      -385.3038
   2   2.0000     -10.126569      -275.5580
   3   2.0000     -10.094440      -274.6837
   4   2.0000     -10.073224      -274.1064
   5   2.0000     -10.068023      -273.9648
   6   2.0000     -10.066685      -273.9284
   7   2.0000     -10.065964      -273.9088
   8   2.0000     -10.063591      -273.8442
   9   2.0000      -1.050288       -28.5798
  10   2.0000      -0.876636       -23.8545
  11   2.0000      -0.847703       -23.0672
  12   2.0000      -0.759731       -20.6733
  13   2.0000      -0.740426       -20.1480
  14   2.0000      -0.641730       -17.4624
  15   2.0000      -0.604842       -16.4586
  16   2.0000      -0.567044       -15.4301
  17   2.0000      -0.496095       -13.4994
  18   2.0000      -0.477289       -12.9877
  19   2.0000      -0.462481       -12.5848
  20   2.0000      -0.427142       -11.6231
  21   2.0000      -0.410926       -11.1819
  22   2.0000      -0.390972       -10.6389
  23   2.0000      -0.371658       -10.1133
  24   2.0000      -0.363621        -9.8946
  25   2.0000      -0.345440        -9.3999
  26   2.0000      -0.327921        -8.9232
  27   2.0000      -0.317519        -8.6401
  28   2.0000      -0.310404        -8.4465
  29   2.0000      -0.259428        -7.0594
  30   2.0000      -0.235062        -6.3964
  31   0.0000      -0.086453        -2.3525
  32   0.0000      -0.050670        -1.3788
  33   0.0000       0.002889         0.0786
  34   0.0000       0.018768         0.5107
  35   0.0000       0.039555         1.0764

MULLIKEN ATOMIC CHARGES
-----------------------
   0 C :   -0.069189
   1 C :   -0.280444
   2 C :    0.360027
   3 C :   -0.357446
   4 C :    0.341262
   5 C :   -0.214013
   6 O :   -0.387247
   7 C :   -0.140699
   8 N :   -0.066467
   9 H :    0.123757
  10 H :    0.131004
  11 H :    0.133150
  12 H :    0.107611
  13 H :    0.318693
Sum of atomic charges:   -0.0000000

LOEWDIN ATOMIC CHARGES
----------------------
   0 C :   -0.125946
   1 C :   -0.092951
   2 C :   -0.147910
   3 C :   -0.054657
   4 C :   -0.262179
   5 C :   -0.127849
   6 O :    0.090593
   7 C :   -0.149934
   8 N :    0.065915
   9 H :    0.149906
  10 H :    0.155314
  11 H :    0.162058
  12 H :    0.145439
  13 H :    0.192201

  Mayer bond orders larger than 0.100000
B(  0-C ,  1-C ) :   1.4342 B(  0-C ,  5-C ) :   1.3810 B(  0-C ,  9-H ) :   0.9580
B(  1-C ,  2-C ) :   1.2963 B(  1-C , 10-H ) :   0.9786 B(  2-C ,  3-C ) :   1.3056
B(  2-C ,  7-C ) :   0.9298 B(  3-C ,  4-C ) :   1.3756 B(  3-C , 11-H ) :   0.9902
B(  4-C ,  5-C ) :   1.3110 B(  4-C ,  6-O ) :   1.1326 B(  5-C , 12-H ) :   0.9596
B(  6-O , 13-H ) :   0.8803 B(  7-C ,  8-N ) :   2.9897

Dispersion correction           -0.004685566
FINAL SINGLE POINT ENERGY      -399.652732291670

DIPOLE MOMENT
-------------

Method             : SCF
Type of density    : Electron Density
Multiplicity       :   1
Irrep              :   0
Energy             :  -399.6518719258967849 Eh
Relativity type    :
Basis              : AO
                                X                 Y                 Z
Electronic contribution:      3.011050369       2.142284447      -0.000339236
Nuclear contribution   :     -5.188077255      -3.015431246      -0.000221057
                        -----------------------------------------
Total Dipole Moment    :     -2.177026886      -0.873146799      -0.000560293
                        -----------------------------------------
Magnitude (a.u.)       :      2.345598369
Magnitude (Debye)      :      5.962037242

VIBRATIONAL FREQUENCIES
-----------------------

Scaling factor for frequencies =  1.000000000  (already applied!)

     0:       0.00 cm**-1
     1:       0.00 cm**-1
     2:       0.00 cm**-1
     3:       0.00 cm**-1
     4:       0.00 cm**-1
     5:       0.00 cm**-1
     6:     151.76 cm**-1
     7:     164.93 cm**-1
     8:     234.17 cm**-1
     9:     402.35 cm**-1
    10:     408.64 cm**-1
    11:     436.60 cm**-1
    12:     466.14 cm**-1
    13:     482.46 cm**-1
    14:     541.54 cm**-1
    15:     590.95 cm**-1
    16:     631.01 cm**-1
    17:     695.77 cm**-1
    18:     733.32 cm**-1
    19:     784.19 cm**-1
    20:     875.65 cm**-1
    21:     889.74 cm**-1
    22:     951.03 cm**-1
    23:     955.56 cm**-1
    24:    1016.84 cm**-1
    25:    1111.83 cm**-1
    26:    1158.23 cm**-1
    27:    1189.69 cm**-1
    28:    1218.22 cm**-1
    29:    1294.96 cm**-1
    30:    1327.26 cm**-1
    31:    1360.79 cm**-1
    32:    1491.89 cm**-1
    33:    1510.46 cm**-1
    34:    1610.58 cm**-1
    35:    1643.91 cm**-1
    36:    2281.72 cm**-1
    37:    3158.37 cm**-1
    38:    3180.75 cm**-1
    39:    3199.09 cm**-1
    40:    3202.15 cm**-1
    41:    3749.99 cm**-1

IR SPECTRUM
-----------

 Mode   freq       eps      Int      T**2         TX        TY        TZ
       cm**-1   L/(mol*cm) km/mol    a.u.
----------------------------------------------------------------------------
  6:    151.76   0.000111    0.56  0.000229  (-0.000090 -0.000059 -0.015120)
  7:    164.93   0.000540    2.73  0.001022  ( 0.005077 -0.031564  0.000009)
  8:    234.17   0.000031    0.16  0.000041  (-0.000001  0.000010 -0.006400)
  9:    402.35   0.000006    0.03  0.000004  ( 0.000003 -0.000049  0.002077)
 10:    408.64   0.002056   10.39  0.001570  (-0.026203  0.029723 -0.000029)
 11:    436.60   0.019746   99.79  0.014114  (-0.000027  0.000008  0.118801)
 12:    466.14   0.000044    0.22  0.000029  (-0.004737  0.002594  0.000061)
 13:    482.46   0.002153   10.88  0.001393  (-0.000016 -0.000027  0.037319)
 14:    541.54   0.000552    2.79  0.000318  ( 0.007042 -0.016393 -0.000008)
 15:    590.95   0.000038    0.19  0.000020  ( 0.004231  0.001552 -0.000002)
 16:    631.01   0.000074    0.37  0.000037  (-0.000027  0.000004 -0.006044)
 17:    695.77   0.004760   24.06  0.002135  ( 0.000037  0.000022  0.046205)
 18:    733.32   0.000253    1.28  0.000108  ( 0.006802 -0.007834  0.000006)
 19:    784.19   0.007951   40.18  0.003164  (-0.000043  0.000012  0.056249)
 20:    875.65   0.000229    1.16  0.000082  (-0.000002 -0.000011  0.009033)
 21:    889.74   0.003347   16.91  0.001174  ( 0.000027  0.000015 -0.034260)
 22:    951.03   0.008579   43.35  0.002815  ( 0.045934 -0.026555 -0.000003)
 23:    955.56   0.000003    0.01  0.000001  (-0.000001 -0.000005  0.000939)
 24:   1016.84   0.001542    7.79  0.000473  ( 0.017507 -0.012917  0.000001)
 25:   1111.83   0.001295    6.55  0.000364  (-0.018521 -0.004533  0.000001)
 26:   1158.23   0.009016   45.56  0.002429  ( 0.032948 -0.036657 -0.000001)
 27:   1189.69   0.002489   12.58  0.000653  (-0.011710  0.022711 -0.000000)
 28:   1218.22   0.017525   88.57  0.004489  ( 0.048114 -0.046630  0.000000)
 29:   1294.96   0.014661   74.09  0.003533  (-0.049169  0.033400  0.000001)
 30:   1327.26   0.012578   63.56  0.002957  ( 0.043310 -0.032888 -0.000002)
 31:   1360.79   0.001618    8.18  0.000371  ( 0.017580  0.007873 -0.000002)
 32:   1491.89   0.001479    7.47  0.000309  (-0.009852  0.014569  0.000000)
 33:   1510.46   0.008615   43.54  0.001780  (-0.035474  0.022837  0.000004)
 34:   1610.58   0.018103   91.49  0.003508  (-0.036738  0.046454  0.000002)
 35:   1643.91   0.004212   21.29  0.000800  (-0.026682  0.009362  0.000003)
 36:   2281.72   0.005387   27.22  0.000737  ( 0.025787  0.008475 -0.000018)
 37:   3158.37   0.001665    8.41  0.000164  ( 0.011736 -0.005174 -0.000000)
 38:   3180.75   0.001136    5.74  0.000111  ( 0.006937  0.007956 -0.000001)
 39:   3199.09   0.000108    0.55  0.000011  ( 0.003234 -0.000246  0.000000)
 40:   3202.15   0.000294    1.49  0.000029  ( 0.001360  0.005176  0.000000)
 41:   3749.99   0.013749   69.48  0.001144  ( 0.033685 -0.003070 -0.000001)

--------------------------
THERMOCHEMISTRY AT 298.15K
--------------------------

Temperature         ...   298.15 K
Pressure            ...     1.00 atm
Total Mass          ...   119.12 AMU
Quasi RRHO          ...     True
Cut-Off Frequency   ...     1.00 cm^-1

Throughout the following assumptions are being made:
  (1) The electronic state is orbitally nondegenerate
  (2) There are no thermally accessible electronically excited states
  (3) Hindered rotations indicated by low frequency modes are not
      treated as such but are treated as vibrations and this may
      cause some error
  (4) All equations used are the standard statistical mechanics
      equations for an ideal gas
  (5) All vibrations are strictly harmonic

freq.     151.76  E(vib)   ...       0.40
freq.     164.93  E(vib)   ...       0.39
freq.     234.17  E(vib)   ...       0.32
freq.     402.35  E(vib)   ...       0.19
freq.     408.64  E(vib)   ...       0.19
freq.     436.60  E(vib)   ...       0.17
freq.     466.14  E(vib)   ...       0.16
freq.     482.46  E(vib)   ...       0.15
freq.     541.54  E(vib)   ...       0.12
freq.     590.95  E(vib)   ...       0.10
freq.     631.01  E(vib)   ...       0.09
freq.     695.77  E(vib)   ...       0.07
freq.     733.32  E(vib)   ...       0.06
freq.     784.19  E(vib)   ...       0.05
freq.     875.65  E(vib)   ...       0.04
freq.     889.74  E(vib)   ...       0.04
freq.     951.03  E(vib)   ...       0.03
freq.     955.56  E(vib)   ...       0.03
freq.    1016.84  E(vib)   ...       0.02
freq.    1111.83  E(vib)   ...       0.01
freq.    1158.23  E(vib)   ...       0.01
freq.    1189.69  E(vib)   ...       0.01
freq.    1218.22  E(vib)   ...       0.01
freq.    1294.96  E(vib)   ...       0.01
freq.    1327.26  E(vib)   ...       0.01
freq.    1360.79  E(vib)   ...       0.01
freq.    1491.89  E(vib)   ...       0.00
freq.    1510.46  E(vib)   ...       0.00
freq.    1610.58  E(vib)   ...       0.00
freq.    1643.91  E(vib)   ...       0.00
freq.    2281.72  E(vib)   ...       0.00
freq.    3158.37  E(vib)   ...       0.00
freq.    3180.75  E(vib)   ...       0.00
freq.    3199.09  E(vib)   ...       0.00
freq.    3202.15  E(vib)   ...       0.00
freq.    3749.99  E(vib)   ...       0.00

------------
INNER ENERGY
------------

The inner energy is: U= E(el) + E(ZPE) + E(vib) + E(rot) + E(trans)
    E(el)   - is the total energy from the electronic structure calculation
              = E(kin-el) + E(nuc-el) + E(el-el) + E(nuc-nuc)
    E(ZPE)  - the the zero temperature vibrational energy from the frequency calculation
    E(vib)  - the the finite temperature correction to E(ZPE) due to population
              of excited vibrational states
    E(rot)  - is the rotational thermal energy
    E(trans)- is the translational thermal energy

Summary of contributions to the inner energy U:
Electronic energy                ...   -399.65273229 Eh
Zero point energy                ...      0.10275121 Eh      64.48 kcal/mol
Thermal vibrational correction   ...      0.00430055 Eh       2.70 kcal/mol
Thermal rotational correction    ...      0.00141627 Eh       0.89 kcal/mol
Thermal translational correction ...      0.00141627 Eh       0.89 kcal/mol
-----------------------------------------------------------------------
Total thermal energy                   -399.54284799 Eh

Summary of corrections to the electronic energy:
(perhaps to be used in another calculation)
Total thermal correction                  0.00713310 Eh       4.48 kcal/mol
Non-thermal (ZPE) correction              0.10275121 Eh      64.48 kcal/mol
-----------------------------------------------------------------------
Total correction                          0.10988430 Eh      68.95 kcal/mol

--------
ENTHALPY
--------

The enthalpy is H = U + kB*T
                kB is Boltzmann's constant
Total thermal energy              ...   -399.54284799 Eh
Thermal Enthalpy correction       ...      0.00094421 Eh       0.59 kcal/mol
-----------------------------------------------------------------------
Total Enthalpy                    ...   -399.54190378 Eh

Note: Only C1 symmetry has been detected, increase convergence thresholds
      if your molecule has a higher symmetry. Symmetry factor of 1.0 is
      used for the rotational entropy correction.

Note: Rotational entropy computed according to Herzberg
Infrared and Raman Spectra, Chapter V,1, Van Nostrand Reinhold, 1945
Point Group:  C1, Symmetry Number:   1
Rotational constants in cm-1:     0.113768     0.040494     0.029864

Vibrational entropy computed according to the QRRHO of S. Grimme
Chem.Eur.J. 2012 18 9955 using a reference frequency of 100.0 cm-1

-------
ENTROPY
-------

The entropy contributions are T*S = T*(S(el)+S(vib)+S(rot)+S(trans))
     S(el)   - electronic entropy
     S(vib)  - vibrational entropy
     S(rot)  - rotational entropy
     S(trans)- translational entropy
The entropies will be listed as multiplied by the temperature to get
units of energy

Electronic entropy                ...      0.00000000 Eh      0.00 kcal/mol
Vibrational entropy               ...      0.00678090 Eh      4.26 kcal/mol
Rotational entropy                ...      0.01370830 Eh      8.60 kcal/mol
Translational entropy             ...      0.01911907 Eh     12.00 kcal/mol
-----------------------------------------------------------------------
Final entropy term                ...      0.03960827 Eh     24.85 kcal/mol

In case the symmetry of your molecule has not been determined correctly
or in case you have a reason to use a different symmetry number we print
out the resulting rotational entropy values for sn=1,12:

 non-linear molecules -----------------------------------
|  sn= 1 | S(rot)=       0.01370830 Eh      8.60 kcal/mol|
|  sn= 2 | S(rot)=       0.01305384 Eh      8.19 kcal/mol|
|  sn= 3 | S(rot)=       0.01267101 Eh      7.95 kcal/mol|
|  sn= 4 | S(rot)=       0.01239938 Eh      7.78 kcal/mol|
|  sn= 5 | S(rot)=       0.01218870 Eh      7.65 kcal/mol|
|  sn= 6 | S(rot)=       0.01201655 Eh      7.54 kcal/mol|
|  sn= 7 | S(rot)=       0.01187100 Eh      7.45 kcal/mol|
|  sn= 8 | S(rot)=       0.01174493 Eh      7.37 kcal/mol|
|  sn= 9 | S(rot)=       0.01163372 Eh      7.30 kcal/mol|
|  sn=10 | S(rot)=       0.01153424 Eh      7.24 kcal/mol|
|  sn=11 | S(rot)=       0.01144425 Eh      7.18 kcal/mol|
|  sn=12 | S(rot)=       0.01136209 Eh      7.13 kcal/mol|
 linear molecules ---------------------------------------
|  Dinfh | S(rot)=       0.00864091 Eh      5.42 kcal/mol|
|  Cinfv | S(rot)=       0.00929536 Eh      5.83 kcal/mol|
 --------------------------------------------------------

-------------------
GIBBS FREE ENERGY
-------------------

The Gibbs free energy is G = H - T*S

                             ****ORCA TERMINATED NORMALLY****
TOTAL RUN TIME: 0 days 0 hours 16 minutes 7 seconds 998 msec
