                         Program Version 6.0.0  -   RELEASE  -
|  1> ! r2SCAN-3c DEF2-TZVP FREQ
|  2> * xyzfile 0 1 vacuum_censo.xyz
|  3>
|  4>                          ****END OF INPUT****

CARTESIAN COORDINATES (ANGSTROEM)
---------------------------------
  C     -0.739358   -1.817463   -0.000040
  C      0.596932   -1.435246    0.000022
  C      0.908778   -0.071026    0.000068
  C     -0.104079    0.896589    0.000001
  C     -1.434769    0.489078   -0.000069
  C     -1.754357   -0.870415   -0.000073
  O     -2.472712    1.370963   -0.000074
  C      2.270698    0.348300    0.000654
  N      3.376102    0.693320   -0.000603
  H     -0.995082   -2.871696   -0.000019
  H      1.392489   -2.170228    0.000099
  H      0.158490    1.950302    0.000070
  H     -2.798663   -1.162711   -0.000088
  H     -2.132384    2.273062   -0.000233

 Total Charge           Charge          ....    0
 Multiplicity           Mult            ....    1
 Number of Electrons    NEL             ....   62
 Basis Dimension        Dim             ....  309

ORBITAL ENERGIES
----------------

  NO   OCC          E(Eh)            E(eV)
   0   2.0000     -19.010070      -517.2903
   1   2.0000     -14.161369      -385.3504
   2   2.0000     -10.126324      -275.5513
   3   2.0000     -10.096170      -274.7307
   4   2.0000     -10.075379      -274.1650
   5   2.0000     -10.070352      -274.0282
   6   2.0000     -10.065734      -273.9026
   7   2.0000     -10.063328      -273.8371
   8   2.0000     -10.060927      -273.7717
   9   2.0000      -1.053714       -28.6730
  10   2.0000      -0.879318       -23.9274
  11   2.0000      -0.848414       -23.0865
  12   2.0000      -0.760519       -20.6948
  13   2.0000      -0.738665       -20.1001
  14   2.0000      -0.639745       -17.4084
  15   2.0000      -0.615471       -16.7478
  16   2.0000      -0.552690       -15.0395
  17   2.0000      -0.505768       -13.7626
  18   2.0000      -0.484084       -13.1726
  19   2.0000      -0.457116       -12.4388
  20   2.0000      -0.426559       -11.6073
  21   2.0000      -0.412204       -11.2166
  22   2.0000      -0.388198       -10.5634
  23   2.0000      -0.366179        -9.9642
  24   2.0000      -0.365469        -9.9449
  25   2.0000      -0.351118        -9.5544
  26   2.0000      -0.329058        -8.9541
  27   2.0000      -0.317854        -8.6492
  28   2.0000      -0.313155        -8.5214
  29   2.0000      -0.260651        -7.0927
  30   2.0000      -0.234558        -6.3826
  31   0.0000      -0.086692        -2.3590
  32   0.0000      -0.049811        -1.3554
  33   0.0000       0.001450         0.0394
  34   0.0000       0.019889         0.5412
  35   0.0000       0.039648         1.0789

MULLIKEN ATOMIC CHARGES
-----------------------
   0 C :   -0.037820
   1 C :   -0.278042
   2 C :    0.313496
   3 C :   -0.340669
   4 C :    0.339266
   5 C :   -0.214587
   6 O :   -0.387820
   7 C :   -0.150357
   8 N :   -0.062164
   9 H :    0.122178
  10 H :    0.129972
  11 H :    0.122095
  12 H :    0.124541
  13 H :    0.319912
Sum of atomic charges:    0.0000000

LOEWDIN ATOMIC CHARGES
----------------------
   0 C :   -0.122926
   1 C :   -0.093066
   2 C :   -0.150493
   3 C :   -0.082646
   4 C :   -0.267616
   5 C :   -0.100674
   6 O :    0.099038
   7 C :   -0.152255
   8 N :    0.066104
   9 H :    0.150478
  10 H :    0.155034
  11 H :    0.154066
  12 H :    0.153724
  13 H :    0.191230

  Mayer bond orders larger than 0.100000
B(  0-C ,  1-C ) :   1.4042 B(  0-C ,  5-C ) :   1.4002 B(  0-C ,  9-H ) :   0.9705
B(  1-C ,  2-C ) :   1.3143 B(  1-C , 10-H ) :   0.9765 B(  2-C ,  3-C ) :   1.3110
B(  2-C ,  7-C ) :   0.9065 B(  3-C ,  4-C ) :   1.3472 B(  3-C , 11-H ) :   0.9558
B(  4-C ,  5-C ) :   1.3397 B(  4-C ,  6-O ) :   1.1369 B(  5-C , 12-H ) :   0.9728
B(  6-O , 13-H ) :   0.8810 B(  7-C ,  8-N ) :   2.9914

Dispersion correction           -0.004687270
FINAL SINGLE POINT ENERGY      -399.653324560687

DIPOLE MOMENT
-------------

Method             : SCF
Type of density    : Electron Density
Multiplicity       :   1
Irrep              :   0
Energy             :  -399.6524505731333079 Eh
Relativity type    :
Basis              : AO
                                X                 Y                 Z
Electronic contribution:      2.640065645       1.732612576       0.000478889
Nuclear contribution   :     -4.132183759      -1.838602612      -0.000045385
                        -----------------------------------------
Total Dipole Moment    :     -1.492118113      -0.105990036       0.000433504
                        -----------------------------------------
Magnitude (a.u.)       :      1.495877849
Magnitude (Debye)      :      3.802219326

VIBRATIONAL FREQUENCIES
-----------------------

Scaling factor for frequencies =  1.000000000  (already applied!)

     0:       0.00 cm**-1
     1:       0.00 cm**-1
     2:       0.00 cm**-1
     3:       0.00 cm**-1
     4:       0.00 cm**-1
     5:       0.00 cm**-1
     6:     142.53 cm**-1
     7:     151.64 cm**-1
     8:     229.60 cm**-1
     9:     376.18 cm**-1
    10:     396.83 cm**-1
    11:     403.14 cm**-1
    12:     464.80 cm**-1
    13:     480.07 cm**-1
    14:     542.24 cm**-1
    15:     586.30 cm**-1
    16:     628.13 cm**-1
    17:     695.61 cm**-1
    18:     736.35 cm**-1
    19:     797.26 cm**-1
    20:     859.30 cm**-1
    21:     900.75 cm**-1
    22:     955.24 cm**-1
    23:     970.87 cm**-1
    24:    1018.81 cm**-1
    25:    1103.10 cm**-1
    26:    1172.02 cm**-1
    27:    1191.15 cm**-1
    28:    1197.67 cm**-1
    29:    1304.73 cm**-1
    30:    1344.99 cm**-1
    31:    1363.99 cm**-1
    32:    1471.38 cm**-1
    33:    1525.82 cm**-1
    34:    1625.92 cm**-1
    35:    1634.45 cm**-1
    36:    2298.17 cm**-1
    37:    3168.59 cm**-1
    38:    3175.26 cm**-1
    39:    3191.56 cm**-1
    40:    3203.52 cm**-1
    41:    3804.74 cm**-1

IR SPECTRUM
-----------

 Mode   freq       eps      Int      T**2         TX        TY        TZ
       cm**-1   L/(mol*cm) km/mol    a.u.
----------------------------------------------------------------------------
  6:    142.53   0.000774    3.91  0.001694  (-0.000019 -0.000170  0.041163)
  7:    151.64   0.001308    6.61  0.002691  (-0.021500  0.047208  0.000076)
  8:    229.60   0.000178    0.90  0.000243  ( 0.000005 -0.000038 -0.015573)
  9:    376.18   0.020123  101.69  0.016693  (-0.000035  0.000003 -0.129202)
 10:    396.83   0.000003    0.01  0.000002  (-0.000107 -0.000011 -0.001445)
 11:    403.14   0.001275    6.44  0.000987  ( 0.027298 -0.015550  0.000009)
 12:    464.80   0.000187    0.94  0.000125  (-0.006507  0.009103  0.000184)
 13:    480.07   0.002672   13.50  0.001737  ( 0.000100 -0.000020  0.041676)
 14:    542.24   0.000626    3.16  0.000360  ( 0.013350 -0.013485  0.000005)
 15:    586.30   0.000880    4.45  0.000468  ( 0.013881 -0.016606 -0.000002)
 16:    628.13   0.000033    0.17  0.000017  ( 0.000016 -0.000020  0.004071)
 17:    695.61   0.004433   22.40  0.001989  ( 0.000022  0.000000 -0.044596)
 18:    736.35   0.000567    2.86  0.000240  ( 0.009818 -0.011991  0.000026)
 19:    797.26   0.005241   26.49  0.002051  (-0.000045  0.000032 -0.045292)
 20:    859.30   0.005522   27.91  0.002006  ( 0.000049  0.000038  0.044783)
 21:    900.75   0.000001    0.00  0.000000  ( 0.000011  0.000011  0.000527)
 22:    955.24   0.002950   14.91  0.000964  ( 0.028399 -0.012538  0.000002)
 23:    970.87   0.000048    0.24  0.000015  ( 0.000009 -0.000006 -0.003920)
 24:   1018.81   0.001511    7.64  0.000463  ( 0.019499 -0.009086 -0.000001)
 25:   1103.10   0.001283    6.48  0.000363  ( 0.002840 -0.018839 -0.000001)
 26:   1172.02   0.010894   55.05  0.002901  (-0.036092  0.039974 -0.000006)
 27:   1191.15   0.000987    4.99  0.000259  (-0.016067  0.000667  0.000002)
 28:   1197.67   0.023906  120.81  0.006229  ( 0.065866 -0.043480 -0.000001)
 29:   1304.73   0.016324   82.49  0.003904  ( 0.048063 -0.039928 -0.000002)
 30:   1344.99   0.000150    0.76  0.000035  ( 0.002833 -0.005184  0.000001)
 31:   1363.99   0.003110   15.72  0.000712  (-0.003028  0.026504  0.000000)
 32:   1471.38   0.016357   82.66  0.003469  ( 0.042613 -0.040660 -0.000001)
 33:   1525.82   0.001407    7.11  0.000288  ( 0.016385 -0.004403  0.000005)
 34:   1625.92   0.012874   65.06  0.002471  ( 0.029752 -0.039822  0.000002)
 35:   1634.45   0.008714   44.04  0.001664  ( 0.035466 -0.020147  0.000005)
 36:   2298.17   0.006127   30.96  0.000832  (-0.027440 -0.008890 -0.000028)
 37:   3168.59   0.000887    4.48  0.000087  (-0.005485  0.007571  0.000000)
 38:   3175.26   0.000793    4.01  0.000078  (-0.001039 -0.008769 -0.000000)
 39:   3191.56   0.000464    2.35  0.000045  (-0.006482 -0.001835 -0.000000)
 40:   3203.52   0.000246    1.24  0.000024  (-0.000277 -0.004884  0.000000)
 41:   3804.74   0.013002   65.71  0.001066  (-0.007883  0.031690 -0.000005)

--------------------------
THERMOCHEMISTRY AT 298.15K
--------------------------

Temperature         ...   298.15 K
Pressure            ...     1.00 atm
Total Mass          ...   119.12 AMU
Quasi RRHO          ...     True
Cut-Off Frequency   ...     1.00 cm^-1

Throughout the following assumptions are being made:
  (1) The electronic state is orbitally nondegenerate
  (2) There are no thermally accessible electronically excited states
  (3) Hindered rotations indicated by low frequency modes are not
      treated as such but are treated as vibrations and this may
      cause some error
  (4) All equations used are the standard statistical mechanics
      equations for an ideal gas
  (5) All vibrations are strictly harmonic

freq.     142.53  E(vib)   ...       0.41
freq.     151.64  E(vib)   ...       0.40
freq.     229.60  E(vib)   ...       0.32
freq.     376.18  E(vib)   ...       0.21
freq.     396.83  E(vib)   ...       0.20
freq.     403.14  E(vib)   ...       0.19
freq.     464.80  E(vib)   ...       0.16
freq.     480.07  E(vib)   ...       0.15
freq.     542.24  E(vib)   ...       0.12
freq.     586.30  E(vib)   ...       0.11
freq.     628.13  E(vib)   ...       0.09
freq.     695.61  E(vib)   ...       0.07
freq.     736.35  E(vib)   ...       0.06
freq.     797.26  E(vib)   ...       0.05
freq.     859.30  E(vib)   ...       0.04
freq.     900.75  E(vib)   ...       0.03
freq.     955.24  E(vib)   ...       0.03
freq.     970.87  E(vib)   ...       0.03
freq.    1018.81  E(vib)   ...       0.02
freq.    1103.10  E(vib)   ...       0.02
freq.    1172.02  E(vib)   ...       0.01
freq.    1191.15  E(vib)   ...       0.01
freq.    1197.67  E(vib)   ...       0.01
freq.    1304.73  E(vib)   ...       0.01
freq.    1344.99  E(vib)   ...       0.01
freq.    1363.99  E(vib)   ...       0.01
freq.    1471.38  E(vib)   ...       0.00
freq.    1525.82  E(vib)   ...       0.00
freq.    1625.92  E(vib)   ...       0.00
freq.    1634.45  E(vib)   ...       0.00
freq.    2298.17  E(vib)   ...       0.00
freq.    3168.59  E(vib)   ...       0.00
freq.    3175.26  E(vib)   ...       0.00
freq.    3191.56  E(vib)   ...       0.00
freq.    3203.52  E(vib)   ...       0.00
freq.    3804.74  E(vib)   ...       0.00

------------
INNER ENERGY
------------

The inner energy is: U= E(el) + E(ZPE) + E(vib) + E(rot) + E(trans)
    E(el)   - is the total energy from the electronic structure calculation
              = E(kin-el) + E(nuc-el) + E(el-el) + E(nuc-nuc)
    E(ZPE)  - the the zero temperature vibrational energy from the frequency calculation
    E(vib)  - the the finite temperature correction to E(ZPE) due to population
              of excited vibrational states
    E(rot)  - is the rotational thermal energy
    E(trans)- is the translational thermal energy

Summary of contributions to the inner energy U:
Electronic energy                ...   -399.65332456 Eh
Zero point energy                ...      0.10277437 Eh      64.49 kcal/mol
Thermal vibrational correction   ...      0.00441407 Eh       2.77 kcal/mol
Thermal rotational correction    ...      0.00141627 Eh       0.89 kcal/mol
Thermal translational correction ...      0.00141627 Eh       0.89 kcal/mol
-----------------------------------------------------------------------
Total thermal energy                   -399.54330357 Eh

Summary of corrections to the electronic energy:
(perhaps to be used in another calculation)
Total thermal correction                  0.00724662 Eh       4.55 kcal/mol
Non-thermal (ZPE) correction              0.10277437 Eh      64.49 kcal/mol
-----------------------------------------------------------------------
Total correction                          0.11002099 Eh      69.04 kcal/mol

--------
ENTHALPY
--------

The enthalpy is H = U + kB*T
                kB is Boltzmann's constant
Total thermal energy              ...   -399.54330357 Eh
Thermal Enthalpy correction       ...      0.00094421 Eh       0.59 kcal/mol
-----------------------------------------------------------------------
Total Enthalpy                    ...   -399.54235936 Eh

Note: Only C1 symmetry has been detected, increase convergence thresholds
      if your molecule has a higher symmetry. Symmetry factor of 1.0 is
      used for the rotational entropy correction.

Note: Rotational entropy computed according to Herzberg
Infrared and Raman Spectra, Chapter V,1, Van Nostrand Reinhold, 1945
Point Group:  C1, Symmetry Number:   1
Rotational constants in cm-1:     0.114034     0.040382     0.029822

Vibrational entropy computed according to the QRRHO of S. Grimme
Chem.Eur.J. 2012 18 9955 using a reference frequency of 100.0 cm-1

-------
ENTROPY
-------

The entropy contributions are T*S = T*(S(el)+S(vib)+S(rot)+S(trans))
     S(el)   - electronic entropy
     S(vib)  - vibrational entropy
     S(rot)  - rotational entropy
     S(trans)- translational entropy
The entropies will be listed as multiplied by the temperature to get
units of energy

Electronic entropy                ...      0.00000000 Eh      0.00 kcal/mol
Vibrational entropy               ...      0.00703648 Eh      4.42 kcal/mol
Rotational entropy                ...      0.01370918 Eh      8.60 kcal/mol
Translational entropy             ...      0.01911907 Eh     12.00 kcal/mol
-----------------------------------------------------------------------
Final entropy term                ...      0.03986472 Eh     25.02 kcal/mol

In case the symmetry of your molecule has not been determined correctly
or in case you have a reason to use a different symmetry number we print
out the resulting rotational entropy values for sn=1,12:

 non-linear molecules -----------------------------------
|  sn= 1 | S(rot)=       0.01370918 Eh      8.60 kcal/mol|
|  sn= 2 | S(rot)=       0.01305472 Eh      8.19 kcal/mol|
|  sn= 3 | S(rot)=       0.01267189 Eh      7.95 kcal/mol|
|  sn= 4 | S(rot)=       0.01240026 Eh      7.78 kcal/mol|
|  sn= 5 | S(rot)=       0.01218957 Eh      7.65 kcal/mol|
|  sn= 6 | S(rot)=       0.01201743 Eh      7.54 kcal/mol|
|  sn= 7 | S(rot)=       0.01187188 Eh      7.45 kcal/mol|
|  sn= 8 | S(rot)=       0.01174581 Eh      7.37 kcal/mol|
|  sn= 9 | S(rot)=       0.01163460 Eh      7.30 kcal/mol|
|  sn=10 | S(rot)=       0.01153512 Eh      7.24 kcal/mol|
|  sn=11 | S(rot)=       0.01144513 Eh      7.18 kcal/mol|
|  sn=12 | S(rot)=       0.01136297 Eh      7.13 kcal/mol|
 linear molecules ---------------------------------------
|  Dinfh | S(rot)=       0.00864226 Eh      5.42 kcal/mol|
|  Cinfv | S(rot)=       0.00929671 Eh      5.83 kcal/mol|
 --------------------------------------------------------

-------------------
GIBBS FREE ENERGY
-------------------

The Gibbs free energy is G = H - T*S

                             ****ORCA TERMINATED NORMALLY****
TOTAL RUN TIME: 0 days 0 hours 16 minutes 1 seconds 955 msec
