                         Program Version 6.0.1  -  RELEASE   -
|  1> ! pbe def2-sv(p) def2/J RI DEFGRID1 loosescf d4 GCP(DFT/SV(P)) printgap
|  2> %output
|  3>     printlevel normal
|  4> end
|  5> * xyz 0 1
|  6> C -1.6796392112 0.6175228776 -0.6266907924
|  7> C -1.1983191269 -0.0821111826 0.6378691001
|  8> C 0.0381058607 -0.9487736817 0.3712972988
|  9> C 1.1775791633 -0.1460720068 -0.0242516379
| 10> C 2.1067847536 0.5366352635 -0.3437174867
| 11> H -2.5437740511 1.2423781051 -0.4127252995
| 12> H -0.8891254253 1.2448881822 -1.0326242458
| 13> H -1.9619611638 -0.1115693695 -1.3839154335
| 14> H -0.9550861845 0.6640946366 1.3975988151
| 15> H -1.9949624287 -0.7175098929 1.0322940234
| 16> H -0.1808674541 -1.6687912175 -0.4231289018
| 17> H 0.3007210383 -1.5070900618 1.2750574733
| 18> H 2.9278764856 1.1252888194 -0.6254280997
| 19> *
| 20>
| 21>                          ****END OF INPUT****

CARTESIAN COORDINATES (ANGSTROEM)
---------------------------------
  C     -1.679639    0.617523   -0.626691
  C     -1.198319   -0.082111    0.637869
  C      0.038106   -0.948774    0.371297
  C      1.177579   -0.146072   -0.024252
  C      2.106785    0.536635   -0.343717
  H     -2.543774    1.242378   -0.412725
  H     -0.889125    1.244888   -1.032624
  H     -1.961961   -0.111569   -1.383915
  H     -0.955086    0.664095    1.397599
  H     -1.994962   -0.717510    1.032294
  H     -0.180867   -1.668791   -0.423129
  H      0.300721   -1.507090    1.275057
  H      2.927876    1.125289   -0.625428

 Total Charge           Charge          ....    0
 Multiplicity           Mult            ....    1
 Number of Electrons    NEL             ....   38
 Basis Dimension        Dim             ....   86

ORBITAL ENERGIES
----------------

  NO   OCC          E(Eh)            E(eV)
   0   2.0000      -9.909236      -269.6440
   1   2.0000      -9.893989      -269.2291
   2   2.0000      -9.885805      -269.0064
   3   2.0000      -9.877212      -268.7726
   4   2.0000      -9.874696      -268.7041
   5   2.0000      -0.733044       -19.9472
   6   2.0000      -0.662095       -18.0165
   7   2.0000      -0.616872       -16.7859
   8   2.0000      -0.536449       -14.5975
   9   2.0000      -0.471413       -12.8278
  10   2.0000      -0.429320       -11.6824
  11   2.0000      -0.412711       -11.2304
  12   2.0000      -0.380953       -10.3663
  13   2.0000      -0.362747        -9.8708
  14   2.0000      -0.313990        -8.5441
  15   2.0000      -0.310798        -8.4572
  16   2.0000      -0.298893        -8.1333
  17   2.0000      -0.233475        -6.3532
  18   2.0000      -0.232309        -6.3215
  19   0.0000       0.014448         0.3932
  20   0.0000       0.021787         0.5929
  21   0.0000       0.051427         1.3994
  22   0.0000       0.081595         2.2203
  23   0.0000       0.084491         2.2991

MULLIKEN ATOMIC CHARGES
-----------------------
   0 C :   -0.287438
   1 C :   -0.192839
   2 C :   -0.109737
   3 C :    0.403688
   4 C :   -0.605397
   5 H :    0.106226
   6 H :    0.120902
   7 H :    0.096115
   8 H :    0.101645
   9 H :    0.091326
  10 H :    0.109582
  11 H :    0.113696
  12 H :    0.052231
Sum of atomic charges:   -0.0000000

LOEWDIN ATOMIC CHARGES
----------------------
   0 C :   -0.343010
   1 C :   -0.222929
   2 C :   -0.226410
   3 C :   -0.028737
   4 C :   -0.206559
   5 H :    0.120454
   6 H :    0.125739
   7 H :    0.116957
   8 H :    0.122172
   9 H :    0.117221
  10 H :    0.139939
  11 H :    0.141965
  12 H :    0.143198

  Mayer bond orders larger than 0.100000
B(  0-C ,  1-C ) :   1.1504 B(  0-C ,  5-H ) :   0.9527 B(  0-C ,  6-H ) :   0.9497
B(  0-C ,  7-H ) :   0.9540 B(  1-C ,  2-C ) :   1.0957 B(  1-C ,  8-H ) :   0.9290
B(  1-C ,  9-H ) :   0.9244 B(  2-C ,  3-C ) :   1.1196 B(  2-C , 10-H ) :   0.8875
B(  2-C , 11-H ) :   0.8855 B(  3-C ,  4-C ) :   2.2214 B(  3-C , 12-H ) :  -0.1284
B(  4-C , 12-H ) :   1.0903

Dispersion correction           -0.008548172
FINAL SINGLE POINT ENERGY      -194.797749103924

DIPOLE MOMENT
-------------

Method             : SCF
Type of density    : Electron Density
Multiplicity       :   1
Irrep              :   0
Energy             :  -194.8372263385592760 Eh
Relativity type    :
Basis              : AO
                                X                 Y                 Z
Electronic contribution:      4.724125991      -0.366520709       0.245158812
Nuclear contribution   :     -4.969630218       0.254889408      -0.162182218
                        -----------------------------------------
Total Dipole Moment    :     -0.245504227      -0.111631301       0.082976594
                        -----------------------------------------
Magnitude (a.u.)       :      0.282168368
Magnitude (Debye)      :      0.717214994

Rotational constants in cm-1:             0.333596             0.108191             0.090037
Rotational constants in MHz :         10000.953109          3243.491786          2699.247450

                             ****ORCA TERMINATED NORMALLY****
TOTAL RUN TIME: 0 days 0 hours 0 minutes 3 seconds 413 msec
