                         Program Version 6.0.1  -  RELEASE   -
|  1> ! pbe def2-sv(p) def2/J RI DEFGRID1 loosescf d4 GCP(DFT/SV(P)) printgap
|  2> %output
|  3>     printlevel normal
|  4> end
|  5> * xyz 0 1
|  6> C -2.1554677031 0.3252682846 0.4254558056
|  7> C -1.0287814747 0.1575694084 -0.594512369
|  8> C 0.0010153553 -0.8072381034 -0.0942290224
|  9> C 1.2732951084 -0.5664012409 0.1822021703
| 10> C 2.0099203503 0.7264469061 0.0493614341
| 11> H -1.7633270665 0.7278017706 1.3568657257
| 12> H -2.6241555819 -0.6333975551 0.6374109976
| 13> H -2.9156610895 1.0049256483 0.0466495319
| 14> H -1.4494622318 -0.2309290458 -1.5268983267
| 15> H -0.5863006357 1.1299765451 -0.8087005126
| 16> H -0.3806836844 -1.8085657598 0.0656375915
| 17> H 1.8855594521 -1.3834135653 0.5454236811
| 18> H 1.364923106 1.5394435679 -0.268634649
| 19> H 2.8175609892 0.6193904305 -0.6751544826
| 20> H 2.4600798981 0.9933599305 1.0054267522
| 21> *
| 22>
| 23>                          ****END OF INPUT****

CARTESIAN COORDINATES (ANGSTROEM)
---------------------------------
  C     -2.155468    0.325268    0.425456
  C     -1.028781    0.157569   -0.594512
  C      0.001015   -0.807238   -0.094229
  C      1.273295   -0.566401    0.182202
  C      2.009920    0.726447    0.049361
  H     -1.763327    0.727802    1.356866
  H     -2.624156   -0.633398    0.637411
  H     -2.915661    1.004926    0.046650
  H     -1.449462   -0.230929   -1.526898
  H     -0.586301    1.129977   -0.808701
  H     -0.380684   -1.808566    0.065638
  H      1.885559   -1.383414    0.545424
  H      1.364923    1.539444   -0.268635
  H      2.817561    0.619390   -0.675154
  H      2.460080    0.993360    1.005427

 Total Charge           Charge          ....    0
 Multiplicity           Mult            ....    1
 Number of Electrons    NEL             ....   40
 Basis Dimension        Dim             ....   90

ORBITAL ENERGIES
----------------

  NO   OCC          E(Eh)            E(eV)
   0   2.0000      -9.884936      -268.9828
   1   2.0000      -9.880939      -268.8740
   2   2.0000      -9.878872      -268.8178
   3   2.0000      -9.877186      -268.7719
   4   2.0000      -9.874007      -268.6854
   5   2.0000      -0.722540       -19.6613
   6   2.0000      -0.672889       -18.3102
   7   2.0000      -0.606568       -16.5056
   8   2.0000      -0.546806       -14.8793
   9   2.0000      -0.465049       -12.6546
  10   2.0000      -0.431134       -11.7318
  11   2.0000      -0.386628       -10.5207
  12   2.0000      -0.378548       -10.3008
  13   2.0000      -0.364672        -9.9232
  14   2.0000      -0.336327        -9.1519
  15   2.0000      -0.324683        -8.8351
  16   2.0000      -0.321824        -8.7573
  17   2.0000      -0.296387        -8.0651
  18   2.0000      -0.277650        -7.5552
  19   2.0000      -0.209735        -5.7072
  20   0.0000      -0.002148        -0.0585
  21   0.0000       0.043779         1.1913
  22   0.0000       0.063367         1.7243
  23   0.0000       0.071871         1.9557
  24   0.0000       0.096485         2.6255

MULLIKEN ATOMIC CHARGES
-----------------------
   0 C :   -0.290206
   1 C :   -0.128023
   2 C :   -0.128060
   3 C :   -0.160264
   4 C :   -0.228143
   5 H :    0.106092
   6 H :    0.100857
   7 H :    0.102577
   8 H :    0.091806
   9 H :    0.087025
  10 H :    0.058106
  11 H :    0.063446
  12 H :    0.103760
  13 H :    0.111994
  14 H :    0.109032
Sum of atomic charges:   -0.0000000

LOEWDIN ATOMIC CHARGES
----------------------
   0 C :   -0.335896
   1 C :   -0.230917
   2 C :   -0.149379
   3 C :   -0.155523
   4 C :   -0.337892
   5 H :    0.119573
   6 H :    0.117127
   7 H :    0.117664
   8 H :    0.124091
   9 H :    0.117125
  10 H :    0.117186
  11 H :    0.117469
  12 H :    0.120900
  13 H :    0.129759
  14 H :    0.128714

  Mayer bond orders larger than 0.100000
B(  0-C ,  1-C ) :   1.1279 B(  0-C ,  5-H ) :   0.9574 B(  0-C ,  6-H ) :   0.9586
B(  0-C ,  7-H ) :   0.9505 B(  1-C ,  2-C ) :   1.0835 B(  1-C ,  8-H ) :   0.9087
B(  1-C ,  9-H ) :   0.9129 B(  2-C ,  3-C ) :   2.0079 B(  2-C , 10-H ) :   0.9231
B(  3-C ,  4-C ) :   1.1216 B(  3-C , 11-H ) :   0.9251 B(  4-C , 12-H ) :   0.9390
B(  4-C , 13-H ) :   0.9356 B(  4-C , 14-H ) :   0.9357

Dispersion correction           -0.009757051
FINAL SINGLE POINT ENERGY      -196.031076417711

DIPOLE MOMENT
-------------

Method             : SCF
Type of density    : Electron Density
Multiplicity       :   1
Irrep              :   0
Energy             :  -196.0791333490659554 Eh
Relativity type    :
Basis              : AO
                                X                 Y                 Z
Electronic contribution:      1.134982699      -1.750461310      -0.376576338
Nuclear contribution   :     -1.117790156       1.837478593       0.354650311
                        -----------------------------------------
Total Dipole Moment    :      0.017192543       0.087017283      -0.021926027
                        -----------------------------------------
Magnitude (a.u.)       :      0.091369261
Magnitude (Debye)      :      0.232242204

Rotational constants in cm-1:             0.366731             0.088068             0.080577
Rotational constants in MHz :         10994.323635          2640.210325          2415.643235

                             ****ORCA TERMINATED NORMALLY****
TOTAL RUN TIME: 0 days 0 hours 0 minutes 5 seconds 750 msec
