                         Program Version 6.0.1  -  RELEASE   -
|  1> ! pbe def2-sv(p) def2/J RI DEFGRID1 loosescf d4 GCP(DFT/SV(P)) printgap
|  2> %output
|  3>     printlevel normal
|  4> end
|  5> * xyz 0 1
|  6> C 0.6538492467 1.04903e-05 -0.3856602099
|  7> C -0.6538743297 7.62525e-05 0.3855696736
|  8> Cl -1.5882254144 1.4497186082 -0.0332867412
|  9> Cl -1.588892988 -1.4492001151 -0.0332565185
| 10> Cl 1.5888212462 1.4489770201 0.0333092498
| 11> Cl 1.5883050229 -1.4495272307 0.0332676441
| 12> H 0.487606128 -8.48724e-05 -1.465467795
| 13> H -0.4875839302 0.0001668378 1.4653636149
| 14> *
| 15>
| 16>                          ****END OF INPUT****

CARTESIAN COORDINATES (ANGSTROEM)
---------------------------------
  C      0.653849    0.000010   -0.385660
  C     -0.653874    0.000076    0.385570
  Cl    -1.588225    1.449719   -0.033287
  Cl    -1.588893   -1.449200   -0.033257
  Cl     1.588821    1.448977    0.033309
  Cl     1.588305   -1.449527    0.033268
  H      0.487606   -0.000085   -1.465468
  H     -0.487584    0.000167    1.465364

 Total Charge           Charge          ....    0
 Multiplicity           Mult            ....    1
 Number of Electrons    NEL             ....   82
 Basis Dimension        Dim             ....  104

ORBITAL ENERGIES
----------------

  NO   OCC          E(Eh)            E(eV)
   0   2.0000    -100.654182     -2738.9395
   1   2.0000    -100.654170     -2738.9392
   2   2.0000    -100.654151     -2738.9387
   3   2.0000    -100.654094     -2738.9371
   4   2.0000     -10.029371      -272.9131
   5   2.0000     -10.029355      -272.9126
   6   2.0000      -9.190555      -250.0877
   7   2.0000      -9.190535      -250.0872
   8   2.0000      -9.190516      -250.0867
   9   2.0000      -9.190475      -250.0855
  10   2.0000      -7.022483      -191.0915
  11   2.0000      -7.022472      -191.0912
  12   2.0000      -7.022456      -191.0907
  13   2.0000      -7.022441      -191.0903
  14   2.0000      -7.009952      -190.7505
  15   2.0000      -7.009934      -190.7500
  16   2.0000      -7.009917      -190.7496
  17   2.0000      -7.009903      -190.7492
  18   2.0000      -7.009834      -190.7473
  19   2.0000      -7.009821      -190.7469
  20   2.0000      -7.009808      -190.7466
  21   2.0000      -7.009796      -190.7462
  22   2.0000      -0.873833       -23.7782
  23   2.0000      -0.816710       -22.2238
  24   2.0000      -0.772851       -21.0303
  25   2.0000      -0.750771       -20.4295
  26   2.0000      -0.647559       -17.6210
  27   2.0000      -0.566834       -15.4243
  28   2.0000      -0.471105       -12.8194
  29   2.0000      -0.452993       -12.3266
  30   2.0000      -0.448303       -12.1989
  31   2.0000      -0.408566       -11.1176
  32   2.0000      -0.393349       -10.7036
  33   2.0000      -0.308517        -8.3952
  34   2.0000      -0.295813        -8.0495
  35   2.0000      -0.294476        -8.0131
  36   2.0000      -0.292768        -7.9666
  37   2.0000      -0.282260        -7.6807
  38   2.0000      -0.278032        -7.5656
  39   2.0000      -0.270200        -7.3525
  40   2.0000      -0.254122        -6.9150
  41   0.0000      -0.039771        -1.0822
  42   0.0000      -0.038155        -1.0383
  43   0.0000      -0.023183        -0.6308
  44   0.0000       0.029004         0.7892
  45   0.0000       0.050601         1.3769

MULLIKEN ATOMIC CHARGES
-----------------------
   0 C :   -0.078682
   1 C :   -0.078623
   2 Cl:   -0.050494
   3 Cl:   -0.050465
   4 Cl:   -0.050395
   5 Cl:   -0.050507
   6 H :    0.179587
   7 H :    0.179580
Sum of atomic charges:    0.0000000

LOEWDIN ATOMIC CHARGES
----------------------
   0 C :   -0.318083
   1 C :   -0.318011
   2 Cl:    0.090685
   3 Cl:    0.090683
   4 Cl:    0.090820
   5 Cl:    0.090658
   6 H :    0.136623
   7 H :    0.136625

  Mayer bond orders larger than 0.100000
B(  0-C ,  1-C ) :   0.9358 B(  0-C ,  4-Cl) :   1.0653 B(  0-C ,  5-Cl) :   1.0652
B(  0-C ,  6-H ) :   0.8872 B(  1-C ,  2-Cl) :   1.0652 B(  1-C ,  3-Cl) :   1.0652
B(  1-C ,  7-H ) :   0.8872

Dispersion correction           -0.011613850
FINAL SINGLE POINT ENERGY     -1916.692946767064

DIPOLE MOMENT
-------------

Method             : SCF
Type of density    : Electron Density
Multiplicity       :   1
Irrep              :   0
Energy             : -1916.7105348722448070 Eh
Relativity type    :
Basis              : AO
                                X                 Y                 Z
Electronic contribution:      0.000088092       0.000143293       0.000108729
Nuclear contribution   :      0.000010267       0.000119470      -0.000142884
                        -----------------------------------------
Total Dipole Moment    :      0.000098358       0.000262762      -0.000034155
                        -----------------------------------------
Magnitude (a.u.)       :      0.000282639
Magnitude (Debye)      :      0.000718412

Rotational constants in cm-1:             0.055099             0.044754             0.025292
Rotational constants in MHz :          1651.819544          1341.688337           758.246537

                             ****ORCA TERMINATED NORMALLY****
TOTAL RUN TIME: 0 days 0 hours 0 minutes 14 seconds 745 msec
