                         Program Version 6.0.1  -  RELEASE   -
|  1> ! pbe def2-sv(p) def2/J RI DEFGRID1 loosescf d4 GCP(DFT/SV(P)) printgap
|  2> %output
|  3>     printlevel normal
|  4> end
|  5> * xyz 0 1
|  6> C -2.1926782668 0.1954944005 0.4893393616
|  7> C -1.0417403566 0.3409727836 -0.4987627281
|  8> C 0.0413589035 -0.7388847214 -0.289352344
|  9> C 1.3321767195 -0.1574662043 0.0161166745
| 10> C 2.3857517784 0.3499121329 0.269603901
| 11> H -2.9393614133 0.9682595862 0.3191053071
| 12> H -2.6743065938 -0.7744504423 0.3790969925
| 13> H -1.8318819415 0.2886943905 1.511717758
| 14> H -1.4317045357 0.2780569505 -1.5164247704
| 15> H -0.5931590187 1.3296912736 -0.3819872822
| 16> H 0.1446432869 -1.3586629278 -1.1840028775
| 17> H -0.2436170164 -1.3962908128 0.5368714608
| 18> H 3.3146011497 0.7835322158 0.4911995859
| 19> *
| 20>
| 21>                          ****END OF INPUT****

CARTESIAN COORDINATES (ANGSTROEM)
---------------------------------
  C     -2.192678    0.195494    0.489339
  C     -1.041740    0.340973   -0.498763
  C      0.041359   -0.738885   -0.289352
  C      1.332177   -0.157466    0.016117
  C      2.385752    0.349912    0.269604
  H     -2.939361    0.968260    0.319105
  H     -2.674307   -0.774450    0.379097
  H     -1.831882    0.288694    1.511718
  H     -1.431705    0.278057   -1.516425
  H     -0.593159    1.329691   -0.381987
  H      0.144643   -1.358663   -1.184003
  H     -0.243617   -1.396291    0.536871
  H      3.314601    0.783532    0.491200

 Total Charge           Charge          ....    0
 Multiplicity           Mult            ....    1
 Number of Electrons    NEL             ....   38
 Basis Dimension        Dim             ....   86

ORBITAL ENERGIES
----------------

  NO   OCC          E(Eh)            E(eV)
   0   2.0000      -9.909723      -269.6573
   1   2.0000      -9.894038      -269.2304
   2   2.0000      -9.886506      -269.0255
   3   2.0000      -9.880413      -268.8597
   4   2.0000      -9.872516      -268.6448
   5   2.0000      -0.731557       -19.9067
   6   2.0000      -0.665610       -18.1122
   7   2.0000      -0.615615       -16.7517
   8   2.0000      -0.537262       -14.6196
   9   2.0000      -0.471403       -12.8275
  10   2.0000      -0.428175       -11.6512
  11   2.0000      -0.416258       -11.3270
  12   2.0000      -0.375927       -10.2295
  13   2.0000      -0.368581       -10.0296
  14   2.0000      -0.320790        -8.7291
  15   2.0000      -0.311949        -8.4886
  16   2.0000      -0.297929        -8.1071
  17   2.0000      -0.230398        -6.2695
  18   2.0000      -0.229751        -6.2518
  19   0.0000       0.017297         0.4707
  20   0.0000       0.022662         0.6167
  21   0.0000       0.048656         1.3240
  22   0.0000       0.076030         2.0689
  23   0.0000       0.082584         2.2472

MULLIKEN ATOMIC CHARGES
-----------------------
   0 C :   -0.306822
   1 C :   -0.179998
   2 C :   -0.109775
   3 C :    0.382606
   4 C :   -0.598729
   5 H :    0.107567
   6 H :    0.106854
   7 H :    0.111222
   8 H :    0.093053
   9 H :    0.113607
  10 H :    0.113587
  11 H :    0.115355
  12 H :    0.051473
Sum of atomic charges:   -0.0000000

LOEWDIN ATOMIC CHARGES
----------------------
   0 C :   -0.341404
   1 C :   -0.224555
   2 C :   -0.226336
   3 C :   -0.030796
   4 C :   -0.209540
   5 H :    0.120843
   6 H :    0.117290
   7 H :    0.120396
   8 H :    0.119886
   9 H :    0.126572
  10 H :    0.143759
  11 H :    0.141425
  12 H :    0.142461

  Mayer bond orders larger than 0.100000
B(  0-C ,  1-C ) :   1.1544 B(  0-C ,  5-H ) :   0.9521 B(  0-C ,  6-H ) :   0.9554
B(  0-C ,  7-H ) :   0.9542 B(  1-C ,  2-C ) :   1.0501 B(  1-C ,  8-H ) :   0.9282
B(  1-C ,  9-H ) :   0.9439 B(  2-C ,  3-C ) :   1.1224 B(  2-C , 10-H ) :   0.8879
B(  2-C , 11-H ) :   0.8983 B(  3-C ,  4-C ) :   2.2451 B(  3-C , 12-H ) :  -0.1256
B(  4-C , 12-H ) :   1.0875

Dispersion correction           -0.008167830
FINAL SINGLE POINT ENERGY      -194.792001290591

DIPOLE MOMENT
-------------

Method             : SCF
Type of density    : Electron Density
Multiplicity       :   1
Irrep              :   0
Energy             :  -194.8317443888167873 Eh
Relativity type    :
Basis              : AO
                                X                 Y                 Z
Electronic contribution:      5.547296287      -0.179764527      -0.219198625
Nuclear contribution   :     -5.868023876       0.111482413       0.145956183
                        -----------------------------------------
Total Dipole Moment    :     -0.320727590      -0.068282114      -0.073242442
                        -----------------------------------------
Magnitude (a.u.)       :      0.335995668
Magnitude (Debye)      :      0.854033118

Rotational constants in cm-1:             0.513873             0.081893             0.078877
Rotational constants in MHz :         15405.526146          2455.076410          2364.683623

                             ****ORCA TERMINATED NORMALLY****
TOTAL RUN TIME: 0 days 0 hours 0 minutes 3 seconds 522 msec
