                         Program Version 6.0.1  -  RELEASE   -
|  1> ! r2scan-3c def2/J RI DEFGRID2 scfconv6 printgap
|  2> %output
|  3>     printlevel normal
|  4> end
|  5> * xyz 0 1
|  6> C -1.5754096495 0.0782700082 -0.5380323398
|  7> C -0.6689464329 -0.4571229629 0.5628155392
|  8> C 0.6553517315 0.2986438184 0.6192849912
|  9> O 1.3882784185 0.0210721772 -0.5558932606
| 10> H -1.0620171421 0.0213719575 -1.4938458859
| 11> H -2.4902733042 -0.5061407144 -0.5961780185
| 12> H -1.8386682233 1.1164416175 -0.3455708564
| 13> H -0.4509865783 -1.5095260975 0.37668616
| 14> H -1.161138812 -0.3711662303 1.5333691951
| 15> H 0.4620138027 1.3781884064 0.7045984777
| 16> H 1.2245239046 -0.0202696736 1.5055535663
| 17> H 2.2149584264 0.5124418844 -0.5356339723
| 18> *
| 19>
| 20>                          ****END OF INPUT****

CARTESIAN COORDINATES (ANGSTROEM)
---------------------------------
  C     -1.575410    0.078270   -0.538032
  C     -0.668946   -0.457123    0.562816
  C      0.655352    0.298644    0.619285
  O      1.388278    0.021072   -0.555893
  H     -1.062017    0.021372   -1.493846
  H     -2.490273   -0.506141   -0.596178
  H     -1.838668    1.116442   -0.345571
  H     -0.450987   -1.509526    0.376686
  H     -1.161139   -0.371166    1.533369
  H      0.462014    1.378188    0.704598
  H      1.224524   -0.020270    1.505554
  H      2.214958    0.512442   -0.535634

 Total Charge           Charge          ....    0
 Multiplicity           Mult            ....    1
 Number of Electrons    NEL             ....   34
 Basis Dimension        Dim             ....  121

ORBITAL ENERGIES
----------------

  NO   OCC          E(Eh)            E(eV)
   0   2.0000     -18.946017      -515.5473
   1   2.0000     -10.073151      -274.1044
   2   2.0000     -10.024189      -272.7720
   3   2.0000     -10.010472      -272.3988
   4   2.0000      -0.984282       -26.7837
   5   2.0000      -0.741906       -20.1883
   6   2.0000      -0.638627       -17.3779
   7   2.0000      -0.547406       -14.8957
   8   2.0000      -0.487237       -13.2584
   9   2.0000      -0.428549       -11.6614
  10   2.0000      -0.391906       -10.6643
  11   2.0000      -0.385533       -10.4909
  12   2.0000      -0.338014        -9.1978
  13   2.0000      -0.317923        -8.6511
  14   2.0000      -0.307520        -8.3680
  15   2.0000      -0.286921        -7.8075
  16   2.0000      -0.234298        -6.3756
  17   0.0000       0.063304         1.7226
  18   0.0000       0.110541         3.0080
  19   0.0000       0.126268         3.4359
  20   0.0000       0.136683         3.7193
  21   0.0000       0.156284         4.2527

MULLIKEN ATOMIC CHARGES
-----------------------
   0 C :   -0.478229
   1 C :   -0.218478
   2 C :   -0.112367
   3 O :   -0.435214
   4 H :    0.167170
   5 H :    0.143312
   6 H :    0.136111
   7 H :    0.141747
   8 H :    0.130012
   9 H :    0.114567
  10 H :    0.121842
  11 H :    0.289526
Sum of atomic charges:    0.0000000

LOEWDIN ATOMIC CHARGES
----------------------
   0 C :   -0.423460
   1 C :   -0.294066
   2 C :    0.002385
   3 O :   -0.632460
   4 H :    0.161809
   5 H :    0.149533
   6 H :    0.148770
   7 H :    0.161438
   8 H :    0.155384
   9 H :    0.153237
  10 H :    0.153718
  11 H :    0.263713

  Mayer bond orders larger than 0.100000
B(  0-C ,  1-C ) :   0.9150 B(  0-C ,  4-H ) :   0.9773 B(  0-C ,  5-H ) :   0.9737
B(  0-C ,  6-H ) :   0.9782 B(  1-C ,  2-C ) :   0.9672 B(  1-C ,  7-H ) :   0.9675
B(  1-C ,  8-H ) :   0.9610 B(  2-C ,  3-O ) :   0.9091 B(  2-C ,  9-H ) :   0.9667
B(  2-C , 10-H ) :   0.9625 B(  3-O , 11-H ) :   0.9039

Dispersion correction           -0.002099727
FINAL SINGLE POINT ENERGY      -194.298696278905

DIPOLE MOMENT
-------------

Method             : SCF
Type of density    : Electron Density
Multiplicity       :   1
Irrep              :   0
Energy             :  -194.3035485180274975 Eh
Relativity type    :
Basis              : AO
                                X                 Y                 Z
Electronic contribution:      3.081498553      -0.246564439      -0.663704770
Nuclear contribution   :     -2.889196681       0.583232536       1.069681213
                        -----------------------------------------
Total Dipole Moment    :      0.192301873       0.336668096       0.405976444
                        -----------------------------------------
Magnitude (a.u.)       :      0.561375356
Magnitude (Debye)      :      1.426902757

Rotational constants in cm-1:             0.491274             0.169073             0.144974
Rotational constants in MHz :         14728.010559          5068.682846          4346.224074

                             ****ORCA TERMINATED NORMALLY****
TOTAL RUN TIME: 0 days 0 hours 0 minutes 7 seconds 360 msec
