                         Program Version 6.0.1  -  RELEASE   -
|  1> ! r2scan-3c def2/J RI DEFGRID2 scfconv6 printgap
|  2> %output
|  3>     printlevel normal
|  4> end
|  5> * xyz 0 1
|  6> C -3.1064606257 -0.8994993363 0.1672808661
|  7> O -1.9385971723 -0.5188090632 -0.5464178226
|  8> C -1.0703870435 0.29672779 0.0714912783
|  9> O -1.2441302447 0.7346383776 1.1777111939
| 10> C 0.1039780627 0.6079066044 -0.8388704116
| 11> C 0.7907633134 -0.6816659805 -1.3066104386
| 12> C 1.5036106314 -1.3695408817 -0.1465061977
| 13> C 2.5326697365 -0.4296333773 0.4730366546
| 14> C 1.8512140222 0.8390427005 0.9741451443
| 15> C 1.1074071209 1.5416198849 -0.1589482317
| 16> H -2.9783372342 -1.9113256606 0.5565076697
| 17> H -3.9391112748 -0.8745120235 -0.5336400141
| 18> H -3.2797735035 -0.20875492 0.9947884711
| 19> H -0.3255402341 1.1085423927 -1.7152237666
| 20> H 0.0499965305 -1.3498211269 -1.7480204618
| 21> H 1.5213611106 -0.4265234219 -2.0777724142
| 22> H 0.7727385347 -1.6562593518 0.6131645532
| 23> H 1.9918034661 -2.2790471449 -0.503560778
| 24> H 3.0431180634 -0.9280444275 1.2994465103
| 25> H 3.2837730596 -0.1707412289 -0.2777542387
| 26> H 1.1406223963 0.585927866 1.7612917011
| 27> H 2.5928581767 1.5195218038 1.3972469276
| 28> H 0.5802887116 2.4112352372 0.2366199816
| 29> H 1.8239536351 1.8863374649 -0.9080691727
| 30> *
| 31>
| 32>                          ****END OF INPUT****

CARTESIAN COORDINATES (ANGSTROEM)
---------------------------------
  C     -3.106461   -0.899499    0.167281
  O     -1.938597   -0.518809   -0.546418
  C     -1.070387    0.296728    0.071491
  O     -1.244130    0.734638    1.177711
  C      0.103978    0.607907   -0.838870
  C      0.790763   -0.681666   -1.306610
  C      1.503611   -1.369541   -0.146506
  C      2.532670   -0.429633    0.473037
  C      1.851214    0.839043    0.974145
  C      1.107407    1.541620   -0.158948
  H     -2.978337   -1.911326    0.556508
  H     -3.939111   -0.874512   -0.533640
  H     -3.279774   -0.208755    0.994788
  H     -0.325540    1.108542   -1.715224
  H      0.049997   -1.349821   -1.748020
  H      1.521361   -0.426523   -2.077772
  H      0.772739   -1.656259    0.613165
  H      1.991803   -2.279047   -0.503561
  H      3.043118   -0.928044    1.299447
  H      3.283773   -0.170741   -0.277754
  H      1.140622    0.585928    1.761292
  H      2.592858    1.519522    1.397247
  H      0.580289    2.411235    0.236620
  H      1.823954    1.886337   -0.908069

 Total Charge           Charge          ....    0
 Multiplicity           Mult            ....    1
 Number of Electrons    NEL             ....   78
 Basis Dimension        Dim             ....  270

ORBITAL ENERGIES
----------------

  NO   OCC          E(Eh)            E(eV)
   0   2.0000     -18.997145      -516.9386
   1   2.0000     -18.933908      -515.2178
   2   2.0000     -10.152653      -276.2677
   3   2.0000     -10.083053      -274.3738
   4   2.0000     -10.046830      -273.3881
   5   2.0000     -10.030117      -272.9334
   6   2.0000     -10.024240      -272.7734
   7   2.0000     -10.024019      -272.7674
   8   2.0000     -10.020014      -272.6584
   9   2.0000     -10.015307      -272.5303
  10   2.0000      -1.072871       -29.1943
  11   2.0000      -0.983989       -26.7757
  12   2.0000      -0.807027       -21.9603
  13   2.0000      -0.732950       -19.9446
  14   2.0000      -0.709244       -19.2995
  15   2.0000      -0.687501       -18.7079
  16   2.0000      -0.593670       -16.1546
  17   2.0000      -0.574569       -15.6348
  18   2.0000      -0.543264       -14.7830
  19   2.0000      -0.515993       -14.0409
  20   2.0000      -0.465497       -12.6668
  21   2.0000      -0.455919       -12.4062
  22   2.0000      -0.445840       -12.1319
  23   2.0000      -0.435838       -11.8598
  24   2.0000      -0.411023       -11.1845
  25   2.0000      -0.407376       -11.0853
  26   2.0000      -0.394738       -10.7414
  27   2.0000      -0.373767       -10.1707
  28   2.0000      -0.347491        -9.4557
  29   2.0000      -0.346154        -9.4193
  30   2.0000      -0.340354        -9.2615
  31   2.0000      -0.337216        -9.1761
  32   2.0000      -0.315402        -8.5825
  33   2.0000      -0.311781        -8.4840
  34   2.0000      -0.293287        -7.9807
  35   2.0000      -0.275762        -7.5039
  36   2.0000      -0.267913        -7.2903
  37   2.0000      -0.265753        -7.2315
  38   2.0000      -0.238158        -6.4806
  39   0.0000      -0.017340        -0.4719
  40   0.0000       0.065199         1.7741
  41   0.0000       0.086521         2.3544
  42   0.0000       0.102883         2.7996
  43   0.0000       0.112953         3.0736

MULLIKEN ATOMIC CHARGES
-----------------------
   0 C :   -0.309976
   1 O :   -0.180744
   2 C :    0.234741
   3 O :   -0.417931
   4 C :    0.090710
   5 C :   -0.369411
   6 C :   -0.264858
   7 C :   -0.309588
   8 C :   -0.329675
   9 C :   -0.332257
  10 H :    0.147973
  11 H :    0.146825
  12 H :    0.184589
  13 H :    0.158913
  14 H :    0.166215
  15 H :    0.152932
  16 H :    0.147613
  17 H :    0.150876
  18 H :    0.148275
  19 H :    0.141848
  20 H :    0.187437
  21 H :    0.145501
  22 H :    0.153620
  23 H :    0.156372
Sum of atomic charges:   -0.0000000

LOEWDIN ATOMIC CHARGES
----------------------
   0 C :   -0.049363
   1 O :   -0.612386
   2 C :    0.363385
   3 O :   -0.436219
   4 C :   -0.154478
   5 C :   -0.272608
   6 C :   -0.295087
   7 C :   -0.301825
   8 C :   -0.296592
   9 C :   -0.278732
  10 H :    0.170653
  11 H :    0.173489
  12 H :    0.192016
  13 H :    0.185907
  14 H :    0.171677
  15 H :    0.159243
  16 H :    0.158963
  17 H :    0.156061
  18 H :    0.154927
  19 H :    0.153190
  20 H :    0.173646
  21 H :    0.154670
  22 H :    0.170845
  23 H :    0.158617

  Mayer bond orders larger than 0.100000
B(  0-C ,  1-O ) :   0.8456 B(  0-C , 10-H ) :   0.9605 B(  0-C , 11-H ) :   0.9689
B(  0-C , 12-H ) :   0.9705 B(  1-O ,  2-C ) :   1.0500 B(  2-C ,  3-O ) :   1.8761
B(  2-C ,  4-C ) :   0.9496 B(  4-C ,  5-C ) :   0.8884 B(  4-C ,  9-C ) :   0.9509
B(  4-C , 13-H ) :   0.8952 B(  5-C ,  6-C ) :   0.9097 B(  5-C , 14-H ) :   0.9417
B(  5-C , 15-H ) :   0.9881 B(  6-C ,  7-C ) :   0.9175 B(  6-C , 16-H ) :   0.9765
B(  6-C , 17-H ) :   0.9392 B(  7-C ,  8-C ) :   0.9044 B(  7-C , 18-H ) :   0.9457
B(  7-C , 19-H ) :   1.0031 B(  8-C ,  9-C ) :   0.8993 B(  8-C , 20-H ) :   0.9873
B(  8-C , 21-H ) :   0.9398 B(  9-C , 22-H ) :   0.9428 B(  9-C , 23-H ) :   0.9888

Dispersion correction           -0.007907748
FINAL SINGLE POINT ENERGY      -463.634759191021

DIPOLE MOMENT
-------------

Method             : SCF
Type of density    : Electron Density
Multiplicity       :   1
Irrep              :   0
Energy             :  -463.6402692220913195 Eh
Relativity type    :
Basis              : AO
                                X                 Y                 Z
Electronic contribution:     -5.939767246       1.765731523       0.288206535
Nuclear contribution   :      5.842392069      -2.148453156      -0.839658091
                        -----------------------------------------
Total Dipole Moment    :     -0.097375177      -0.382721634      -0.551451556
                        -----------------------------------------
Magnitude (a.u.)       :      0.678274718
Magnitude (Debye)      :      1.724037322

Rotational constants in cm-1:             0.079672             0.031566             0.028139
Rotational constants in MHz :          2388.507490           946.310938           843.588676

                             ****ORCA TERMINATED NORMALLY****
TOTAL RUN TIME: 0 days 0 hours 0 minutes 25 seconds 171 msec
