                         Program Version 6.0.1  -  RELEASE   -
|  1> ! pbe def2-sv(p) def2/J RI DEFGRID1 loosescf d4 GCP(DFT/SV(P)) printgap
|  2> %output
|  3>     printlevel normal
|  4> end
|  5> * xyz 0 1
|  6> C -1.9152156311 -0.9490776751 -0.8011501584
|  7> C -1.319693989 -0.1392619122 0.3631395614
|  8> H -2.0947555342 0.0227029115 1.1194201328
|  9> C -0.8096396164 1.2420587701 -0.0874629227
| 10> H -0.9383731816 1.3537230274 -1.1778140637
| 11> C 0.6902559793 1.3601081845 0.2093298008
| 12> H 0.8340740264 1.4181524399 1.3019908001
| 13> C 1.3980030385 0.1082243958 -0.3296619712
| 14> H 1.1568414226 -0.0055909501 -1.3942708768
| 15> C 0.9104570173 -1.1210131883 0.463068923
| 16> H 1.5900481637 -1.3011878923 1.3086901705
| 17> O -0.3408265585 -0.8961196794 1.0663805553
| 18> O 0.9546316444 -2.3026580539 -0.2661036351
| 19> O 2.7924802286 0.2716817899 -0.2983259626
| 20> O 1.1874906336 2.5230747525 -0.4021216239
| 21> O -1.5477999095 2.2279348182 0.5791924188
| 22> O -2.2222692739 -2.2581077078 -0.413687335
| 23> H -1.2106797419 -0.9527329248 -1.652414431
| 24> H -2.8419115173 -0.4770762461 -1.135230055
| 25> H 0.3800548026 -2.257501482 -1.0411488271
| 26> H 3.1075071397 0.2117997709 0.6119955793
| 27> H 2.1130281419 2.357752843 -0.6325234923
| 28> H -1.1305152391 3.0800282518 0.3989462255
| 29> H -1.5777913754 -2.528479859 0.2580893948
| 30> *
| 31>
| 32>                          ****END OF INPUT****

CARTESIAN COORDINATES (ANGSTROEM)
---------------------------------
  C     -1.915216   -0.949078   -0.801150
  C     -1.319694   -0.139262    0.363140
  H     -2.094756    0.022703    1.119420
  C     -0.809640    1.242059   -0.087463
  H     -0.938373    1.353723   -1.177814
  C      0.690256    1.360108    0.209330
  H      0.834074    1.418152    1.301991
  C      1.398003    0.108224   -0.329662
  H      1.156841   -0.005591   -1.394271
  C      0.910457   -1.121013    0.463069
  H      1.590048   -1.301188    1.308690
  O     -0.340827   -0.896120    1.066381
  O      0.954632   -2.302658   -0.266104
  O      2.792480    0.271682   -0.298326
  O      1.187491    2.523075   -0.402122
  O     -1.547800    2.227935    0.579192
  O     -2.222269   -2.258108   -0.413687
  H     -1.210680   -0.952733   -1.652414
  H     -2.841912   -0.477076   -1.135230
  H      0.380055   -2.257501   -1.041149
  H      3.107507    0.211800    0.611996
  H      2.113028    2.357753   -0.632523
  H     -1.130515    3.080028    0.398946
  H     -1.577791   -2.528480    0.258089

 Total Charge           Charge          ....    0
 Multiplicity           Mult            ....    1
 Number of Electrons    NEL             ....   96
 Basis Dimension        Dim             ....  192

ORBITAL ENERGIES
----------------

  NO   OCC          E(Eh)            E(eV)
   0   2.0000     -18.787685      -511.2389
   1   2.0000     -18.783005      -511.1115
   2   2.0000     -18.773795      -510.8609
   3   2.0000     -18.760938      -510.5111
   4   2.0000     -18.756182      -510.3817
   5   2.0000     -18.749799      -510.2080
   6   2.0000     -10.004807      -272.2446
   7   2.0000      -9.962846      -271.1028
   8   2.0000      -9.954385      -270.8726
   9   2.0000      -9.952359      -270.8175
  10   2.0000      -9.951031      -270.7813
  11   2.0000      -9.944114      -270.5931
  12   2.0000      -0.998046       -27.1582
  13   2.0000      -0.965770       -26.2799
  14   2.0000      -0.946943       -25.7676
  15   2.0000      -0.934084       -25.4177
  16   2.0000      -0.925807       -25.1925
  17   2.0000      -0.921919       -25.0867
  18   2.0000      -0.718367       -19.5477
  19   2.0000      -0.704244       -19.1634
  20   2.0000      -0.630290       -17.1511
  21   2.0000      -0.605758       -16.4835
  22   2.0000      -0.580064       -15.7843
  23   2.0000      -0.542332       -14.7576
  24   2.0000      -0.518223       -14.1016
  25   2.0000      -0.504246       -13.7212
  26   2.0000      -0.481514       -13.1027
  27   2.0000      -0.468822       -12.7573
  28   2.0000      -0.451483       -12.2855
  29   2.0000      -0.444630       -12.0990
  30   2.0000      -0.429530       -11.6881
  31   2.0000      -0.410958       -11.1827
  32   2.0000      -0.401709       -10.9311
  33   2.0000      -0.395912       -10.7733
  34   2.0000      -0.368826       -10.0363
  35   2.0000      -0.358892        -9.7660
  36   2.0000      -0.340151        -9.2560
  37   2.0000      -0.321707        -8.7541
  38   2.0000      -0.318269        -8.6605
  39   2.0000      -0.306550        -8.3416
  40   2.0000      -0.294647        -8.0178
  41   2.0000      -0.286112        -7.7855
  42   2.0000      -0.268430        -7.3044
  43   2.0000      -0.259422        -7.0592
  44   2.0000      -0.242430        -6.5969
  45   2.0000      -0.227559        -6.1922
  46   2.0000      -0.222807        -6.0629
  47   2.0000      -0.219977        -5.9859
  48   0.0000      -0.001009        -0.0275
  49   0.0000       0.015904         0.4328
  50   0.0000       0.024088         0.6555
  51   0.0000       0.045192         1.2297
  52   0.0000       0.051113         1.3908

MULLIKEN ATOMIC CHARGES
-----------------------
   0 C :   -0.004468
   1 C :    0.032553
   2 H :    0.096856
   3 C :    0.073449
   4 H :    0.060815
   5 C :    0.038165
   6 H :    0.053328
   7 C :   -0.027636
   8 H :    0.065112
   9 C :    0.228125
  10 H :    0.060235
  11 O :   -0.314447
  12 O :   -0.387677
  13 O :   -0.407831
  14 O :   -0.420743
  15 O :   -0.408928
  16 O :   -0.432900
  17 H :    0.060246
  18 H :    0.108306
  19 H :    0.308936
  20 H :    0.305430
  21 H :    0.304094
  22 H :    0.309906
  23 H :    0.299074
Sum of atomic charges:    0.0000000

LOEWDIN ATOMIC CHARGES
----------------------
   0 C :   -0.143523
   1 C :   -0.067145
   2 H :    0.132704
   3 C :   -0.064942
   4 H :    0.103315
   5 C :   -0.089275
   6 H :    0.103224
   7 C :   -0.098953
   8 H :    0.115609
   9 C :   -0.007014
  10 H :    0.111089
  11 O :   -0.141802
  12 O :   -0.294576
  13 O :   -0.300180
  14 O :   -0.327945
  15 O :   -0.314592
  16 O :   -0.334721
  17 H :    0.078113
  18 H :    0.124800
  19 H :    0.283173
  20 H :    0.288467
  21 H :    0.281707
  22 H :    0.290167
  23 H :    0.272300

  Mayer bond orders larger than 0.100000
B(  0-C ,  1-C ) :   1.0441 B(  0-C , 16-O ) :   1.0889 B(  0-C , 17-H ) :   0.8940
B(  0-C , 18-H ) :   0.9142 B(  1-C ,  2-H ) :   0.8783 B(  1-C ,  3-C ) :   0.9692
B(  1-C , 11-O ) :   1.0147 B(  3-C ,  4-H ) :   0.8876 B(  3-C ,  5-C ) :   1.0258
B(  3-C , 15-O ) :   1.0861 B(  5-C ,  6-H ) :   0.8608 B(  5-C ,  7-C ) :   0.9928
B(  5-C , 14-O ) :   1.0985 B(  7-C ,  8-H ) :   0.8675 B(  7-C ,  9-C ) :   0.9780
B(  7-C , 13-O ) :   1.0253 B(  9-C , 10-H ) :   0.8870 B(  9-C , 11-O ) :   1.0349
B(  9-C , 12-O ) :   1.1279 B( 12-O , 19-H ) :   0.8284 B( 13-O , 20-H ) :   0.8436
B( 14-O , 21-H ) :   0.8204 B( 15-O , 22-H ) :   0.8411 B( 16-O , 23-H ) :   0.8212

Dispersion correction           -0.024887381
FINAL SINGLE POINT ENERGY      -685.690186098463

DIPOLE MOMENT
-------------

Method             : SCF
Type of density    : Electron Density
Multiplicity       :   1
Irrep              :   0
Energy             :  -685.8227290254019408 Eh
Relativity type    :
Basis              : AO
                                X                 Y                 Z
Electronic contribution:      1.409050214      -0.311158299       1.873449920
Nuclear contribution   :     -0.562400969       0.858175732      -1.904560009
                        -----------------------------------------
Total Dipole Moment    :      0.846649245       0.547017433      -0.031110089
                        -----------------------------------------
Magnitude (a.u.)       :      1.008469560
Magnitude (Debye)      :      2.563325910

Rotational constants in cm-1:             0.039128             0.029082             0.018846
Rotational constants in MHz :          1173.013261           871.842675           564.985269

                             ****ORCA TERMINATED NORMALLY****
TOTAL RUN TIME: 0 days 0 hours 0 minutes 9 seconds 264 msec
