                         Program Version 6.0.1  -  RELEASE   -
|  1> ! pbe def2-sv(p) def2/J RI DEFGRID1 loosescf d4 GCP(DFT/SV(P)) printgap
|  2> %output
|  3>     printlevel normal
|  4> end
|  5> * xyz 0 1
|  6> C -2.3804899877 0.0765612983 0.0081958027
|  7> C -0.9095080319 0.4672760646 -0.0581926213
|  8> C 0.0039166012 -0.7073357899 0.1272035494
|  9> C 1.3259569774 -0.6313339028 0.0909784665
| 10> C 2.0782643111 0.6413749439 -0.141880244
| 11> H -3.0157178349 0.9492289385 -0.1283626777
| 12> H -2.6134361138 -0.368949417 0.9731463868
| 13> H -2.6183939544 -0.6453831579 -0.770317716
| 14> H -0.6987971533 0.9394715002 -1.0233378532
| 15> H -0.6943455698 1.2161736038 0.7112895751
| 16> H -0.4759142938 -1.6604599209 0.2999644635
| 17> H 1.9183576582 -1.5240779317 0.2337092786
| 18> H 1.8205302887 1.3820848649 0.6154835887
| 19> H 1.8187292029 1.0664430885 -1.1119970607
| 20> H 3.1511318514 0.4741981294 -0.1130503466
| 21> *
| 22>
| 23>                          ****END OF INPUT****

CARTESIAN COORDINATES (ANGSTROEM)
---------------------------------
  C     -2.380490    0.076561    0.008196
  C     -0.909508    0.467276   -0.058193
  C      0.003917   -0.707336    0.127204
  C      1.325957   -0.631334    0.090978
  C      2.078264    0.641375   -0.141880
  H     -3.015718    0.949229   -0.128363
  H     -2.613436   -0.368949    0.973146
  H     -2.618394   -0.645383   -0.770318
  H     -0.698797    0.939472   -1.023338
  H     -0.694346    1.216174    0.711290
  H     -0.475914   -1.660460    0.299964
  H      1.918358   -1.524078    0.233709
  H      1.820530    1.382085    0.615484
  H      1.818729    1.066443   -1.111997
  H      3.151132    0.474198   -0.113050

 Total Charge           Charge          ....    0
 Multiplicity           Mult            ....    1
 Number of Electrons    NEL             ....   40
 Basis Dimension        Dim             ....   90

ORBITAL ENERGIES
----------------

  NO   OCC          E(Eh)            E(eV)
   0   2.0000      -9.885738      -269.0046
   1   2.0000      -9.878600      -268.8104
   2   2.0000      -9.876940      -268.7652
   3   2.0000      -9.876072      -268.7416
   4   2.0000      -9.873640      -268.6754
   5   2.0000      -0.724016       -19.7015
   6   2.0000      -0.672706       -18.3053
   7   2.0000      -0.604051       -16.4371
   8   2.0000      -0.545876       -14.8540
   9   2.0000      -0.468365       -12.7449
  10   2.0000      -0.418244       -11.3810
  11   2.0000      -0.401654       -10.9296
  12   2.0000      -0.381048       -10.3688
  13   2.0000      -0.363377        -9.8880
  14   2.0000      -0.334273        -9.0960
  15   2.0000      -0.325174        -8.8484
  16   2.0000      -0.307480        -8.3670
  17   2.0000      -0.304689        -8.2910
  18   2.0000      -0.280562        -7.6345
  19   2.0000      -0.207528        -5.6471
  20   0.0000      -0.009474        -0.2578
  21   0.0000       0.043188         1.1752
  22   0.0000       0.061063         1.6616
  23   0.0000       0.065961         1.7949
  24   0.0000       0.084176         2.2905

MULLIKEN ATOMIC CHARGES
-----------------------
   0 C :   -0.280893
   1 C :   -0.138223
   2 C :   -0.150047
   3 C :   -0.165750
   4 C :   -0.227157
   5 H :    0.100851
   6 H :    0.103387
   7 H :    0.103502
   8 H :    0.098361
   9 H :    0.099494
  10 H :    0.060126
  11 H :    0.064938
  12 H :    0.113453
  13 H :    0.114145
  14 H :    0.103815
Sum of atomic charges:   -0.0000000

LOEWDIN ATOMIC CHARGES
----------------------
   0 C :   -0.338744
   1 C :   -0.234272
   2 C :   -0.153715
   3 C :   -0.155554
   4 C :   -0.340132
   5 H :    0.118617
   6 H :    0.118495
   7 H :    0.118589
   8 H :    0.124292
   9 H :    0.124701
  10 H :    0.117813
  11 H :    0.117849
  12 H :    0.128908
  13 H :    0.129342
  14 H :    0.123811

  Mayer bond orders larger than 0.100000
B(  0-C ,  1-C ) :   1.1489 B(  0-C ,  5-H ) :   0.9528 B(  0-C ,  6-H ) :   0.9568
B(  0-C ,  7-H ) :   0.9572 B(  1-C ,  2-C ) :   1.0772 B(  1-C ,  8-H ) :   0.9068
B(  1-C ,  9-H ) :   0.9067 B(  2-C ,  3-C ) :   1.9806 B(  2-C , 10-H ) :   0.9458
B(  3-C ,  4-C ) :   1.1210 B(  3-C , 11-H ) :   0.9388 B(  4-C , 12-H ) :   0.9333
B(  4-C , 13-H ) :   0.9331 B(  4-C , 14-H ) :   0.9481

Dispersion correction           -0.009771945
FINAL SINGLE POINT ENERGY      -196.028133838138

DIPOLE MOMENT
-------------

Method             : SCF
Type of density    : Electron Density
Multiplicity       :   1
Irrep              :   0
Energy             :  -196.0763165967344435 Eh
Relativity type    :
Basis              : AO
                                X                 Y                 Z
Electronic contribution:      1.330974593      -1.582863815       0.270872004
Nuclear contribution   :     -1.320798388       1.715646612      -0.294088184
                        -----------------------------------------
Total Dipole Moment    :      0.010176205       0.132782796      -0.023216179
                        -----------------------------------------
Magnitude (a.u.)       :      0.135180683
Magnitude (Debye)      :      0.343601991

Rotational constants in cm-1:             0.466249             0.084171             0.074241
Rotational constants in MHz :         13977.801669          2523.375711          2225.678324

                             ****ORCA TERMINATED NORMALLY****
TOTAL RUN TIME: 0 days 0 hours 0 minutes 6 seconds 188 msec
