                         Program Version 6.0.1  -  RELEASE   -
|  1> ! pbe def2-sv(p) def2/J RI DEFGRID1 loosescf d4 GCP(DFT/SV(P)) printgap
|  2> %output
|  3>     printlevel normal
|  4> end
|  5> * xyz 0 1
|  6> C -2.510418639 -0.7247174812 -0.0089567955
|  7> C -1.1236848246 -0.4795068697 0.6056220832
|  8> H -1.1426706395 -0.8078753777 1.6612106362
|  9> C -0.7249569886 1.018346983 0.5791670719
| 10> H -1.5899256266 1.6267318319 0.2766611344
| 11> C 0.3984466548 1.2301647074 -0.4616609607
| 12> H 0.6869897681 2.2864596725 -0.4573819742
| 13> C 1.6222564115 0.3816535757 -0.0692285941
| 14> H 2.3023030994 0.3091265679 -0.9248185215
| 15> C 1.1500694912 -1.0577247796 0.2690059305
| 16> H 1.2455065514 -1.2160262524 1.3645624765
| 17> O -0.1991242309 -1.2742177222 -0.1054382684
| 18> O 1.9199846226 -1.9525416806 -0.4445847309
| 19> O 2.3529681397 0.9585175256 0.9695716399
| 20> O -0.0696395028 0.9395718499 -1.7503255746
| 21> O -0.2471010619 1.457130324 1.8347807916
| 22> O -2.5920988737 -0.436062188 -1.3720558041
| 23> H -3.2438336555 -0.132916456 0.5642984274
| 24> H -2.7613214564 -1.7833979145 0.092326985
| 25> H 1.5327092525 -2.8334055264 -0.3676540013
| 26> H 1.734371919 1.2258171775 1.6650145954
| 27> H -0.0537556223 -0.0233089352 -1.8681577226
| 28> H -0.9749624817 1.4917237627 2.4646811826
| 29> H -2.0677859362 0.3519634969 -1.5826868099
| 30> *
| 31>
| 32>                          ****END OF INPUT****

CARTESIAN COORDINATES (ANGSTROEM)
---------------------------------
  C     -2.510419   -0.724717   -0.008957
  C     -1.123685   -0.479507    0.605622
  H     -1.142671   -0.807875    1.661211
  C     -0.724957    1.018347    0.579167
  H     -1.589926    1.626732    0.276661
  C      0.398447    1.230165   -0.461661
  H      0.686990    2.286460   -0.457382
  C      1.622256    0.381654   -0.069229
  H      2.302303    0.309127   -0.924819
  C      1.150069   -1.057725    0.269006
  H      1.245507   -1.216026    1.364562
  O     -0.199124   -1.274218   -0.105438
  O      1.919985   -1.952542   -0.444585
  O      2.352968    0.958518    0.969572
  O     -0.069640    0.939572   -1.750326
  O     -0.247101    1.457130    1.834781
  O     -2.592099   -0.436062   -1.372056
  H     -3.243834   -0.132916    0.564298
  H     -2.761321   -1.783398    0.092327
  H      1.532709   -2.833406   -0.367654
  H      1.734372    1.225817    1.665015
  H     -0.053756   -0.023309   -1.868158
  H     -0.974962    1.491724    2.464681
  H     -2.067786    0.351963   -1.582687

 Total Charge           Charge          ....    0
 Multiplicity           Mult            ....    1
 Number of Electrons    NEL             ....   96
 Basis Dimension        Dim             ....  192

ORBITAL ENERGIES
----------------

  NO   OCC          E(Eh)            E(eV)
   0   2.0000     -18.789125      -511.2781
   1   2.0000     -18.785890      -511.1901
   2   2.0000     -18.770427      -510.7693
   3   2.0000     -18.766436      -510.6607
   4   2.0000     -18.746143      -510.1085
   5   2.0000     -18.742180      -510.0006
   6   2.0000      -9.991384      -271.8794
   7   2.0000      -9.963770      -271.1280
   8   2.0000      -9.960770      -271.0463
   9   2.0000      -9.953479      -270.8479
  10   2.0000      -9.942913      -270.5604
  11   2.0000      -9.940964      -270.5074
  12   2.0000      -0.998703       -27.1761
  13   2.0000      -0.965290       -26.2669
  14   2.0000      -0.948093       -25.7989
  15   2.0000      -0.933179       -25.3931
  16   2.0000      -0.922645       -25.1064
  17   2.0000      -0.919187       -25.0123
  18   2.0000      -0.712363       -19.3844
  19   2.0000      -0.692719       -18.8498
  20   2.0000      -0.632571       -17.2131
  21   2.0000      -0.595176       -16.1956
  22   2.0000      -0.576080       -15.6759
  23   2.0000      -0.533355       -14.5133
  24   2.0000      -0.514449       -13.9989
  25   2.0000      -0.504612       -13.7312
  26   2.0000      -0.494437       -13.4543
  27   2.0000      -0.478410       -13.0182
  28   2.0000      -0.458448       -12.4750
  29   2.0000      -0.432171       -11.7600
  30   2.0000      -0.416958       -11.3460
  31   2.0000      -0.406303       -11.0561
  32   2.0000      -0.397934       -10.8283
  33   2.0000      -0.382112       -10.3978
  34   2.0000      -0.371199       -10.1008
  35   2.0000      -0.358257        -9.7487
  36   2.0000      -0.339900        -9.2491
  37   2.0000      -0.332249        -9.0409
  38   2.0000      -0.319865        -8.7040
  39   2.0000      -0.314638        -8.5617
  40   2.0000      -0.286538        -7.7971
  41   2.0000      -0.273389        -7.4393
  42   2.0000      -0.265491        -7.2244
  43   2.0000      -0.253331        -6.8935
  44   2.0000      -0.246111        -6.6970
  45   2.0000      -0.227670        -6.1952
  46   2.0000      -0.221911        -6.0385
  47   2.0000      -0.207761        -5.6535
  48   0.0000      -0.006563        -0.1786
  49   0.0000       0.018599         0.5061
  50   0.0000       0.035617         0.9692
  51   0.0000       0.046397         1.2625
  52   0.0000       0.065549         1.7837

MULLIKEN ATOMIC CHARGES
-----------------------
   0 C :    0.100276
   1 C :   -0.013720
   2 H :    0.053584
   3 C :   -0.018232
   4 H :    0.086885
   5 C :    0.035768
   6 H :    0.091769
   7 C :    0.059539
   8 H :    0.089810
   9 C :    0.186187
  10 H :    0.038806
  11 O :   -0.309548
  12 O :   -0.375187
  13 O :   -0.420119
  14 O :   -0.419582
  15 O :   -0.425004
  16 O :   -0.442635
  17 H :    0.065279
  18 H :    0.089376
  19 H :    0.303522
  20 H :    0.303417
  21 H :    0.316649
  22 H :    0.314384
  23 H :    0.288776
Sum of atomic charges:   -0.0000000

LOEWDIN ATOMIC CHARGES
----------------------
   0 C :   -0.119186
   1 C :   -0.086373
   2 H :    0.104523
   3 C :   -0.084730
   4 H :    0.109424
   5 C :   -0.072360
   6 H :    0.123514
   7 C :   -0.084215
   8 H :    0.126782
   9 C :   -0.000067
  10 H :    0.081305
  11 O :   -0.157581
  12 O :   -0.288925
  13 O :   -0.309984
  14 O :   -0.298147
  15 O :   -0.313237
  16 O :   -0.336375
  17 H :    0.092514
  18 H :    0.116163
  19 H :    0.287903
  20 H :    0.272106
  21 H :    0.278777
  22 H :    0.293863
  23 H :    0.264304

  Mayer bond orders larger than 0.100000
B(  0-C ,  1-C ) :   1.0319 B(  0-C , 16-O ) :   1.1087 B(  0-C , 17-H ) :   0.9099
B(  0-C , 18-H ) :   0.9137 B(  1-C ,  2-H ) :   0.8780 B(  1-C ,  3-C ) :   0.9411
B(  1-C , 11-O ) :   1.0039 B(  3-C ,  4-H ) :   0.9043 B(  3-C ,  5-C ) :   0.9862
B(  3-C , 15-O ) :   1.0229 B(  5-C ,  6-H ) :   0.8942 B(  5-C ,  7-C ) :   1.0037
B(  5-C , 14-O ) :   1.0324 B(  7-C ,  8-H ) :   0.8882 B(  7-C ,  9-C ) :   0.9547
B(  7-C , 13-O ) :   1.0715 B(  9-C , 10-H ) :   0.8791 B(  9-C , 11-O ) :   1.0044
B(  9-C , 12-O ) :   1.1660 B( 12-O , 19-H ) :   0.8408 B( 13-O , 20-H ) :   0.8179
B( 14-O , 21-H ) :   0.8042 B( 14-O , 23-H ) :   0.1162 B( 15-O , 22-H ) :   0.8399
B( 16-O , 23-H ) :   0.7978

Dispersion correction           -0.025645641
FINAL SINGLE POINT ENERGY      -685.692352921050

DIPOLE MOMENT
-------------

Method             : SCF
Type of density    : Electron Density
Multiplicity       :   1
Irrep              :   0
Energy             :  -685.8268466683914539 Eh
Relativity type    :
Basis              : AO
                                X                 Y                 Z
Electronic contribution:      3.141543920      -0.603984433      -1.387356527
Nuclear contribution   :     -4.047245883       0.459735965       2.696628473
                        -----------------------------------------
Total Dipole Moment    :     -0.905701963      -0.144248468       1.309271946
                        -----------------------------------------
Magnitude (a.u.)       :      1.598529542
Magnitude (Debye)      :      4.063139192

Rotational constants in cm-1:             0.041896             0.027967             0.023507
Rotational constants in MHz :          1256.005703           838.417723           704.731149

                             ****ORCA TERMINATED NORMALLY****
TOTAL RUN TIME: 0 days 0 hours 0 minutes 8 seconds 585 msec
