                         Program Version 6.0.1  -  RELEASE   -
|  1> ! r2scan-3c def2/J RI DEFGRID2 scfconv6 printgap
|  2> %output
|  3>     printlevel normal
|  4> end
|  5> * xyz 0 1
|  6> C 2.4603893866 -1.1040203956 0.4739771559
|  7> C 1.7004465226 0.0913714558 -0.0423916662
|  8> O 2.262534375 1.0873225537 -0.4360978907
|  9> C 0.2144352522 0.0211909888 -0.0093921274
| 10> C -0.5067940337 1.1955927782 0.2125259565
| 11> C -1.8880230572 1.1476228907 0.2361413484
| 12> C -2.5035753298 -0.0791254153 0.0279836924
| 13> N -1.8339858519 -1.1912695024 -0.2213936741
| 14> C -0.5162498656 -1.1438719888 -0.2437524209
| 15> H 1.8348864941 -1.9798960259 0.6038361633
| 16> H 2.8869314942 -0.8318923231 1.4393797206
| 17> H 3.2893376191 -1.3243848712 -0.1953859864
| 18> H 0.0311938994 2.119362053 0.3694925383
| 19> H -2.4739993286 2.0360538028 0.4121766075
| 20> H -3.580607335 -0.1796272305 0.0523022316
| 21> H -0.0304219457 -2.0792166121 -0.4891332612
| 22> *
| 23>
| 24>                          ****END OF INPUT****

CARTESIAN COORDINATES (ANGSTROEM)
---------------------------------
  C      2.460389   -1.104020    0.473977
  C      1.700447    0.091371   -0.042392
  O      2.262534    1.087323   -0.436098
  C      0.214435    0.021191   -0.009392
  C     -0.506794    1.195593    0.212526
  C     -1.888023    1.147623    0.236141
  C     -2.503575   -0.079125    0.027984
  N     -1.833986   -1.191270   -0.221394
  C     -0.516250   -1.143872   -0.243752
  H      1.834886   -1.979896    0.603836
  H      2.886931   -0.831892    1.439380
  H      3.289338   -1.324385   -0.195386
  H      0.031194    2.119362    0.369493
  H     -2.473999    2.036054    0.412177
  H     -3.580607   -0.179627    0.052302
  H     -0.030422   -2.079217   -0.489133

 Total Charge           Charge          ....    0
 Multiplicity           Mult            ....    1
 Number of Electrons    NEL             ....   64
 Basis Dimension        Dim             ....  216

ORBITAL ENERGIES
----------------

  NO   OCC          E(Eh)            E(eV)
   0   2.0000     -18.946335      -515.5560
   1   2.0000     -14.168812      -385.5530
   2   2.0000     -10.132411      -275.7169
   3   2.0000     -10.086277      -274.4616
   4   2.0000     -10.083293      -274.3804
   5   2.0000     -10.067904      -273.9616
   6   2.0000     -10.063477      -273.8411
   7   2.0000     -10.058506      -273.7059
   8   2.0000     -10.042351      -273.2663
   9   2.0000      -1.018561       -27.7165
  10   2.0000      -0.932123       -25.3643
  11   2.0000      -0.794727       -21.6256
  12   2.0000      -0.761081       -20.7101
  13   2.0000      -0.716583       -19.4992
  14   2.0000      -0.632267       -17.2049
  15   2.0000      -0.612759       -16.6740
  16   2.0000      -0.540108       -14.6971
  17   2.0000      -0.500435       -13.6175
  18   2.0000      -0.475674       -12.9438
  19   2.0000      -0.448021       -12.1913
  20   2.0000      -0.429671       -11.6920
  21   2.0000      -0.425675       -11.5832
  22   2.0000      -0.404084       -10.9957
  23   2.0000      -0.390693       -10.6313
  24   2.0000      -0.382856       -10.4180
  25   2.0000      -0.372310       -10.1311
  26   2.0000      -0.356255        -9.6942
  27   2.0000      -0.337597        -9.1865
  28   2.0000      -0.285099        -7.7579
  29   2.0000      -0.263573        -7.1722
  30   2.0000      -0.243494        -6.6258
  31   2.0000      -0.223499        -6.0817
  32   0.0000      -0.094774        -2.5789
  33   0.0000      -0.064558        -1.7567
  34   0.0000      -0.015598        -0.4244
  35   0.0000       0.070643         1.9223
  36   0.0000       0.092340         2.5127

MULLIKEN ATOMIC CHARGES
-----------------------
   0 C :   -0.520832
   1 C :    0.229639
   2 O :   -0.337663
   3 C :    0.207084
   4 C :   -0.169482
   5 C :   -0.102154
   6 C :   -0.073002
   7 N :   -0.173657
   8 C :   -0.174058
   9 H :    0.152857
  10 H :    0.181950
  11 H :    0.180439
  12 H :    0.176810
  13 H :    0.152424
  14 H :    0.137373
  15 H :    0.132270
Sum of atomic charges:   -0.0000000

LOEWDIN ATOMIC CHARGES
----------------------
   0 C :   -0.379740
   1 C :    0.238024
   2 O :   -0.450579
   3 C :   -0.056169
   4 C :   -0.069846
   5 C :   -0.138805
   6 C :    0.096072
   7 N :   -0.607035
   8 C :    0.101564
   9 H :    0.162149
  10 H :    0.185816
  11 H :    0.180634
  12 H :    0.188039
  13 H :    0.173217
  14 H :    0.187274
  15 H :    0.189385

  Mayer bond orders larger than 0.100000
B(  0-C ,  1-C ) :   0.9122 B(  0-C ,  9-H ) :   0.9682 B(  0-C , 10-H ) :   0.9421
B(  0-C , 11-H ) :   0.9665 B(  1-C ,  2-O ) :   1.9438 B(  1-C ,  3-C ) :   0.8812
B(  2-O ,  3-C ) :  -0.1280 B(  3-C ,  4-C ) :   1.3495 B(  3-C ,  8-C ) :   1.2737
B(  4-C ,  5-C ) :   1.4087 B(  4-C , 12-H ) :   0.9489 B(  5-C ,  6-C ) :   1.3293
B(  5-C , 13-H ) :   0.9427 B(  6-C ,  7-N ) :   1.4579 B(  6-C , 14-H ) :   0.9801
B(  7-N ,  8-C ) :   1.4942 B(  8-C , 15-H ) :   0.9879

Dispersion correction           -0.005260402
FINAL SINGLE POINT ENERGY      -400.829297056876

DIPOLE MOMENT
-------------

Method             : SCF
Type of density    : Electron Density
Multiplicity       :   1
Irrep              :   0
Energy             :  -400.8314302135491971 Eh
Relativity type    :
Basis              : AO
                                X                 Y                 Z
Electronic contribution:     -2.140298680       1.957237529      -1.518057028
Nuclear contribution   :      1.859742966      -2.091564941       2.049422902
                        -----------------------------------------
Total Dipole Moment    :     -0.280555715      -0.134327412       0.531365874
                        -----------------------------------------
Magnitude (a.u.)       :      0.615715075
Magnitude (Debye)      :      1.565023347

Rotational constants in cm-1:             0.126501             0.040658             0.032109
Rotational constants in MHz :          3792.398415          1218.903530           962.599534

                             ****ORCA TERMINATED NORMALLY****
TOTAL RUN TIME: 0 days 0 hours 0 minutes 28 seconds 734 msec
