                         Program Version 6.0.0  -   RELEASE  -
|  1> ! r2SCAN-3c DEF2-TZVP FREQ
|  2> * xyzfile 0 1 censo.xyz
|  3>
|  4>                          ****END OF INPUT****

CARTESIAN COORDINATES (ANGSTROEM)
---------------------------------
  C     -4.103280    0.003620    0.003146
  C     -3.417173    0.859551    0.856899
  C     -2.029469    0.845287    0.842298
  C     -1.297101    0.001753    0.001725
  C     -2.031466   -0.840824   -0.838100
  C     -3.419188   -0.853237   -0.851293
  Cl    -1.162650   -1.919904   -1.913227
  C      0.181001    0.000630    0.000747
  C      0.915908    0.840631   -0.840404
  C      2.303541    0.858505   -0.862019
  C      2.971468   -0.002739   -0.002349
  C      2.303396   -0.862254    0.858920
  C      0.915761   -0.841002    0.840403
  Cl     0.054592   -1.916203    1.917287
  Cl     4.720951   -0.005086   -0.004525
  Cl     0.054949    1.917837   -1.915430
  Cl    -1.158041    1.923166    1.916509
  H     -5.187910    0.004343    0.003688
  H     -3.951569    1.526646    1.522595
  H     -3.955124   -1.519626   -1.516454
  H      2.842891    1.521343   -1.526791
  H      2.842642   -1.526469    1.522418

 Total Charge           Charge          ....    0
 Multiplicity           Mult            ....    1
 Number of Electrons    NEL             ....  162
 Basis Dimension        Dim             ....  587

ORBITAL ENERGIES
----------------

  NO   OCC          E(Eh)            E(eV)
   0   2.0000    -101.207362     -2753.9923
   1   2.0000    -101.207093     -2753.9850
   2   2.0000    -101.207091     -2753.9850
   3   2.0000    -101.203968     -2753.9000
   4   2.0000    -101.203966     -2753.8999
   5   2.0000     -10.127816      -275.5919
   6   2.0000     -10.127810      -275.5917
   7   2.0000     -10.126880      -275.5664
   8   2.0000     -10.121002      -275.4065
   9   2.0000     -10.120996      -275.4063
  10   2.0000     -10.087748      -274.5016
  11   2.0000     -10.085918      -274.4518
  12   2.0000     -10.072555      -274.0882
  13   2.0000     -10.072545      -274.0879
  14   2.0000     -10.066774      -273.9308
  15   2.0000     -10.064233      -273.8617
  16   2.0000     -10.064188      -273.8605
  17   2.0000      -9.383207      -255.3301
  18   2.0000      -9.382903      -255.3218
  19   2.0000      -9.382901      -255.3217
  20   2.0000      -9.379638      -255.2329
  21   2.0000      -9.379636      -255.2329
  22   2.0000      -7.128206      -193.9684
  23   2.0000      -7.127956      -193.9615
  24   2.0000      -7.127954      -193.9615
  25   2.0000      -7.124672      -193.8722
  26   2.0000      -7.124670      -193.8721
  27   2.0000      -7.118173      -193.6953
  28   2.0000      -7.117916      -193.6884
  29   2.0000      -7.117915      -193.6883
  30   2.0000      -7.117651      -193.6811
  31   2.0000      -7.117255      -193.6704
  32   2.0000      -7.117252      -193.6703
  33   2.0000      -7.114667      -193.5999
  34   2.0000      -7.114664      -193.5999
  35   2.0000      -7.114029      -193.5826
  36   2.0000      -7.114026      -193.5825
  37   2.0000      -0.906128       -24.6570
  38   2.0000      -0.882142       -24.0043
  39   2.0000      -0.851417       -23.1682
  40   2.0000      -0.850651       -23.1474
  41   2.0000      -0.845825       -23.0161
  42   2.0000      -0.801229       -21.8025
  43   2.0000      -0.788056       -21.4441
  44   2.0000      -0.762793       -20.7567
  45   2.0000      -0.723750       -19.6942
  46   2.0000      -0.713629       -19.4188
  47   2.0000      -0.705475       -19.1970
  48   2.0000      -0.615668       -16.7532
  49   2.0000      -0.596482       -16.2311
  50   2.0000      -0.587069       -15.9750
  51   2.0000      -0.577130       -15.7045
  52   2.0000      -0.521309       -14.1855
  53   2.0000      -0.492539       -13.4027
  54   2.0000      -0.487367       -13.2619
  55   2.0000      -0.476355       -12.9623
  56   2.0000      -0.457787       -12.4570
  57   2.0000      -0.444866       -12.1054
  58   2.0000      -0.429094       -11.6763
  59   2.0000      -0.425557       -11.5800
  60   2.0000      -0.421316       -11.4646
  61   2.0000      -0.409252       -11.1363
  62   2.0000      -0.399902       -10.8819
  63   2.0000      -0.388177       -10.5628
  64   2.0000      -0.372124       -10.1260
  65   2.0000      -0.362554        -9.8656
  66   2.0000      -0.359452        -9.7812
  67   2.0000      -0.359022        -9.7695
  68   2.0000      -0.348835        -9.4923
  69   2.0000      -0.340846        -9.2749
  70   2.0000      -0.309633        -8.4255
  71   2.0000      -0.306035        -8.3276
  72   2.0000      -0.305927        -8.3247
  73   2.0000      -0.301366        -8.2006
  74   2.0000      -0.296394        -8.0653
  75   2.0000      -0.294236        -8.0066
  76   2.0000      -0.291991        -7.9455
  77   2.0000      -0.252010        -6.8576
  78   2.0000      -0.247108        -6.7242
  79   2.0000      -0.244371        -6.6497
  80   2.0000      -0.240933        -6.5561
  81   0.0000      -0.070532        -1.9193
  82   0.0000      -0.069346        -1.8870
  83   0.0000      -0.065470        -1.7815
  84   0.0000      -0.059784        -1.6268
  85   0.0000      -0.047236        -1.2854

MULLIKEN ATOMIC CHARGES
-----------------------
   0 C :   -0.025186
   1 C :   -0.266668
   2 C :    0.182415
   3 C :    0.001334
   4 C :    0.182115
   5 C :   -0.266671
   6 Cl:   -0.091308
   7 C :   -0.012146
   8 C :    0.211994
   9 C :   -0.359851
  10 C :    0.283580
  11 C :   -0.359889
  12 C :    0.212042
  13 Cl:   -0.080873
  14 Cl:   -0.094873
  15 Cl:   -0.080865
  16 Cl:   -0.091282
  17 H :    0.123681
  18 H :    0.128515
  19 H :    0.128516
  20 H :    0.137708
  21 H :    0.137713
Sum of atomic charges:   -0.0000000

LOEWDIN ATOMIC CHARGES
----------------------
   0 C :   -0.120516
   1 C :   -0.137750
   2 C :   -0.371156
   3 C :   -0.148543
   4 C :   -0.371136
   5 C :   -0.137759
   6 Cl:    0.418954
   7 C :   -0.148736
   8 C :   -0.371678
   9 C :   -0.142420
  10 C :   -0.408668
  11 C :   -0.142425
  12 C :   -0.371663
  13 Cl:    0.432953
  14 Cl:    0.401181
  15 Cl:    0.432969
  16 Cl:    0.418928
  17 H :    0.150844
  18 H :    0.151935
  19 H :    0.151935
  20 H :    0.156374
  21 H :    0.156377

  Mayer bond orders larger than 0.100000
B(  0-C ,  1-C ) :   1.3740 B(  0-C ,  5-C ) :   1.3739 B(  0-C , 17-H ) :   0.9657
B(  1-C ,  2-C ) :   1.3950 B(  1-C , 18-H ) :   0.9691 B(  2-C ,  3-C ) :   1.2615
B(  2-C , 16-Cl) :   1.0612 B(  3-C ,  4-C ) :   1.2616 B(  3-C ,  7-C ) :   0.7009
B(  4-C ,  5-C ) :   1.3950 B(  4-C ,  6-Cl) :   1.0611 B(  5-C , 19-H ) :   0.9691
B(  7-C ,  8-C ) :   1.2566 B(  7-C , 12-C ) :   1.2567 B(  8-C ,  9-C ) :   1.3640
B(  8-C , 15-Cl) :   1.0618 B(  9-C , 10-C ) :   1.3279 B(  9-C , 20-H ) :   0.9739
B( 10-C , 11-C ) :   1.3279 B( 10-C , 14-Cl) :   0.9648 B( 11-C , 12-C ) :   1.3640
B( 11-C , 21-H ) :   0.9739 B( 12-C , 13-Cl) :   1.0617

Dispersion correction           -0.014545050
FINAL SINGLE POINT ENERGY     -2761.142441058734

DIPOLE MOMENT
-------------

Method             : SCF
Type of density    : Electron Density
Multiplicity       :   1
Irrep              :   0
Energy             : -2761.1382764330246573 Eh
Relativity type    :
Basis              : AO
                                X                 Y                 Z
Electronic contribution:      9.602995125      -0.006460486      -0.004973443
Nuclear contribution   :    -10.313756114       0.006840048       0.005203788
                        -----------------------------------------
Total Dipole Moment    :     -0.710760988       0.000379562       0.000230345
                        -----------------------------------------
Magnitude (a.u.)       :      0.710761127
Magnitude (Debye)      :      1.806611211

VIBRATIONAL FREQUENCIES
-----------------------

Scaling factor for frequencies =  1.000000000  (already applied!)

     0:       0.00 cm**-1
     1:       0.00 cm**-1
     2:       0.00 cm**-1
     3:       0.00 cm**-1
     4:       0.00 cm**-1
     5:       0.00 cm**-1
     6:      30.61 cm**-1
     7:      40.95 cm**-1
     8:      60.59 cm**-1
     9:      97.49 cm**-1
    10:      98.04 cm**-1
    11:     144.32 cm**-1
    12:     165.10 cm**-1
    13:     195.50 cm**-1
    14:     206.38 cm**-1
    15:     209.07 cm**-1
    16:     214.13 cm**-1
    17:     270.10 cm**-1
    18:     309.24 cm**-1
    19:     340.11 cm**-1
    20:     369.15 cm**-1
    21:     403.80 cm**-1
    22:     405.64 cm**-1
    23:     433.64 cm**-1
    24:     476.36 cm**-1
    25:     500.65 cm**-1
    26:     538.45 cm**-1
    27:     538.54 cm**-1
    28:     545.31 cm**-1
    29:     596.02 cm**-1
    30:     598.38 cm**-1
    31:     725.78 cm**-1
    32:     747.22 cm**-1
    33:     748.90 cm**-1
    34:     777.81 cm**-1
    35:     786.49 cm**-1
    36:     793.47 cm**-1
    37:     825.33 cm**-1
    38:     865.20 cm**-1
    39:     868.34 cm**-1
    40:     894.54 cm**-1
    41:     966.40 cm**-1
    42:    1021.05 cm**-1
    43:    1089.24 cm**-1
    44:    1091.50 cm**-1
    45:    1122.42 cm**-1
    46:    1130.93 cm**-1
    47:    1176.24 cm**-1
    48:    1206.23 cm**-1
    49:    1212.43 cm**-1
    50:    1284.79 cm**-1
    51:    1315.52 cm**-1
    52:    1320.84 cm**-1
    53:    1395.17 cm**-1
    54:    1440.02 cm**-1
    55:    1452.89 cm**-1
    56:    1494.40 cm**-1
    57:    1569.74 cm**-1
    58:    1585.08 cm**-1
    59:    1604.11 cm**-1
    60:    1620.33 cm**-1
    61:    3177.45 cm**-1
    62:    3198.72 cm**-1
    63:    3203.25 cm**-1
    64:    3211.15 cm**-1
    65:    3211.78 cm**-1

IR SPECTRUM
-----------

 Mode   freq       eps      Int      T**2         TX        TY        TZ
       cm**-1   L/(mol*cm) km/mol    a.u.
----------------------------------------------------------------------------
  6:     30.61   0.000000    0.00  0.000000  ( 0.000005  0.000014 -0.000008)
  7:     40.95   0.000031    0.15  0.000234  ( 0.000006  0.010796  0.010820)
  8:     60.59   0.000202    1.02  0.001042  (-0.000003 -0.022786  0.022858)
  9:     97.49   0.000024    0.12  0.000076  (-0.000002  0.006094  0.006271)
 10:     98.04   0.000001    0.01  0.000004  (-0.000001  0.001818 -0.000750)
 11:    144.32   0.000002    0.01  0.000004  ( 0.001998 -0.000013 -0.000013)
 12:    165.10   0.000059    0.30  0.000111  (-0.000016 -0.007433 -0.007460)
 13:    195.50   0.000015    0.08  0.000024  (-0.000000  0.003462 -0.003469)
 14:    206.38   0.000000    0.00  0.000000  (-0.000027  0.000002 -0.000001)
 15:    209.07   0.000000    0.00  0.000000  (-0.000100  0.000002 -0.000002)
 16:    214.13   0.000079    0.40  0.000115  ( 0.010704 -0.000007 -0.000005)
 17:    270.10   0.000089    0.45  0.000102  (-0.010117  0.000012  0.000013)
 18:    309.24   0.000188    0.95  0.000190  (-0.000000  0.009727 -0.009767)
 19:    340.11   0.000077    0.39  0.000071  ( 0.000003 -0.005964 -0.005916)
 20:    369.15   0.000012    0.06  0.000010  ( 0.003143 -0.000008 -0.000004)
 21:    403.80   0.002811   14.21  0.002173  ( 0.046612  0.000014  0.000019)
 22:    405.64   0.000914    4.62  0.000703  (-0.000125  0.018780  0.018727)
 23:    433.64   0.001561    7.89  0.001123  (-0.000003 -0.023703  0.023699)
 24:    476.36   0.000300    1.51  0.000196  ( 0.000003  0.009945 -0.009864)
 25:    500.65   0.000420    2.12  0.000262  ( 0.000016  0.011426  0.011446)
 26:    538.45   0.000980    4.95  0.000568  ( 0.023833 -0.000032 -0.000031)
 27:    538.54   0.000704    3.56  0.000408  (-0.020191  0.000030  0.000029)
 28:    545.31   0.000000    0.00  0.000000  ( 0.000090  0.000003 -0.000003)
 29:    596.02   0.000817    4.13  0.000428  (-0.000004 -0.014814  0.014438)
 30:    598.38   0.001245    6.29  0.000649  ( 0.000048  0.017832  0.018203)
 31:    725.78   0.002852   14.41  0.001226  ( 0.035018 -0.000068 -0.000069)
 32:    747.22   0.002930   14.81  0.001224  (-0.000144 -0.023528 -0.025888)
 33:    748.90   0.004004   20.24  0.001669  ( 0.000010  0.029856 -0.027878)
 34:    777.81   0.012665   64.01  0.005081  (-0.000027 -0.050434 -0.050377)
 35:    786.49   0.000317    1.60  0.000126  (-0.000003 -0.007926  0.007943)
 36:    793.47   0.019020   96.12  0.007481  ( 0.000008  0.061187 -0.061129)
 37:    825.33   0.012224   61.78  0.004622  (-0.067985  0.000091  0.000083)
 38:    865.20   0.005337   26.97  0.001925  (-0.000087 -0.031039 -0.031009)
 39:    868.34   0.000000    0.00  0.000000  (-0.000032  0.000194  0.000181)
 40:    894.54   0.000000    0.00  0.000000  (-0.000045 -0.000000  0.000001)
 41:    966.40   0.000030    0.15  0.000010  ( 0.000002  0.002209 -0.002217)
 42:   1021.05   0.000573    2.90  0.000175  ( 0.013238 -0.000014 -0.000015)
 43:   1089.24   0.002543   12.85  0.000729  ( 0.026994 -0.000022 -0.000018)
 44:   1091.50   0.000387    1.96  0.000111  (-0.010517 -0.000009 -0.000012)
 45:   1122.42   0.005610   28.35  0.001560  (-0.039492  0.000039  0.000035)
 46:   1130.93   0.001329    6.72  0.000367  (-0.019150  0.000023  0.000018)
 47:   1176.24   0.001423    7.19  0.000377  (-0.000030 -0.013798 -0.013677)
 48:   1206.23   0.002950   14.91  0.000763  ( 0.000006  0.019683 -0.019387)
 49:   1212.43   0.003911   19.76  0.001007  (-0.000037 -0.022362 -0.022505)
 50:   1284.79   0.000077    0.39  0.000019  ( 0.004317 -0.000021 -0.000022)
 51:   1315.52   0.001417    7.16  0.000336  (-0.000005 -0.013026  0.012900)
 52:   1320.84   0.000357    1.80  0.000084  (-0.000019 -0.006433 -0.006554)
 53:   1395.17   0.009967   50.37  0.002229  ( 0.000004  0.033408 -0.033365)
 54:   1440.02   0.011613   58.69  0.002517  (-0.050166  0.000081  0.000072)
 55:   1452.89   0.013245   66.93  0.002845  (-0.000103 -0.037768 -0.037661)
 56:   1494.40   0.002719   13.74  0.000568  (-0.023829  0.000053  0.000047)
 57:   1569.74   0.015358   77.61  0.003053  ( 0.000008 -0.039096  0.039046)
 58:   1585.08   0.006849   34.61  0.001348  (-0.000047 -0.025961 -0.025969)
 59:   1604.11   0.022517  113.79  0.004380  ( 0.066185 -0.000077 -0.000086)
 60:   1620.33   0.000000    0.00  0.000000  ( 0.000101 -0.000006  0.000000)
 61:   3177.45   0.000971    4.91  0.000095  ( 0.009764 -0.000006 -0.000005)
 62:   3198.72   0.000021    0.11  0.000002  (-0.000012  0.001022  0.001018)
 63:   3203.25   0.000334    1.69  0.000033  ( 0.005707 -0.000003 -0.000002)
 64:   3211.15   0.000817    4.13  0.000079  (-0.000366  0.006294 -0.006300)
 65:   3211.78   0.000268    1.35  0.000026  ( 0.005058  0.000448 -0.000464)

--------------------------
THERMOCHEMISTRY AT 298.15K
--------------------------

Temperature         ...   298.15 K
Pressure            ...     1.00 atm
Total Mass          ...   326.44 AMU
Quasi RRHO          ...     True
Cut-Off Frequency   ...     1.00 cm^-1

Throughout the following assumptions are being made:
  (1) The electronic state is orbitally nondegenerate
  (2) There are no thermally accessible electronically excited states
  (3) Hindered rotations indicated by low frequency modes are not
      treated as such but are treated as vibrations and this may
      cause some error
  (4) All equations used are the standard statistical mechanics
      equations for an ideal gas
  (5) All vibrations are strictly harmonic

freq.      30.61  E(vib)   ...       0.55
freq.      40.95  E(vib)   ...       0.54
freq.      60.59  E(vib)   ...       0.51
freq.      97.49  E(vib)   ...       0.46
freq.      98.04  E(vib)   ...       0.46
freq.     144.32  E(vib)   ...       0.41
freq.     165.10  E(vib)   ...       0.39
freq.     195.50  E(vib)   ...       0.36
freq.     206.38  E(vib)   ...       0.35
freq.     209.07  E(vib)   ...       0.34
freq.     214.13  E(vib)   ...       0.34
freq.     270.10  E(vib)   ...       0.29
freq.     309.24  E(vib)   ...       0.26
freq.     340.11  E(vib)   ...       0.23
freq.     369.15  E(vib)   ...       0.21
freq.     403.80  E(vib)   ...       0.19
freq.     405.64  E(vib)   ...       0.19
freq.     433.64  E(vib)   ...       0.17
freq.     476.36  E(vib)   ...       0.15
freq.     500.65  E(vib)   ...       0.14
freq.     538.45  E(vib)   ...       0.12
freq.     538.54  E(vib)   ...       0.12
freq.     545.31  E(vib)   ...       0.12
freq.     596.02  E(vib)   ...       0.10
freq.     598.38  E(vib)   ...       0.10
freq.     725.78  E(vib)   ...       0.06
freq.     747.22  E(vib)   ...       0.06
freq.     748.90  E(vib)   ...       0.06
freq.     777.81  E(vib)   ...       0.05
freq.     786.49  E(vib)   ...       0.05
freq.     793.47  E(vib)   ...       0.05
freq.     825.33  E(vib)   ...       0.04
freq.     865.20  E(vib)   ...       0.04
freq.     868.34  E(vib)   ...       0.04
freq.     894.54  E(vib)   ...       0.03
freq.     966.40  E(vib)   ...       0.03
freq.    1021.05  E(vib)   ...       0.02
freq.    1089.24  E(vib)   ...       0.02
freq.    1091.50  E(vib)   ...       0.02
freq.    1122.42  E(vib)   ...       0.01
freq.    1130.93  E(vib)   ...       0.01
freq.    1176.24  E(vib)   ...       0.01
freq.    1206.23  E(vib)   ...       0.01
freq.    1212.43  E(vib)   ...       0.01
freq.    1284.79  E(vib)   ...       0.01
freq.    1315.52  E(vib)   ...       0.01
freq.    1320.84  E(vib)   ...       0.01
freq.    1395.17  E(vib)   ...       0.00
freq.    1440.02  E(vib)   ...       0.00
freq.    1452.89  E(vib)   ...       0.00
freq.    1494.40  E(vib)   ...       0.00
freq.    1569.74  E(vib)   ...       0.00
freq.    1585.08  E(vib)   ...       0.00
freq.    1604.11  E(vib)   ...       0.00
freq.    1620.33  E(vib)   ...       0.00
freq.    3177.45  E(vib)   ...       0.00
freq.    3198.72  E(vib)   ...       0.00
freq.    3203.25  E(vib)   ...       0.00
freq.    3211.15  E(vib)   ...       0.00
freq.    3211.78  E(vib)   ...       0.00

------------
INNER ENERGY
------------

The inner energy is: U= E(el) + E(ZPE) + E(vib) + E(rot) + E(trans)
    E(el)   - is the total energy from the electronic structure calculation
              = E(kin-el) + E(nuc-el) + E(el-el) + E(nuc-nuc)
    E(ZPE)  - the the zero temperature vibrational energy from the frequency calculation
    E(vib)  - the the finite temperature correction to E(ZPE) due to population
              of excited vibrational states
    E(rot)  - is the rotational thermal energy
    E(trans)- is the translational thermal energy

Summary of contributions to the inner energy U:
Electronic energy                ...  -2761.14244106 Eh
Zero point energy                ...      0.13195678 Eh      82.80 kcal/mol
Thermal vibrational correction   ...      0.01242345 Eh       7.80 kcal/mol
Thermal rotational correction    ...      0.00141627 Eh       0.89 kcal/mol
Thermal translational correction ...      0.00141627 Eh       0.89 kcal/mol
-----------------------------------------------------------------------
Total thermal energy                  -2760.99522829 Eh

Summary of corrections to the electronic energy:
(perhaps to be used in another calculation)
Total thermal correction                  0.01525599 Eh       9.57 kcal/mol
Non-thermal (ZPE) correction              0.13195678 Eh      82.80 kcal/mol
-----------------------------------------------------------------------
Total correction                          0.14721277 Eh      92.38 kcal/mol

--------
ENTHALPY
--------

The enthalpy is H = U + kB*T
                kB is Boltzmann's constant
Total thermal energy              ...  -2760.99522829 Eh
Thermal Enthalpy correction       ...      0.00094421 Eh       0.59 kcal/mol
-----------------------------------------------------------------------
Total Enthalpy                    ...  -2760.99428408 Eh

Note: Only C1 symmetry has been detected, increase convergence thresholds
      if your molecule has a higher symmetry. Symmetry factor of 1.0 is
      used for the rotational entropy correction.

Note: Rotational entropy computed according to Herzberg
Infrared and Raman Spectra, Chapter V,1, Van Nostrand Reinhold, 1945
Point Group:  C1, Symmetry Number:   1
Rotational constants in cm-1:     0.014046     0.006978     0.006971

Vibrational entropy computed according to the QRRHO of S. Grimme
Chem.Eur.J. 2012 18 9955 using a reference frequency of 100.0 cm-1

-------
ENTROPY
-------

The entropy contributions are T*S = T*(S(el)+S(vib)+S(rot)+S(trans))
     S(el)   - electronic entropy
     S(vib)  - vibrational entropy
     S(rot)  - rotational entropy
     S(trans)- translational entropy
The entropies will be listed as multiplied by the temperature to get
units of energy

Electronic entropy                ...      0.00000000 Eh      0.00 kcal/mol
Vibrational entropy               ...      0.02184406 Eh     13.71 kcal/mol
Rotational entropy                ...      0.01621280 Eh     10.17 kcal/mol
Translational entropy             ...      0.02054679 Eh     12.89 kcal/mol
-----------------------------------------------------------------------
Final entropy term                ...      0.05860364 Eh     36.77 kcal/mol

In case the symmetry of your molecule has not been determined correctly
or in case you have a reason to use a different symmetry number we print
out the resulting rotational entropy values for sn=1,12:

 non-linear molecules -----------------------------------

                             ****ORCA TERMINATED NORMALLY****
TOTAL RUN TIME: 0 days 0 hours 47 minutes 43 seconds 276 msec
