                         Program Version 6.0.0  -   RELEASE  -
|  1> ! r2SCAN-3c DEF2-TZVP FREQ
|  2> * xyzfile 0 1 vacuum_censo.xyz
|  3>
|  4>                          ****END OF INPUT****

CARTESIAN COORDINATES (ANGSTROEM)
---------------------------------
  C     -4.102810    0.000130    0.000118
  C     -3.416987   -0.858352   -0.849777
  C     -2.028368   -0.847219   -0.838380
  C     -1.297364    0.000130    0.000002
  C     -2.028297    0.847487    0.838436
  C     -3.416914    0.858620    0.849948
  Cl    -1.165712    1.928046    1.907582
  C      0.180995    0.000086   -0.000030
  C      0.914428   -0.846451    0.836469
  C      2.302897   -0.863471    0.853523
  C      2.975844   -0.000067   -0.000118
  C      2.302936    0.863416   -0.853712
  C      0.914465    0.846548   -0.836571
  Cl     0.059917    1.928154   -1.905811
  Cl     4.722247   -0.000172   -0.000180
  Cl     0.059830   -1.927972    1.905760
  Cl    -1.165875   -1.927784   -1.907596
  H     -5.187581    0.000124    0.000168
  H     -3.945911   -1.529672   -1.514875
  H     -3.945782    1.529937    1.515092
  H      2.840905   -1.530715    1.513646
  H      2.840976    1.530597   -1.513872

 Total Charge           Charge          ....    0
 Multiplicity           Mult            ....    1
 Number of Electrons    NEL             ....  162
 Basis Dimension        Dim             ....  587

ORBITAL ENERGIES
----------------

  NO   OCC          E(Eh)            E(eV)
   0   2.0000    -101.207710     -2754.0018
   1   2.0000    -101.207301     -2753.9907
   2   2.0000    -101.207299     -2753.9906
   3   2.0000    -101.204279     -2753.9084
   4   2.0000    -101.204278     -2753.9084
   5   2.0000     -10.127334      -275.5788
   6   2.0000     -10.127328      -275.5786
   7   2.0000     -10.126340      -275.5517
   8   2.0000     -10.120394      -275.3899
   9   2.0000     -10.120388      -275.3898
  10   2.0000     -10.087279      -274.4888
  11   2.0000     -10.085326      -274.4357
  12   2.0000     -10.071923      -274.0710
  13   2.0000     -10.071914      -274.0707
  14   2.0000     -10.066315      -273.9184
  15   2.0000     -10.063640      -273.8456
  16   2.0000     -10.063596      -273.8444
  17   2.0000      -9.383574      -255.3400
  18   2.0000      -9.383156      -255.3287
  19   2.0000      -9.383156      -255.3287
  20   2.0000      -9.380026      -255.2435
  21   2.0000      -9.380026      -255.2435
  22   2.0000      -7.128574      -193.9784
  23   2.0000      -7.128198      -193.9681
  24   2.0000      -7.128198      -193.9681
  25   2.0000      -7.125046      -193.8824
  26   2.0000      -7.125046      -193.8823
  27   2.0000      -7.118536      -193.7052
  28   2.0000      -7.118169      -193.6952
  29   2.0000      -7.118168      -193.6952
  30   2.0000      -7.118013      -193.6910
  31   2.0000      -7.117505      -193.6772
  32   2.0000      -7.117503      -193.6771
  33   2.0000      -7.115054      -193.6105
  34   2.0000      -7.115054      -193.6105
  35   2.0000      -7.114409      -193.5929
  36   2.0000      -7.114407      -193.5929
  37   2.0000      -0.906136       -24.6572
  38   2.0000      -0.882409       -24.0116
  39   2.0000      -0.852264       -23.1913
  40   2.0000      -0.851355       -23.1665
  41   2.0000      -0.847248       -23.0548
  42   2.0000      -0.801610       -21.8129
  43   2.0000      -0.788314       -21.4511
  44   2.0000      -0.762688       -20.7538
  45   2.0000      -0.722987       -19.6735
  46   2.0000      -0.713113       -19.4048
  47   2.0000      -0.705060       -19.1857
  48   2.0000      -0.615507       -16.7488
  49   2.0000      -0.596310       -16.2264
  50   2.0000      -0.586883       -15.9699
  51   2.0000      -0.576887       -15.6979
  52   2.0000      -0.520849       -14.1730
  53   2.0000      -0.492344       -13.3974
  54   2.0000      -0.487281       -13.2596
  55   2.0000      -0.476158       -12.9569
  56   2.0000      -0.458293       -12.4708
  57   2.0000      -0.444971       -12.1083
  58   2.0000      -0.428721       -11.6661
  59   2.0000      -0.425590       -11.5809
  60   2.0000      -0.421491       -11.4694
  61   2.0000      -0.409125       -11.1329
  62   2.0000      -0.399927       -10.8826
  63   2.0000      -0.388522       -10.5722
  64   2.0000      -0.371858       -10.1188
  65   2.0000      -0.362936        -9.8760
  66   2.0000      -0.360004        -9.7962
  67   2.0000      -0.358498        -9.7552
  68   2.0000      -0.349220        -9.5028
  69   2.0000      -0.341572        -9.2946
  70   2.0000      -0.309791        -8.4298
  71   2.0000      -0.306213        -8.3325
  72   2.0000      -0.306182        -8.3316
  73   2.0000      -0.301445        -8.2027
  74   2.0000      -0.296497        -8.0681
  75   2.0000      -0.294295        -8.0082
  76   2.0000      -0.292068        -7.9476
  77   2.0000      -0.251754        -6.8506
  78   2.0000      -0.246498        -6.7075
  79   2.0000      -0.244138        -6.6433
  80   2.0000      -0.240341        -6.5400
  81   0.0000      -0.070336        -1.9139
  82   0.0000      -0.069070        -1.8795
  83   0.0000      -0.064934        -1.7669
  84   0.0000      -0.059604        -1.6219
  85   0.0000      -0.045914        -1.2494

MULLIKEN ATOMIC CHARGES
-----------------------
   0 C :   -0.029149
   1 C :   -0.263835
   2 C :    0.178323
   3 C :    0.004917
   4 C :    0.178345
   5 C :   -0.263835
   6 Cl:   -0.088607
   7 C :   -0.007701
   8 C :    0.206681
   9 C :   -0.356720
  10 C :    0.278350
  11 C :   -0.356750
  12 C :    0.206724
  13 Cl:   -0.078973
  14 Cl:   -0.092444
  15 Cl:   -0.078975
  16 Cl:   -0.088608
  17 H :    0.123253
  18 H :    0.127742
  19 H :    0.127741
  20 H :    0.136763
  21 H :    0.136761
Sum of atomic charges:    0.0000000

LOEWDIN ATOMIC CHARGES
----------------------
   0 C :   -0.121241
   1 C :   -0.137969
   2 C :   -0.376546
   3 C :   -0.147950
   4 C :   -0.376549
   5 C :   -0.137969
   6 Cl:    0.425082
   7 C :   -0.148100
   8 C :   -0.375503
   9 C :   -0.142510
  10 C :   -0.412315
  11 C :   -0.142510
  12 C :   -0.375506
  13 Cl:    0.437014
  14 Cl:    0.404783
  15 Cl:    0.437013
  16 Cl:    0.425082
  17 H :    0.150976
  18 H :    0.151545
  19 H :    0.151545
  20 H :    0.155813
  21 H :    0.155813

  Mayer bond orders larger than 0.100000
B(  0-C ,  1-C ) :   1.3747 B(  0-C ,  5-C ) :   1.3747 B(  0-C , 17-H ) :   0.9666
B(  1-C ,  2-C ) :   1.3954 B(  1-C , 18-H ) :   0.9690 B(  2-C ,  3-C ) :   1.2620
B(  2-C , 16-Cl) :   1.0651 B(  3-C ,  4-C ) :   1.2620 B(  3-C ,  7-C ) :   0.7018
B(  4-C ,  5-C ) :   1.3954 B(  4-C ,  6-Cl) :   1.0651 B(  5-C , 19-H ) :   0.9690
B(  7-C ,  8-C ) :   1.2573 B(  7-C , 12-C ) :   1.2573 B(  8-C ,  9-C ) :   1.3649
B(  8-C , 15-Cl) :   1.0648 B(  9-C , 10-C ) :   1.3281 B(  9-C , 20-H ) :   0.9737
B( 10-C , 11-C ) :   1.3281 B( 10-C , 14-Cl) :   0.9687 B( 11-C , 12-C ) :   1.3649
B( 11-C , 21-H ) :   0.9737 B( 12-C , 13-Cl) :   1.0648

Dispersion correction           -0.014545037
FINAL SINGLE POINT ENERGY     -2761.142781435748

DIPOLE MOMENT
-------------

Method             : SCF
Type of density    : Electron Density
Multiplicity       :   1
Irrep              :   0
Energy             : -2761.1386567966533221 Eh
Relativity type    :
Basis              : AO
                                X                 Y                 Z
Electronic contribution:      9.603354373      -0.000022041      -0.000388214
Nuclear contribution   :    -10.302854677       0.000012633       0.000418905
                        -----------------------------------------
Total Dipole Moment    :     -0.699500304      -0.000009408       0.000030691
                        -----------------------------------------
Magnitude (a.u.)       :      0.699500305
Magnitude (Debye)      :      1.777988475

VIBRATIONAL FREQUENCIES
-----------------------

Scaling factor for frequencies =  1.000000000  (already applied!)

     0:       0.00 cm**-1
     1:       0.00 cm**-1
     2:       0.00 cm**-1
     3:       0.00 cm**-1
     4:       0.00 cm**-1
     5:       0.00 cm**-1
     6:      28.48 cm**-1
     7:      40.27 cm**-1
     8:      58.81 cm**-1
     9:      96.35 cm**-1
    10:      96.90 cm**-1
    11:     143.92 cm**-1
    12:     163.95 cm**-1
    13:     194.84 cm**-1
    14:     204.02 cm**-1
    15:     206.36 cm**-1
    16:     213.64 cm**-1
    17:     270.40 cm**-1
    18:     307.79 cm**-1
    19:     340.12 cm**-1
    20:     370.98 cm**-1
    21:     405.83 cm**-1
    22:     408.21 cm**-1
    23:     435.00 cm**-1
    24:     476.09 cm**-1
    25:     501.38 cm**-1
    26:     537.70 cm**-1
    27:     540.25 cm**-1
    28:     544.71 cm**-1
    29:     596.15 cm**-1
    30:     597.11 cm**-1
    31:     727.84 cm**-1
    32:     747.32 cm**-1
    33:     748.62 cm**-1
    34:     784.29 cm**-1
    35:     787.80 cm**-1
    36:     798.23 cm**-1
    37:     828.52 cm**-1
    38:     863.85 cm**-1
    39:     866.81 cm**-1
    40:     893.74 cm**-1
    41:     966.31 cm**-1
    42:    1022.07 cm**-1
    43:    1091.36 cm**-1
    44:    1096.71 cm**-1
    45:    1124.77 cm**-1
    46:    1134.85 cm**-1
    47:    1176.49 cm**-1
    48:    1206.81 cm**-1
    49:    1213.80 cm**-1
    50:    1284.43 cm**-1
    51:    1314.14 cm**-1
    52:    1320.51 cm**-1
    53:    1394.22 cm**-1
    54:    1440.59 cm**-1
    55:    1453.36 cm**-1
    56:    1495.15 cm**-1
    57:    1568.62 cm**-1
    58:    1587.31 cm**-1
    59:    1602.75 cm**-1
    60:    1618.88 cm**-1
    61:    3176.84 cm**-1
    62:    3202.36 cm**-1
    63:    3206.25 cm**-1
    64:    3217.86 cm**-1
    65:    3218.48 cm**-1

IR SPECTRUM
-----------

 Mode   freq       eps      Int      T**2         TX        TY        TZ
       cm**-1   L/(mol*cm) km/mol    a.u.
----------------------------------------------------------------------------
  6:     28.48   0.000000    0.00  0.000000  (-0.000038 -0.000002 -0.000000)
  7:     40.27   0.000031    0.15  0.000238  ( 0.000000  0.010784  0.011010)
  8:     58.81   0.000199    1.01  0.001058  ( 0.000001 -0.022928  0.023078)
  9:     96.35   0.000017    0.09  0.000057  (-0.000000  0.004318  0.006162)
 10:     96.90   0.000008    0.04  0.000027  ( 0.000000  0.004835  0.001789)
 11:    143.92   0.000002    0.01  0.000004  (-0.001965  0.000000  0.000000)
 12:    163.95   0.000054    0.27  0.000103  (-0.000001 -0.007080 -0.007253)
 13:    194.84   0.000015    0.08  0.000024  ( 0.000000  0.003505 -0.003413)
 14:    204.02   0.000000    0.00  0.000000  ( 0.000042 -0.000000  0.000000)
 15:    206.36   0.000000    0.00  0.000000  ( 0.000188  0.000000  0.000000)
 16:    213.64   0.000074    0.38  0.000109  (-0.010429  0.000000  0.000000)
 17:    270.40   0.000085    0.43  0.000098  ( 0.009904 -0.000001  0.000000)
 18:    307.79   0.000208    1.05  0.000211  ( 0.000000  0.010120 -0.010435)
 19:    340.12   0.000076    0.38  0.000070  (-0.000000  0.006013  0.005791)
 20:    370.98   0.000012    0.06  0.000010  (-0.003177  0.000001 -0.000000)
 21:    405.83   0.002700   13.65  0.002076  (-0.045568  0.000001  0.000002)
 22:    408.21   0.000813    4.11  0.000622  (-0.000001  0.017682  0.017579)
 23:    435.00   0.001450    7.33  0.001040  (-0.000000 -0.022942  0.022668)
 24:    476.09   0.000297    1.50  0.000195  (-0.000001  0.010148 -0.009581)
 25:    501.38   0.000386    1.95  0.000240  ( 0.000001  0.010861  0.011047)
 26:    537.70   0.000002    0.01  0.000001  (-0.001056  0.000000  0.000000)
 27:    540.25   0.001569    7.93  0.000906  ( 0.030104 -0.000002 -0.000001)
 28:    544.71   0.000000    0.00  0.000000  (-0.000428 -0.000000 -0.000000)
 29:    596.15   0.000811    4.10  0.000425  ( 0.000001 -0.015226  0.013883)
 30:    597.11   0.001257    6.35  0.000657  ( 0.000002  0.017452  0.018776)
 31:    727.84   0.002631   13.29  0.001128  (-0.033584  0.000004  0.000002)
 32:    747.32   0.002548   12.87  0.001064  (-0.000006 -0.013321 -0.029771)
 33:    748.62   0.003947   19.95  0.001646  ( 0.000000 -0.034177  0.021850)
 34:    784.29   0.012989   65.64  0.005168  (-0.000001 -0.050814 -0.050854)
 35:    787.80   0.001390    7.02  0.000551  ( 0.000002 -0.016255  0.016924)
 36:    798.23   0.017688   89.39  0.006915  ( 0.000003  0.059171 -0.058429)
 37:    828.52   0.012272   62.02  0.004622  ( 0.067986 -0.000005 -0.000001)
 38:    863.85   0.005249   26.53  0.001896  (-0.000003 -0.030630 -0.030951)
 39:    866.81   0.000000    0.00  0.000000  ( 0.000023  0.000002  0.000002)
 40:    893.74   0.000000    0.00  0.000000  ( 0.000046  0.000001 -0.000000)
 41:    966.31   0.000024    0.12  0.000008  (-0.000001  0.001959 -0.001973)
 42:   1022.07   0.000683    3.45  0.000209  (-0.014445  0.000001  0.000000)
 43:   1091.36   0.002027   10.24  0.000580  (-0.024076  0.000001  0.000001)
 44:   1096.71   0.000660    3.34  0.000188  ( 0.013705  0.000001 -0.000001)
 45:   1124.77   0.005328   26.92  0.001478  ( 0.038447 -0.000002 -0.000001)
 46:   1134.85   0.001682    8.50  0.000463  ( 0.021508 -0.000001 -0.000001)
 47:   1176.49   0.001335    6.75  0.000354  (-0.000001 -0.013530 -0.013076)
 48:   1206.81   0.002995   15.13  0.000774  ( 0.000000  0.020553 -0.018760)
 49:   1213.80   0.004089   20.67  0.001051  (-0.000001 -0.022458 -0.023388)
 50:   1284.43   0.000066    0.33  0.000016  (-0.004007  0.000002 -0.000000)
 51:   1314.14   0.001316    6.65  0.000313  (-0.000001 -0.012806  0.012191)
 52:   1320.51   0.000384    1.94  0.000091  (-0.000000 -0.006593 -0.006882)
 53:   1394.22   0.009830   49.67  0.002200  ( 0.000000  0.033428 -0.032904)
 54:   1440.59   0.011286   57.03  0.002445  ( 0.049444 -0.000003 -0.000002)
 55:   1453.36   0.013065   66.03  0.002805  (-0.000004 -0.037571 -0.037333)
 56:   1495.15   0.002648   13.38  0.000553  ( 0.023509 -0.000003 -0.000002)
 57:   1568.62   0.015550   78.58  0.003093  ( 0.000002 -0.039598  0.039057)
 58:   1587.31   0.007005   35.40  0.001377  (-0.000003 -0.026122 -0.026359)
 59:   1602.75   0.022690  114.66  0.004418  (-0.066466  0.000003  0.000005)
 60:   1618.88   0.000004    0.02  0.000001  (-0.000880  0.000000  0.000001)
 61:   3176.84   0.001012    5.12  0.000099  ( 0.009973 -0.000000 -0.000000)
 62:   3202.36   0.000032    0.16  0.000003  (-0.000004 -0.001242 -0.001239)
 63:   3206.25   0.000298    1.51  0.000029  ( 0.005388 -0.000001 -0.000001)
 64:   3217.86   0.000708    3.58  0.000069  ( 0.000007 -0.005894  0.005823)
 65:   3218.48   0.000224    1.13  0.000022  ( 0.004664  0.000008 -0.000009)

--------------------------
THERMOCHEMISTRY AT 298.15K
--------------------------

Temperature         ...   298.15 K
Pressure            ...     1.00 atm
Total Mass          ...   326.44 AMU
Quasi RRHO          ...     True
Cut-Off Frequency   ...     1.00 cm^-1

Throughout the following assumptions are being made:
  (1) The electronic state is orbitally nondegenerate
  (2) There are no thermally accessible electronically excited states
  (3) Hindered rotations indicated by low frequency modes are not
      treated as such but are treated as vibrations and this may
      cause some error
  (4) All equations used are the standard statistical mechanics
      equations for an ideal gas
  (5) All vibrations are strictly harmonic

freq.      28.48  E(vib)   ...       0.55
freq.      40.27  E(vib)   ...       0.54
freq.      58.81  E(vib)   ...       0.51
freq.      96.35  E(vib)   ...       0.47
freq.      96.90  E(vib)   ...       0.46
freq.     143.92  E(vib)   ...       0.41
freq.     163.95  E(vib)   ...       0.39
freq.     194.84  E(vib)   ...       0.36
freq.     204.02  E(vib)   ...       0.35
freq.     206.36  E(vib)   ...       0.35
freq.     213.64  E(vib)   ...       0.34
freq.     270.40  E(vib)   ...       0.29
freq.     307.79  E(vib)   ...       0.26
freq.     340.12  E(vib)   ...       0.23
freq.     370.98  E(vib)   ...       0.21
freq.     405.83  E(vib)   ...       0.19
freq.     408.21  E(vib)   ...       0.19
freq.     435.00  E(vib)   ...       0.17
freq.     476.09  E(vib)   ...       0.15
freq.     501.38  E(vib)   ...       0.14
freq.     537.70  E(vib)   ...       0.12
freq.     540.25  E(vib)   ...       0.12
freq.     544.71  E(vib)   ...       0.12
freq.     596.15  E(vib)   ...       0.10
freq.     597.11  E(vib)   ...       0.10
freq.     727.84  E(vib)   ...       0.06
freq.     747.32  E(vib)   ...       0.06
freq.     748.62  E(vib)   ...       0.06
freq.     784.29  E(vib)   ...       0.05
freq.     787.80  E(vib)   ...       0.05
freq.     798.23  E(vib)   ...       0.05
freq.     828.52  E(vib)   ...       0.04
freq.     863.85  E(vib)   ...       0.04
freq.     866.81  E(vib)   ...       0.04
freq.     893.74  E(vib)   ...       0.03
freq.     966.31  E(vib)   ...       0.03
freq.    1022.07  E(vib)   ...       0.02
freq.    1091.36  E(vib)   ...       0.02
freq.    1096.71  E(vib)   ...       0.02
freq.    1124.77  E(vib)   ...       0.01
freq.    1134.85  E(vib)   ...       0.01
freq.    1176.49  E(vib)   ...       0.01
freq.    1206.81  E(vib)   ...       0.01
freq.    1213.80  E(vib)   ...       0.01
freq.    1284.43  E(vib)   ...       0.01
freq.    1314.14  E(vib)   ...       0.01
freq.    1320.51  E(vib)   ...       0.01
freq.    1394.22  E(vib)   ...       0.00
freq.    1440.59  E(vib)   ...       0.00
freq.    1453.36  E(vib)   ...       0.00
freq.    1495.15  E(vib)   ...       0.00
freq.    1568.62  E(vib)   ...       0.00
freq.    1587.31  E(vib)   ...       0.00
freq.    1602.75  E(vib)   ...       0.00
freq.    1618.88  E(vib)   ...       0.00
freq.    3176.84  E(vib)   ...       0.00
freq.    3202.36  E(vib)   ...       0.00
freq.    3206.25  E(vib)   ...       0.00
freq.    3217.86  E(vib)   ...       0.00
freq.    3218.48  E(vib)   ...       0.00

------------
INNER ENERGY
------------

The inner energy is: U= E(el) + E(ZPE) + E(vib) + E(rot) + E(trans)
    E(el)   - is the total energy from the electronic structure calculation
              = E(kin-el) + E(nuc-el) + E(el-el) + E(nuc-nuc)
    E(ZPE)  - the the zero temperature vibrational energy from the frequency calculation
    E(vib)  - the the finite temperature correction to E(ZPE) due to population
              of excited vibrational states
    E(rot)  - is the rotational thermal energy
    E(trans)- is the translational thermal energy

Summary of contributions to the inner energy U:
Electronic energy                ...  -2761.14278144 Eh
Zero point energy                ...      0.13204542 Eh      82.86 kcal/mol
Thermal vibrational correction   ...      0.01243778 Eh       7.80 kcal/mol
Thermal rotational correction    ...      0.00141627 Eh       0.89 kcal/mol
Thermal translational correction ...      0.00141627 Eh       0.89 kcal/mol
-----------------------------------------------------------------------
Total thermal energy                  -2760.99546569 Eh

Summary of corrections to the electronic energy:
(perhaps to be used in another calculation)
Total thermal correction                  0.01527032 Eh       9.58 kcal/mol
Non-thermal (ZPE) correction              0.13204542 Eh      82.86 kcal/mol
-----------------------------------------------------------------------
Total correction                          0.14731574 Eh      92.44 kcal/mol

--------
ENTHALPY
--------

The enthalpy is H = U + kB*T
                kB is Boltzmann's constant
Total thermal energy              ...  -2760.99546569 Eh
Thermal Enthalpy correction       ...      0.00094421 Eh       0.59 kcal/mol
-----------------------------------------------------------------------
Total Enthalpy                    ...  -2760.99452148 Eh

Note: Only C1 symmetry has been detected, increase convergence thresholds
      if your molecule has a higher symmetry. Symmetry factor of 1.0 is
      used for the rotational entropy correction.

Note: Rotational entropy computed according to Herzberg
Infrared and Raman Spectra, Chapter V,1, Van Nostrand Reinhold, 1945
Point Group:  C1, Symmetry Number:   1
Rotational constants in cm-1:     0.014048     0.006991     0.006953

Vibrational entropy computed according to the QRRHO of S. Grimme
Chem.Eur.J. 2012 18 9955 using a reference frequency of 100.0 cm-1

-------
ENTROPY
-------

The entropy contributions are T*S = T*(S(el)+S(vib)+S(rot)+S(trans))
     S(el)   - electronic entropy
     S(vib)  - vibrational entropy
     S(rot)  - rotational entropy
     S(trans)- translational entropy
The entropies will be listed as multiplied by the temperature to get
units of energy

Electronic entropy                ...      0.00000000 Eh      0.00 kcal/mol
Vibrational entropy               ...      0.02191696 Eh     13.75 kcal/mol
Rotational entropy                ...      0.01621308 Eh     10.17 kcal/mol
Translational entropy             ...      0.02054679 Eh     12.89 kcal/mol
-----------------------------------------------------------------------
Final entropy term                ...      0.05867682 Eh     36.82 kcal/mol

In case the symmetry of your molecule has not been determined correctly
or in case you have a reason to use a different symmetry number we print
out the resulting rotational entropy values for sn=1,12:

 non-linear molecules -----------------------------------

                             ****ORCA TERMINATED NORMALLY****
TOTAL RUN TIME: 0 days 0 hours 50 minutes 12 seconds 639 msec
