                         Program Version 6.0.1  -  RELEASE   -
|  1> ! pbe def2-sv(p) def2/J RI DEFGRID1 loosescf d4 GCP(DFT/SV(P)) printgap
|  2> %output
|  3>     printlevel normal
|  4> end
|  5> * xyz 0 1
|  6> C -2.3380665717 -1.0479346839 0.3817308101
|  7> C -1.0769645962 -0.2695669337 0.8104104367
|  8> H -1.3088050924 0.2020560357 1.7742555019
|  9> C -0.6925859823 0.8469572626 -0.1684733297
| 10> H -0.6980924039 0.4758496787 -1.2085954927
| 11> C 0.73728227 1.2955175456 0.1686309869
| 12> H 0.7881223716 1.5493604772 1.2339840095
| 13> C 1.7174845958 0.1497766087 -0.1231610769
| 14> H 2.0082988826 0.1886417585 -1.1875654867
| 15> C 1.0089473872 -1.2065358024 0.0884002679
| 16> H 1.744278915 -1.9171941221 0.4961269763
| 17> O 0.0103468424 -1.1538141417 1.0600096365
| 18> O 0.5349449985 -1.6277650766 -1.1557558884
| 19> O 2.8516460654 0.1983224703 0.6976704761
| 20> O 1.0619839692 2.4862042325 -0.5128298396
| 21> O -1.6028308905 1.910080498 -0.0481370643
| 22> O -2.2201347003 -1.7146950843 -0.8519938646
| 23> H -3.1809183033 -0.348354278 0.3749279819
| 24> H -2.5191086443 -1.8293723253 1.1224548034
| 25> H -0.2562804728 -2.1776321009 -1.0135132635
| 26> H 3.2269850726 1.086495693 0.652990953
| 27> H 1.1101849139 2.3037656851 -1.4602789736
| 28> H -1.100197353 2.7327691776 -0.1405295632
| 29> H -2.2363364061 -1.0651610404 -1.5640827962
| 30> *
| 31>
| 32>                          ****END OF INPUT****

CARTESIAN COORDINATES (ANGSTROEM)
---------------------------------
  C     -2.338067   -1.047935    0.381731
  C     -1.076965   -0.269567    0.810410
  H     -1.308805    0.202056    1.774256
  C     -0.692586    0.846957   -0.168473
  H     -0.698092    0.475850   -1.208595
  C      0.737282    1.295518    0.168631
  H      0.788122    1.549360    1.233984
  C      1.717485    0.149777   -0.123161
  H      2.008299    0.188642   -1.187565
  C      1.008947   -1.206536    0.088400
  H      1.744279   -1.917194    0.496127
  O      0.010347   -1.153814    1.060010
  O      0.534945   -1.627765   -1.155756
  O      2.851646    0.198322    0.697670
  O      1.061984    2.486204   -0.512830
  O     -1.602831    1.910080   -0.048137
  O     -2.220135   -1.714695   -0.851994
  H     -3.180918   -0.348354    0.374928
  H     -2.519109   -1.829372    1.122455
  H     -0.256280   -2.177632   -1.013513
  H      3.226985    1.086496    0.652991
  H      1.110185    2.303766   -1.460279
  H     -1.100197    2.732769   -0.140530
  H     -2.236336   -1.065161   -1.564083

 Total Charge           Charge          ....    0
 Multiplicity           Mult            ....    1
 Number of Electrons    NEL             ....   96
 Basis Dimension        Dim             ....  192

ORBITAL ENERGIES
----------------

  NO   OCC          E(Eh)            E(eV)
   0   2.0000     -18.778651      -510.9931
   1   2.0000     -18.773304      -510.8476
   2   2.0000     -18.769605      -510.7469
   3   2.0000     -18.755184      -510.3545
   4   2.0000     -18.754894      -510.3466
   5   2.0000     -18.749110      -510.1892
   6   2.0000      -9.982154      -271.6282
   7   2.0000      -9.952736      -270.8277
   8   2.0000      -9.949409      -270.7372
   9   2.0000      -9.948248      -270.7056
  10   2.0000      -9.944663      -270.6080
  11   2.0000      -9.939637      -270.4713
  12   2.0000      -0.984418       -26.7874
  13   2.0000      -0.962155       -26.1816
  14   2.0000      -0.944722       -25.7072
  15   2.0000      -0.934313       -25.4239
  16   2.0000      -0.925762       -25.1913
  17   2.0000      -0.904034       -24.6000
  18   2.0000      -0.710640       -19.3375
  19   2.0000      -0.695663       -18.9300
  20   2.0000      -0.630360       -17.1530
  21   2.0000      -0.593172       -16.1410
  22   2.0000      -0.572766       -15.5858
  23   2.0000      -0.526177       -14.3180
  24   2.0000      -0.510189       -13.8829
  25   2.0000      -0.484669       -13.1885
  26   2.0000      -0.482982       -13.1426
  27   2.0000      -0.465003       -12.6534
  28   2.0000      -0.452256       -12.3065
  29   2.0000      -0.432271       -11.7627
  30   2.0000      -0.416703       -11.3391
  31   2.0000      -0.404381       -11.0038
  32   2.0000      -0.397011       -10.8032
  33   2.0000      -0.381122       -10.3709
  34   2.0000      -0.373008       -10.1501
  35   2.0000      -0.356295        -9.6953
  36   2.0000      -0.335108        -9.1187
  37   2.0000      -0.323514        -8.8033
  38   2.0000      -0.307422        -8.3654
  39   2.0000      -0.302554        -8.2329
  40   2.0000      -0.298222        -8.1150
  41   2.0000      -0.272080        -7.4037
  42   2.0000      -0.262437        -7.1413
  43   2.0000      -0.255488        -6.9522
  44   2.0000      -0.238515        -6.4903
  45   2.0000      -0.223445        -6.0803
  46   2.0000      -0.217064        -5.9066
  47   2.0000      -0.208209        -5.6656
  48   0.0000       0.008004         0.2178
  49   0.0000       0.016696         0.4543
  50   0.0000       0.042064         1.1446
  51   0.0000       0.045926         1.2497
  52   0.0000       0.052328         1.4239

MULLIKEN ATOMIC CHARGES
-----------------------
   0 C :    0.065902
   1 C :    0.053008
   2 H :    0.072037
   3 C :    0.003189
   4 H :    0.032788
   5 C :   -0.011089
   6 H :    0.072013
   7 C :    0.108752
   8 H :    0.055151
   9 C :    0.164946
  10 H :    0.074113
  11 O :   -0.304569
  12 O :   -0.428388
  13 O :   -0.405943
  14 O :   -0.421052
  15 O :   -0.412715
  16 O :   -0.434271
  17 H :    0.095306
  18 H :    0.098585
  19 H :    0.299247
  20 H :    0.304919
  21 H :    0.303236
  22 H :    0.301233
  23 H :    0.313601
Sum of atomic charges:   -0.0000000

LOEWDIN ATOMIC CHARGES
----------------------
   0 C :   -0.131248
   1 C :   -0.070661
   2 H :    0.122609
   3 C :   -0.093045
   4 H :    0.088881
   5 C :   -0.085734
   6 H :    0.122705
   7 C :   -0.083374
   8 H :    0.102650
   9 C :    0.006660
  10 H :    0.104297
  11 O :   -0.134990
  12 O :   -0.331671
  13 O :   -0.312918
  14 O :   -0.311431
  15 O :   -0.326029
  16 O :   -0.314346
  17 H :    0.113895
  18 H :    0.121117
  19 H :    0.269430
  20 H :    0.288008
  21 H :    0.286187
  22 H :    0.280002
  23 H :    0.289005

  Mayer bond orders larger than 0.100000
B(  0-C ,  1-C ) :   1.0394 B(  0-C , 16-O ) :   1.0523 B(  0-C , 17-H ) :   0.9162
B(  0-C , 18-H ) :   0.9183 B(  1-C ,  2-H ) :   0.8686 B(  1-C ,  3-C ) :   0.9717
B(  1-C , 11-O ) :   0.9729 B(  3-C ,  4-H ) :   0.8507 B(  3-C ,  5-C ) :   1.0585
B(  3-C , 15-O ) :   1.0957 B(  5-C ,  6-H ) :   0.8456 B(  5-C ,  7-C ) :   1.0264
B(  5-C , 14-O ) :   1.0068 B(  7-C ,  8-H ) :   0.8741 B(  7-C ,  9-C ) :   0.9766
B(  7-C , 13-O ) :   1.0934 B(  9-C , 10-H ) :   0.8927 B(  9-C , 11-O ) :   1.0848
B(  9-C , 12-O ) :   1.0731 B( 12-O , 19-H ) :   0.7863 B( 13-O , 20-H ) :   0.8461
B( 14-O , 21-H ) :   0.8462 B( 15-O , 22-H ) :   0.8222 B( 16-O , 19-H ) :   0.1156
B( 16-O , 23-H ) :   0.8370

Dispersion correction           -0.025157431
FINAL SINGLE POINT ENERGY      -685.695586638076

DIPOLE MOMENT
-------------

Method             : SCF
Type of density    : Electron Density
Multiplicity       :   1
Irrep              :   0
Energy             :  -685.8290295202725702 Eh
Relativity type    :
Basis              : AO
                                X                 Y                 Z
Electronic contribution:      2.141947781      -0.255751966       0.307590651
Nuclear contribution   :     -2.262703307       1.128409813      -0.874967751
                        -----------------------------------------
Total Dipole Moment    :     -0.120755525       0.872657847      -0.567377099
                        -----------------------------------------
Magnitude (a.u.)       :      1.047869452
Magnitude (Debye)      :      2.663472478

Rotational constants in cm-1:             0.042335             0.028370             0.020621
Rotational constants in MHz :          1269.163228           850.502605           618.212299

                             ****ORCA TERMINATED NORMALLY****
TOTAL RUN TIME: 0 days 0 hours 3 minutes 33 seconds 462 msec
