                         Program Version 6.0.1  -  RELEASE   -
|  1> ! pbe def2-sv(p) def2/J RI DEFGRID1 loosescf d4 GCP(DFT/SV(P)) printgap
|  2> %output
|  3>     printlevel normal
|  4> end
|  5> * xyz 0 1
|  6> C -2.9042807911 1.4660821313 0.0007184827
|  7> C -1.8043892841 0.4519024358 0.0002217233
|  8> C -2.1020211639 -0.9097605815 -0.0001850764
|  9> C -1.1001818588 -1.8656500015 -0.0006387486
| 10> C 0.2278501124 -1.4810294933 -0.0006206279
| 11> C 0.5274557944 -0.1252134488 -0.0001326758
| 12> C -0.4736200724 0.83823158 0.0002175522
| 13> N 1.9060478318 0.2947500968 8.03114e-05
| 14> O 2.758414099 -0.568142167 0.0018036491
| 15> O 2.1336096983 1.4863233464 -0.001612103
| 16> H -3.5345748893 1.3395359109 -0.8782557127
| 17> H -3.5334514749 1.3398154334 0.8805417971
| 18> H -2.5036089158 2.4756627253 0.0003025664
| 19> H -3.1366086574 -1.2205986542 -0.0003905917
| 20> H -1.3553722541 -2.9141139356 -0.001092329
| 21> H 1.0295676111 -2.2027058766 -0.0008509371
| 22> H -0.1941660105 1.8811882084 0.000586102
| 23> *
| 24>
| 25>                          ****END OF INPUT****

CARTESIAN COORDINATES (ANGSTROEM)
---------------------------------
  C     -2.904281    1.466082    0.000718
  C     -1.804389    0.451902    0.000222
  C     -2.102021   -0.909761   -0.000185
  C     -1.100182   -1.865650   -0.000639
  C      0.227850   -1.481029   -0.000621
  C      0.527456   -0.125213   -0.000133
  C     -0.473620    0.838232    0.000218
  N      1.906048    0.294750    0.000080
  O      2.758414   -0.568142    0.001804
  O      2.133610    1.486323   -0.001612
  H     -3.534575    1.339536   -0.878256
  H     -3.533451    1.339815    0.880542
  H     -2.503609    2.475663    0.000303
  H     -3.136609   -1.220599   -0.000391
  H     -1.355372   -2.914114   -0.001092
  H      1.029568   -2.202706   -0.000851
  H     -0.194166    1.881188    0.000586

 Total Charge           Charge          ....    0
 Multiplicity           Mult            ....    1
 Number of Electrons    NEL             ....   72
 Basis Dimension        Dim             ....  154

ORBITAL ENERGIES
----------------

  NO   OCC          E(Eh)            E(eV)
   0   2.0000     -18.774123      -510.8699
   1   2.0000     -18.773230      -510.8456
   2   2.0000     -14.208210      -386.6250
   3   2.0000      -9.948549      -270.7138
   4   2.0000      -9.929917      -270.2068
   5   2.0000      -9.919625      -269.9267
   6   2.0000      -9.918336      -269.8917
   7   2.0000      -9.916924      -269.8532
   8   2.0000      -9.916087      -269.8305
   9   2.0000      -9.901690      -269.4387
  10   2.0000      -1.132325       -30.8121
  11   2.0000      -0.962382       -26.1878
  12   2.0000      -0.813067       -22.1247
  13   2.0000      -0.742645       -20.2084
  14   2.0000      -0.712739       -19.3946
  15   2.0000      -0.643588       -17.5129
  16   2.0000      -0.630249       -17.1500
  17   2.0000      -0.559250       -15.2180
  18   2.0000      -0.518466       -14.1082
  19   2.0000      -0.493652       -13.4329
  20   2.0000      -0.490557       -13.3487
  21   2.0000      -0.457183       -12.4406
  22   2.0000      -0.454558       -12.3691
  23   2.0000      -0.429385       -11.6841
  24   2.0000      -0.409064       -11.1312
  25   2.0000      -0.398750       -10.8505
  26   2.0000      -0.388232       -10.5643
  27   2.0000      -0.361890        -9.8475
  28   2.0000      -0.344232        -9.3670
  29   2.0000      -0.339159        -9.2290
  30   2.0000      -0.323807        -8.8112
  31   2.0000      -0.270650        -7.3648
  32   2.0000      -0.257151        -6.9974
  33   2.0000      -0.254296        -6.9198
  34   2.0000      -0.245501        -6.6804
  35   2.0000      -0.232825        -6.3355
  36   0.0000      -0.113419        -3.0863
  37   0.0000      -0.055651        -1.5143
  38   0.0000      -0.032646        -0.8883
  39   0.0000       0.032835         0.8935
  40   0.0000       0.051951         1.4136

MULLIKEN ATOMIC CHARGES
-----------------------
   0 C :   -0.223876
   1 C :    0.046176
   2 C :   -0.075955
   3 C :   -0.046144
   4 C :   -0.124877
   5 C :    0.234581
   6 C :   -0.194720
   7 N :    0.198861
   8 O :   -0.212631
   9 O :   -0.212628
  10 H :    0.123645
  11 H :    0.123674
  12 H :    0.112361
  13 H :    0.050927
  14 H :    0.067431
  15 H :    0.072089
  16 H :    0.061086
Sum of atomic charges:   -0.0000000

LOEWDIN ATOMIC CHARGES
----------------------
   0 C :   -0.321476
   1 C :   -0.040093
   2 C :   -0.099503
   3 C :   -0.111536
   4 C :   -0.110002
   5 C :   -0.039342
   6 C :   -0.107803
   7 N :    0.250453
   8 O :   -0.182483
   9 O :   -0.183811
  10 H :    0.137067
  11 H :    0.137083
  12 H :    0.129665
  13 H :    0.127603
  14 H :    0.131593
  15 H :    0.142368
  16 H :    0.140218

  Mayer bond orders larger than 0.100000
B(  0-C ,  1-C ) :   1.0987 B(  0-C , 10-H ) :   0.9335 B(  0-C , 11-H ) :   0.9335
B(  0-C , 12-H ) :   0.9442 B(  1-C ,  2-C ) :   1.3734 B(  1-C ,  6-C ) :   1.3406
B(  2-C ,  3-C ) :   1.3706 B(  2-C , 13-H ) :   0.9676 B(  3-C ,  4-C ) :   1.3216
B(  3-C , 14-H ) :   0.9634 B(  4-C ,  5-C ) :   1.3878 B(  4-C , 15-H ) :   0.9504
B(  5-C ,  6-C ) :   1.3456 B(  5-C ,  7-N ) :   0.8675 B(  6-C , 16-H ) :   0.9486
B(  7-N ,  8-O ) :   1.5522 B(  7-N ,  9-O ) :   1.5500 B(  8-O ,  9-O ) :   0.2986

Dispersion correction           -0.017904696
FINAL SINGLE POINT ENERGY      -475.108493383688

DIPOLE MOMENT
-------------

Method             : SCF
Type of density    : Electron Density
Multiplicity       :   1
Irrep              :   0
Energy             :  -475.1589192277754705 Eh
Relativity type    :
Basis              : AO
                                X                 Y                 Z
Electronic contribution:     10.567350142      -1.031783001      -0.000829777
Nuclear contribution   :    -12.327423053       0.670794894       0.000792181
                        -----------------------------------------
Total Dipole Moment    :     -1.760072911      -0.360988106      -0.000037596
                        -----------------------------------------
Magnitude (a.u.)       :      1.796710624
Magnitude (Debye)      :      4.566875471

Rotational constants in cm-1:             0.090346             0.033311             0.024448
Rotational constants in MHz :          2708.503086           998.636849           732.921645

                             ****ORCA TERMINATED NORMALLY****
TOTAL RUN TIME: 0 days 0 hours 0 minutes 19 seconds 854 msec
