                         Program Version 6.0.1  -  RELEASE   -
|  1> ! pbe def2-sv(p) def2/J RI DEFGRID1 loosescf d4 GCP(DFT/SV(P)) printgap
|  2> %output
|  3>     printlevel normal
|  4> end
|  5> * xyz 0 1
|  6> C 1.5307893726 1.1930340341 1.92496e-05
|  7> C 0.1485580833 1.2361422305 -0.0001370579
|  8> C -0.5528196961 0.0288663312 -7.29183e-05
|  9> C 0.1794414894 -1.163911088 -0.0001780036
| 10> N 1.495044461 -1.1942746839 3.98307e-05
| 11> C 2.1549281695 -0.0478462718 0.0002295343
| 12> C -1.96534359 0.0035029708 -9.36602e-05
| 13> N -3.1111436389 -0.0229630324 0.0002271922
| 14> H 2.1124856886 2.1013166712 -0.0001643106
| 15> H -0.3860686128 2.175166049 -0.0003619018
| 16> H -0.3232778855 -2.1220049305 -0.0006272508
| 17> H 3.2333518465 -0.1321765991 0.0002175804
| 18> *
| 19>
| 20>                          ****END OF INPUT****

CARTESIAN COORDINATES (ANGSTROEM)
---------------------------------
  C      1.530789    1.193034    0.000019
  C      0.148558    1.236142   -0.000137
  C     -0.552820    0.028866   -0.000073
  C      0.179441   -1.163911   -0.000178
  N      1.495044   -1.194275    0.000040
  C      2.154928   -0.047846    0.000230
  C     -1.965344    0.003503   -0.000094
  N     -3.111144   -0.022963    0.000227
  H      2.112486    2.101317   -0.000164
  H     -0.386069    2.175166   -0.000362
  H     -0.323278   -2.122005   -0.000627
  H      3.233352   -0.132177    0.000218

 Total Charge           Charge          ....    0
 Multiplicity           Mult            ....    1
 Number of Electrons    NEL             ....   54
 Basis Dimension        Dim             ....  120

ORBITAL ENERGIES
----------------

  NO   OCC          E(Eh)            E(eV)
   0   2.0000     -14.010776      -381.2526
   1   2.0000     -13.995604      -380.8398
   2   2.0000      -9.958956      -270.9970
   3   2.0000      -9.957401      -270.9547
   4   2.0000      -9.952360      -270.8175
   5   2.0000      -9.944847      -270.6130
   6   2.0000      -9.939902      -270.4785
   7   2.0000      -9.930768      -270.2299
   8   2.0000      -0.891594       -24.2615
   9   2.0000      -0.829981       -22.5849
  10   2.0000      -0.764890       -20.8137
  11   2.0000      -0.725535       -19.7428
  12   2.0000      -0.621917       -16.9232
  13   2.0000      -0.597496       -16.2587
  14   2.0000      -0.527544       -14.3552
  15   2.0000      -0.478717       -13.0266
  16   2.0000      -0.471011       -12.8169
  17   2.0000      -0.420682       -11.4473
  18   2.0000      -0.401282       -10.9194
  19   2.0000      -0.388849       -10.5811
  20   2.0000      -0.361891        -9.8476
  21   2.0000      -0.341087        -9.2814
  22   2.0000      -0.313933        -8.5425
  23   2.0000      -0.309733        -8.4283
  24   2.0000      -0.289428        -7.8757
  25   2.0000      -0.261618        -7.1190
  26   2.0000      -0.231116        -6.2890
  27   0.0000      -0.099572        -2.7095
  28   0.0000      -0.081175        -2.2089
  29   0.0000      -0.008314        -0.2262
  30   0.0000       0.023402         0.6368
  31   0.0000       0.028679         0.7804

MULLIKEN ATOMIC CHARGES
-----------------------
   0 C :   -0.061911
   1 C :    0.002288
   2 C :   -0.118938
   3 C :   -0.033624
   4 N :   -0.040892
   5 C :   -0.048352
   6 C :   -0.108495
   7 N :    0.080363
   8 H :    0.078705
   9 H :    0.081540
  10 H :    0.082791
  11 H :    0.086524
Sum of atomic charges:    0.0000000

LOEWDIN ATOMIC CHARGES
----------------------
   0 C :   -0.130824
   1 C :   -0.064266
   2 C :   -0.093400
   3 C :   -0.045268
   4 N :   -0.059165
   5 C :   -0.061183
   6 C :   -0.037350
   7 N :   -0.040040
   8 H :    0.137392
   9 H :    0.142312
  10 H :    0.129263
  11 H :    0.122529

  Mayer bond orders larger than 0.100000
B(  0-C ,  1-C ) :   1.4074 B(  0-C ,  5-C ) :   1.3695 B(  0-C ,  8-H ) :   0.9460
B(  1-C ,  2-C ) :   1.3934 B(  1-C ,  9-H ) :   0.9577 B(  2-C ,  3-C ) :   1.3270
B(  2-C ,  6-C ) :   1.1012 B(  3-C ,  4-N ) :   1.5631 B(  3-C , 10-H ) :   0.9567
B(  4-N ,  5-C ) :   1.5344 B(  5-C , 11-H ) :   0.9521 B(  6-C ,  7-N ) :   2.9959

Dispersion correction           -0.012430664
FINAL SINGLE POINT ENERGY      -339.820787478820

DIPOLE MOMENT
-------------

Method             : SCF
Type of density    : Electron Density
Multiplicity       :   1
Irrep              :   0
Energy             :  -339.8494706296985441 Eh
Relativity type    :
Basis              : AO
                                X                 Y                 Z
Electronic contribution:     -3.120252082      -1.155577460       0.000534645
Nuclear contribution   :      4.340948013       1.890578268      -0.000876552
                        -----------------------------------------
Total Dipole Moment    :      1.220695931       0.735000808      -0.000341907
                        -----------------------------------------
Magnitude (a.u.)       :      1.424894684
Magnitude (Debye)      :      3.621794458

Rotational constants in cm-1:             0.197120             0.053210             0.041900
Rotational constants in MHz :          5909.497433          1595.193859          1256.120176

                             ****ORCA TERMINATED NORMALLY****
TOTAL RUN TIME: 0 days 0 hours 0 minutes 4 seconds 754 msec
