                         Program Version 6.0.1  -  RELEASE   -
|  1> ! pbe def2-sv(p) def2/J RI DEFGRID1 loosescf d4 GCP(DFT/SV(P)) printgap
|  2> %output
|  3>     printlevel normal
|  4> end
|  5> * xyz 0 1
|  6> C -2.1940137499 -0.8919110125 -0.1447867608
|  7> C -1.1187506238 -0.3143576182 0.798910675
|  8> H -1.5743442227 -0.2692200193 1.7966639926
|  9> C -0.7189746434 1.1333456778 0.4520342056
| 10> H -1.5726742788 1.6187664426 -0.049472999
| 11> C 0.5044590381 1.2361053465 -0.4886888907
| 12> H 0.8588475759 2.2791788065 -0.4619355655
| 13> C 1.6249110969 0.3210842157 0.0296858181
| 14> H 2.461042499 0.32471133 -0.6780520734
| 15> C 1.0746497108 -1.1212587958 0.1230759861
| 16> H 1.8326084951 -1.758133197 0.6029251102
| 17> O -0.0235173503 -1.2031927428 0.9808520062
| 18> O 0.8383726087 -1.6159783448 -1.1699844605
| 19> O 2.1354979827 0.7593204037 1.2539489678
| 20> O 0.1378208587 0.9447778338 -1.8178283786
| 21> O -0.4601018096 1.7712249943 1.6849730303
| 22> O -1.7960287918 -1.0316158603 -1.4840872975
| 23> H -3.0895314116 -0.2614639906 -0.0690876202
| 24> H -2.4430664341 -1.8990375539 0.1979880947
| 25> H -0.1221089356 -1.7733213311 -1.28394899
| 26> H 1.4180076182 0.7460456599 1.9065018153
| 27> H 0.5737827914 0.1132396438 -2.0748465334
| 28> H -0.1796461988 2.6807597663 1.527283273
| 29> H -1.5069613328 -0.167328382 -1.8283037537
| 30> *
| 31>
| 32>                          ****END OF INPUT****

CARTESIAN COORDINATES (ANGSTROEM)
---------------------------------
  C     -2.194014   -0.891911   -0.144787
  C     -1.118751   -0.314358    0.798911
  H     -1.574344   -0.269220    1.796664
  C     -0.718975    1.133346    0.452034
  H     -1.572674    1.618766   -0.049473
  C      0.504459    1.236105   -0.488689
  H      0.858848    2.279179   -0.461936
  C      1.624911    0.321084    0.029686
  H      2.461042    0.324711   -0.678052
  C      1.074650   -1.121259    0.123076
  H      1.832608   -1.758133    0.602925
  O     -0.023517   -1.203193    0.980852
  O      0.838373   -1.615978   -1.169984
  O      2.135498    0.759320    1.253949
  O      0.137821    0.944778   -1.817828
  O     -0.460102    1.771225    1.684973
  O     -1.796029   -1.031616   -1.484087
  H     -3.089531   -0.261464   -0.069088
  H     -2.443066   -1.899038    0.197988
  H     -0.122109   -1.773321   -1.283949
  H      1.418008    0.746046    1.906502
  H      0.573783    0.113240   -2.074847
  H     -0.179646    2.680760    1.527283
  H     -1.506961   -0.167328   -1.828304

 Total Charge           Charge          ....    0
 Multiplicity           Mult            ....    1
 Number of Electrons    NEL             ....   96
 Basis Dimension        Dim             ....  192

ORBITAL ENERGIES
----------------

  NO   OCC          E(Eh)            E(eV)
   0   2.0000     -18.781393      -511.0677
   1   2.0000     -18.780689      -511.0485
   2   2.0000     -18.774438      -510.8784
   3   2.0000     -18.773610      -510.8559
   4   2.0000     -18.760102      -510.4883
   5   2.0000     -18.750660      -510.2314
   6   2.0000      -9.988099      -271.7900
   7   2.0000      -9.965578      -271.1772
   8   2.0000      -9.961085      -271.0549
   9   2.0000      -9.958206      -270.9766
  10   2.0000      -9.950680      -270.7718
  11   2.0000      -9.947289      -270.6795
  12   2.0000      -0.994648       -27.0658
  13   2.0000      -0.959007       -26.0959
  14   2.0000      -0.951467       -25.8907
  15   2.0000      -0.944462       -25.7001
  16   2.0000      -0.928551       -25.2671
  17   2.0000      -0.913758       -24.8646
  18   2.0000      -0.719412       -19.5762
  19   2.0000      -0.694100       -18.8874
  20   2.0000      -0.636272       -17.3139
  21   2.0000      -0.601937       -16.3795
  22   2.0000      -0.594142       -16.1674
  23   2.0000      -0.529600       -14.4111
  24   2.0000      -0.511311       -13.9135
  25   2.0000      -0.504344       -13.7239
  26   2.0000      -0.481986       -13.1155
  27   2.0000      -0.469863       -12.7856
  28   2.0000      -0.444670       -12.1001
  29   2.0000      -0.438295       -11.9266
  30   2.0000      -0.431125       -11.7315
  31   2.0000      -0.427012       -11.6196
  32   2.0000      -0.398118       -10.8334
  33   2.0000      -0.391503       -10.6533
  34   2.0000      -0.371616       -10.1122
  35   2.0000      -0.352789        -9.5999
  36   2.0000      -0.345388        -9.3985
  37   2.0000      -0.339318        -9.2333
  38   2.0000      -0.328115        -8.9285
  39   2.0000      -0.310466        -8.4482
  40   2.0000      -0.293224        -7.9790
  41   2.0000      -0.284256        -7.7350
  42   2.0000      -0.272630        -7.4186
  43   2.0000      -0.261916        -7.1271
  44   2.0000      -0.254708        -6.9310
  45   2.0000      -0.229800        -6.2532
  46   2.0000      -0.227277        -6.1845
  47   2.0000      -0.205567        -5.5938
  48   0.0000       0.005219         0.1420
  49   0.0000       0.018933         0.5152
  50   0.0000       0.042386         1.1534
  51   0.0000       0.054655         1.4872
  52   0.0000       0.066170         1.8006

MULLIKEN ATOMIC CHARGES
-----------------------
   0 C :    0.032292
   1 C :    0.043749
   2 H :    0.093371
   3 C :   -0.007418
   4 H :    0.078964
   5 C :    0.042985
   6 H :    0.069066
   7 C :    0.016362
   8 H :    0.092971
   9 C :    0.201564
  10 H :    0.078408
  11 O :   -0.306059
  12 O :   -0.437571
  13 O :   -0.420753
  14 O :   -0.430931
  15 O :   -0.411648
  16 O :   -0.451479
  17 H :    0.091424
  18 H :    0.104566
  19 H :    0.305037
  20 H :    0.299825
  21 H :    0.307435
  22 H :    0.307086
  23 H :    0.300754
Sum of atomic charges:    0.0000000

LOEWDIN ATOMIC CHARGES
----------------------
   0 C :   -0.134470
   1 C :   -0.073100
   2 H :    0.133090
   3 C :   -0.078264
   4 H :    0.106728
   5 C :   -0.078291
   6 H :    0.106408
   7 C :   -0.093435
   8 H :    0.123164
   9 C :   -0.001741
  10 H :    0.107405
  11 O :   -0.131750
  12 O :   -0.335750
  13 O :   -0.310084
  14 O :   -0.316018
  15 O :   -0.305535
  16 O :   -0.325870
  17 H :    0.109181
  18 H :    0.122027
  19 H :    0.271650
  20 H :    0.271356
  21 H :    0.275631
  22 H :    0.288472
  23 H :    0.269195

  Mayer bond orders larger than 0.100000
B(  0-C ,  1-C ) :   1.0415 B(  0-C , 16-O ) :   1.0483 B(  0-C , 17-H ) :   0.9131
B(  0-C , 18-H ) :   0.9185 B(  1-C ,  2-H ) :   0.8789 B(  1-C ,  3-C ) :   0.9731
B(  1-C , 11-O ) :   0.9916 B(  3-C ,  4-H ) :   0.8972 B(  3-C ,  5-C ) :   0.9713
B(  3-C , 15-O ) :   1.0344 B(  5-C ,  6-H ) :   0.9013 B(  5-C ,  7-C ) :   0.9771
B(  5-C , 14-O ) :   1.0492 B(  7-C ,  8-H ) :   0.8958 B(  7-C ,  9-C ) :   0.9673
B(  7-C , 13-O ) :   1.0693 B(  9-C , 10-H ) :   0.9079 B(  9-C , 11-O ) :   1.0653
B(  9-C , 12-O ) :   1.0613 B( 12-O , 19-H ) :   0.7551 B( 12-O , 21-H ) :   0.1334
B( 13-O , 20-H ) :   0.8136 B( 14-O , 21-H ) :   0.7773 B( 14-O , 23-H ) :   0.1329
B( 15-O , 22-H ) :   0.8362 B( 16-O , 19-H ) :   0.1518 B( 16-O , 23-H ) :   0.7787

Dispersion correction           -0.026999193
FINAL SINGLE POINT ENERGY      -685.703992952551

DIPOLE MOMENT
-------------

Method             : SCF
Type of density    : Electron Density
Multiplicity       :   1
Irrep              :   0
Energy             :  -685.8428791611070210 Eh
Relativity type    :
Basis              : AO
                                X                 Y                 Z
Electronic contribution:      2.377319905      -0.727895288       0.573311136
Nuclear contribution   :     -3.124955698       1.527592653      -0.396849509
                        -----------------------------------------
Total Dipole Moment    :     -0.747635793       0.799697365       0.176461627
                        -----------------------------------------
Magnitude (a.u.)       :      1.108879552
Magnitude (Debye)      :      2.818547827

Rotational constants in cm-1:             0.041327             0.031807             0.027601
Rotational constants in MHz :          1238.952861           953.553378           827.451869

                             ****ORCA TERMINATED NORMALLY****
TOTAL RUN TIME: 0 days 0 hours 0 minutes 8 seconds 504 msec
