                         Program Version 6.0.1  -  RELEASE   -
|  1> ! pbe def2-sv(p) def2/J RI DEFGRID1 loosescf d4 GCP(DFT/SV(P)) printgap
|  2> %output
|  3>     printlevel normal
|  4> end
|  5> * xyz 0 1
|  6> C -2.7544094436 -0.5408952079 -0.7437849048
|  7> C -1.6545894311 0.0552712866 0.1004750054
|  8> O -1.8047017173 0.3138652902 1.267403543
|  9> C -0.3454695677 0.284172188 -0.6370361228
| 10> C 0.3913620125 -1.0709868295 -0.7065867011
| 11> C 1.8893683783 -0.8451894998 -0.87591909
| 12> C 2.48240501 -0.1982047062 0.3810729739
| 13> C 1.4568388686 0.7011719169 1.0798879523
| 14> C 0.5198092178 1.343324615 0.0638738641
| 15> H -3.0993585205 0.2108029686 -1.4518446808
| 16> H -2.3852543212 -1.3929325014 -1.3082760843
| 17> H -3.5881956874 -0.8441105855 -0.1161125929
| 18> H -0.5731239012 0.6139325051 -1.6553765715
| 19> H 0.2171322188 -1.6360783381 0.2114767014
| 20> H 0.0041319679 -1.6600511942 -1.5399687835
| 21> H 2.3865940787 -1.7960420714 -1.0758124349
| 22> H 2.0513940034 -0.2020431987 -1.7431965408
| 23> H 2.8128729125 -0.9722720957 1.075987431
| 24> H 3.3613404612 0.385935156 0.1017612988
| 25> H 0.8572079654 0.1220764067 1.7825585876
| 26> H 1.9717735432 1.4753846882 1.6506252701
| 27> H -0.1339789323 2.0555264615 0.5702991475
| 28> H 1.1065758832 1.8910507032 -0.6759215041
| 29> *
| 30>
| 31>                          ****END OF INPUT****

CARTESIAN COORDINATES (ANGSTROEM)
---------------------------------
  C     -2.754409   -0.540895   -0.743785
  C     -1.654589    0.055271    0.100475
  O     -1.804702    0.313865    1.267404
  C     -0.345470    0.284172   -0.637036
  C      0.391362   -1.070987   -0.706587
  C      1.889368   -0.845189   -0.875919
  C      2.482405   -0.198205    0.381073
  C      1.456839    0.701172    1.079888
  C      0.519809    1.343325    0.063874
  H     -3.099359    0.210803   -1.451845
  H     -2.385254   -1.392933   -1.308276
  H     -3.588196   -0.844111   -0.116113
  H     -0.573124    0.613933   -1.655377
  H      0.217132   -1.636078    0.211477
  H      0.004132   -1.660051   -1.539969
  H      2.386594   -1.796042   -1.075812
  H      2.051394   -0.202043   -1.743197
  H      2.812873   -0.972272    1.075987
  H      3.361340    0.385935    0.101761
  H      0.857208    0.122076    1.782559
  H      1.971774    1.475385    1.650625
  H     -0.133979    2.055526    0.570299
  H      1.106576    1.891051   -0.675922

 Total Charge           Charge          ....    0
 Multiplicity           Mult            ....    1
 Number of Electrons    NEL             ....   70
 Basis Dimension        Dim             ....  154

ORBITAL ENERGIES
----------------

  NO   OCC          E(Eh)            E(eV)
   0   2.0000     -18.737595      -509.8759
   1   2.0000      -9.970792      -271.3190
   2   2.0000      -9.899230      -269.3717
   3   2.0000      -9.896053      -269.2853
   4   2.0000      -9.886996      -269.0389
   5   2.0000      -9.885546      -268.9994
   6   2.0000      -9.880721      -268.8681
   7   2.0000      -9.880438      -268.8604
   8   2.0000      -9.875805      -268.7343
   9   2.0000      -0.940473       -25.5916
  10   2.0000      -0.760765       -20.7015
  11   2.0000      -0.691916       -18.8280
  12   2.0000      -0.665566       -18.1110
  13   2.0000      -0.652354       -17.7514
  14   2.0000      -0.558938       -15.2095
  15   2.0000      -0.555584       -15.1182
  16   2.0000      -0.481553       -13.1037
  17   2.0000      -0.458486       -12.4761
  18   2.0000      -0.444422       -12.0933
  19   2.0000      -0.432306       -11.7636
  20   2.0000      -0.413153       -11.2425
  21   2.0000      -0.391832       -10.6623
  22   2.0000      -0.381826       -10.3900
  23   2.0000      -0.363170        -9.8824
  24   2.0000      -0.354638        -9.6502
  25   2.0000      -0.339199        -9.2301
  26   2.0000      -0.332404        -9.0452
  27   2.0000      -0.325537        -8.8583
  28   2.0000      -0.322874        -8.7858
  29   2.0000      -0.320247        -8.7144
  30   2.0000      -0.303322        -8.2538
  31   2.0000      -0.271848        -7.3974
  32   2.0000      -0.264775        -7.2049
  33   2.0000      -0.261234        -7.1085
  34   2.0000      -0.193510        -5.2657
  35   0.0000      -0.044543        -1.2121
  36   0.0000       0.022733         0.6186
  37   0.0000       0.048849         1.3293
  38   0.0000       0.051440         1.3997
  39   0.0000       0.078766         2.1433

MULLIKEN ATOMIC CHARGES
-----------------------
   0 C :   -0.250119
   1 C :    0.009491
   2 O :   -0.156925
   3 C :   -0.185288
   4 C :   -0.154785
   5 C :   -0.130605
   6 C :   -0.163546
   7 C :   -0.158838
   8 C :   -0.092389
   9 H :    0.124208
  10 H :    0.121622
  11 H :    0.115727
  12 H :    0.072225
  13 H :    0.091703
  14 H :    0.091942
  15 H :    0.087873
  16 H :    0.076177
  17 H :    0.082775
  18 H :    0.081182
  19 H :    0.089427
  20 H :    0.085629
  21 H :    0.090563
  22 H :    0.071950
Sum of atomic charges:   -0.0000000

LOEWDIN ATOMIC CHARGES
----------------------
   0 C :   -0.363156
   1 C :    0.048717
   2 O :   -0.121963
   3 C :   -0.171052
   4 C :   -0.210426
   5 C :   -0.226383
   6 C :   -0.229740
   7 C :   -0.229971
   8 C :   -0.217150
   9 H :    0.144189
  10 H :    0.136452
  11 H :    0.132683
  12 H :    0.123189
  13 H :    0.121653
  14 H :    0.118079
  15 H :    0.119525
  16 H :    0.115624
  17 H :    0.116802
  18 H :    0.115745
  19 H :    0.119363
  20 H :    0.119206
  21 H :    0.123919
  22 H :    0.114697

  Mayer bond orders larger than 0.100000
B(  0-C ,  1-C ) :   1.0728 B(  0-C ,  9-H ) :   0.9219 B(  0-C , 10-H ) :   0.9298
B(  0-C , 11-H ) :   0.9345 B(  1-C ,  2-O ) :   2.1953 B(  1-C ,  3-C ) :   0.9164
B(  3-C ,  4-C ) :   1.0752 B(  3-C ,  8-C ) :   1.0909 B(  3-C , 12-H ) :   0.8823
B(  4-C ,  5-C ) :   1.1831 B(  4-C , 13-H ) :   0.9026 B(  4-C , 14-H ) :   0.9116
B(  5-C ,  6-C ) :   1.1424 B(  5-C , 15-H ) :   0.9202 B(  5-C , 16-H ) :   0.9048
B(  6-C ,  7-C ) :   1.1422 B(  6-C , 17-H ) :   0.9221 B(  6-C , 18-H ) :   0.9222
B(  7-C ,  8-C ) :   1.1799 B(  7-C , 19-H ) :   0.9043 B(  7-C , 20-H ) :   0.9206
B(  8-C , 21-H ) :   0.9077 B(  8-C , 22-H ) :   0.9047

Dispersion correction           -0.022254240
FINAL SINGLE POINT ENERGY      -387.600974590840

DIPOLE MOMENT
-------------

Method             : SCF
Type of density    : Electron Density
Multiplicity       :   1
Irrep              :   0
Energy             :  -387.6786829323825145 Eh
Relativity type    :
Basis              : AO
                                X                 Y                 Z
Electronic contribution:     -4.448758605       1.396282958       2.978659496
Nuclear contribution   :      4.653849438      -1.636029558      -3.896921116
                        -----------------------------------------
Total Dipole Moment    :      0.205090832      -0.239746600      -0.918261621
                        -----------------------------------------
Magnitude (a.u.)       :      0.970950609
Magnitude (Debye)      :      2.467960317

Rotational constants in cm-1:             0.099774             0.039163             0.032613
Rotational constants in MHz :          2991.141345          1174.079232           977.698577

                             ****ORCA TERMINATED NORMALLY****
TOTAL RUN TIME: 0 days 0 hours 0 minutes 11 seconds 486 msec
