                         Program Version 6.0.0  -   RELEASE  -
|  1> ! M062X DEF2-TZVP FREQ
|  2> * xyzfile 0 1 censo.xyz
|  3>
|  4>                          ****END OF INPUT****

CARTESIAN COORDINATES (ANGSTROEM)
---------------------------------
  C      1.338021    1.329286    0.000013
  C     -0.028954    1.119099    0.000004
  C     -0.494198   -0.199863    0.000150
  C      0.437363   -1.240227    0.000067
  N      1.760972   -1.050352   -0.000036
  C      2.185814    0.222634   -0.000027
  C     -1.923229   -0.525820    0.000665
  O     -2.818493    0.309391   -0.000089
  H      1.754952    2.330015    0.000058
  H     -0.731216    1.946407    0.000125
  H      0.090020   -2.272062    0.000033
  H      3.263325    0.368298   -0.000069
  H     -2.161577   -1.606705   -0.000586

 Total Charge           Charge          ....    0
 Multiplicity           Mult            ....    1
 Number of Electrons    NEL             ....   56
 Basis Dimension        Dim             ....  278

ORBITAL ENERGIES
----------------

  NO   OCC          E(Eh)            E(eV)
   0   2.0000     -19.637354      -534.3596
   1   2.0000     -14.769123      -401.8883
   2   2.0000     -10.643221      -289.6168
   3   2.0000     -10.602806      -288.5170
   4   2.0000     -10.601042      -288.4690
   5   2.0000     -10.583276      -287.9856
   6   2.0000     -10.573766      -287.7268
   7   2.0000     -10.570761      -287.6450
   8   2.0000      -1.174459       -31.9587
   9   2.0000      -1.073623       -29.2148
  10   2.0000      -0.933015       -25.3886
  11   2.0000      -0.893224       -24.3058
  12   2.0000      -0.773064       -21.0362
  13   2.0000      -0.738691       -20.1008
  14   2.0000      -0.679836       -18.4993
  15   2.0000      -0.621851       -16.9214
  16   2.0000      -0.592763       -16.1299
  17   2.0000      -0.563240       -15.3265
  18   2.0000      -0.525275       -14.2935
  19   2.0000      -0.521632       -14.1943
  20   2.0000      -0.508411       -13.8346
  21   2.0000      -0.489476       -13.3193
  22   2.0000      -0.466780       -12.7017
  23   2.0000      -0.454837       -12.3767
  24   2.0000      -0.365744        -9.9524
  25   2.0000      -0.359306        -9.7772
  26   2.0000      -0.339815        -9.2468
  27   2.0000      -0.338084        -9.1997
  28   0.0000      -0.052875        -1.4388
  29   0.0000      -0.012185        -0.3316
  30   0.0000       0.054301         1.4776
  31   0.0000       0.079735         2.1697
  32   0.0000       0.088261         2.4017

MULLIKEN ATOMIC CHARGES
-----------------------
   0 C :   -0.134639
   1 C :   -0.128750
   2 C :    0.067535
   3 C :   -0.078041
   4 N :   -0.221582
   5 C :   -0.033592
   6 C :    0.101985
   7 O :   -0.303226
   8 H :    0.150482
   9 H :    0.181279
  10 H :    0.149306
  11 H :    0.152709
  12 H :    0.096532
Sum of atomic charges:   -0.0000000

LOEWDIN ATOMIC CHARGES
----------------------
   0 C :   -0.141484
   1 C :   -0.053428
   2 C :   -0.175663
   3 C :   -0.155401
   4 N :    0.125683
   5 C :   -0.177278
   6 C :   -0.241689
   7 O :    0.095922
   8 H :    0.151006
   9 H :    0.161195
  10 H :    0.145326
  11 H :    0.142125
  12 H :    0.123687

  Mayer bond orders larger than 0.100000
B(  0-C ,  1-C ) :   1.4667 B(  0-C ,  5-C ) :   1.3732 B(  0-C ,  8-H ) :   0.9582
B(  1-C ,  2-C ) :   1.3722 B(  1-C ,  9-H ) :   0.9217 B(  2-C ,  3-C ) :   1.3422
B(  2-C ,  6-C ) :   0.9403 B(  3-C ,  4-N ) :   1.4799 B(  3-C , 10-H ) :   0.9740
B(  4-N ,  5-C ) :   1.4580 B(  5-C , 11-H ) :   0.9712 B(  6-C ,  7-O ) :   2.0461
B(  6-C , 12-H ) :   1.0009

FINAL SINGLE POINT ENERGY      -361.593238698043

DIPOLE MOMENT
-------------

Method             : SCF
Type of density    : Electron Density
Multiplicity       :   1
Irrep              :   0
Energy             :  -361.5932386980427964 Eh
Relativity type    :
Basis              : AO
                                X                 Y                 Z
Electronic contribution:     -1.357312433      -0.544268897       0.001032195
Nuclear contribution   :      2.046523586       0.740314652      -0.000769128
                        -----------------------------------------
Total Dipole Moment    :      0.689211153       0.196045755       0.000263067
                        -----------------------------------------
Magnitude (a.u.)       :      0.716551478
Magnitude (Debye)      :      1.821329113

VIBRATIONAL FREQUENCIES
-----------------------

Scaling factor for frequencies =  1.000000000  (already applied!)

     0:       0.00 cm**-1
     1:       0.00 cm**-1
     2:       0.00 cm**-1
     3:       0.00 cm**-1
     4:       0.00 cm**-1
     5:       0.00 cm**-1
     6:     174.93 cm**-1
     7:     244.18 cm**-1
     8:     277.03 cm**-1
     9:     407.62 cm**-1
    10:     450.59 cm**-1
    11:     470.69 cm**-1
    12:     634.04 cm**-1
    13:     692.85 cm**-1
    14:     733.47 cm**-1
    15:     835.43 cm**-1
    16:     861.97 cm**-1
    17:     973.25 cm**-1
    18:    1013.84 cm**-1
    19:    1042.47 cm**-1
    20:    1047.19 cm**-1
    21:    1058.30 cm**-1
    22:    1067.31 cm**-1
    23:    1131.29 cm**-1
    24:    1209.55 cm**-1
    25:    1245.30 cm**-1
    26:    1271.27 cm**-1
    27:    1357.18 cm**-1
    28:    1417.45 cm**-1
    29:    1461.01 cm**-1
    30:    1524.13 cm**-1
    31:    1625.55 cm**-1
    32:    1655.34 cm**-1
    33:    1719.54 cm**-1
    34:    2960.36 cm**-1
    35:    3152.90 cm**-1
    36:    3169.26 cm**-1
    37:    3195.73 cm**-1
    38:    3210.52 cm**-1

IR SPECTRUM
-----------

 Mode   freq       eps      Int      T**2         TX        TY        TZ
       cm**-1   L/(mol*cm) km/mol    a.u.
----------------------------------------------------------------------------
  6:    174.93   0.000748    3.78  0.001334  (-0.000099  0.000002 -0.036524)
  7:    244.18   0.002431   12.29  0.003107  ( 0.043057  0.035399  0.000049)
  8:    277.03   0.003161   15.98  0.003561  (-0.000104  0.000087  0.059675)
  9:    407.62   0.000304    1.54  0.000233  ( 0.000052  0.000039 -0.015252)
 10:    450.59   0.000130    0.65  0.000090  (-0.003057 -0.008966  0.000024)
 11:    470.69   0.000023    0.12  0.000015  (-0.000004  0.000026 -0.003902)
 12:    634.04   0.000571    2.89  0.000281  ( 0.003141 -0.016466  0.000002)
 13:    692.85   0.003624   18.31  0.001632  ( 0.037106  0.015976  0.000009)
 14:    733.47   0.005997   30.31  0.002551  ( 0.000014  0.000025  0.050512)
 15:    835.43   0.004283   21.65  0.001600  ( 0.000007 -0.000017  0.040000)
 16:    861.97   0.006731   34.01  0.002437  (-0.047917 -0.011861  0.000016)
 17:    973.25   0.000083    0.42  0.000026  (-0.000001 -0.000034  0.005146)
 18:   1013.84   0.000022    0.11  0.000007  ( 0.000046  0.000016 -0.002624)
 19:   1042.47   0.002083   10.53  0.000624  (-0.017342  0.017968  0.000012)
 20:   1047.19   0.000028    0.14  0.000008  ( 0.000079 -0.000009  0.002872)
 21:   1058.30   0.000265    1.34  0.000078  ( 0.000090 -0.000029  0.008832)
 22:   1067.31   0.000328    1.66  0.000096  ( 0.006123  0.007635 -0.000017)
 23:   1131.29   0.001977    9.99  0.000545  (-0.010813 -0.020696  0.000001)
 24:   1209.55   0.001462    7.39  0.000377  (-0.008919  0.017252  0.000003)
 25:   1245.30   0.002477   12.52  0.000621  ( 0.024843  0.001913 -0.000001)
 26:   1271.27   0.009742   49.23  0.002392  (-0.048885 -0.001318 -0.000001)
 27:   1357.18   0.003549   17.93  0.000816  (-0.019389 -0.020977 -0.000000)
 28:   1417.45   0.003162   15.98  0.000696  (-0.016088 -0.020913  0.000008)
 29:   1461.01   0.006766   34.19  0.001445  ( 0.034362  0.016263  0.000003)
 30:   1524.13   0.000441    2.23  0.000090  ( 0.002306  0.009220  0.000002)
 31:   1625.55   0.006894   34.84  0.001324  (-0.030491 -0.019844  0.000002)
 32:   1655.34   0.015121   76.41  0.002851  (-0.053195  0.004564  0.000003)
 33:   1719.54   0.051158  258.53  0.009284  ( 0.087991 -0.039265 -0.000021)
 34:   2960.36   0.013339   67.41  0.001406  ( 0.016871  0.033488 -0.000007)
 35:   3152.90   0.002092   10.57  0.000207  ( 0.009550  0.010766 -0.000001)
 36:   3169.26   0.001220    6.17  0.000120  ( 0.010352  0.003602  0.000001)
 37:   3195.73   0.000061    0.31  0.000006  ( 0.000986  0.002242  0.000001)
 38:   3210.52   0.000704    3.56  0.000068  ( 0.006835  0.004663 -0.000001)

--------------------------
THERMOCHEMISTRY AT 298.15K
--------------------------

Temperature         ...   298.15 K
Pressure            ...     1.00 atm
Total Mass          ...   107.11 AMU
Quasi RRHO          ...     True
Cut-Off Frequency   ...     1.00 cm^-1

Throughout the following assumptions are being made:
  (1) The electronic state is orbitally nondegenerate
  (2) There are no thermally accessible electronically excited states
  (3) Hindered rotations indicated by low frequency modes are not
      treated as such but are treated as vibrations and this may
      cause some error
  (4) All equations used are the standard statistical mechanics
      equations for an ideal gas
  (5) All vibrations are strictly harmonic

freq.     174.93  E(vib)   ...       0.38
freq.     244.18  E(vib)   ...       0.31
freq.     277.03  E(vib)   ...       0.28
freq.     407.62  E(vib)   ...       0.19
freq.     450.59  E(vib)   ...       0.17
freq.     470.69  E(vib)   ...       0.15
freq.     634.04  E(vib)   ...       0.09
freq.     692.85  E(vib)   ...       0.07
freq.     733.47  E(vib)   ...       0.06
freq.     835.43  E(vib)   ...       0.04
freq.     861.97  E(vib)   ...       0.04
freq.     973.25  E(vib)   ...       0.03
freq.    1013.84  E(vib)   ...       0.02
freq.    1042.47  E(vib)   ...       0.02
freq.    1047.19  E(vib)   ...       0.02
freq.    1058.30  E(vib)   ...       0.02
freq.    1067.31  E(vib)   ...       0.02
freq.    1131.29  E(vib)   ...       0.01
freq.    1209.55  E(vib)   ...       0.01
freq.    1245.30  E(vib)   ...       0.01
freq.    1271.27  E(vib)   ...       0.01
freq.    1357.18  E(vib)   ...       0.01
freq.    1417.45  E(vib)   ...       0.00
freq.    1461.01  E(vib)   ...       0.00
freq.    1524.13  E(vib)   ...       0.00
freq.    1625.55  E(vib)   ...       0.00
freq.    1655.34  E(vib)   ...       0.00
freq.    1719.54  E(vib)   ...       0.00
freq.    2960.36  E(vib)   ...       0.00
freq.    3152.90  E(vib)   ...       0.00
freq.    3169.26  E(vib)   ...       0.00
freq.    3195.73  E(vib)   ...       0.00
freq.    3210.52  E(vib)   ...       0.00

------------
INNER ENERGY
------------

The inner energy is: U= E(el) + E(ZPE) + E(vib) + E(rot) + E(trans)
    E(el)   - is the total energy from the electronic structure calculation
              = E(kin-el) + E(nuc-el) + E(el-el) + E(nuc-nuc)
    E(ZPE)  - the the zero temperature vibrational energy from the frequency calculation
    E(vib)  - the the finite temperature correction to E(ZPE) due to population
              of excited vibrational states
    E(rot)  - is the rotational thermal energy
    E(trans)- is the translational thermal energy

Summary of contributions to the inner energy U:
Electronic energy                ...   -361.59323870 Eh
Zero point energy                ...      0.09862539 Eh      61.89 kcal/mol
Thermal vibrational correction   ...      0.00313993 Eh       1.97 kcal/mol
Thermal rotational correction    ...      0.00141627 Eh       0.89 kcal/mol
Thermal translational correction ...      0.00141627 Eh       0.89 kcal/mol
-----------------------------------------------------------------------
Total thermal energy                   -361.48864083 Eh

Summary of corrections to the electronic energy:
(perhaps to be used in another calculation)
Total thermal correction                  0.00597248 Eh       3.75 kcal/mol
Non-thermal (ZPE) correction              0.09862539 Eh      61.89 kcal/mol
-----------------------------------------------------------------------
Total correction                          0.10459787 Eh      65.64 kcal/mol

--------
ENTHALPY
--------

The enthalpy is H = U + kB*T
                kB is Boltzmann's constant
Total thermal energy              ...   -361.48864083 Eh
Thermal Enthalpy correction       ...      0.00094421 Eh       0.59 kcal/mol
-----------------------------------------------------------------------
Total Enthalpy                    ...   -361.48769662 Eh

Note: Only C1 symmetry has been detected, increase convergence thresholds
      if your molecule has a higher symmetry. Symmetry factor of 1.0 is
      used for the rotational entropy correction.

Note: Rotational entropy computed according to Herzberg
Infrared and Raman Spectra, Chapter V,1, Van Nostrand Reinhold, 1945
Point Group:  C1, Symmetry Number:   1
Rotational constants in cm-1:     0.180589     0.052980     0.040963

Vibrational entropy computed according to the QRRHO of S. Grimme
Chem.Eur.J. 2012 18 9955 using a reference frequency of 100.0 cm-1

-------
ENTROPY
-------

The entropy contributions are T*S = T*(S(el)+S(vib)+S(rot)+S(trans))
     S(el)   - electronic entropy
     S(vib)  - vibrational entropy
     S(rot)  - rotational entropy
     S(trans)- translational entropy
The entropies will be listed as multiplied by the temperature to get
units of energy

Electronic entropy                ...      0.00000000 Eh      0.00 kcal/mol
Vibrational entropy               ...      0.00486238 Eh      3.05 kcal/mol
Rotational entropy                ...      0.01321410 Eh      8.29 kcal/mol
Translational entropy             ...      0.01896855 Eh     11.90 kcal/mol
-----------------------------------------------------------------------
Final entropy term                ...      0.03704504 Eh     23.25 kcal/mol

In case the symmetry of your molecule has not been determined correctly
or in case you have a reason to use a different symmetry number we print
out the resulting rotational entropy values for sn=1,12:

 non-linear molecules -----------------------------------
|  sn= 1 | S(rot)=       0.01321410 Eh      8.29 kcal/mol|
|  sn= 2 | S(rot)=       0.01255965 Eh      7.88 kcal/mol|
|  sn= 3 | S(rot)=       0.01217682 Eh      7.64 kcal/mol|
|  sn= 4 | S(rot)=       0.01190519 Eh      7.47 kcal/mol|
|  sn= 5 | S(rot)=       0.01169450 Eh      7.34 kcal/mol|
|  sn= 6 | S(rot)=       0.01152236 Eh      7.23 kcal/mol|
|  sn= 7 | S(rot)=       0.01137681 Eh      7.14 kcal/mol|
|  sn= 8 | S(rot)=       0.01125074 Eh      7.06 kcal/mol|
|  sn= 9 | S(rot)=       0.01113953 Eh      6.99 kcal/mol|
|  sn=10 | S(rot)=       0.01104005 Eh      6.93 kcal/mol|
|  sn=11 | S(rot)=       0.01095006 Eh      6.87 kcal/mol|
|  sn=12 | S(rot)=       0.01086790 Eh      6.82 kcal/mol|
 linear molecules ---------------------------------------
|  Dinfh | S(rot)=       0.00834255 Eh      5.24 kcal/mol|
|  Cinfv | S(rot)=       0.00899701 Eh      5.65 kcal/mol|
 --------------------------------------------------------

-------------------
GIBBS FREE ENERGY
-------------------

The Gibbs free energy is G = H - T*S

Total enthalpy                    ...   -361.48769662 Eh
Total entropy correction          ...     -0.03704504 Eh    -23.25 kcal/mol
-----------------------------------------------------------------------

                             ****ORCA TERMINATED NORMALLY****
TOTAL RUN TIME: 0 days 0 hours 21 minutes 7 seconds 859 msec
