                         Program Version 6.0.0  -   RELEASE  -
|  1> ! M062X DEF2-TZVP FREQ
|  2> * xyzfile 0 1 vacuum_censo.xyz
|  3>
|  4>                          ****END OF INPUT****

CARTESIAN COORDINATES (ANGSTROEM)
---------------------------------
  C      1.336516    1.329293    0.000163
  C     -0.029768    1.112182    0.000473
  C     -0.491553   -0.206730    0.000544
  C      0.447340   -1.240850    0.000134
  N      1.767180   -1.045235   -0.000233
  C      2.189426    0.223213   -0.000137
  C     -1.933888   -0.515195   -0.000018
  O     -2.810005    0.323234   -0.001986
  H      1.747718    2.333061    0.000054
  H     -0.748467    1.925643    0.000591
  H      0.110610   -2.278420    0.000116
  H      3.268763    0.366645   -0.000497
  H     -2.178737   -1.601655    0.000559

 Total Charge           Charge          ....    0
 Multiplicity           Mult            ....    1
 Number of Electrons    NEL             ....   56
 Basis Dimension        Dim             ....  278

ORBITAL ENERGIES
----------------

  NO   OCC          E(Eh)            E(eV)
   0   2.0000     -19.638673      -534.3955
   1   2.0000     -14.767752      -401.8510
   2   2.0000     -10.643857      -289.6341
   3   2.0000     -10.601996      -288.4950
   4   2.0000     -10.600210      -288.4464
   5   2.0000     -10.581860      -287.9471
   6   2.0000     -10.573108      -287.7089
   7   2.0000     -10.570437      -287.6362
   8   2.0000      -1.182280       -32.1715
   9   2.0000      -1.074594       -29.2412
  10   2.0000      -0.932240       -25.3675
  11   2.0000      -0.891128       -24.2488
  12   2.0000      -0.771053       -20.9814
  13   2.0000      -0.738146       -20.0860
  14   2.0000      -0.678934       -18.4747
  15   2.0000      -0.621817       -16.9205
  16   2.0000      -0.592259       -16.1162
  17   2.0000      -0.562559       -15.3080
  18   2.0000      -0.527060       -14.3420
  19   2.0000      -0.522617       -14.2211
  20   2.0000      -0.509275       -13.8581
  21   2.0000      -0.488803       -13.3010
  22   2.0000      -0.470300       -12.7975
  23   2.0000      -0.454087       -12.3563
  24   2.0000      -0.365633        -9.9494
  25   2.0000      -0.358683        -9.7603
  26   2.0000      -0.339229        -9.2309
  27   2.0000      -0.337501        -9.1839
  28   0.0000      -0.050839        -1.3834
  29   0.0000      -0.011372        -0.3094
  30   0.0000       0.055300         1.5048
  31   0.0000       0.080652         2.1947
  32   0.0000       0.088659         2.4125

MULLIKEN ATOMIC CHARGES
-----------------------
   0 C :   -0.138787
   1 C :   -0.126855
   2 C :    0.058861
   3 C :   -0.077764
   4 N :   -0.218794
   5 C :   -0.034284
   6 C :    0.098979
   7 O :   -0.290066
   8 H :    0.150412
   9 H :    0.181010
  10 H :    0.149195
  11 H :    0.152485
  12 H :    0.095608
Sum of atomic charges:   -0.0000000

LOEWDIN ATOMIC CHARGES
----------------------
   0 C :   -0.140730
   1 C :   -0.056410
   2 C :   -0.174795
   3 C :   -0.158125
   4 N :    0.127182
   5 C :   -0.179890
   6 C :   -0.250364
   7 O :    0.110271
   8 H :    0.150756
   9 H :    0.161095
  10 H :    0.145464
  11 H :    0.142278
  12 H :    0.123269

  Mayer bond orders larger than 0.100000
B(  0-C ,  1-C ) :   1.4695 B(  0-C ,  5-C ) :   1.3726 B(  0-C ,  8-H ) :   0.9580
B(  1-C ,  2-C ) :   1.3748 B(  1-C ,  9-H ) :   0.9222 B(  2-C ,  3-C ) :   1.3435
B(  2-C ,  6-C ) :   0.9351 B(  3-C ,  4-N ) :   1.4805 B(  3-C , 10-H ) :   0.9734
B(  4-N ,  5-C ) :   1.4620 B(  5-C , 11-H ) :   0.9706 B(  6-C ,  7-O ) :   2.0562
B(  6-C , 12-H ) :   0.9980

FINAL SINGLE POINT ENERGY      -361.594037082866

DIPOLE MOMENT
-------------

Method             : SCF
Type of density    : Electron Density
Multiplicity       :   1
Irrep              :   0
Energy             :  -361.5940370828663504 Eh
Relativity type    :
Basis              : AO
                                X                 Y                 Z
Electronic contribution:     -1.379058276      -0.522240709      -0.000192656
Nuclear contribution   :      2.021205005       0.710857894       0.001633722
                        -----------------------------------------
Total Dipole Moment    :      0.642146729       0.188617185       0.001441065
                        -----------------------------------------
Magnitude (a.u.)       :      0.669276430
Magnitude (Debye)      :      1.701165492

VIBRATIONAL FREQUENCIES
-----------------------

Scaling factor for frequencies =  1.000000000  (already applied!)

     0:       0.00 cm**-1
     1:       0.00 cm**-1
     2:       0.00 cm**-1
     3:       0.00 cm**-1
     4:       0.00 cm**-1
     5:       0.00 cm**-1
     6:     165.13 cm**-1
     7:     238.11 cm**-1
     8:     271.64 cm**-1
     9:     409.32 cm**-1
    10:     447.06 cm**-1
    11:     470.58 cm**-1
    12:     632.93 cm**-1
    13:     689.61 cm**-1
    14:     734.88 cm**-1
    15:     839.04 cm**-1
    16:     856.72 cm**-1
    17:     981.25 cm**-1
    18:    1018.33 cm**-1
    19:    1043.13 cm**-1
    20:    1050.40 cm**-1
    21:    1067.35 cm**-1
    22:    1067.99 cm**-1
    23:    1134.86 cm**-1
    24:    1214.11 cm**-1
    25:    1249.85 cm**-1
    26:    1267.87 cm**-1
    27:    1361.37 cm**-1
    28:    1425.33 cm**-1
    29:    1467.91 cm**-1
    30:    1524.74 cm**-1
    31:    1629.99 cm**-1
    32:    1656.27 cm**-1
    33:    1779.53 cm**-1
    34:    2895.57 cm**-1
    35:    3132.16 cm**-1
    36:    3155.22 cm**-1
    37:    3190.83 cm**-1
    38:    3204.81 cm**-1

IR SPECTRUM
-----------

 Mode   freq       eps      Int      T**2         TX        TY        TZ
       cm**-1   L/(mol*cm) km/mol    a.u.
----------------------------------------------------------------------------
  6:    165.13   0.001079    5.45  0.002040  (-0.000047 -0.000123  0.045162)
  7:    238.11   0.002531   12.79  0.003317  (-0.045314 -0.035550 -0.000137)
  8:    271.64   0.002649   13.39  0.003043  ( 0.000076  0.000219 -0.055162)
  9:    409.32   0.000366    1.85  0.000279  (-0.000082  0.000059  0.016702)
 10:    447.06   0.000143    0.72  0.000100  ( 0.004853  0.008743 -0.000017)
 11:    470.58   0.000042    0.21  0.000028  ( 0.000072 -0.000112  0.005268)
 12:    632.93   0.000596    3.01  0.000294  (-0.003174  0.016845  0.000014)
 13:    689.61   0.003710   18.75  0.001679  (-0.037937 -0.015484 -0.000017)
 14:    734.88   0.005746   29.04  0.002440  (-0.000008  0.000012  0.049395)
 15:    839.04   0.004481   22.65  0.001667  ( 0.000080  0.000010  0.040825)
 16:    856.72   0.007331   37.05  0.002670  (-0.050233 -0.012127 -0.000032)
 17:    981.25   0.000105    0.53  0.000034  (-0.000007 -0.000022 -0.005792)
 18:   1018.33   0.000033    0.16  0.000010  ( 0.000023 -0.000073 -0.003157)
 19:   1043.13   0.002015   10.18  0.000603  (-0.016519  0.018165 -0.000003)
 20:   1050.40   0.000003    0.01  0.000001  ( 0.000034  0.000030 -0.000930)
 21:   1067.35   0.000261    1.32  0.000076  ( 0.000094  0.000306 -0.008723)
 22:   1067.99   0.000362    1.83  0.000106  (-0.006904 -0.007610 -0.000221)
 23:   1134.86   0.001996   10.09  0.000549  (-0.012814 -0.019615 -0.000000)
 24:   1214.11   0.001238    6.26  0.000318  (-0.002812  0.017614  0.000005)
 25:   1249.85   0.005899   29.81  0.001473  ( 0.038336  0.001765 -0.000001)
 26:   1267.87   0.007741   39.12  0.001905  (-0.043648 -0.000243 -0.000005)
 27:   1361.37   0.003248   16.42  0.000745  (-0.017746 -0.020729  0.000003)
 28:   1425.33   0.003881   19.61  0.000850  ( 0.019555  0.021616 -0.000015)
 29:   1467.91   0.004967   25.10  0.001056  ( 0.028287  0.015992  0.000011)
 30:   1524.74   0.000400    2.02  0.000082  ( 0.002403  0.008727  0.000009)
 31:   1629.99   0.004635   23.42  0.000887  ( 0.019320  0.022675  0.000017)
 32:   1656.27   0.016237   82.05  0.003059  (-0.055200  0.003482  0.000004)
 33:   1779.53   0.052319  264.40  0.009175  (-0.087444  0.039095 -0.000091)
 34:   2895.57   0.015011   75.86  0.001618  ( 0.018179  0.035879 -0.000036)
 35:   3132.16   0.002167   10.95  0.000216  (-0.009524 -0.011190  0.000002)
 36:   3155.22   0.001433    7.24  0.000142  (-0.011111 -0.004279  0.000000)
 37:   3190.83   0.000055    0.28  0.000005  (-0.000942 -0.002108  0.000004)
 38:   3204.81   0.000708    3.58  0.000069  ( 0.006758  0.004821  0.000004)

--------------------------
THERMOCHEMISTRY AT 298.15K
--------------------------

Temperature         ...   298.15 K
Pressure            ...     1.00 atm
Total Mass          ...   107.11 AMU
Quasi RRHO          ...     True
Cut-Off Frequency   ...     1.00 cm^-1

Throughout the following assumptions are being made:
  (1) The electronic state is orbitally nondegenerate
  (2) There are no thermally accessible electronically excited states
  (3) Hindered rotations indicated by low frequency modes are not
      treated as such but are treated as vibrations and this may
      cause some error
  (4) All equations used are the standard statistical mechanics
      equations for an ideal gas
  (5) All vibrations are strictly harmonic

freq.     165.13  E(vib)   ...       0.39
freq.     238.11  E(vib)   ...       0.32
freq.     271.64  E(vib)   ...       0.29
freq.     409.32  E(vib)   ...       0.19
freq.     447.06  E(vib)   ...       0.17
freq.     470.58  E(vib)   ...       0.15
freq.     632.93  E(vib)   ...       0.09
freq.     689.61  E(vib)   ...       0.07
freq.     734.88  E(vib)   ...       0.06
freq.     839.04  E(vib)   ...       0.04
freq.     856.72  E(vib)   ...       0.04
freq.     981.25  E(vib)   ...       0.02
freq.    1018.33  E(vib)   ...       0.02
freq.    1043.13  E(vib)   ...       0.02
freq.    1050.40  E(vib)   ...       0.02
freq.    1067.35  E(vib)   ...       0.02
freq.    1067.99  E(vib)   ...       0.02
freq.    1134.86  E(vib)   ...       0.01
freq.    1214.11  E(vib)   ...       0.01
freq.    1249.85  E(vib)   ...       0.01
freq.    1267.87  E(vib)   ...       0.01
freq.    1361.37  E(vib)   ...       0.01
freq.    1425.33  E(vib)   ...       0.00
freq.    1467.91  E(vib)   ...       0.00
freq.    1524.74  E(vib)   ...       0.00
freq.    1629.99  E(vib)   ...       0.00
freq.    1656.27  E(vib)   ...       0.00
freq.    1779.53  E(vib)   ...       0.00
freq.    2895.57  E(vib)   ...       0.00
freq.    3132.16  E(vib)   ...       0.00
freq.    3155.22  E(vib)   ...       0.00
freq.    3190.83  E(vib)   ...       0.00
freq.    3204.81  E(vib)   ...       0.00

------------
INNER ENERGY
------------

The inner energy is: U= E(el) + E(ZPE) + E(vib) + E(rot) + E(trans)
    E(el)   - is the total energy from the electronic structure calculation
              = E(kin-el) + E(nuc-el) + E(el-el) + E(nuc-nuc)
    E(ZPE)  - the the zero temperature vibrational energy from the frequency calculation
    E(vib)  - the the finite temperature correction to E(ZPE) due to population
              of excited vibrational states
    E(rot)  - is the rotational thermal energy
    E(trans)- is the translational thermal energy

Summary of contributions to the inner energy U:
Electronic energy                ...   -361.59403708 Eh
Zero point energy                ...      0.09858513 Eh      61.86 kcal/mol
Thermal vibrational correction   ...      0.00317021 Eh       1.99 kcal/mol
Thermal rotational correction    ...      0.00141627 Eh       0.89 kcal/mol
Thermal translational correction ...      0.00141627 Eh       0.89 kcal/mol
-----------------------------------------------------------------------
Total thermal energy                   -361.48944920 Eh

Summary of corrections to the electronic energy:
(perhaps to be used in another calculation)
Total thermal correction                  0.00600275 Eh       3.77 kcal/mol
Non-thermal (ZPE) correction              0.09858513 Eh      61.86 kcal/mol
-----------------------------------------------------------------------
Total correction                          0.10458788 Eh      65.63 kcal/mol

--------
ENTHALPY
--------

The enthalpy is H = U + kB*T
                kB is Boltzmann's constant
Total thermal energy              ...   -361.48944920 Eh
Thermal Enthalpy correction       ...      0.00094421 Eh       0.59 kcal/mol
-----------------------------------------------------------------------
Total Enthalpy                    ...   -361.48850499 Eh

Note: Only C1 symmetry has been detected, increase convergence thresholds
      if your molecule has a higher symmetry. Symmetry factor of 1.0 is
      used for the rotational entropy correction.

Note: Rotational entropy computed according to Herzberg
Infrared and Raman Spectra, Chapter V,1, Van Nostrand Reinhold, 1945
Point Group:  C1, Symmetry Number:   1
Rotational constants in cm-1:     0.181214     0.052920     0.040959

Vibrational entropy computed according to the QRRHO of S. Grimme
Chem.Eur.J. 2012 18 9955 using a reference frequency of 100.0 cm-1

-------
ENTROPY
-------

The entropy contributions are T*S = T*(S(el)+S(vib)+S(rot)+S(trans))
     S(el)   - electronic entropy
     S(vib)  - vibrational entropy
     S(rot)  - rotational entropy
     S(trans)- translational entropy
The entropies will be listed as multiplied by the temperature to get
units of energy

Electronic entropy                ...      0.00000000 Eh      0.00 kcal/mol
Vibrational entropy               ...      0.00494598 Eh      3.10 kcal/mol
Rotational entropy                ...      0.01321306 Eh      8.29 kcal/mol
Translational entropy             ...      0.01896855 Eh     11.90 kcal/mol
-----------------------------------------------------------------------
Final entropy term                ...      0.03712759 Eh     23.30 kcal/mol

In case the symmetry of your molecule has not been determined correctly
or in case you have a reason to use a different symmetry number we print
out the resulting rotational entropy values for sn=1,12:

 non-linear molecules -----------------------------------
|  sn= 1 | S(rot)=       0.01321306 Eh      8.29 kcal/mol|
|  sn= 2 | S(rot)=       0.01255860 Eh      7.88 kcal/mol|
|  sn= 3 | S(rot)=       0.01217577 Eh      7.64 kcal/mol|
|  sn= 4 | S(rot)=       0.01190415 Eh      7.47 kcal/mol|
|  sn= 5 | S(rot)=       0.01169346 Eh      7.34 kcal/mol|
|  sn= 6 | S(rot)=       0.01152131 Eh      7.23 kcal/mol|
|  sn= 7 | S(rot)=       0.01137577 Eh      7.14 kcal/mol|
|  sn= 8 | S(rot)=       0.01124969 Eh      7.06 kcal/mol|
|  sn= 9 | S(rot)=       0.01113848 Eh      6.99 kcal/mol|
|  sn=10 | S(rot)=       0.01103900 Eh      6.93 kcal/mol|
|  sn=11 | S(rot)=       0.01094901 Eh      6.87 kcal/mol|
|  sn=12 | S(rot)=       0.01086686 Eh      6.82 kcal/mol|
 linear molecules ---------------------------------------
|  Dinfh | S(rot)=       0.00834265 Eh      5.24 kcal/mol|
|  Cinfv | S(rot)=       0.00899710 Eh      5.65 kcal/mol|
 --------------------------------------------------------

-------------------
GIBBS FREE ENERGY
-------------------

The Gibbs free energy is G = H - T*S

Total enthalpy                    ...   -361.48850499 Eh
Total entropy correction          ...     -0.03712759 Eh    -23.30 kcal/mol
-----------------------------------------------------------------------

                             ****ORCA TERMINATED NORMALLY****
TOTAL RUN TIME: 0 days 0 hours 20 minutes 47 seconds 320 msec
