                         Program Version 6.0.1  -  RELEASE   -
|  1> ! r2scan-3c def2/J RI DEFGRID2 scfconv6 printgap
|  2> %output
|  3>     printlevel normal
|  4> end
|  5> * xyz 0 1
|  6> C -2.3896478244 0.2124048468 0.0025620519
|  7> C -0.9121532238 0.3218539246 0.0043194396
|  8> C -0.0588659357 -0.7053207224 -0.0098894257
|  9> C 1.3862230303 -0.4950749796 -0.0067476282
| 10> O 1.9382756343 0.5777626806 0.0085054398
| 11> H -2.7129674845 -0.8254763257 -0.0120941414
| 12> H -2.7974208592 0.7273118941 -0.8671880083
| 13> H -2.7976717162 0.7026212409 0.8863501846
| 14> H -0.5001399259 1.3236637176 0.0183828316
| 15> H -0.4072855187 -1.7282669987 -0.0242440977
| 16> H 1.9764728493 -1.4329972516 -0.0199664426
| 17> *
| 18>
| 19>                          ****END OF INPUT****

CARTESIAN COORDINATES (ANGSTROEM)
---------------------------------
  C     -2.389648    0.212405    0.002562
  C     -0.912153    0.321854    0.004319
  C     -0.058866   -0.705321   -0.009889
  C      1.386223   -0.495075   -0.006748
  O      1.938276    0.577763    0.008505
  H     -2.712967   -0.825476   -0.012094
  H     -2.797421    0.727312   -0.867188
  H     -2.797672    0.702621    0.886350
  H     -0.500140    1.323664    0.018383
  H     -0.407286   -1.728267   -0.024244
  H      1.976473   -1.432997   -0.019966

 Total Charge           Charge          ....    0
 Multiplicity           Mult            ....    1
 Number of Electrons    NEL             ....   38
 Basis Dimension        Dim             ....  130

ORBITAL ENERGIES
----------------

  NO   OCC          E(Eh)            E(eV)
   0   2.0000     -18.940114      -515.3867
   1   2.0000     -10.111164      -275.1388
   2   2.0000     -10.066537      -273.9244
   3   2.0000     -10.046708      -273.3848
   4   2.0000     -10.040720      -273.2219
   5   2.0000      -1.006434       -27.3865
   6   2.0000      -0.786186       -21.3932
   7   2.0000      -0.697538       -18.9810
   8   2.0000      -0.595468       -16.2035
   9   2.0000      -0.512871       -13.9559
  10   2.0000      -0.464109       -12.6290
  11   2.0000      -0.426516       -11.6061
  12   2.0000      -0.408024       -11.1029
  13   2.0000      -0.384535       -10.4637
  14   2.0000      -0.370608       -10.0848
  15   2.0000      -0.367771       -10.0076
  16   2.0000      -0.340557        -9.2670
  17   2.0000      -0.255727        -6.9587
  18   2.0000      -0.219430        -5.9710
  19   0.0000      -0.094301        -2.5661
  20   0.0000       0.038065         1.0358
  21   0.0000       0.086193         2.3454
  22   0.0000       0.100755         2.7417
  23   0.0000       0.127223         3.4619

MULLIKEN ATOMIC CHARGES
-----------------------
   0 C :   -0.491895
   1 C :   -0.005924
   2 C :   -0.176248
   3 C :    0.115216
   4 O :   -0.361256
   5 H :    0.155066
   6 H :    0.162471
   7 H :    0.162477
   8 H :    0.186476
   9 H :    0.153553
  10 H :    0.100064
Sum of atomic charges:   -0.0000000

LOEWDIN ATOMIC CHARGES
----------------------
   0 C :   -0.398893
   1 C :   -0.094177
   2 C :   -0.224428
   3 C :    0.193271
   4 O :   -0.470738
   5 H :    0.159576
   6 H :    0.169384
   7 H :    0.169389
   8 H :    0.180373
   9 H :    0.166833
  10 H :    0.149410

  Mayer bond orders larger than 0.100000
B(  0-C ,  1-C ) :   0.8881 B(  0-C ,  5-H ) :   0.9924 B(  0-C ,  6-H ) :   0.9559
B(  0-C ,  7-H ) :   0.9559 B(  1-C ,  2-C ) :   1.7960 B(  1-C ,  4-O ) :   0.1551
B(  1-C ,  8-H ) :   0.9350 B(  2-C ,  3-C ) :   1.0086 B(  2-C ,  4-O ) :  -0.1203
B(  2-C ,  9-H ) :   0.9376 B(  3-C ,  4-O ) :   1.9067 B(  3-C , 10-H ) :   0.9918

Dispersion correction           -0.002198008
FINAL SINGLE POINT ENERGY      -231.171032974995

DIPOLE MOMENT
-------------

Method             : SCF
Type of density    : Electron Density
Multiplicity       :   1
Irrep              :   0
Energy             :  -231.1731188069161078 Eh
Relativity type    :
Basis              : AO
                                X                 Y                 Z
Electronic contribution:      5.558479666       0.591190496       0.009376723
Nuclear contribution   :     -6.762684496      -1.148333116      -0.017473669
                        -----------------------------------------
Total Dipole Moment    :     -1.204204830      -0.557142620      -0.008096946
                        -----------------------------------------
Magnitude (a.u.)       :      1.326869524
Magnitude (Debye)      :      3.372634302

Rotational constants in cm-1:             0.646729             0.088254             0.078782
Rotational constants in MHz :         19388.440311          2645.785035          2361.818517

                             ****ORCA TERMINATED NORMALLY****
TOTAL RUN TIME: 0 days 0 hours 0 minutes 17 seconds 262 msec
