                         Program Version 6.0.1  -  RELEASE   -
|  1> ! pbe def2-sv(p) def2/J RI DEFGRID1 loosescf d4 GCP(DFT/SV(P)) printgap
|  2> %output
|  3>     printlevel normal
|  4> end
|  5> * xyz 0 1
|  6> C -3.4268322434 -0.121836445 -0.0007454134
|  7> C -2.9890641667 1.1940635337 -0.0001615303
|  8> C -1.6363523564 1.49173586 0.0004601761
|  9> C -0.7268393465 0.4464536301 0.0005043171
| 10> C -1.17140058 -0.8848360678 0.0001861972
| 11> C -2.5197427996 -1.1728170211 -0.000504489
| 12> C 5.2816e-06 -1.8240906734 0.0006924385
| 13> C 1.1714047575 -0.8848301247 0.0002888026
| 14> C 0.7268501194 0.4464539975 0.000449702
| 15> C 1.6363537349 1.4917657646 0.000154422
| 16> C 2.9890473064 1.1940768381 -0.0003915231
| 17> C 3.4268165561 -0.1218506411 -0.0006161276
| 18> C 2.5197549722 -1.1728286261 -0.0002367501
| 19> H -4.48657783 -0.3315077549 -0.0013371332
| 20> H -3.7134336068 1.9956892614 -0.0002565118
| 21> H -1.2991039628 2.5176808759 0.0007618793
| 22> H -2.8676121911 -2.1960694083 -0.0008569002
| 23> H -3.97931e-05 -2.4703754948 0.8821365373
| 24> H 5.95816e-05 -2.4720146726 -0.879487016
| 25> H 1.2990079462 2.5176813043 0.0003491766
| 26> H 3.7135054994 1.9956288543 -0.0006570036
| 27> H 4.4865965086 -0.3313669935 -0.0011460762
| 28> H 2.8675831258 -2.1960934248 -0.0004629443
| 29> *
| 30>
| 31>                          ****END OF INPUT****

CARTESIAN COORDINATES (ANGSTROEM)
---------------------------------
  C     -3.426832   -0.121836   -0.000745
  C     -2.989064    1.194064   -0.000162
  C     -1.636352    1.491736    0.000460
  C     -0.726839    0.446454    0.000504
  C     -1.171401   -0.884836    0.000186
  C     -2.519743   -1.172817   -0.000504
  C      0.000005   -1.824091    0.000692
  C      1.171405   -0.884830    0.000289
  C      0.726850    0.446454    0.000450
  C      1.636354    1.491766    0.000154
  C      2.989047    1.194077   -0.000392
  C      3.426817   -0.121851   -0.000616
  C      2.519755   -1.172829   -0.000237
  H     -4.486578   -0.331508   -0.001337
  H     -3.713434    1.995689   -0.000257
  H     -1.299104    2.517681    0.000762
  H     -2.867612   -2.196069   -0.000857
  H     -0.000040   -2.470375    0.882137
  H      0.000060   -2.472015   -0.879487
  H      1.299008    2.517681    0.000349
  H      3.713505    1.995629   -0.000657
  H      4.486597   -0.331367   -0.001146
  H      2.867583   -2.196093   -0.000463

 Total Charge           Charge          ....    0
 Multiplicity           Mult            ....    1
 Number of Electrons    NEL             ....   88
 Basis Dimension        Dim             ....  202

ORBITAL ENERGIES
----------------

  NO   OCC          E(Eh)            E(eV)
   0   2.0000      -9.899813      -269.3876
   1   2.0000      -9.899779      -269.3867
   2   2.0000      -9.899658      -269.3834
   3   2.0000      -9.898971      -269.3647
   4   2.0000      -9.898911      -269.3631
   5   2.0000      -9.892655      -269.1928
   6   2.0000      -9.892519      -269.1891
   7   2.0000      -9.891087      -269.1502
   8   2.0000      -9.891072      -269.1497
   9   2.0000      -9.890494      -269.1340
  10   2.0000      -9.890490      -269.1339
  11   2.0000      -9.889908      -269.1181
  12   2.0000      -9.889906      -269.1180
  13   2.0000      -0.809301       -22.0222
  14   2.0000      -0.766177       -20.8487
  15   2.0000      -0.724560       -19.7163
  16   2.0000      -0.690683       -18.7944
  17   2.0000      -0.667466       -18.1627
  18   2.0000      -0.639924       -17.4132
  19   2.0000      -0.618595       -16.8328
  20   2.0000      -0.570741       -15.5307
  21   2.0000      -0.525285       -14.2937
  22   2.0000      -0.521183       -14.1821
  23   2.0000      -0.514840       -14.0095
  24   2.0000      -0.467443       -12.7198
  25   2.0000      -0.441471       -12.0130
  26   2.0000      -0.428525       -11.6608
  27   2.0000      -0.407644       -11.0926
  28   2.0000      -0.401615       -10.9285
  29   2.0000      -0.389181       -10.5901
  30   2.0000      -0.381929       -10.3928
  31   2.0000      -0.375011       -10.2046
  32   2.0000      -0.361962        -9.8495
  33   2.0000      -0.355830        -9.6826
  34   2.0000      -0.332564        -9.0495
  35   2.0000      -0.322277        -8.7696
  36   2.0000      -0.309989        -8.4352
  37   2.0000      -0.309900        -8.4328
  38   2.0000      -0.291399        -7.9294
  39   2.0000      -0.290881        -7.9153
  40   2.0000      -0.258197        -7.0259
  41   2.0000      -0.229167        -6.2360
  42   2.0000      -0.221174        -6.0185
  43   2.0000      -0.197419        -5.3720
  44   0.0000      -0.059712        -1.6248
  45   0.0000      -0.044031        -1.1981
  46   0.0000      -0.024037        -0.6541
  47   0.0000       0.005911         0.1608
  48   0.0000       0.048302         1.3144

MULLIKEN ATOMIC CHARGES
-----------------------
   0 C :   -0.044767
   1 C :   -0.040056
   2 C :   -0.156262
   3 C :    0.122508
   4 C :   -0.029449
   5 C :   -0.142059
   6 C :    0.028071
   7 C :   -0.029476
   8 C :    0.122471
   9 C :   -0.156207
  10 C :   -0.040072
  11 C :   -0.044773
  12 C :   -0.142025
  13 H :    0.050985
  14 H :    0.050118
  15 H :    0.035722
  16 H :    0.031000
  17 H :    0.108250
  18 H :    0.108191
  19 H :    0.035723
  20 H :    0.050121
  21 H :    0.050986
  22 H :    0.031000
Sum of atomic charges:    0.0000000

LOEWDIN ATOMIC CHARGES
----------------------
   0 C :   -0.124324
   1 C :   -0.122615
   2 C :   -0.119014
   3 C :   -0.025184
   4 C :   -0.025560
   5 C :   -0.122980
   6 C :   -0.195743
   7 C :   -0.025560
   8 C :   -0.025184
   9 C :   -0.119011
  10 C :   -0.122615
  11 C :   -0.124323
  12 C :   -0.122979
  13 H :    0.122901
  14 H :    0.123105
  15 H :    0.123103
  16 H :    0.122405
  17 H :    0.146067
  18 H :    0.145995
  19 H :    0.123105
  20 H :    0.123105
  21 H :    0.122900
  22 H :    0.122407

  Mayer bond orders larger than 0.100000
B(  0-C ,  1-C ) :   1.3772 B(  0-C ,  5-C ) :   1.3420 B(  0-C , 13-H ) :   0.9602
B(  1-C ,  2-C ) :   1.3581 B(  1-C , 14-H ) :   0.9593 B(  2-C ,  3-C ) :   1.3477
B(  2-C , 15-H ) :   0.9601 B(  3-C ,  4-C ) :   1.3664 B(  3-C ,  8-C ) :   1.0201
B(  4-C ,  5-C ) :   1.3865 B(  4-C ,  6-C ) :   1.0741 B(  5-C , 16-H ) :   0.9715
B(  6-C ,  7-C ) :   1.0741 B(  6-C , 17-H ) :   0.8526 B(  6-C , 18-H ) :   0.8528
B(  7-C ,  8-C ) :   1.3664 B(  7-C , 12-C ) :   1.3864 B(  8-C ,  9-C ) :   1.3477
B(  9-C , 10-C ) :   1.3581 B(  9-C , 19-H ) :   0.9601 B( 10-C , 11-C ) :   1.3772
B( 10-C , 20-H ) :   0.9593 B( 11-C , 12-C ) :   1.3420 B( 11-C , 21-H ) :   0.9602
B( 12-C , 22-H ) :   0.9715

Dispersion correction           -0.030668227
FINAL SINGLE POINT ENERGY      -500.339814800434

DIPOLE MOMENT
-------------

Method             : SCF
Type of density    : Electron Density
Multiplicity       :   1
Irrep              :   0
Energy             :  -500.3923259274574775 Eh
Relativity type    :
Basis              : AO
                                X                 Y                 Z
Electronic contribution:      0.000029005       0.693996826       0.000932417
Nuclear contribution   :     -0.000013812      -0.910726888      -0.000896884
                        -----------------------------------------
Total Dipole Moment    :      0.000015193      -0.216730062       0.000035533
                        -----------------------------------------
Magnitude (a.u.)       :      0.216730065
Magnitude (Debye)      :      0.550884046

Rotational constants in cm-1:             0.073520             0.019853             0.015677
Rotational constants in MHz :          2204.068467           595.168270           469.988054

                             ****ORCA TERMINATED NORMALLY****
TOTAL RUN TIME: 0 days 0 hours 0 minutes 18 seconds 147 msec
