                         Program Version 6.0.1  -  RELEASE   -
|  1> ! pbe def2-sv(p) def2/J RI DEFGRID1 loosescf d4 GCP(DFT/SV(P)) printgap
|  2> %output
|  3>     printlevel normal
|  4> end
|  5> * xyz 0 1
|  6> C -2.286739438 -0.9164088115 0.752901376
|  7> C -0.8487135026 -0.3796963715 0.7797648986
|  8> H -0.5856991043 -0.0787503231 1.8034688558
|  9> C -0.6607185512 0.8192840099 -0.1597937399
| 10> H -0.8751492637 0.4787742539 -1.1865938617
| 11> C 0.7987376081 1.3062687438 -0.0867600009
| 12> H 0.846281143 2.1066060291 0.6627993872
| 13> C 1.7574291105 0.1890137733 0.3574954113
| 14> H 2.7350666317 0.3893281239 -0.1087442921
| 15> C 1.2346376196 -1.1504433077 -0.1795856574
| 16> H 1.8800044611 -1.9872339208 0.127051704
| 17> O -0.0273581668 -1.4655375839 0.3614411138
| 18> O 1.2290603636 -1.1529739694 -1.5717076805
| 19> O 1.8518357798 0.2126550435 1.7574663496
| 20> O 1.2376669329 1.757516185 -1.35105641
| 21> O -1.4829302925 1.9130851265 0.1644500109
| 22> O -2.709044536 -1.1982084439 -0.5539256741
| 23> H -2.9786154541 -0.1770549676 1.1622912239
| 24> H -2.3222175289 -1.8166488279 1.3796999945
| 25> H 1.1424979636 -0.2465643797 -1.9052867789
| 26> H 2.4016551094 -0.5226973736 2.0511244193
| 27> H 0.7110944779 2.5274334011 -1.5950664299
| 28> H -2.4027318154 1.6533568102 0.0381022357
| 29> H -2.0634048713 -1.8099365009 -0.9324391267
| 30> *
| 31>
| 32>                          ****END OF INPUT****

CARTESIAN COORDINATES (ANGSTROEM)
---------------------------------
  C     -2.286739   -0.916409    0.752901
  C     -0.848714   -0.379696    0.779765
  H     -0.585699   -0.078750    1.803469
  C     -0.660719    0.819284   -0.159794
  H     -0.875149    0.478774   -1.186594
  C      0.798738    1.306269   -0.086760
  H      0.846281    2.106606    0.662799
  C      1.757429    0.189014    0.357495
  H      2.735067    0.389328   -0.108744
  C      1.234638   -1.150443   -0.179586
  H      1.880004   -1.987234    0.127052
  O     -0.027358   -1.465538    0.361441
  O      1.229060   -1.152974   -1.571708
  O      1.851836    0.212655    1.757466
  O      1.237667    1.757516   -1.351056
  O     -1.482930    1.913085    0.164450
  O     -2.709045   -1.198208   -0.553926
  H     -2.978615   -0.177055    1.162291
  H     -2.322218   -1.816649    1.379700
  H      1.142498   -0.246564   -1.905287
  H      2.401655   -0.522697    2.051124
  H      0.711094    2.527433   -1.595066
  H     -2.402732    1.653357    0.038102
  H     -2.063405   -1.809937   -0.932439

 Total Charge           Charge          ....    0
 Multiplicity           Mult            ....    1
 Number of Electrons    NEL             ....   96
 Basis Dimension        Dim             ....  192

ORBITAL ENERGIES
----------------

  NO   OCC          E(Eh)            E(eV)
   0   2.0000     -18.774095      -510.8691
   1   2.0000     -18.767949      -510.7019
   2   2.0000     -18.767711      -510.6954
   3   2.0000     -18.762060      -510.5416
   4   2.0000     -18.751967      -510.2670
   5   2.0000     -18.749402      -510.1972
   6   2.0000      -9.985805      -271.7276
   7   2.0000      -9.953104      -270.8377
   8   2.0000      -9.952971      -270.8341
   9   2.0000      -9.944739      -270.6101
  10   2.0000      -9.938840      -270.4496
  11   2.0000      -9.935338      -270.3543
  12   2.0000      -0.981105       -26.6972
  13   2.0000      -0.952331       -25.9142
  14   2.0000      -0.942931       -25.6585
  15   2.0000      -0.937490       -25.5104
  16   2.0000      -0.927350       -25.2345
  17   2.0000      -0.907014       -24.6811
  18   2.0000      -0.710901       -19.3446
  19   2.0000      -0.690969       -18.8022
  20   2.0000      -0.624827       -17.0024
  21   2.0000      -0.595535       -16.2053
  22   2.0000      -0.563542       -15.3348
  23   2.0000      -0.522471       -14.2172
  24   2.0000      -0.515395       -14.0246
  25   2.0000      -0.493444       -13.4273
  26   2.0000      -0.481915       -13.1136
  27   2.0000      -0.464394       -12.6368
  28   2.0000      -0.450563       -12.2604
  29   2.0000      -0.432052       -11.7567
  30   2.0000      -0.428869       -11.6701
  31   2.0000      -0.397626       -10.8200
  32   2.0000      -0.386849       -10.5267
  33   2.0000      -0.373451       -10.1621
  34   2.0000      -0.367959       -10.0127
  35   2.0000      -0.360100        -9.7988
  36   2.0000      -0.331748        -9.0273
  37   2.0000      -0.327277        -8.9057
  38   2.0000      -0.317098        -8.6287
  39   2.0000      -0.293110        -7.9759
  40   2.0000      -0.283682        -7.7194
  41   2.0000      -0.270216        -7.3530
  42   2.0000      -0.256177        -6.9709
  43   2.0000      -0.247405        -6.7322
  44   2.0000      -0.242156        -6.5894
  45   2.0000      -0.229235        -6.2378
  46   2.0000      -0.216034        -5.8786
  47   2.0000      -0.211836        -5.7644
  48   0.0000       0.008842         0.2406
  49   0.0000       0.019665         0.5351
  50   0.0000       0.031708         0.8628
  51   0.0000       0.051832         1.4104
  52   0.0000       0.060990         1.6596

MULLIKEN ATOMIC CHARGES
-----------------------
   0 C :    0.056487
   1 C :    0.004178
   2 H :    0.068515
   3 C :    0.056610
   4 H :    0.033664
   5 C :    0.033624
   6 H :    0.087800
   7 C :    0.011283
   8 H :    0.089623
   9 C :    0.175714
  10 H :    0.057258
  11 O :   -0.315218
  12 O :   -0.398569
  13 O :   -0.404522
  14 O :   -0.415266
  15 O :   -0.417434
  16 O :   -0.439325
  17 H :    0.078757
  18 H :    0.090939
  19 H :    0.305161
  20 H :    0.308048
  21 H :    0.315530
  22 H :    0.311705
  23 H :    0.305438
Sum of atomic charges:   -0.0000000

LOEWDIN ATOMIC CHARGES
----------------------
   0 C :   -0.131771
   1 C :   -0.084169
   2 H :    0.111805
   3 C :   -0.087894
   4 H :    0.098667
   5 C :   -0.062948
   6 H :    0.123134
   7 C :   -0.088645
   8 H :    0.113895
   9 C :   -0.010160
  10 H :    0.099085
  11 O :   -0.150788
  12 O :   -0.309926
  13 O :   -0.305236
  14 O :   -0.312457
  15 O :   -0.317182
  16 O :   -0.336296
  17 H :    0.107927
  18 H :    0.107484
  19 H :    0.272635
  20 H :    0.291704
  21 H :    0.296371
  22 H :    0.290158
  23 H :    0.284609

  Mayer bond orders larger than 0.100000
B(  0-C ,  1-C ) :   1.0358 B(  0-C , 16-O ) :   1.0650 B(  0-C , 17-H ) :   0.9142
B(  0-C , 18-H ) :   0.9187 B(  1-C ,  2-H ) :   0.8580 B(  1-C ,  3-C ) :   1.0572
B(  1-C , 11-O ) :   0.9738 B(  3-C ,  4-H ) :   0.8333 B(  3-C ,  5-C ) :   1.0443
B(  3-C , 15-O ) :   1.0737 B(  5-C ,  6-H ) :   0.8557 B(  5-C ,  7-C ) :   1.0118
B(  5-C , 14-O ) :   1.0415 B(  7-C ,  8-H ) :   0.8868 B(  7-C ,  9-C ) :   1.0305
B(  7-C , 13-O ) :   1.0358 B(  9-C , 10-H ) :   0.9007 B(  9-C , 11-O ) :   1.0469
B(  9-C , 12-O ) :   1.1372 B( 12-O , 19-H ) :   0.8087 B( 13-O , 20-H ) :   0.8457
B( 14-O , 21-H ) :   0.8424 B( 15-O , 22-H ) :   0.8406 B( 16-O , 23-H ) :   0.8344

Dispersion correction           -0.025290207
FINAL SINGLE POINT ENERGY      -685.695545711267

DIPOLE MOMENT
-------------

Method             : SCF
Type of density    : Electron Density
Multiplicity       :   1
Irrep              :   0
Energy             :  -685.8283057437608932 Eh
Relativity type    :
Basis              : AO
                                X                 Y                 Z
Electronic contribution:      1.637050037      -0.157173987      -1.094244564
Nuclear contribution   :     -1.416309762       0.485655948       1.386206032
                        -----------------------------------------
Total Dipole Moment    :      0.220740276       0.328481960       0.291961467
                        -----------------------------------------
Magnitude (a.u.)       :      0.491800941
Magnitude (Debye)      :      1.250058649

Rotational constants in cm-1:             0.040520             0.027366             0.023689
Rotational constants in MHz :          1214.744236           820.420130           710.189699

                             ****ORCA TERMINATED NORMALLY****
TOTAL RUN TIME: 0 days 0 hours 0 minutes 8 seconds 663 msec
