                         Program Version 6.0.1  -  RELEASE   -
|  1> ! pbe def2-sv(p) def2/J RI DEFGRID1 loosescf d4 GCP(DFT/SV(P)) printgap
|  2> %output
|  3>     printlevel normal
|  4> end
|  5> * xyz 0 1
|  6> C -1.8772713845 -0.9784427908 -0.7963954748
|  7> C -1.3147365675 -0.1635584911 0.385631254
|  8> H -2.1105467557 -0.0583555546 1.1325642031
|  9> C -0.8331548097 1.2388078526 -0.0480366586
| 10> H -1.0261652636 1.3922622639 -1.116435536
| 11> C 0.6794292183 1.3613000955 0.1933811857
| 12> H 0.8691580458 1.4267951661 1.2785885901
| 13> C 1.3936192181 0.1184104433 -0.3501540009
| 14> H 1.1217536819 0.0083709002 -1.4169358084
| 15> C 0.9195646405 -1.113377725 0.4411659373
| 16> H 1.6280161785 -1.3022937039 1.256003845
| 17> O -0.3091201053 -0.8755442987 1.0927962856
| 18> O 0.8937666572 -2.2836387662 -0.3064359691
| 19> O 2.780163846 0.2282888139 -0.2217638311
| 20> O 1.2119271074 2.4888282457 -0.458106847
| 21> O -1.5230162643 2.2842165661 0.5900006841
| 22> O -2.1428587475 -2.3001316872 -0.4364570259
| 23> H -1.176106151 -0.9326316538 -1.6480805714
| 24> H -2.8240178628 -0.5373331099 -1.1163511875
| 25> H 0.5701505569 -2.1238839674 -1.2023946315
| 26> H 3.0266147658 1.1175278973 -0.5108877119
| 27> H 0.6085894791 3.2281643377 -0.3128613999
| 28> H -1.4611386728 2.16831317 1.5464201737
| 29> H -1.3805883013 -2.6361111724 0.0609949459
| 30> *
| 31>
| 32>                          ****END OF INPUT****

CARTESIAN COORDINATES (ANGSTROEM)
---------------------------------
  C     -1.877271   -0.978443   -0.796395
  C     -1.314737   -0.163558    0.385631
  H     -2.110547   -0.058356    1.132564
  C     -0.833155    1.238808   -0.048037
  H     -1.026165    1.392262   -1.116436
  C      0.679429    1.361300    0.193381
  H      0.869158    1.426795    1.278589
  C      1.393619    0.118410   -0.350154
  H      1.121754    0.008371   -1.416936
  C      0.919565   -1.113378    0.441166
  H      1.628016   -1.302294    1.256004
  O     -0.309120   -0.875544    1.092796
  O      0.893767   -2.283639   -0.306436
  O      2.780164    0.228289   -0.221764
  O      1.211927    2.488828   -0.458107
  O     -1.523016    2.284217    0.590001
  O     -2.142859   -2.300132   -0.436457
  H     -1.176106   -0.932632   -1.648081
  H     -2.824018   -0.537333   -1.116351
  H      0.570151   -2.123884   -1.202395
  H      3.026615    1.117528   -0.510888
  H      0.608589    3.228164   -0.312861
  H     -1.461139    2.168313    1.546420
  H     -1.380588   -2.636111    0.060995

 Total Charge           Charge          ....    0
 Multiplicity           Mult            ....    1
 Number of Electrons    NEL             ....   96
 Basis Dimension        Dim             ....  192

ORBITAL ENERGIES
----------------

  NO   OCC          E(Eh)            E(eV)
   0   2.0000     -18.780237      -511.0362
   1   2.0000     -18.774540      -510.8812
   2   2.0000     -18.773520      -510.8534
   3   2.0000     -18.770251      -510.7645
   4   2.0000     -18.758097      -510.4338
   5   2.0000     -18.746873      -510.1283
   6   2.0000      -9.995111      -271.9808
   7   2.0000      -9.958451      -270.9832
   8   2.0000      -9.957473      -270.9566
   9   2.0000      -9.955594      -270.9055
  10   2.0000      -9.955204      -270.8949
  11   2.0000      -9.944818      -270.6123
  12   2.0000      -0.993644       -27.0384
  13   2.0000      -0.963158       -26.2089
  14   2.0000      -0.948256       -25.8034
  15   2.0000      -0.932307       -25.3694
  16   2.0000      -0.928201       -25.2576
  17   2.0000      -0.920730       -25.0543
  18   2.0000      -0.718017       -19.5382
  19   2.0000      -0.701237       -19.0816
  20   2.0000      -0.629765       -17.1368
  21   2.0000      -0.603725       -16.4282
  22   2.0000      -0.577586       -15.7169
  23   2.0000      -0.544841       -14.8259
  24   2.0000      -0.510762       -13.8985
  25   2.0000      -0.505200       -13.7472
  26   2.0000      -0.484969       -13.1967
  27   2.0000      -0.467146       -12.7117
  28   2.0000      -0.451750       -12.2928
  29   2.0000      -0.432423       -11.7668
  30   2.0000      -0.424981       -11.5643
  31   2.0000      -0.420225       -11.4349
  32   2.0000      -0.412947       -11.2369
  33   2.0000      -0.392326       -10.6757
  34   2.0000      -0.370280       -10.0758
  35   2.0000      -0.359151        -9.7730
  36   2.0000      -0.337968        -9.1966
  37   2.0000      -0.323734        -8.8092
  38   2.0000      -0.313129        -8.5207
  39   2.0000      -0.301046        -8.1919
  40   2.0000      -0.294120        -8.0034
  41   2.0000      -0.284156        -7.7323
  42   2.0000      -0.265081        -7.2132
  43   2.0000      -0.255409        -6.9500
  44   2.0000      -0.246512        -6.7079
  45   2.0000      -0.232120        -6.3163
  46   2.0000      -0.228567        -6.2196
  47   2.0000      -0.212275        -5.7763
  48   0.0000       0.000405         0.0110
  49   0.0000       0.015604         0.4246
  50   0.0000       0.023474         0.6388
  51   0.0000       0.047195         1.2843
  52   0.0000       0.053517         1.4563

MULLIKEN ATOMIC CHARGES
-----------------------
   0 C :   -0.008001
   1 C :    0.037097
   2 H :    0.073544
   3 C :    0.027244
   4 H :    0.074489
   5 C :    0.054991
   6 H :    0.054029
   7 C :   -0.004692
   8 H :    0.046089
   9 C :    0.236435
  10 H :    0.086023
  11 O :   -0.310986
  12 O :   -0.389892
  13 O :   -0.404585
  14 O :   -0.423996
  15 O :   -0.415846
  16 O :   -0.430234
  17 H :    0.057798
  18 H :    0.103872
  19 H :    0.309532
  20 H :    0.312593
  21 H :    0.309643
  22 H :    0.304364
  23 H :    0.300486
Sum of atomic charges:    0.0000000

LOEWDIN ATOMIC CHARGES
----------------------
   0 C :   -0.144079
   1 C :   -0.079773
   2 H :    0.121164
   3 C :   -0.082065
   4 H :    0.117961
   5 C :   -0.084275
   6 H :    0.104358
   7 C :   -0.084286
   8 H :    0.095852
   9 C :    0.002440
  10 H :    0.122620
  11 O :   -0.146606
  12 O :   -0.289535
  13 O :   -0.309073
  14 O :   -0.324403
  15 O :   -0.310802
  16 O :   -0.331335
  17 H :    0.077670
  18 H :    0.124094
  19 H :    0.283121
  20 H :    0.289075
  21 H :    0.289822
  22 H :    0.286841
  23 H :    0.271214

  Mayer bond orders larger than 0.100000
B(  0-C ,  1-C ) :   1.0270 B(  0-C , 16-O ) :   1.0997 B(  0-C , 17-H ) :   0.8972
B(  0-C , 18-H ) :   0.9128 B(  1-C ,  2-H ) :   0.8843 B(  1-C ,  3-C ) :   0.9537
B(  1-C , 11-O ) :   1.0493 B(  3-C ,  4-H ) :   0.8789 B(  3-C ,  5-C ) :   1.0110
B(  3-C , 15-O ) :   1.0195 B(  5-C ,  6-H ) :   0.8640 B(  5-C ,  7-C ) :   1.0101
B(  5-C , 14-O ) :   1.0748 B(  7-C ,  8-H ) :   0.8669 B(  7-C ,  9-C ) :   0.9932
B(  7-C , 13-O ) :   1.1008 B(  9-C , 10-H ) :   0.8839 B(  9-C , 11-O ) :   1.0286
B(  9-C , 12-O ) :   1.1086 B( 12-O , 19-H ) :   0.8282 B( 13-O , 20-H ) :   0.8316
B( 14-O , 21-H ) :   0.8311 B( 15-O , 22-H ) :   0.8487 B( 16-O , 23-H ) :   0.8163

Dispersion correction           -0.025006744
FINAL SINGLE POINT ENERGY      -685.692411377610

DIPOLE MOMENT
-------------

Method             : SCF
Type of density    : Electron Density
Multiplicity       :   1
Irrep              :   0
Energy             :  -685.8248733404159339 Eh
Relativity type    :
Basis              : AO
                                X                 Y                 Z
Electronic contribution:      1.925999189      -0.511759411       1.888692136
Nuclear contribution   :     -2.007587438       1.635786539      -1.918810208
                        -----------------------------------------
Total Dipole Moment    :     -0.081588249       1.124027128      -0.030118072
                        -----------------------------------------
Magnitude (a.u.)       :      1.127386679
Magnitude (Debye)      :      2.865589207

Rotational constants in cm-1:             0.039353             0.029173             0.019051
Rotational constants in MHz :          1179.764077           874.572788           571.122014

                             ****ORCA TERMINATED NORMALLY****
TOTAL RUN TIME: 0 days 0 hours 0 minutes 9 seconds 40 msec
