                         Program Version 6.0.1  -  RELEASE   -
|  1> ! pbe def2-sv(p) def2/J RI DEFGRID1 loosescf d4 GCP(DFT/SV(P)) printgap
|  2> %output
|  3>     printlevel normal
|  4> end
|  5> * xyz 0 1
|  6> C -2.9703875144 0.6456744465 -0.7520531272
|  7> C -2.2693931862 0.3510744972 0.5755551034
|  8> C -0.8522499722 -0.084309627 0.3334976027
|  9> C -0.5471897494 -1.4263758354 0.1373306231
| 10> C 0.7519939857 -1.8165461089 -0.1277660079
| 11> C 1.764439255 -0.8767879966 -0.2035551614
| 12> C 1.4694727153 0.4667885848 -0.0112075589
| 13> C 0.1620591432 0.8559199146 0.2554551504
| 14> O 2.4272964199 1.4340013534 -0.0738101724
| 15> H -2.9807691151 -0.2428243672 -1.3793168605
| 16> H -2.4476565112 1.4351506898 -1.2869844047
| 17> H -3.9966298474 0.9620085456 -0.5796186862
| 18> H -2.8131745743 -0.4351403598 1.1031056199
| 19> H -2.2798393062 1.2498710527 1.1948480086
| 20> H -1.3310276175 -2.1671221216 0.1959870886
| 21> H 0.9834106167 -2.8610779065 -0.2767247503
| 22> H 2.7820193895 -1.1824723886 -0.4099230052
| 23> H -0.0425826905 1.905148548 0.4027776657
| 24> H 3.2832903772 1.0311843977 -0.2623358544
| 25> *
| 26>
| 27>                          ****END OF INPUT****

CARTESIAN COORDINATES (ANGSTROEM)
---------------------------------
  C     -2.970388    0.645674   -0.752053
  C     -2.269393    0.351074    0.575555
  C     -0.852250   -0.084310    0.333498
  C     -0.547190   -1.426376    0.137331
  C      0.751994   -1.816546   -0.127766
  C      1.764439   -0.876788   -0.203555
  C      1.469473    0.466789   -0.011208
  C      0.162059    0.855920    0.255455
  O      2.427296    1.434001   -0.073810
  H     -2.980769   -0.242824   -1.379317
  H     -2.447657    1.435151   -1.286984
  H     -3.996630    0.962009   -0.579619
  H     -2.813175   -0.435140    1.103106
  H     -2.279839    1.249871    1.194848
  H     -1.331028   -2.167122    0.195987
  H      0.983411   -2.861078   -0.276725
  H      2.782019   -1.182472   -0.409923
  H     -0.042583    1.905149    0.402778
  H      3.283290    1.031184   -0.262336

 Total Charge           Charge          ....    0
 Multiplicity           Mult            ....    1
 Number of Electrons    NEL             ....   66
 Basis Dimension        Dim             ....  146

ORBITAL ENERGIES
----------------

  NO   OCC          E(Eh)            E(eV)
   0   2.0000     -18.778066      -510.9772
   1   2.0000      -9.948452      -270.7111
   2   2.0000      -9.898141      -269.3421
   3   2.0000      -9.890758      -269.1412
   4   2.0000      -9.888427      -269.0778
   5   2.0000      -9.887035      -269.0399
   6   2.0000      -9.880722      -268.8681
   7   2.0000      -9.880197      -268.8538
   8   2.0000      -9.876266      -268.7469
   9   2.0000      -0.960823       -26.1453
  10   2.0000      -0.773158       -21.0387
  11   2.0000      -0.707792       -19.2600
  12   2.0000      -0.664384       -18.0788
  13   2.0000      -0.644694       -17.5430
  14   2.0000      -0.571096       -15.5403
  15   2.0000      -0.544022       -14.8036
  16   2.0000      -0.533646       -14.5212
  17   2.0000      -0.471402       -12.8275
  18   2.0000      -0.443880       -12.0786
  19   2.0000      -0.426772       -11.6131
  20   2.0000      -0.396375       -10.7859
  21   2.0000      -0.383466       -10.4346
  22   2.0000      -0.371509       -10.1093
  23   2.0000      -0.362795        -9.8722
  24   2.0000      -0.345509        -9.4018
  25   2.0000      -0.335057        -9.1174
  26   2.0000      -0.327162        -8.9025
  27   2.0000      -0.305699        -8.3185
  28   2.0000      -0.297021        -8.0824
  29   2.0000      -0.286805        -7.8044
  30   2.0000      -0.283684        -7.7194
  31   2.0000      -0.219164        -5.9638
  32   2.0000      -0.192112        -5.2276
  33   0.0000      -0.030597        -0.8326
  34   0.0000      -0.015419        -0.4196
  35   0.0000       0.025419         0.6917
  36   0.0000       0.046127         1.2552
  37   0.0000       0.062110         1.6901

MULLIKEN ATOMIC CHARGES
-----------------------
   0 C :   -0.269577
   1 C :   -0.132589
   2 C :    0.082113
   3 C :   -0.114891
   4 C :   -0.053391
   5 C :   -0.166073
   6 C :    0.254122
   7 C :   -0.201300
   8 O :   -0.335586
   9 H :    0.101541
  10 H :    0.103261
  11 H :    0.105018
  12 H :    0.086965
  13 H :    0.088049
  14 H :    0.032353
  15 H :    0.048894
  16 H :    0.025819
  17 H :    0.030708
  18 H :    0.314564
Sum of atomic charges:   -0.0000000

LOEWDIN ATOMIC CHARGES
----------------------
   0 C :   -0.332463
   1 C :   -0.215276
   2 C :   -0.028318
   3 C :   -0.149857
   4 C :   -0.114197
   5 C :   -0.183531
   6 C :    0.024821
   7 C :   -0.149917
   8 O :   -0.237633
   9 H :    0.119670
  10 H :    0.120296
  11 H :    0.118064
  12 H :    0.121383
  13 H :    0.121962
  14 H :    0.119409
  15 H :    0.123213
  16 H :    0.118485
  17 H :    0.127584
  18 H :    0.296303

  Mayer bond orders larger than 0.100000
B(  0-C ,  1-C ) :   1.1475 B(  0-C ,  9-H ) :   0.9547 B(  0-C , 10-H ) :   0.9549
B(  0-C , 11-H ) :   0.9489 B(  1-C ,  2-C ) :   1.0622 B(  1-C , 12-H ) :   0.9117
B(  1-C , 13-H ) :   0.9116 B(  2-C ,  3-C ) :   1.3766 B(  2-C ,  7-C ) :   1.3735
B(  3-C ,  4-C ) :   1.3720 B(  3-C , 14-H ) :   0.9640 B(  4-C ,  5-C ) :   1.3642
B(  4-C , 15-H ) :   0.9603 B(  5-C ,  6-C ) :   1.3211 B(  5-C , 16-H ) :   0.9568
B(  6-C ,  7-C ) :   1.3371 B(  6-C ,  8-O ) :   1.1821 B(  7-C , 17-H ) :   0.9667
B(  8-O , 18-H ) :   0.8444

Dispersion correction           -0.018709210
FINAL SINGLE POINT ENERGY      -385.236351265475

DIPOLE MOMENT
-------------

Method             : SCF
Type of density    : Electron Density
Multiplicity       :   1
Irrep              :   0
Energy             :  -385.2956407414467321 Eh
Relativity type    :
Basis              : AO
                                X                 Y                 Z
Electronic contribution:      8.570220775       0.009285613       1.106501741
Nuclear contribution   :     -8.260215141      -0.265146443      -1.219010605
                        -----------------------------------------
Total Dipole Moment    :      0.310005634      -0.255860830      -0.112508863
                        -----------------------------------------
Magnitude (a.u.)       :      0.417404482
Magnitude (Debye)      :      1.060957877

Rotational constants in cm-1:             0.099653             0.039058             0.030170
Rotational constants in MHz :          2987.519197          1170.926913           904.483876

                             ****ORCA TERMINATED NORMALLY****
TOTAL RUN TIME: 0 days 0 hours 0 minutes 7 seconds 791 msec
