                         Program Version 6.0.1  -  RELEASE   -
|  1> ! pbe def2-sv(p) def2/J RI DEFGRID1 loosescf d4 GCP(DFT/SV(P)) printgap
|  2> %output
|  3>     printlevel normal
|  4> end
|  5> * xyz 0 1
|  6> C -1.8233312533 -0.7890884103 -1.0102094799
|  7> C -1.2671411632 -0.6388933646 0.4318628907
|  8> H -2.0448158523 -0.9547408347 1.1416141809
|  9> C -0.8726849484 0.8051859612 0.7731597793
| 10> H -1.7320797273 1.4611964024 0.5707937938
| 11> C 0.3048891712 1.2865811731 -0.0853842863
| 12> H 0.8679453591 2.0168218194 0.5115571795
| 13> C 1.2613013339 0.1330804455 -0.4237381618
| 14> H 1.0124408549 -0.273625512 -1.4179404983
| 15> C 1.1119434936 -1.0070592298 0.5917057463
| 16> H 1.4011618139 -0.6301061502 1.5923498076
| 17> O -0.1891298897 -1.5400341083 0.6427639461
| 18> O 1.9758797023 -2.0280258251 0.1958239307
| 19> O 2.575650577 0.6250633475 -0.4276572076
| 20> O -0.214301913 1.8886291859 -1.250617836
| 21> O -0.4782130476 0.9236285481 2.1201394795
| 22> O -2.5933513301 0.2964792829 -1.4365079323
| 23> H -2.4766635462 -1.664366985 -1.0397059518
| 24> H -0.9847444017 -0.9736554953 -1.6921507546
| 25> H 1.6688107063 -2.8456458158 0.6032568933
| 26> H 3.1715818709 -0.1346008004 -0.4273734407
| 27> H 0.5270917485 2.2291075171 -1.7642798288
| 28> H -1.1868405995 0.5968482492 2.6867492821
| 29> H -1.9993461182 1.0466497124 -1.5933387068
| 30> *
| 31>
| 32>                          ****END OF INPUT****

CARTESIAN COORDINATES (ANGSTROEM)
---------------------------------
  C     -1.823331   -0.789088   -1.010209
  C     -1.267141   -0.638893    0.431863
  H     -2.044816   -0.954741    1.141614
  C     -0.872685    0.805186    0.773160
  H     -1.732080    1.461196    0.570794
  C      0.304889    1.286581   -0.085384
  H      0.867945    2.016822    0.511557
  C      1.261301    0.133080   -0.423738
  H      1.012441   -0.273626   -1.417940
  C      1.111943   -1.007059    0.591706
  H      1.401162   -0.630106    1.592350
  O     -0.189130   -1.540034    0.642764
  O      1.975880   -2.028026    0.195824
  O      2.575651    0.625063   -0.427657
  O     -0.214302    1.888629   -1.250618
  O     -0.478213    0.923629    2.120139
  O     -2.593351    0.296479   -1.436508
  H     -2.476664   -1.664367   -1.039706
  H     -0.984744   -0.973655   -1.692151
  H      1.668811   -2.845646    0.603257
  H      3.171582   -0.134601   -0.427373
  H      0.527092    2.229108   -1.764280
  H     -1.186841    0.596848    2.686749
  H     -1.999346    1.046650   -1.593339

 Total Charge           Charge          ....    0
 Multiplicity           Mult            ....    1
 Number of Electrons    NEL             ....   96
 Basis Dimension        Dim             ....  192

ORBITAL ENERGIES
----------------

  NO   OCC          E(Eh)            E(eV)
   0   2.0000     -18.777693      -510.9670
   1   2.0000     -18.769629      -510.7476
   2   2.0000     -18.763022      -510.5678
   3   2.0000     -18.762608      -510.5565
   4   2.0000     -18.754332      -510.3313
   5   2.0000     -18.736612      -509.8491
   6   2.0000      -9.983538      -271.6659
   7   2.0000      -9.951824      -270.8029
   8   2.0000      -9.951170      -270.7851
   9   2.0000      -9.947232      -270.6779
  10   2.0000      -9.941880      -270.5323
  11   2.0000      -9.927781      -270.1487
  12   2.0000      -0.984992       -26.8030
  13   2.0000      -0.956225       -26.0202
  14   2.0000      -0.942419       -25.6445
  15   2.0000      -0.930615       -25.3233
  16   2.0000      -0.917319       -24.9615
  17   2.0000      -0.909881       -24.7591
  18   2.0000      -0.710802       -19.3419
  19   2.0000      -0.686938       -18.6925
  20   2.0000      -0.623166       -16.9572
  21   2.0000      -0.587298       -15.9812
  22   2.0000      -0.569004       -15.4834
  23   2.0000      -0.525705       -14.3052
  24   2.0000      -0.507925       -13.8213
  25   2.0000      -0.497058       -13.5256
  26   2.0000      -0.482485       -13.1291
  27   2.0000      -0.456277       -12.4159
  28   2.0000      -0.445534       -12.1236
  29   2.0000      -0.428268       -11.6538
  30   2.0000      -0.420314       -11.4373
  31   2.0000      -0.401432       -10.9235
  32   2.0000      -0.388164       -10.5625
  33   2.0000      -0.379680       -10.3316
  34   2.0000      -0.367532       -10.0011
  35   2.0000      -0.357071        -9.7164
  36   2.0000      -0.333621        -9.0783
  37   2.0000      -0.330359        -8.9895
  38   2.0000      -0.316263        -8.6059
  39   2.0000      -0.289941        -7.8897
  40   2.0000      -0.283439        -7.7128
  41   2.0000      -0.274445        -7.4680
  42   2.0000      -0.249910        -6.8004
  43   2.0000      -0.243618        -6.6292
  44   2.0000      -0.237118        -6.4523
  45   2.0000      -0.231262        -6.2930
  46   2.0000      -0.216204        -5.8832
  47   2.0000      -0.195494        -5.3197
  48   0.0000       0.011711         0.3187
  49   0.0000       0.024037         0.6541
  50   0.0000       0.032791         0.8923
  51   0.0000       0.046814         1.2739
  52   0.0000       0.059414         1.6167

MULLIKEN ATOMIC CHARGES
-----------------------
   0 C :    0.046324
   1 C :    0.019553
   2 H :    0.056663
   3 C :   -0.025024
   4 H :    0.083920
   5 C :    0.133921
   6 H :    0.083678
   7 C :   -0.003656
   8 H :    0.057575
   9 C :    0.207174
  10 H :    0.054251
  11 O :   -0.326308
  12 O :   -0.402908
  13 O :   -0.423205
  14 O :   -0.429732
  15 O :   -0.409845
  16 O :   -0.437054
  17 H :    0.086290
  18 H :    0.078614
  19 H :    0.307922
  20 H :    0.309666
  21 H :    0.321112
  22 H :    0.304487
  23 H :    0.306583
Sum of atomic charges:    0.0000000

LOEWDIN ATOMIC CHARGES
----------------------
   0 C :   -0.137286
   1 C :   -0.070935
   2 H :    0.108165
   3 C :   -0.076703
   4 H :    0.112547
   5 C :   -0.053891
   6 H :    0.122837
   7 C :   -0.093454
   8 H :    0.104841
   9 C :   -0.004378
  10 H :    0.089420
  11 O :   -0.155920
  12 O :   -0.317044
  13 O :   -0.320178
  14 O :   -0.308644
  15 O :   -0.309928
  16 O :   -0.338419
  17 H :    0.115420
  18 H :    0.097367
  19 H :    0.290912
  20 H :    0.288028
  21 H :    0.298973
  22 H :    0.288993
  23 H :    0.269277

  Mayer bond orders larger than 0.100000
B(  0-C ,  1-C ) :   0.9924 B(  0-C , 16-O ) :   1.1263 B(  0-C , 17-H ) :   0.9203
B(  0-C , 18-H ) :   0.9118 B(  1-C ,  2-H ) :   0.8761 B(  1-C ,  3-C ) :   1.0576
B(  1-C , 11-O ) :   0.9849 B(  3-C ,  4-H ) :   0.8786 B(  3-C ,  5-C ) :   1.0298
B(  3-C , 15-O ) :   1.0239 B(  5-C ,  6-H ) :   0.8546 B(  5-C ,  7-C ) :   1.0255
B(  5-C , 14-O ) :   1.0190 B(  7-C ,  8-H ) :   0.8419 B(  7-C ,  9-C ) :   1.0642
B(  7-C , 13-O ) :   1.0675 B(  9-C , 10-H ) :   0.8821 B(  9-C , 11-O ) :   1.0304
B(  9-C , 12-O ) :   1.1296 B( 12-O , 19-H ) :   0.8396 B( 13-O , 20-H ) :   0.8352
B( 14-O , 21-H ) :   0.8400 B( 15-O , 22-H ) :   0.8458 B( 16-O , 23-H ) :   0.8025

Dispersion correction           -0.025452448
FINAL SINGLE POINT ENERGY      -685.689579989756

DIPOLE MOMENT
-------------

Method             : SCF
Type of density    : Electron Density
Multiplicity       :   1
Irrep              :   0
Energy             :  -685.8220632474124159 Eh
Relativity type    :
Basis              : AO
                                X                 Y                 Z
Electronic contribution:      1.915019458      -0.147376353       1.101405255
Nuclear contribution   :     -1.649733235      -0.115864678      -0.779555847
                        -----------------------------------------
Total Dipole Moment    :      0.265286223      -0.263241032       0.321849408
                        -----------------------------------------
Magnitude (a.u.)       :      0.493213607
Magnitude (Debye)      :      1.253649360

Rotational constants in cm-1:             0.039389             0.027182             0.024068
Rotational constants in MHz :          1180.853665           814.902686           721.546827

                             ****ORCA TERMINATED NORMALLY****
TOTAL RUN TIME: 0 days 0 hours 0 minutes 10 seconds 67 msec
