                         Program Version 6.0.0  -   RELEASE  -
|  1> ! r2SCAN-3c DEF2-TZVP FREQ
|  2> * xyzfile 0 1 censo.xyz
|  3>
|  4>                          ****END OF INPUT****

CARTESIAN COORDINATES (ANGSTROEM)
---------------------------------
  C      0.024515   -2.445377    0.094117
  C      1.213504   -1.736032    0.004727
  C      1.181152   -0.341091   -0.053869
  C     -0.024189    0.345735   -0.026154
  C     -1.209750   -0.383147    0.063685
  C     -1.194528   -1.772173    0.125857
  C     -2.498944    0.382087    0.113146
  F     -2.615551    1.242727   -0.931479
  F     -3.586212   -0.416711    0.090031
  F     -2.588752    1.140068    1.239373
  C      2.483595    0.397101   -0.145273
  F      3.176324    0.060976   -1.265240
  F      2.328581    1.737732   -0.165890
  F      3.297438    0.107974    0.904318
  H      0.043248   -3.528382    0.140929
  H      2.163123   -2.261170   -0.018500
  H     -0.047182    1.428687   -0.071639
  H     -2.120992   -2.329728    0.197477

 Total Charge           Charge          ....    0
 Multiplicity           Mult            ....    1
 Number of Electrons    NEL             ....  106
 Basis Dimension        Dim             ....  458

ORBITAL ENERGIES
----------------

  NO   OCC          E(Eh)            E(eV)
   0   2.0000     -24.531458      -667.5349
   1   2.0000     -24.530726      -667.5150
   2   2.0000     -24.525235      -667.3656
   3   2.0000     -24.525226      -667.3653
   4   2.0000     -24.525205      -667.3648
   5   2.0000     -24.524090      -667.3344
   6   2.0000     -10.294480      -280.1270
   7   2.0000     -10.294339      -280.1232
   8   2.0000     -10.090589      -274.5789
   9   2.0000     -10.090268      -274.5702
  10   2.0000     -10.083370      -274.3824
  11   2.0000     -10.080945      -274.3165
  12   2.0000     -10.080927      -274.3160
  13   2.0000     -10.076414      -274.1932
  14   2.0000      -1.277085       -34.7513
  15   2.0000      -1.276990       -34.7487
  16   2.0000      -1.194557       -32.5055
  17   2.0000      -1.194274       -32.4979
  18   2.0000      -1.188526       -32.3414
  19   2.0000      -1.187886       -32.3240
  20   2.0000      -0.874660       -23.8007
  21   2.0000      -0.791214       -21.5300
  22   2.0000      -0.769381       -20.9359
  23   2.0000      -0.690515       -18.7899
  24   2.0000      -0.683603       -18.6018
  25   2.0000      -0.620284       -16.8788
  26   2.0000      -0.615820       -16.7573
  27   2.0000      -0.573758       -15.6127
  28   2.0000      -0.564568       -15.3627
  29   2.0000      -0.560570       -15.2539
  30   2.0000      -0.559887       -15.2353
  31   2.0000      -0.554388       -15.0857
  32   2.0000      -0.505923       -13.7669
  33   2.0000      -0.497241       -13.5306
  34   2.0000      -0.465229       -12.6595
  35   2.0000      -0.443620       -12.0715
  36   2.0000      -0.436524       -11.8784
  37   2.0000      -0.435776       -11.8581
  38   2.0000      -0.434857       -11.8331
  39   2.0000      -0.430554       -11.7160
  40   2.0000      -0.407980       -11.1017
  41   2.0000      -0.399965       -10.8836
  42   2.0000      -0.398939       -10.8557
  43   2.0000      -0.396414       -10.7870
  44   2.0000      -0.391097       -10.6423
  45   2.0000      -0.389114       -10.5883
  46   2.0000      -0.377277       -10.2662
  47   2.0000      -0.377052       -10.2601
  48   2.0000      -0.375283       -10.2120
  49   2.0000      -0.353116        -9.6088
  50   2.0000      -0.348224        -9.4757
  51   2.0000      -0.280674        -7.6375
  52   2.0000      -0.278296        -7.5728
  53   0.0000      -0.087411        -2.3786
  54   0.0000      -0.078535        -2.1370
  55   0.0000       0.042149         1.1469
  56   0.0000       0.048546         1.3210
  57   0.0000       0.074577         2.0293

MULLIKEN ATOMIC CHARGES
-----------------------
   0 C :   -0.061089
   1 C :   -0.218730
   2 C :    0.136691
   3 C :   -0.312964
   4 C :    0.166412
   5 C :   -0.178223
   6 C :    0.475997
   7 F :   -0.175016
   8 F :   -0.172912
   9 F :   -0.173794
  10 C :    0.481495
  11 F :   -0.174760
  12 F :   -0.171464
  13 F :   -0.175268
  14 H :    0.129204
  15 H :    0.135114
  16 H :    0.147490
  17 H :    0.141815
Sum of atomic charges:   -0.0000000

LOEWDIN ATOMIC CHARGES
----------------------
   0 C :   -0.114265
   1 C :   -0.074136
   2 C :   -0.122881
   3 C :   -0.041189
   4 C :   -0.123020
   5 C :   -0.076940
   6 C :   -0.601967
   7 F :    0.183996
   8 F :    0.196541
   9 F :    0.180761
  10 C :   -0.601648
  11 F :    0.182288
  12 F :    0.197378
  13 F :    0.182349
  14 H :    0.151148
  15 H :    0.158806
  16 H :    0.165562
  17 H :    0.157216

  Mayer bond orders larger than 0.100000
B(  0-C ,  1-C ) :   1.4211 B(  0-C ,  5-C ) :   1.3606 B(  0-C , 14-H ) :   0.9662
B(  1-C ,  2-C ) :   1.3288 B(  1-C , 15-H ) :   0.9596 B(  2-C ,  3-C ) :   1.3545
B(  2-C , 10-C ) :   0.9771 B(  3-C ,  4-C ) :   1.3107 B(  3-C , 16-H ) :   0.9590
B(  4-C ,  5-C ) :   1.3415 B(  4-C ,  6-C ) :   0.9769 B(  5-C , 17-H ) :   0.9592
B(  6-C ,  7-F ) :   1.1219 B(  6-C ,  8-F ) :   1.1235 B(  6-C ,  9-F ) :   1.1273
B( 10-C , 11-F ) :   1.1248 B( 10-C , 12-F ) :   1.1220 B( 10-C , 13-F ) :   1.1227

Dispersion correction           -0.006481881
FINAL SINGLE POINT ENERGY      -906.325891913979

DIPOLE MOMENT
-------------

Method             : SCF
Type of density    : Electron Density
Multiplicity       :   1
Irrep              :   0
Energy             :  -906.3342306138790718 Eh
Relativity type    :
Basis              : AO
                                X                 Y                 Z
Electronic contribution:     -0.049431941       8.765757448      -0.317588650
Nuclear contribution   :      0.024599985      -9.864066808       0.351647940
                        -----------------------------------------
Total Dipole Moment    :     -0.024831956      -1.098309360       0.034059290
                        -----------------------------------------
Magnitude (a.u.)       :      1.099117878
Magnitude (Debye)      :      2.793735625

VIBRATIONAL FREQUENCIES
-----------------------

Scaling factor for frequencies =  1.000000000  (already applied!)

     0:       0.00 cm**-1
     1:       0.00 cm**-1
     2:       0.00 cm**-1
     3:       0.00 cm**-1
     4:       0.00 cm**-1
     5:       0.00 cm**-1
     6:      47.17 cm**-1
     7:      52.65 cm**-1
     8:     118.02 cm**-1
     9:     123.74 cm**-1
    10:     150.85 cm**-1
    11:     234.47 cm**-1
    12:     286.35 cm**-1
    13:     310.22 cm**-1
    14:     337.39 cm**-1
    15:     350.94 cm**-1
    16:     388.84 cm**-1
    17:     435.20 cm**-1
    18:     454.94 cm**-1
    19:     500.26 cm**-1
    20:     561.67 cm**-1
    21:     563.51 cm**-1
    22:     586.99 cm**-1
    23:     659.64 cm**-1
    24:     669.68 cm**-1
    25:     678.17 cm**-1
    26:     709.78 cm**-1
    27:     743.94 cm**-1
    28:     818.68 cm**-1
    29:     832.40 cm**-1
    30:     928.16 cm**-1
    31:     939.89 cm**-1
    32:     983.28 cm**-1
    33:    1022.82 cm**-1
    34:    1075.69 cm**-1
    35:    1086.65 cm**-1
    36:    1092.36 cm**-1
    37:    1095.30 cm**-1
    38:    1104.01 cm**-1
    39:    1147.41 cm**-1
    40:    1161.03 cm**-1
    41:    1201.10 cm**-1
    42:    1281.00 cm**-1
    43:    1327.92 cm**-1
    44:    1353.26 cm**-1
    45:    1370.23 cm**-1
    46:    1474.03 cm**-1
    47:    1518.74 cm**-1
    48:    1631.64 cm**-1
    49:    1649.86 cm**-1
    50:    3175.83 cm**-1
    51:    3188.66 cm**-1
    52:    3198.27 cm**-1
    53:    3202.53 cm**-1

IR SPECTRUM
-----------

 Mode   freq       eps      Int      T**2         TX        TY        TZ
       cm**-1   L/(mol*cm) km/mol    a.u.
----------------------------------------------------------------------------
  6:     47.17   0.000075    0.38  0.000495  (-0.002603 -0.002097 -0.021996)
  7:     52.65   0.000009    0.04  0.000053  (-0.000803 -0.001637  0.007022)
  8:    118.02   0.000012    0.06  0.000032  ( 0.000297  0.000241 -0.005673)
  9:    123.74   0.000236    1.20  0.000596  ( 0.003151  0.024183 -0.001280)
 10:    150.85   0.000000    0.00  0.000001  (-0.000579  0.000472  0.000387)
 11:    234.47   0.000063    0.32  0.000084  ( 0.004064 -0.008223 -0.000153)
 12:    286.35   0.000204    1.03  0.000222  (-0.008017 -0.012529  0.000915)
 13:    310.22   0.000006    0.03  0.000006  (-0.002467  0.000413  0.000052)
 14:    337.39   0.000079    0.40  0.000073  ( 0.003561 -0.000716 -0.007711)
 15:    350.94   0.000944    4.77  0.000840  (-0.028361  0.005919  0.000563)
 16:    388.84   0.000763    3.85  0.000612  ( 0.007328 -0.023627  0.000480)
 17:    435.20   0.000572    2.89  0.000410  ( 0.019380  0.005758 -0.001141)
 18:    454.94   0.000074    0.37  0.000051  ( 0.001802 -0.000087  0.006877)
 19:    500.26   0.000003    0.02  0.000002  ( 0.001009 -0.000801  0.000603)
 20:    561.67   0.000097    0.49  0.000054  (-0.003326  0.006491  0.000913)
 21:    563.51   0.000195    0.99  0.000108  (-0.001375  0.000302 -0.010307)
 22:    586.99   0.000045    0.23  0.000024  ( 0.003890  0.002991 -0.000241)
 23:    659.64   0.001281    6.47  0.000606  ( 0.000030  0.024609 -0.000586)
 24:    669.68   0.000034    0.17  0.000016  (-0.003591  0.001455  0.000865)
 25:    678.17   0.007287   36.83  0.003353  (-0.057785 -0.001212  0.003543)
 26:    709.78   0.005583   28.21  0.002455  ( 0.004071  0.001705  0.049348)
 27:    743.94   0.000044    0.22  0.000018  ( 0.000038  0.004254  0.000582)
 28:    818.68   0.008325   42.07  0.003173  (-0.001823 -0.002856 -0.056232)
 29:    832.40   0.006700   33.86  0.002512  ( 0.049991 -0.000976 -0.003419)
 30:    928.16   0.006354   32.11  0.002136  ( 0.001311  0.002953  0.046109)
 31:    939.89   0.000095    0.48  0.000032  (-0.000769  0.000290  0.005565)
 32:    983.28   0.000155    0.79  0.000049  (-0.000362  0.000021 -0.007013)
 33:   1022.82   0.000222    1.12  0.000068  ( 0.001122  0.008147 -0.000026)
 34:   1075.69   0.023529  118.91  0.006826  ( 0.007840 -0.081246 -0.012787)
 35:   1086.65   0.004936   24.95  0.001418  (-0.035902 -0.010931  0.003029)
 36:   1092.36   0.002130   10.76  0.000608  (-0.000209  0.008663 -0.023093)
 37:   1095.30   0.095575  483.00  0.027230  ( 0.007776 -0.005413  0.164744)
 38:   1104.01   0.016546   83.62  0.004677  (-0.018669  0.064049  0.015042)
 39:   1147.41   0.027838  140.68  0.007571  ( 0.086896 -0.002462 -0.003752)
 40:   1161.03   0.034891  176.32  0.009378  ( 0.011503 -0.096094  0.003399)
 41:   1201.10   0.000484    2.45  0.000126  ( 0.009809  0.005435  0.000228)
 42:   1281.00   0.108160  546.59  0.026349  ( 0.161661  0.013180 -0.006365)
 43:   1327.92   0.007487   37.84  0.001759  (-0.038393 -0.016719  0.002430)
 44:   1353.26   0.021911  110.73  0.005053  ( 0.007190 -0.070635  0.003413)
 45:   1370.23   0.008769   44.31  0.001997  ( 0.004476 -0.044412  0.002138)
 46:   1474.03   0.000750    3.79  0.000159  ( 0.002526  0.012334 -0.000512)
 47:   1518.74   0.000002    0.01  0.000000  (-0.000658  0.000206 -0.000042)
 48:   1631.64   0.000433    2.19  0.000083  ( 0.001138  0.009013 -0.000562)
 49:   1649.86   0.002075   10.48  0.000392  ( 0.019789 -0.000519 -0.000746)
 50:   3175.83   0.000229    1.16  0.000023  (-0.002299 -0.004143  0.000280)
 51:   3188.66   0.000440    2.23  0.000043  ( 0.002293 -0.006151  0.000089)
 52:   3198.27   0.000191    0.97  0.000019  (-0.001559 -0.004011  0.000386)
 53:   3202.53   0.000335    1.69  0.000033  ( 0.000176  0.005705 -0.000288)

--------------------------
THERMOCHEMISTRY AT 298.15K
--------------------------

Temperature         ...   298.15 K
Pressure            ...     1.00 atm
Total Mass          ...   214.11 AMU
Quasi RRHO          ...     True
Cut-Off Frequency   ...     1.00 cm^-1

Throughout the following assumptions are being made:
  (1) The electronic state is orbitally nondegenerate
  (2) There are no thermally accessible electronically excited states
  (3) Hindered rotations indicated by low frequency modes are not
      treated as such but are treated as vibrations and this may
      cause some error
  (4) All equations used are the standard statistical mechanics
      equations for an ideal gas
  (5) All vibrations are strictly harmonic

freq.      47.17  E(vib)   ...       0.53
freq.      52.65  E(vib)   ...       0.52
freq.     118.02  E(vib)   ...       0.44
freq.     123.74  E(vib)   ...       0.43
freq.     150.85  E(vib)   ...       0.40
freq.     234.47  E(vib)   ...       0.32
freq.     286.35  E(vib)   ...       0.27
freq.     310.22  E(vib)   ...       0.26
freq.     337.39  E(vib)   ...       0.24
freq.     350.94  E(vib)   ...       0.23
freq.     388.84  E(vib)   ...       0.20
freq.     435.20  E(vib)   ...       0.17
freq.     454.94  E(vib)   ...       0.16
freq.     500.26  E(vib)   ...       0.14
freq.     561.67  E(vib)   ...       0.11
freq.     563.51  E(vib)   ...       0.11
freq.     586.99  E(vib)   ...       0.10
freq.     659.64  E(vib)   ...       0.08
freq.     669.68  E(vib)   ...       0.08
freq.     678.17  E(vib)   ...       0.08
freq.     709.78  E(vib)   ...       0.07
freq.     743.94  E(vib)   ...       0.06
freq.     818.68  E(vib)   ...       0.05
freq.     832.40  E(vib)   ...       0.04
freq.     928.16  E(vib)   ...       0.03
freq.     939.89  E(vib)   ...       0.03
freq.     983.28  E(vib)   ...       0.02
freq.    1022.82  E(vib)   ...       0.02
freq.    1075.69  E(vib)   ...       0.02
freq.    1086.65  E(vib)   ...       0.02
freq.    1092.36  E(vib)   ...       0.02
freq.    1095.30  E(vib)   ...       0.02
freq.    1104.01  E(vib)   ...       0.02
freq.    1147.41  E(vib)   ...       0.01
freq.    1161.03  E(vib)   ...       0.01
freq.    1201.10  E(vib)   ...       0.01
freq.    1281.00  E(vib)   ...       0.01
freq.    1327.92  E(vib)   ...       0.01
freq.    1353.26  E(vib)   ...       0.01
freq.    1370.23  E(vib)   ...       0.01
freq.    1474.03  E(vib)   ...       0.00
freq.    1518.74  E(vib)   ...       0.00
freq.    1631.64  E(vib)   ...       0.00
freq.    1649.86  E(vib)   ...       0.00
freq.    3175.83  E(vib)   ...       0.00
freq.    3188.66  E(vib)   ...       0.00
freq.    3198.27  E(vib)   ...       0.00
freq.    3202.53  E(vib)   ...       0.00

------------
INNER ENERGY
------------

The inner energy is: U= E(el) + E(ZPE) + E(vib) + E(rot) + E(trans)
    E(el)   - is the total energy from the electronic structure calculation
              = E(kin-el) + E(nuc-el) + E(el-el) + E(nuc-nuc)
    E(ZPE)  - the the zero temperature vibrational energy from the frequency calculation
    E(vib)  - the the finite temperature correction to E(ZPE) due to population
              of excited vibrational states
    E(rot)  - is the rotational thermal energy
    E(trans)- is the translational thermal energy

Summary of contributions to the inner energy U:
Electronic energy                ...   -906.32589191 Eh
Zero point energy                ...      0.10895376 Eh      68.37 kcal/mol
Thermal vibrational correction   ...      0.00853818 Eh       5.36 kcal/mol
Thermal rotational correction    ...      0.00141627 Eh       0.89 kcal/mol
Thermal translational correction ...      0.00141627 Eh       0.89 kcal/mol
-----------------------------------------------------------------------
Total thermal energy                   -906.20556743 Eh

Summary of corrections to the electronic energy:
(perhaps to be used in another calculation)
Total thermal correction                  0.01137073 Eh       7.14 kcal/mol
Non-thermal (ZPE) correction              0.10895376 Eh      68.37 kcal/mol
-----------------------------------------------------------------------
Total correction                          0.12032448 Eh      75.50 kcal/mol

--------
ENTHALPY
--------

The enthalpy is H = U + kB*T
                kB is Boltzmann's constant
Total thermal energy              ...   -906.20556743 Eh
Thermal Enthalpy correction       ...      0.00094421 Eh       0.59 kcal/mol
-----------------------------------------------------------------------
Total Enthalpy                    ...   -906.20462322 Eh

Note: Only C1 symmetry has been detected, increase convergence thresholds
      if your molecule has a higher symmetry. Symmetry factor of 1.0 is
      used for the rotational entropy correction.

Note: Rotational entropy computed according to Herzberg
Infrared and Raman Spectra, Chapter V,1, Van Nostrand Reinhold, 1945
Point Group:  C1, Symmetry Number:   1
Rotational constants in cm-1:     0.043870     0.012740     0.011032

Vibrational entropy computed according to the QRRHO of S. Grimme
Chem.Eur.J. 2012 18 9955 using a reference frequency of 100.0 cm-1

-------
ENTROPY
-------

The entropy contributions are T*S = T*(S(el)+S(vib)+S(rot)+S(trans))
     S(el)   - electronic entropy
     S(vib)  - vibrational entropy
     S(rot)  - rotational entropy
     S(trans)- translational entropy
The entropies will be listed as multiplied by the temperature to get
units of energy

Electronic entropy                ...      0.00000000 Eh      0.00 kcal/mol
Vibrational entropy               ...      0.01457598 Eh      9.15 kcal/mol
Rotational entropy                ...      0.01517423 Eh      9.52 kcal/mol
Translational entropy             ...      0.01994946 Eh     12.52 kcal/mol
-----------------------------------------------------------------------
Final entropy term                ...      0.04969967 Eh     31.19 kcal/mol

In case the symmetry of your molecule has not been determined correctly
or in case you have a reason to use a different symmetry number we print
out the resulting rotational entropy values for sn=1,12:

 non-linear molecules -----------------------------------
|  sn= 1 | S(rot)=       0.01517423 Eh      9.52 kcal/mol|
|  sn= 2 | S(rot)=       0.01451978 Eh      9.11 kcal/mol|
|  sn= 3 | S(rot)=       0.01413694 Eh      8.87 kcal/mol|
|  sn= 4 | S(rot)=       0.01386532 Eh      8.70 kcal/mol|
|  sn= 5 | S(rot)=       0.01365463 Eh      8.57 kcal/mol|
|  sn= 6 | S(rot)=       0.01348249 Eh      8.46 kcal/mol|
|  sn= 7 | S(rot)=       0.01333694 Eh      8.37 kcal/mol|
|  sn= 8 | S(rot)=       0.01321086 Eh      8.29 kcal/mol|
|  sn= 9 | S(rot)=       0.01309966 Eh      8.22 kcal/mol|
|  sn=10 | S(rot)=       0.01300018 Eh      8.16 kcal/mol|
|  sn=11 | S(rot)=       0.01291019 Eh      8.10 kcal/mol|
|  sn=12 | S(rot)=       0.01282803 Eh      8.05 kcal/mol|

                             ****ORCA TERMINATED NORMALLY****
TOTAL RUN TIME: 0 days 0 hours 19 minutes 31 seconds 762 msec
