                         Program Version 6.0.0  -   RELEASE  -
|  1> ! r2SCAN-3c DEF2-TZVP FREQ
|  2> * xyzfile 0 1 vacuum_censo.xyz
|  3>
|  4>                          ****END OF INPUT****

CARTESIAN COORDINATES (ANGSTROEM)
---------------------------------
  C     -0.004357   -2.339442    0.785970
  C      1.201178   -1.681409    0.575275
  C      1.195602   -0.364677    0.120691
  C     -0.003793    0.296609   -0.117017
  C     -1.204434   -0.372884    0.100070
  C     -1.211165   -1.689602    0.549708
  C     -2.486088    0.364653   -0.174119
  F     -2.588709    0.706977   -1.481770
  F     -3.577348   -0.365325    0.137901
  F     -2.552724    1.517023    0.535932
  C      2.485905    0.382333   -0.077333
  F      2.455871    1.145326   -1.194176
  F      2.736297    1.218323    0.961600
  F      3.545186   -0.449153   -0.181697
  H     -0.004399   -3.365891    1.135535
  H      2.141987   -2.187407    0.757109
  H     -0.004330    1.321967   -0.471336
  H     -2.151685   -2.201886    0.713045

 Total Charge           Charge          ....    0
 Multiplicity           Mult            ....    1
 Number of Electrons    NEL             ....  106
 Basis Dimension        Dim             ....  458

ORBITAL ENERGIES
----------------

  NO   OCC          E(Eh)            E(eV)
   0   2.0000     -24.531638      -667.5398
   1   2.0000     -24.530661      -667.5132
   2   2.0000     -24.527840      -667.4364
   3   2.0000     -24.526190      -667.3916
   4   2.0000     -24.525844      -667.3821
   5   2.0000     -24.525004      -667.3593
   6   2.0000     -10.294459      -280.1265
   7   2.0000     -10.294456      -280.1264
   8   2.0000     -10.089013      -274.5360
   9   2.0000     -10.088910      -274.5332
  10   2.0000     -10.081866      -274.3415
  11   2.0000     -10.079070      -274.2654
  12   2.0000     -10.078967      -274.2626
  13   2.0000     -10.074964      -274.1537
  14   2.0000      -1.278495       -34.7896
  15   2.0000      -1.278423       -34.7877
  16   2.0000      -1.195783       -32.5389
  17   2.0000      -1.195523       -32.5318
  18   2.0000      -1.190631       -32.3987
  19   2.0000      -1.190503       -32.3952
  20   2.0000      -0.873275       -23.7630
  21   2.0000      -0.789317       -21.4784
  22   2.0000      -0.768151       -20.9024
  23   2.0000      -0.689116       -18.7518
  24   2.0000      -0.683830       -18.6080
  25   2.0000      -0.619816       -16.8660
  26   2.0000      -0.615456       -16.7474
  27   2.0000      -0.574062       -15.6210
  28   2.0000      -0.565639       -15.3918
  29   2.0000      -0.561986       -15.2924
  30   2.0000      -0.561492       -15.2790
  31   2.0000      -0.554581       -15.0909
  32   2.0000      -0.506890       -13.7932
  33   2.0000      -0.496487       -13.5101
  34   2.0000      -0.464524       -12.6403
  35   2.0000      -0.441553       -12.0153
  36   2.0000      -0.437509       -11.9052
  37   2.0000      -0.436017       -11.8646
  38   2.0000      -0.433778       -11.8037
  39   2.0000      -0.432739       -11.7754
  40   2.0000      -0.409007       -11.1297
  41   2.0000      -0.401155       -10.9160
  42   2.0000      -0.400309       -10.8930
  43   2.0000      -0.398072       -10.8321
  44   2.0000      -0.391058       -10.6412
  45   2.0000      -0.387249       -10.5376
  46   2.0000      -0.378421       -10.2974
  47   2.0000      -0.378216       -10.2918
  48   2.0000      -0.375073       -10.2062
  49   2.0000      -0.350271        -9.5313
  50   2.0000      -0.347283        -9.4501
  51   2.0000      -0.280077        -7.6213
  52   2.0000      -0.276229        -7.5166
  53   0.0000      -0.083197        -2.2639
  54   0.0000      -0.079785        -2.1711
  55   0.0000       0.043289         1.1780
  56   0.0000       0.052022         1.4156
  57   0.0000       0.078090         2.1249

MULLIKEN ATOMIC CHARGES
-----------------------
   0 C :   -0.047352
   1 C :   -0.190895
   2 C :    0.134876
   3 C :   -0.332602
   4 C :    0.144985
   5 C :   -0.183536
   6 C :    0.482113
   7 F :   -0.172008
   8 F :   -0.173275
   9 F :   -0.173038
  10 C :    0.475982
  11 F :   -0.172922
  12 F :   -0.169683
  13 F :   -0.173629
  14 H :    0.128680
  15 H :    0.140199
  16 H :    0.141258
  17 H :    0.140848
Sum of atomic charges:   -0.0000000

LOEWDIN ATOMIC CHARGES
----------------------
   0 C :   -0.114894
   1 C :   -0.078747
   2 C :   -0.122539
   3 C :   -0.040835
   4 C :   -0.122891
   5 C :   -0.079155
   6 C :   -0.608501
   7 F :    0.187675
   8 F :    0.196408
   9 F :    0.188588
  10 C :   -0.608116
  11 F :    0.192338
  12 F :    0.185249
  13 F :    0.194664
  14 H :    0.150937
  15 H :    0.157048
  16 H :    0.166002
  17 H :    0.156768

  Mayer bond orders larger than 0.100000
B(  0-C ,  1-C ) :   1.3894 B(  0-C ,  5-C ) :   1.3765 B(  0-C , 14-H ) :   0.9684
B(  1-C ,  2-C ) :   1.3298 B(  1-C , 15-H ) :   0.9589 B(  2-C ,  3-C ) :   1.3691
B(  2-C , 10-C ) :   0.9718 B(  3-C ,  4-C ) :   1.3511 B(  3-C , 16-H ) :   0.9526
B(  4-C ,  5-C ) :   1.3289 B(  4-C ,  6-C ) :   0.9735 B(  5-C , 17-H ) :   0.9591
B(  6-C ,  7-F ) :   1.1287 B(  6-C ,  8-F ) :   1.1219 B(  6-C ,  9-F ) :   1.1251
B( 10-C , 11-F ) :   1.1197 B( 10-C , 12-F ) :   1.1344 B( 10-C , 13-F ) :   1.1191

Dispersion correction           -0.006486151
FINAL SINGLE POINT ENERGY      -906.325986885734

DIPOLE MOMENT
-------------

Method             : SCF
Type of density    : Electron Density
Multiplicity       :   1
Irrep              :   0
Energy             :  -906.3343165183827068 Eh
Relativity type    :
Basis              : AO
                                X                 Y                 Z
Electronic contribution:      0.023530183       8.475109924      -2.800095540
Nuclear contribution   :     -0.034428105      -9.529053730       3.135747631
                        -----------------------------------------
Total Dipole Moment    :     -0.010897923      -1.053943806       0.335652090
                        -----------------------------------------
Magnitude (a.u.)       :      1.106154888
Magnitude (Debye)      :      2.811622282

VIBRATIONAL FREQUENCIES
-----------------------

Scaling factor for frequencies =  1.000000000  (already applied!)

     0:       0.00 cm**-1
     1:       0.00 cm**-1
     2:       0.00 cm**-1
     3:       0.00 cm**-1
     4:       0.00 cm**-1
     5:       0.00 cm**-1
     6:      32.37 cm**-1
     7:      47.29 cm**-1
     8:     109.07 cm**-1
     9:     122.09 cm**-1
    10:     152.21 cm**-1
    11:     236.76 cm**-1
    12:     291.34 cm**-1
    13:     312.99 cm**-1
    14:     331.55 cm**-1
    15:     353.45 cm**-1
    16:     383.73 cm**-1
    17:     433.92 cm**-1
    18:     460.00 cm**-1
    19:     496.95 cm**-1
    20:     560.47 cm**-1
    21:     564.10 cm**-1
    22:     586.66 cm**-1
    23:     660.03 cm**-1
    24:     670.93 cm**-1
    25:     678.00 cm**-1
    26:     708.95 cm**-1
    27:     744.37 cm**-1
    28:     818.80 cm**-1
    29:     834.21 cm**-1
    30:     925.45 cm**-1
    31:     941.44 cm**-1
    32:     983.24 cm**-1
    33:    1024.11 cm**-1
    34:    1079.51 cm**-1
    35:    1086.88 cm**-1
    36:    1108.07 cm**-1
    37:    1110.21 cm**-1
    38:    1112.82 cm**-1
    39:    1152.26 cm**-1
    40:    1165.80 cm**-1
    41:    1202.82 cm**-1
    42:    1275.26 cm**-1
    43:    1331.56 cm**-1
    44:    1353.14 cm**-1
    45:    1366.50 cm**-1
    46:    1470.37 cm**-1
    47:    1522.29 cm**-1
    48:    1633.61 cm**-1
    49:    1649.99 cm**-1
    50:    3181.23 cm**-1
    51:    3188.90 cm**-1
    52:    3199.79 cm**-1
    53:    3204.93 cm**-1

IR SPECTRUM
-----------

 Mode   freq       eps      Int      T**2         TX        TY        TZ
       cm**-1   L/(mol*cm) km/mol    a.u.
----------------------------------------------------------------------------
  6:     32.37   0.000057    0.29  0.000549  ( 0.004193 -0.014199 -0.018151)
  7:     47.29   0.000007    0.03  0.000045  (-0.001020 -0.000826  0.006610)
  8:    109.07   0.000029    0.15  0.000083  ( 0.000269 -0.000848 -0.009048)
  9:    122.09   0.000194    0.98  0.000495  (-0.001431 -0.020924  0.007416)
 10:    152.21   0.000003    0.02  0.000007  (-0.001690 -0.001860  0.000823)
 11:    236.76   0.000127    0.64  0.000167  ( 0.012745 -0.001924  0.001098)
 12:    291.34   0.000190    0.96  0.000204  (-0.003418 -0.013292  0.003954)
 13:    312.99   0.000014    0.07  0.000014  (-0.003703 -0.000274  0.000505)
 14:    331.55   0.000167    0.84  0.000157  ( 0.009479  0.003338  0.007468)
 15:    353.45   0.000845    4.27  0.000746  (-0.027175  0.002662  0.000427)
 16:    383.73   0.000900    4.55  0.000732  (-0.001558  0.025384 -0.009232)
 17:    433.92   0.000205    1.04  0.000147  ( 0.012044  0.001556  0.000047)
 18:    460.00   0.000117    0.59  0.000079  (-0.004644  0.001531  0.007430)
 19:    496.95   0.000018    0.09  0.000011  ( 0.002445  0.002291 -0.000464)
 20:    560.47   0.000083    0.42  0.000046  ( 0.001212 -0.006680  0.000259)
 21:    564.10   0.000293    1.48  0.000162  ( 0.002176 -0.002641 -0.012255)
 22:    586.66   0.000002    0.01  0.000001  (-0.000523  0.000567 -0.000586)
 23:    660.03   0.001222    6.18  0.000578  (-0.000188 -0.022940  0.007188)
 24:    670.93   0.000094    0.47  0.000044  (-0.005637 -0.003249  0.001133)
 25:    678.00   0.007193   36.35  0.003311  ( 0.057498  0.000442  0.002114)
 26:    708.95   0.005791   29.27  0.002549  (-0.004637  0.015301  0.047892)
 27:    744.37   0.000063    0.32  0.000027  ( 0.000274 -0.005007  0.001198)
 28:    818.80   0.008646   43.70  0.003295  (-0.002116 -0.019321 -0.054014)
 29:    834.21   0.005605   28.32  0.002097  ( 0.045626  0.000961  0.003736)
 30:    925.45   0.004512   22.80  0.001521  ( 0.002012  0.015069  0.035922)
 31:    941.44   0.000013    0.07  0.000004  (-0.002061  0.000162 -0.000043)
 32:    983.24   0.000290    1.46  0.000092  (-0.000339 -0.002176 -0.009334)
 33:   1024.11   0.000245    1.24  0.000075  (-0.000183 -0.008061  0.003091)
 34:   1079.51   0.027902  141.00  0.008066  ( 0.003678 -0.087557  0.019648)
 35:   1086.88   0.005371   27.14  0.001542  (-0.036910 -0.010450 -0.008396)
 36:   1108.07   0.005060   25.57  0.001425  (-0.003032  0.028331 -0.024761)
 37:   1110.21   0.010112   51.10  0.002842  (-0.003107  0.052179  0.010486)
 38:   1112.82   0.096482  487.58  0.027056  ( 0.003599  0.046545  0.157723)
 39:   1152.26   0.019767   99.89  0.005353  ( 0.073116 -0.001316  0.002394)
 40:   1165.80   0.038903  196.60  0.010414  ( 0.002363 -0.095824  0.035012)
 41:   1202.82   0.000496    2.51  0.000129  ( 0.010967 -0.000181 -0.002894)
 42:   1275.26   0.115687  584.63  0.028309  ( 0.168202  0.001601 -0.003837)
 43:   1331.56   0.006217   31.42  0.001457  ( 0.037961  0.003667 -0.001605)
 44:   1353.14   0.026491  133.87  0.006109  ( 0.000001  0.073313 -0.027102)
 45:   1366.50   0.000621    3.14  0.000142  (-0.004132  0.010496 -0.003805)
 46:   1470.37   0.001101    5.56  0.000234  (-0.000518 -0.014463  0.004917)
 47:   1522.29   0.000004    0.02  0.000001  (-0.000912 -0.000067 -0.000032)
 48:   1633.61   0.000343    1.74  0.000066  ( 0.000360  0.007547 -0.002921)
 49:   1649.99   0.001984   10.03  0.000375  (-0.019363  0.000397  0.000362)
 50:   3181.23   0.000534    2.70  0.000052  ( 0.000152  0.006908 -0.002165)
 51:   3188.90   0.000044    0.22  0.000004  ( 0.000553  0.001713 -0.001050)
 52:   3199.79   0.000050    0.25  0.000005  (-0.001290  0.001576 -0.000860)
 53:   3204.93   0.000385    1.95  0.000038  ( 0.000032  0.005781 -0.002029)

--------------------------
THERMOCHEMISTRY AT 298.15K
--------------------------

Temperature         ...   298.15 K
Pressure            ...     1.00 atm
Total Mass          ...   214.11 AMU
Quasi RRHO          ...     True
Cut-Off Frequency   ...     1.00 cm^-1

Throughout the following assumptions are being made:
  (1) The electronic state is orbitally nondegenerate
  (2) There are no thermally accessible electronically excited states
  (3) Hindered rotations indicated by low frequency modes are not
      treated as such but are treated as vibrations and this may
      cause some error
  (4) All equations used are the standard statistical mechanics
      equations for an ideal gas
  (5) All vibrations are strictly harmonic

freq.      32.37  E(vib)   ...       0.55
freq.      47.29  E(vib)   ...       0.53
freq.     109.07  E(vib)   ...       0.45
freq.     122.09  E(vib)   ...       0.44
freq.     152.21  E(vib)   ...       0.40
freq.     236.76  E(vib)   ...       0.32
freq.     291.34  E(vib)   ...       0.27
freq.     312.99  E(vib)   ...       0.25
freq.     331.55  E(vib)   ...       0.24
freq.     353.45  E(vib)   ...       0.22
freq.     383.73  E(vib)   ...       0.20
freq.     433.92  E(vib)   ...       0.17
freq.     460.00  E(vib)   ...       0.16
freq.     496.95  E(vib)   ...       0.14
freq.     560.47  E(vib)   ...       0.11
freq.     564.10  E(vib)   ...       0.11
freq.     586.66  E(vib)   ...       0.11
freq.     660.03  E(vib)   ...       0.08
freq.     670.93  E(vib)   ...       0.08
freq.     678.00  E(vib)   ...       0.08
freq.     708.95  E(vib)   ...       0.07
freq.     744.37  E(vib)   ...       0.06
freq.     818.80  E(vib)   ...       0.05
freq.     834.21  E(vib)   ...       0.04
freq.     925.45  E(vib)   ...       0.03
freq.     941.44  E(vib)   ...       0.03
freq.     983.24  E(vib)   ...       0.02
freq.    1024.11  E(vib)   ...       0.02
freq.    1079.51  E(vib)   ...       0.02
freq.    1086.88  E(vib)   ...       0.02
freq.    1108.07  E(vib)   ...       0.02
freq.    1110.21  E(vib)   ...       0.02
freq.    1112.82  E(vib)   ...       0.01
freq.    1152.26  E(vib)   ...       0.01
freq.    1165.80  E(vib)   ...       0.01
freq.    1202.82  E(vib)   ...       0.01
freq.    1275.26  E(vib)   ...       0.01
freq.    1331.56  E(vib)   ...       0.01
freq.    1353.14  E(vib)   ...       0.01
freq.    1366.50  E(vib)   ...       0.01
freq.    1470.37  E(vib)   ...       0.00
freq.    1522.29  E(vib)   ...       0.00
freq.    1633.61  E(vib)   ...       0.00
freq.    1649.99  E(vib)   ...       0.00
freq.    3181.23  E(vib)   ...       0.00
freq.    3188.90  E(vib)   ...       0.00
freq.    3199.79  E(vib)   ...       0.00
freq.    3204.93  E(vib)   ...       0.00

------------
INNER ENERGY
------------

The inner energy is: U= E(el) + E(ZPE) + E(vib) + E(rot) + E(trans)
    E(el)   - is the total energy from the electronic structure calculation
              = E(kin-el) + E(nuc-el) + E(el-el) + E(nuc-nuc)
    E(ZPE)  - the the zero temperature vibrational energy from the frequency calculation
    E(vib)  - the the finite temperature correction to E(ZPE) due to population
              of excited vibrational states
    E(rot)  - is the rotational thermal energy
    E(trans)- is the translational thermal energy

Summary of contributions to the inner energy U:
Electronic energy                ...   -906.32598689 Eh
Zero point energy                ...      0.10903403 Eh      68.42 kcal/mol
Thermal vibrational correction   ...      0.00858851 Eh       5.39 kcal/mol
Thermal rotational correction    ...      0.00141627 Eh       0.89 kcal/mol
Thermal translational correction ...      0.00141627 Eh       0.89 kcal/mol
-----------------------------------------------------------------------
Total thermal energy                   -906.20553180 Eh

Summary of corrections to the electronic energy:
(perhaps to be used in another calculation)
Total thermal correction                  0.01142105 Eh       7.17 kcal/mol
Non-thermal (ZPE) correction              0.10903403 Eh      68.42 kcal/mol
-----------------------------------------------------------------------
Total correction                          0.12045509 Eh      75.59 kcal/mol

--------
ENTHALPY
--------

The enthalpy is H = U + kB*T
                kB is Boltzmann's constant
Total thermal energy              ...   -906.20553180 Eh
Thermal Enthalpy correction       ...      0.00094421 Eh       0.59 kcal/mol
-----------------------------------------------------------------------
Total Enthalpy                    ...   -906.20458759 Eh

Note: Only C1 symmetry has been detected, increase convergence thresholds
      if your molecule has a higher symmetry. Symmetry factor of 1.0 is
      used for the rotational entropy correction.

Note: Rotational entropy computed according to Herzberg
Infrared and Raman Spectra, Chapter V,1, Van Nostrand Reinhold, 1945
Point Group:  C1, Symmetry Number:   1
Rotational constants in cm-1:     0.043435     0.012893     0.011121

Vibrational entropy computed according to the QRRHO of S. Grimme
Chem.Eur.J. 2012 18 9955 using a reference frequency of 100.0 cm-1

-------
ENTROPY
-------

The entropy contributions are T*S = T*(S(el)+S(vib)+S(rot)+S(trans))
     S(el)   - electronic entropy
     S(vib)  - vibrational entropy
     S(rot)  - rotational entropy
     S(trans)- translational entropy
The entropies will be listed as multiplied by the temperature to get
units of energy

Electronic entropy                ...      0.00000000 Eh      0.00 kcal/mol
Vibrational entropy               ...      0.01479636 Eh      9.28 kcal/mol
Rotational entropy                ...      0.01516952 Eh      9.52 kcal/mol
Translational entropy             ...      0.01994946 Eh     12.52 kcal/mol
-----------------------------------------------------------------------
Final entropy term                ...      0.04991535 Eh     31.32 kcal/mol

In case the symmetry of your molecule has not been determined correctly
or in case you have a reason to use a different symmetry number we print
out the resulting rotational entropy values for sn=1,12:

 non-linear molecules -----------------------------------
|  sn= 1 | S(rot)=       0.01516952 Eh      9.52 kcal/mol|
|  sn= 2 | S(rot)=       0.01451506 Eh      9.11 kcal/mol|
|  sn= 3 | S(rot)=       0.01413223 Eh      8.87 kcal/mol|
|  sn= 4 | S(rot)=       0.01386061 Eh      8.70 kcal/mol|
|  sn= 5 | S(rot)=       0.01364992 Eh      8.57 kcal/mol|
|  sn= 6 | S(rot)=       0.01347778 Eh      8.46 kcal/mol|
|  sn= 7 | S(rot)=       0.01333223 Eh      8.37 kcal/mol|
|  sn= 8 | S(rot)=       0.01320615 Eh      8.29 kcal/mol|
|  sn= 9 | S(rot)=       0.01309494 Eh      8.22 kcal/mol|
|  sn=10 | S(rot)=       0.01299546 Eh      8.15 kcal/mol|
|  sn=11 | S(rot)=       0.01290547 Eh      8.10 kcal/mol|
|  sn=12 | S(rot)=       0.01282332 Eh      8.05 kcal/mol|

                             ****ORCA TERMINATED NORMALLY****
TOTAL RUN TIME: 0 days 0 hours 18 minutes 15 seconds 796 msec
