                         Program Version 6.0.1  -  RELEASE   -
|  1> ! pbe def2-sv(p) def2/J RI DEFGRID1 loosescf d4 GCP(DFT/SV(P)) printgap
|  2> %output
|  3>     printlevel normal
|  4> end
|  5> * xyz 0 1
|  6> C -3.5766461872 0.1272512495 -0.3652344366
|  7> O -2.2119415769 0.1698455389 -0.7598731838
|  8> C -1.3100065669 -0.0853347908 0.1974440479
|  9> O -1.6072107452 -0.343558495 1.3340876769
| 10> C 0.1017929783 0.0088009616 -0.3371441072
| 11> C 0.8680754468 -1.2737039245 0.0002390653
| 12> C 2.3187577943 -1.1687218906 -0.4575839375
| 13> C 2.9988112625 0.0339931632 0.1882235005
| 14> C 2.2430232068 1.3140522759 -0.1528142585
| 15> C 0.7923499862 1.2174275088 0.3075026994
| 16> H -4.1600197982 0.3279515366 -1.2600234489
| 17> H -3.7731034599 0.8819275634 0.3990583143
| 18> H -3.8218193378 -0.8556500041 0.0420525518
| 19> H 0.0521197923 0.146047837 -1.4208652774
| 20> H 0.8275261842 -1.4279673388 1.0801742412
| 21> H 0.3850474571 -2.1275010722 -0.4801578606
| 22> H 2.8518322555 -2.0847121471 -0.1958970944
| 23> H 2.3494432782 -1.0621885336 -1.5446014475
| 24> H 3.0150517306 -0.0985710904 1.2720392474
| 25> H 4.0320217948 0.1081506939 -0.1570114376
| 26> H 2.7216077668 2.1700607471 0.3268795457
| 27> H 2.2713398931 1.4758249201 -1.2329623246
| 28> H 0.7543955858 1.1022155312 1.3926846623
| 29> H 0.2547045667 2.1312027283 0.0444650333
| 30> *
| 31>
| 32>                          ****END OF INPUT****

CARTESIAN COORDINATES (ANGSTROEM)
---------------------------------
  C     -3.576646    0.127251   -0.365234
  O     -2.211942    0.169846   -0.759873
  C     -1.310007   -0.085335    0.197444
  O     -1.607211   -0.343558    1.334088
  C      0.101793    0.008801   -0.337144
  C      0.868075   -1.273704    0.000239
  C      2.318758   -1.168722   -0.457584
  C      2.998811    0.033993    0.188224
  C      2.243023    1.314052   -0.152814
  C      0.792350    1.217428    0.307503
  H     -4.160020    0.327952   -1.260023
  H     -3.773103    0.881928    0.399058
  H     -3.821819   -0.855650    0.042053
  H      0.052120    0.146048   -1.420865
  H      0.827526   -1.427967    1.080174
  H      0.385047   -2.127501   -0.480158
  H      2.851832   -2.084712   -0.195897
  H      2.349443   -1.062189   -1.544601
  H      3.015052   -0.098571    1.272039
  H      4.032022    0.108151   -0.157011
  H      2.721608    2.170061    0.326880
  H      2.271340    1.475825   -1.232962
  H      0.754396    1.102216    1.392685
  H      0.254705    2.131203    0.044465

 Total Charge           Charge          ....    0
 Multiplicity           Mult            ....    1
 Number of Electrons    NEL             ....   78
 Basis Dimension        Dim             ....  168

ORBITAL ENERGIES
----------------

  NO   OCC          E(Eh)            E(eV)
   0   2.0000     -18.795560      -511.4532
   1   2.0000     -18.735370      -509.8153
   2   2.0000     -10.000227      -272.1200
   3   2.0000      -9.937806      -270.4214
   4   2.0000      -9.900990      -269.4196
   5   2.0000      -9.888595      -269.0823
   6   2.0000      -9.886195      -269.0170
   7   2.0000      -9.885091      -268.9870
   8   2.0000      -9.884290      -268.9652
   9   2.0000      -9.883148      -268.9341
  10   2.0000      -1.003617       -27.3098
  11   2.0000      -0.913481       -24.8571
  12   2.0000      -0.762347       -20.7445
  13   2.0000      -0.692719       -18.8498
  14   2.0000      -0.669429       -18.2161
  15   2.0000      -0.649683       -17.6788
  16   2.0000      -0.558495       -15.1974
  17   2.0000      -0.546097       -14.8601
  18   2.0000      -0.508992       -13.8504
  19   2.0000      -0.491289       -13.3686
  20   2.0000      -0.456049       -12.4097
  21   2.0000      -0.431340       -11.7373
  22   2.0000      -0.421932       -11.4814
  23   2.0000      -0.414231       -11.2718
  24   2.0000      -0.395752       -10.7690
  25   2.0000      -0.391215       -10.6455
  26   2.0000      -0.377494       -10.2721
  27   2.0000      -0.363169        -9.8823
  28   2.0000      -0.345357        -9.3977
  29   2.0000      -0.338210        -9.2032
  30   2.0000      -0.319371        -8.6905
  31   2.0000      -0.308649        -8.3988
  32   2.0000      -0.305072        -8.3014
  33   2.0000      -0.304543        -8.2870
  34   2.0000      -0.284105        -7.7309
  35   2.0000      -0.268361        -7.3025
  36   2.0000      -0.262032        -7.1302
  37   2.0000      -0.256811        -6.9882
  38   2.0000      -0.218282        -5.9398
  39   0.0000      -0.016963        -0.4616
  40   0.0000       0.034422         0.9367
  41   0.0000       0.051604         1.4042
  42   0.0000       0.057095         1.5536
  43   0.0000       0.070642         1.9223

MULLIKEN ATOMIC CHARGES
-----------------------
   0 C :   -0.110486
   1 O :   -0.239304
   2 C :    0.159586
   3 O :   -0.200494
   4 C :   -0.170735
   5 C :   -0.141289
   6 C :   -0.127648
   7 C :   -0.164685
   8 C :   -0.123109
   9 C :   -0.149824
  10 H :    0.119621
  11 H :    0.115902
  12 H :    0.116783
  13 H :    0.070430
  14 H :    0.092856
  15 H :    0.087334
  16 H :    0.087089
  17 H :    0.072506
  18 H :    0.078380
  19 H :    0.085819
  20 H :    0.087266
  21 H :    0.073167
  22 H :    0.092095
  23 H :    0.088742
Sum of atomic charges:   -0.0000000

LOEWDIN ATOMIC CHARGES
----------------------
   0 C :   -0.208616
   1 O :   -0.076895
   2 C :    0.047304
   3 O :   -0.156079
   4 C :   -0.164929
   5 C :   -0.211499
   6 C :   -0.225091
   7 C :   -0.227234
   8 C :   -0.224924
   9 C :   -0.209906
  10 H :    0.119121
  11 H :    0.117757
  12 H :    0.118204
  13 H :    0.123988
  14 H :    0.122847
  15 H :    0.118282
  16 H :    0.118107
  17 H :    0.113915
  18 H :    0.115983
  19 H :    0.116399
  20 H :    0.118184
  21 H :    0.114353
  22 H :    0.122395
  23 H :    0.118333

  Mayer bond orders larger than 0.100000
B(  0-C ,  1-O ) :   0.9479 B(  0-C , 10-H ) :   0.9589 B(  0-C , 11-H ) :   0.9519
B(  0-C , 12-H ) :   0.9505 B(  1-O ,  2-C ) :   1.2128 B(  2-C ,  3-O ) :   2.0658
B(  2-C ,  4-C ) :   0.9434 B(  4-C ,  5-C ) :   1.0782 B(  4-C ,  9-C ) :   1.0804
B(  4-C , 13-H ) :   0.8809 B(  5-C ,  6-C ) :   1.1393 B(  5-C , 14-H ) :   0.9027
B(  5-C , 15-H ) :   0.9203 B(  6-C ,  7-C ) :   1.1357 B(  6-C , 16-H ) :   0.9190
B(  6-C , 17-H ) :   0.9108 B(  7-C ,  8-C ) :   1.1360 B(  7-C , 18-H ) :   0.9153
B(  7-C , 19-H ) :   0.9197 B(  8-C ,  9-C ) :   1.1387 B(  8-C , 20-H ) :   0.9184
B(  8-C , 21-H ) :   0.9110 B(  9-C , 22-H ) :   0.9054 B(  9-C , 23-H ) :   0.9179

Dispersion correction           -0.022510406
FINAL SINGLE POINT ENERGY      -462.708460298587

DIPOLE MOMENT
-------------

Method             : SCF
Type of density    : Electron Density
Multiplicity       :   1
Irrep              :   0
Energy             :  -462.7962877246945936 Eh
Relativity type    :
Basis              : AO
                                X                 Y                 Z
Electronic contribution:     -7.264548436      -0.478513262       1.038118287
Nuclear contribution   :      7.223691723       0.641749584      -1.618423435
                        -----------------------------------------
Total Dipole Moment    :     -0.040856713       0.163236322      -0.580305148
                        -----------------------------------------
Magnitude (a.u.)       :      0.604209759
Magnitude (Debye)      :      1.535779157

Rotational constants in cm-1:             0.104032             0.024014             0.022561
Rotational constants in MHz :          3118.805242           719.923037           676.348276

                             ****ORCA TERMINATED NORMALLY****
TOTAL RUN TIME: 0 days 0 hours 0 minutes 8 seconds 316 msec
