                         Program Version 6.0.1  -  RELEASE   -
|  1> ! pbe def2-sv(p) def2/J RI DEFGRID1 loosescf d4 GCP(DFT/SV(P)) printgap
|  2> %output
|  3>     printlevel normal
|  4> end
|  5> * xyz 0 1
|  6> C -1.7522530468 -0.8022187194 0.0049899563
|  7> C -0.5024945054 0.0032356697 -0.336571192
|  8> C -0.6377811958 1.4492424201 0.13297144
|  9> C 0.7369339459 -0.6455391539 0.293752089
| 10> O 1.9396045322 -0.0109725536 -0.0701921549
| 11> H -1.6671068683 -1.8233414114 -0.3604352145
| 12> H -2.6299766897 -0.346890236 -0.4472826847
| 13> H -1.8978802002 -0.8342156906 1.0824103265
| 14> H -0.3685105284 -0.0009577381 -1.4267225898
| 15> H -1.436765678 1.9550080634 -0.4041334
| 16> H 0.2925125347 1.9868338353 -0.0346055779
| 17> H -0.8620785582 1.4782108217 1.1969146695
| 18> H 0.6863685276 -0.5686481759 1.382359652
| 19> H 0.7718213492 -1.7120298724 0.0233170636
| 20> H 2.0102572613 -0.0160414743 -1.0313893862
| 21> *
| 22>
| 23>                          ****END OF INPUT****

CARTESIAN COORDINATES (ANGSTROEM)
---------------------------------
  C     -1.752253   -0.802219    0.004990
  C     -0.502495    0.003236   -0.336571
  C     -0.637781    1.449242    0.132971
  C      0.736934   -0.645539    0.293752
  O      1.939605   -0.010973   -0.070192
  H     -1.667107   -1.823341   -0.360435
  H     -2.629977   -0.346890   -0.447283
  H     -1.897880   -0.834216    1.082410
  H     -0.368511   -0.000958   -1.426723
  H     -1.436766    1.955008   -0.404133
  H      0.292513    1.986834   -0.034606
  H     -0.862079    1.478211    1.196915
  H      0.686369   -0.568648    1.382360
  H      0.771821   -1.712030    0.023317
  H      2.010257   -0.016041   -1.031389

 Total Charge           Charge          ....    0
 Multiplicity           Mult            ....    1
 Number of Electrons    NEL             ....   42
 Basis Dimension        Dim             ....   90

ORBITAL ENERGIES
----------------

  NO   OCC          E(Eh)            E(eV)
   0   2.0000     -18.739763      -509.9349
   1   2.0000      -9.924736      -270.0658
   2   2.0000      -9.895928      -269.2819
   3   2.0000      -9.876979      -268.7663
   4   2.0000      -9.869737      -268.5692
   5   2.0000      -0.918758       -25.0007
   6   2.0000      -0.720979       -19.6188
   7   2.0000      -0.611402       -16.6371
   8   2.0000      -0.599949       -16.3254
   9   2.0000      -0.514945       -14.0124
  10   2.0000      -0.444418       -12.0932
  11   2.0000      -0.422020       -11.4837
  12   2.0000      -0.395548       -10.7634
  13   2.0000      -0.362796        -9.8722
  14   2.0000      -0.354724        -9.6525
  15   2.0000      -0.340008        -9.2521
  16   2.0000      -0.316114        -8.6019
  17   2.0000      -0.296767        -8.0754
  18   2.0000      -0.292264        -7.9529
  19   2.0000      -0.265110        -7.2140
  20   2.0000      -0.211653        -5.7594
  21   0.0000       0.026563         0.7228
  22   0.0000       0.045642         1.2420
  23   0.0000       0.072370         1.9693
  24   0.0000       0.084401         2.2967
  25   0.0000       0.104938         2.8555

MULLIKEN ATOMIC CHARGES
-----------------------
   0 C :   -0.253119
   1 C :   -0.225625
   2 C :   -0.237959
   3 C :    0.047122
   4 O :   -0.427257
   5 H :    0.099213
   6 H :    0.102973
   7 H :    0.098045
   8 H :    0.062774
   9 H :    0.098071
  10 H :    0.102093
  11 H :    0.091837
  12 H :    0.078771
  13 H :    0.070481
  14 H :    0.292581
Sum of atomic charges:   -0.0000000

LOEWDIN ATOMIC CHARGES
----------------------
   0 C :   -0.329379
   1 C :   -0.183406
   2 C :   -0.332834
   3 C :   -0.117731
   4 O :   -0.335313
   5 H :    0.116595
   6 H :    0.120310
   7 H :    0.118604
   8 H :    0.107579
   9 H :    0.116465
  10 H :    0.118266
  11 H :    0.117089
  12 H :    0.111388
  13 H :    0.091859
  14 H :    0.280510

  Mayer bond orders larger than 0.100000
B(  0-C ,  1-C ) :   1.0971 B(  0-C ,  5-H ) :   0.9492 B(  0-C ,  6-H ) :   0.9504
B(  0-C ,  7-H ) :   0.9507 B(  1-C ,  2-C ) :   1.1000 B(  1-C ,  3-C ) :   1.0557
B(  1-C ,  8-H ) :   0.9011 B(  2-C ,  9-H ) :   0.9524 B(  2-C , 10-H ) :   0.9418
B(  2-C , 11-H ) :   0.9521 B(  3-C ,  4-O ) :   1.0702 B(  3-C , 12-H ) :   0.9215
B(  3-C , 13-H ) :   0.9283 B(  4-O , 14-H ) :   0.8538

Dispersion correction           -0.009716773
FINAL SINGLE POINT ENERGY      -233.089445152875

DIPOLE MOMENT
-------------

Method             : SCF
Type of density    : Electron Density
Multiplicity       :   1
Irrep              :   0
Energy             :  -233.1491601115921526 Eh
Relativity type    :
Basis              : AO
                                X                 Y                 Z
Electronic contribution:      4.398144552      -0.302698996      -0.450520172
Nuclear contribution   :     -4.757126152       0.110473055      -0.019398835
                        -----------------------------------------
Total Dipole Moment    :     -0.358981600      -0.192225941      -0.469919006
                        -----------------------------------------
Magnitude (a.u.)       :      0.621805817
Magnitude (Debye)      :      1.580504783

Rotational constants in cm-1:             0.254203             0.117085             0.089398
Rotational constants in MHz :          7620.821036          3510.112377          2680.091577

                             ****ORCA TERMINATED NORMALLY****
TOTAL RUN TIME: 0 days 0 hours 0 minutes 5 seconds 970 msec
