                         Program Version 6.0.1  -  RELEASE   -
|  1> ! r2scan-3c def2/J RI DEFGRID2 scfconv6 printgap
|  2> %output
|  3>     printlevel normal
|  4> end
|  5> * xyz 0 1
|  6> C -4.3803453577 0.5051776494 -0.1642630841
|  7> C -3.5647540579 1.4946412301 -0.6801507829
|  8> C -2.1855343035 1.3584524513 -0.6340047285
|  9> C -1.5957815297 0.2251132704 -0.0714335216
| 10> C -2.4267542957 -0.771546015 0.4317836287
| 11> C -3.8030200555 -0.6285605973 0.3882145892
| 12> Cl -4.8067336864 -1.876309901 1.0285798919
| 13> C -0.1336479949 0.0485472356 -0.0056268084
| 14> C 0.4424458183 -1.117851845 -0.4979158566
| 15> C 1.814197662 -1.2965972537 -0.4408634429
| 16> C 2.6356355943 -0.3183605725 0.1174426614
| 17> C 2.0490701661 0.8422582593 0.6205629912
| 18> C 0.6781368333 1.026129197 0.5594071714
| 19> Cl 3.0377159388 2.0579222892 1.3267178561
| 20> Cl 4.3361560291 -0.5401818707 0.1876530315
| 21> Cl 2.5104165504 -2.7395257443 -1.0646727589
| 22> Cl -1.2072846991 2.595632716 -1.3386108273
| 23> H -5.4528748672 0.609587569 -0.1945283487
| 24> H -3.9969790481 2.3772107468 -1.1241300369
| 25> H -1.9879908705 -1.6523422646 0.873504927
| 26> H -0.17384263 -1.8818239808 -0.9443472783
| 27> H 0.2481643493 1.9263994272 0.9675248633
| 28> *
| 29>
| 30>                          ****END OF INPUT****

CARTESIAN COORDINATES (ANGSTROEM)
---------------------------------
  C     -4.380345    0.505178   -0.164263
  C     -3.564754    1.494641   -0.680151
  C     -2.185534    1.358452   -0.634005
  C     -1.595782    0.225113   -0.071434
  C     -2.426754   -0.771546    0.431784
  C     -3.803020   -0.628561    0.388215
  Cl    -4.806734   -1.876310    1.028580
  C     -0.133648    0.048547   -0.005627
  C      0.442446   -1.117852   -0.497916
  C      1.814198   -1.296597   -0.440863
  C      2.635636   -0.318361    0.117443
  C      2.049070    0.842258    0.620563
  C      0.678137    1.026129    0.559407
  Cl     3.037716    2.057922    1.326718
  Cl     4.336156   -0.540182    0.187653
  Cl     2.510417   -2.739526   -1.064673
  Cl    -1.207285    2.595633   -1.338611
  H     -5.452875    0.609588   -0.194528
  H     -3.996979    2.377211   -1.124130
  H     -1.987991   -1.652342    0.873505
  H     -0.173843   -1.881824   -0.944347
  H      0.248164    1.926399    0.967525

 Total Charge           Charge          ....    0
 Multiplicity           Mult            ....    1
 Number of Electrons    NEL             ....  162
 Basis Dimension        Dim             ....  388

ORBITAL ENERGIES
----------------

  NO   OCC          E(Eh)            E(eV)
   0   2.0000    -101.238322     -2754.8348
   1   2.0000    -101.238065     -2754.8278
   2   2.0000    -101.237290     -2754.8067
   3   2.0000    -101.236545     -2754.7864
   4   2.0000    -101.235637     -2754.7617
   5   2.0000     -10.129502      -275.6378
   6   2.0000     -10.128516      -275.6109
   7   2.0000     -10.128065      -275.5987
   8   2.0000     -10.122405      -275.4446
   9   2.0000     -10.120819      -275.4015
  10   2.0000     -10.087122      -274.4845
  11   2.0000     -10.083812      -274.3945
  12   2.0000     -10.072618      -274.0899
  13   2.0000     -10.072372      -274.0832
  14   2.0000     -10.071408      -274.0569
  15   2.0000     -10.071375      -274.0561
  16   2.0000     -10.070288      -274.0265
  17   2.0000      -9.394091      -255.6262
  18   2.0000      -9.393975      -255.6230
  19   2.0000      -9.393212      -255.6023
  20   2.0000      -9.392666      -255.5874
  21   2.0000      -9.391669      -255.5603
  22   2.0000      -7.140726      -194.3090
  23   2.0000      -7.140446      -194.3014
  24   2.0000      -7.139680      -194.2806
  25   2.0000      -7.138935      -194.2603
  26   2.0000      -7.137909      -194.2324
  27   2.0000      -7.130433      -194.0290
  28   2.0000      -7.130260      -194.0242
  29   2.0000      -7.129501      -194.0036
  30   2.0000      -7.129468      -194.0027
  31   2.0000      -7.129364      -193.9999
  32   2.0000      -7.128983      -193.9895
  33   2.0000      -7.128700      -193.9818
  34   2.0000      -7.128283      -193.9704
  35   2.0000      -7.127926      -193.9607
  36   2.0000      -7.127416      -193.9469
  37   2.0000      -0.915776       -24.9195
  38   2.0000      -0.897369       -24.4186
  39   2.0000      -0.864274       -23.5181
  40   2.0000      -0.863101       -23.4862
  41   2.0000      -0.839280       -22.8380
  42   2.0000      -0.820549       -22.3283
  43   2.0000      -0.804515       -21.8920
  44   2.0000      -0.766602       -20.8603
  45   2.0000      -0.724085       -19.7033
  46   2.0000      -0.719624       -19.5820
  47   2.0000      -0.701347       -19.0846
  48   2.0000      -0.632093       -17.2001
  49   2.0000      -0.609376       -16.5820
  50   2.0000      -0.596194       -16.2233
  51   2.0000      -0.570389       -15.5211
  52   2.0000      -0.517465       -14.0809
  53   2.0000      -0.500371       -13.6158
  54   2.0000      -0.496734       -13.5168
  55   2.0000      -0.475886       -12.9495
  56   2.0000      -0.467223       -12.7138
  57   2.0000      -0.449837       -12.2407
  58   2.0000      -0.433985       -11.8093
  59   2.0000      -0.432234       -11.7617
  60   2.0000      -0.429343       -11.6830
  61   2.0000      -0.421316       -11.4646
  62   2.0000      -0.405026       -11.0213
  63   2.0000      -0.394708       -10.7406
  64   2.0000      -0.377714       -10.2781
  65   2.0000      -0.369606       -10.0575
  66   2.0000      -0.365132        -9.9357
  67   2.0000      -0.360153        -9.8003
  68   2.0000      -0.358084        -9.7440
  69   2.0000      -0.335910        -9.1406
  70   2.0000      -0.317377        -8.6363
  71   2.0000      -0.316154        -8.6030
  72   2.0000      -0.307907        -8.3786
  73   2.0000      -0.305417        -8.3108
  74   2.0000      -0.300966        -8.1897
  75   2.0000      -0.299274        -8.1437
  76   2.0000      -0.283262        -7.7080
  77   2.0000      -0.274112        -7.4590
  78   2.0000      -0.245568        -6.6822
  79   2.0000      -0.244316        -6.6482
  80   2.0000      -0.232573        -6.3286
  81   0.0000      -0.086515        -2.3542
  82   0.0000      -0.069007        -1.8778
  83   0.0000      -0.064917        -1.7665
  84   0.0000      -0.045722        -1.2442
  85   0.0000      -0.042815        -1.1650

MULLIKEN ATOMIC CHARGES
-----------------------
   0 C :   -0.189657
   1 C :   -0.185826
   2 C :    0.062477
   3 C :    0.124419
   4 C :   -0.275486
   5 C :    0.186043
   6 Cl:   -0.128971
   7 C :    0.195685
   8 C :   -0.275074
   9 C :    0.108579
  10 C :    0.044589
  11 C :    0.101998
  12 C :   -0.250899
  13 Cl:   -0.094148
  14 Cl:   -0.072000
  15 Cl:   -0.095525
  16 Cl:   -0.106258
  17 H :    0.165858
  18 H :    0.165446
  19 H :    0.170940
  20 H :    0.171737
  21 H :    0.176073
Sum of atomic charges:    0.0000000

LOEWDIN ATOMIC CHARGES
----------------------
   0 C :   -0.159574
   1 C :   -0.154273
   2 C :   -0.152337
   3 C :   -0.072082
   4 C :   -0.143270
   5 C :   -0.167942
   6 Cl:    0.144230
   7 C :   -0.067407
   8 C :   -0.148581
   9 C :   -0.175075
  10 C :   -0.198911
  11 C :   -0.174977
  12 C :   -0.150121
  13 Cl:    0.169281
  14 Cl:    0.181254
  15 Cl:    0.167931
  16 Cl:    0.167973
  17 H :    0.182466
  18 H :    0.182915
  19 H :    0.189017
  20 H :    0.189325
  21 H :    0.190158

  Mayer bond orders larger than 0.100000
B(  0-C ,  1-C ) :   1.3741 B(  0-C ,  5-C ) :   1.3750 B(  0-C , 17-H ) :   0.9416
B(  1-C ,  2-C ) :   1.3464 B(  1-C , 18-H ) :   0.9448 B(  2-C ,  3-C ) :   1.3407
B(  2-C ,  7-C ) :  -0.1040 B(  2-C , 16-Cl) :   1.0658 B(  3-C ,  4-C ) :   1.3769
B(  3-C ,  7-C ) :   0.7592 B(  4-C ,  5-C ) :   1.3920 B(  4-C , 19-H ) :   0.9310
B(  5-C ,  6-Cl) :   0.9339 B(  7-C ,  8-C ) :   1.3617 B(  7-C , 12-C ) :   1.3487
B(  8-C ,  9-C ) :   1.3386 B(  8-C , 20-H ) :   0.9304 B(  9-C , 10-C ) :   1.2206
B(  9-C , 15-Cl) :   1.0696 B( 10-C , 11-C ) :   1.2100 B( 10-C , 14-Cl) :   1.2042
B( 11-C , 12-C ) :   1.3574 B( 11-C , 13-Cl) :   1.0716 B( 12-C , 21-H ) :   0.9191

Dispersion correction           -0.013326068
FINAL SINGLE POINT ENERGY     -2761.069660038316

DIPOLE MOMENT
-------------

Method             : SCF
Type of density    : Electron Density
Multiplicity       :   1
Irrep              :   0
Energy             : -2761.0673016062237366 Eh
Relativity type    :
Basis              : AO
                                X                 Y                 Z
Electronic contribution:     14.942257276      -1.765463429       0.525362388
Nuclear contribution   :    -15.855701775       1.968184606      -0.583350421
                        -----------------------------------------
Total Dipole Moment    :     -0.913444499       0.202721177      -0.057988033
                        -----------------------------------------
Magnitude (a.u.)       :      0.937464314
Magnitude (Debye)      :      2.382844918

Rotational constants in cm-1:             0.014457             0.005151             0.004253
Rotational constants in MHz :           433.418741           154.427632           127.502986

                             ****ORCA TERMINATED NORMALLY****
TOTAL RUN TIME: 0 days 0 hours 0 minutes 47 seconds 266 msec
