                         Program Version 6.0.1  -  RELEASE   -
|  1> ! r2scan-3c def2/J RI DEFGRID2 scfconv6 printgap
|  2> %output
|  3>     printlevel normal
|  4> end
|  5> * xyz 0 1
|  6> C -3.0482504155 -0.0838341337 -0.3124964554
|  7> C -2.0019011005 0.2470439422 0.7499366214
|  8> H -2.5249705207 0.4079066279 1.7003812611
|  9> C -1.213233741 1.515394253 0.4161975327
| 10> C -0.30979479 1.3294793543 -0.7985838891
| 11> C 0.6648010804 0.1527291634 -0.6362461152
| 12> H 1.1516846465 -0.0370128636 -1.6000370463
| 13> C -0.1512870436 -1.0792044978 -0.2915100826
| 14> O -0.1229248693 -2.0843108692 -0.9578061678
| 15> C -1.0316378652 -0.9303737787 0.9259182197
| 16> C 1.7793380715 0.3926589869 0.4040180347
| 17> C 2.5867901673 -0.8897938394 0.6040906481
| 18> C 2.7145610268 1.5175814917 -0.0357181849
| 19> H -3.6680536648 -0.9142693042 0.0178580348
| 20> H -3.6934751428 0.7731796237 -0.4936190565
| 21> H -2.5780885356 -0.3719266393 -1.249069291
| 22> H -1.9098960663 2.3339687668 0.2219397062
| 23> H -0.6109427378 1.8003090975 1.28145099
| 24> H -0.9260160465 1.1442152241 -1.6805308853
| 25> H 0.2478611694 2.2479735999 -0.9857035639
| 26> H -1.5842109067 -1.8585422402 1.082508568
| 27> H -0.3985974341 -0.7511513082 1.7969498033
| 28> H 1.3289945387 0.6742754541 1.3606148677
| 29> H 3.0321036744 -1.2050954441 -0.3368792463
| 30> H 1.9584068203 -1.7003577517 0.9661565006
| 31> H 3.3853024036 -0.7267828356 1.324967869
| 32> H 3.1387199397 1.2995339861 -1.0134181714
| 33> H 3.5313923751 1.6184725461 0.6755851431
| 34> H 2.1975870875 2.4720338178 -0.0869485397
| 35> *
| 36>
| 37>                          ****END OF INPUT****

CARTESIAN COORDINATES (ANGSTROEM)
---------------------------------
  C     -3.048250   -0.083834   -0.312496
  C     -2.001901    0.247044    0.749937
  H     -2.524971    0.407907    1.700381
  C     -1.213234    1.515394    0.416198
  C     -0.309795    1.329479   -0.798584
  C      0.664801    0.152729   -0.636246
  H      1.151685   -0.037013   -1.600037
  C     -0.151287   -1.079204   -0.291510
  O     -0.122925   -2.084311   -0.957806
  C     -1.031638   -0.930374    0.925918
  C      1.779338    0.392659    0.404018
  C      2.586790   -0.889794    0.604091
  C      2.714561    1.517581   -0.035718
  H     -3.668054   -0.914269    0.017858
  H     -3.693475    0.773180   -0.493619
  H     -2.578089   -0.371927   -1.249069
  H     -1.909896    2.333969    0.221940
  H     -0.610943    1.800309    1.281451
  H     -0.926016    1.144215   -1.680531
  H      0.247861    2.247974   -0.985704
  H     -1.584211   -1.858542    1.082509
  H     -0.398597   -0.751151    1.796950
  H      1.328995    0.674275    1.360615
  H      3.032104   -1.205095   -0.336879
  H      1.958407   -1.700358    0.966157
  H      3.385302   -0.726783    1.324968
  H      3.138720    1.299534   -1.013418
  H      3.531392    1.618473    0.675585
  H      2.197587    2.472034   -0.086949

 Total Charge           Charge          ....    0
 Multiplicity           Mult            ....    1
 Number of Electrons    NEL             ....   86
 Basis Dimension        Dim             ....  304

ORBITAL ENERGIES
----------------

  NO   OCC          E(Eh)            E(eV)
   0   2.0000     -18.933253      -515.2000
   1   2.0000     -10.109029      -275.0807
   2   2.0000     -10.047398      -273.4036
   3   2.0000     -10.046115      -273.3687
   4   2.0000     -10.037927      -273.1459
   5   2.0000     -10.035829      -273.0888
   6   2.0000     -10.033172      -273.0165
   7   2.0000     -10.033118      -273.0150
   8   2.0000     -10.023458      -272.7522
   9   2.0000     -10.021293      -272.6932
  10   2.0000     -10.019249      -272.6376
  11   2.0000      -1.003378       -27.3033
  12   2.0000      -0.817970       -22.2581
  13   2.0000      -0.777706       -21.1625
  14   2.0000      -0.722757       -19.6672
  15   2.0000      -0.695273       -18.9193
  16   2.0000      -0.656674       -17.8690
  17   2.0000      -0.654712       -17.8156
  18   2.0000      -0.590101       -16.0575
  19   2.0000      -0.547543       -14.8994
  20   2.0000      -0.545047       -14.8315
  21   2.0000      -0.486536       -13.2393
  22   2.0000      -0.450047       -12.2464
  23   2.0000      -0.443034       -12.0556
  24   2.0000      -0.431422       -11.7396
  25   2.0000      -0.423136       -11.5141
  26   2.0000      -0.405833       -11.0433
  27   2.0000      -0.403448       -10.9784
  28   2.0000      -0.388386       -10.5685
  29   2.0000      -0.368720       -10.0334
  30   2.0000      -0.367047        -9.9879
  31   2.0000      -0.359321        -9.7776
  32   2.0000      -0.356475        -9.7002
  33   2.0000      -0.347280        -9.4500
  34   2.0000      -0.336355        -9.1527
  35   2.0000      -0.325750        -8.8641
  36   2.0000      -0.316670        -8.6170
  37   2.0000      -0.312252        -8.4968
  38   2.0000      -0.304994        -8.2993
  39   2.0000      -0.293685        -7.9916
  40   2.0000      -0.284918        -7.7530
  41   2.0000      -0.279827        -7.6145
  42   2.0000      -0.201778        -5.4907
  43   0.0000      -0.042434        -1.1547
  44   0.0000       0.064067         1.7434
  45   0.0000       0.090107         2.4519
  46   0.0000       0.095952         2.6110
  47   0.0000       0.103726         2.8225

MULLIKEN ATOMIC CHARGES
-----------------------
   0 C :   -0.518159
   1 C :    0.045698
   2 H :    0.156500
   3 C :   -0.382220
   4 C :   -0.402166
   5 C :    0.040751
   6 H :    0.189495
   7 C :    0.101588
   8 O :   -0.319689
   9 C :   -0.361758
  10 C :   -0.121445
  11 C :   -0.483528
  12 C :   -0.499825
  13 H :    0.153240
  14 H :    0.150247
  15 H :    0.166007
  16 H :    0.158858
  17 H :    0.164367
  18 H :    0.176100
  19 H :    0.154445
  20 H :    0.175378
  21 H :    0.169225
  22 H :    0.161109
  23 H :    0.167720
  24 H :    0.153538
  25 H :    0.147180
  26 H :    0.161065
  27 H :    0.150534
  28 H :    0.145741
Sum of atomic charges:    0.0000000

LOEWDIN ATOMIC CHARGES
----------------------
   0 C :   -0.406066
   1 C :   -0.218275
   2 H :    0.159716
   3 C :   -0.293694
   4 C :   -0.276391
   5 C :   -0.194223
   6 H :    0.183364
   7 C :    0.215911
   8 O :   -0.447813
   9 C :   -0.262889
  10 C :   -0.226391
  11 C :   -0.401351
  12 C :   -0.408994
  13 H :    0.158652
  14 H :    0.155162
  15 H :    0.160286
  16 H :    0.161836
  17 H :    0.158139
  18 H :    0.164439
  19 H :    0.162133
  20 H :    0.179263
  21 H :    0.176955
  22 H :    0.157476
  23 H :    0.161953
  24 H :    0.161492
  25 H :    0.153161
  26 H :    0.157941
  27 H :    0.156230
  28 H :    0.151979

  Mayer bond orders larger than 0.100000
B(  0-C ,  1-C ) :   0.9256 B(  0-C , 13-H ) :   0.9686 B(  0-C , 14-H ) :   0.9742
B(  0-C , 15-H ) :   0.9677 B(  1-C ,  2-H ) :   0.9359 B(  1-C ,  3-C ) :   0.9047
B(  1-C ,  9-C ) :   0.8694 B(  3-C ,  4-C ) :   0.8642 B(  3-C , 16-H ) :   0.9622
B(  3-C , 17-H ) :   0.9918 B(  4-C ,  5-C ) :   0.8373 B(  4-C , 18-H ) :   0.9896
B(  4-C , 19-H ) :   0.9494 B(  5-C ,  6-H ) :   0.9754 B(  5-C ,  7-C ) :   0.8394
B(  5-C , 10-C ) :   0.8648 B(  7-C ,  8-O ) :   2.0209 B(  7-C ,  9-C ) :   0.8990
B(  9-C , 20-H ) :   0.9642 B(  9-C , 21-H ) :   0.9454 B( 10-C , 11-C ) :   0.8939
B( 10-C , 12-C ) :   0.8918 B( 10-C , 22-H ) :   0.9517 B( 11-C , 23-H ) :   0.9856
B( 11-C , 24-H ) :   0.9566 B( 11-C , 25-H ) :   0.9716 B( 12-C , 26-H ) :   0.9914
B( 12-C , 27-H ) :   0.9720 B( 12-C , 28-H ) :   0.9711

Dispersion correction           -0.010710004
FINAL SINGLE POINT ENERGY      -467.006647629661

DIPOLE MOMENT
-------------

Method             : SCF
Type of density    : Electron Density
Multiplicity       :   1
Irrep              :   0
Energy             :  -467.0090134919699949 Eh
Relativity type    :
Basis              : AO
                                X                 Y                 Z
Electronic contribution:     -1.998219805      -5.664782172      -2.127715056
Nuclear contribution   :      1.947498332       6.730188646       2.783596285
                        -----------------------------------------
Total Dipole Moment    :     -0.050721474       1.065406474       0.655881229
                        -----------------------------------------
Magnitude (a.u.)       :      1.252135699
Magnitude (Debye)      :      3.182676015

Rotational constants in cm-1:             0.056941             0.028725             0.023160
Rotational constants in MHz :          1707.048718           861.154196           694.321205

                             ****ORCA TERMINATED NORMALLY****
TOTAL RUN TIME: 0 days 0 hours 0 minutes 42 seconds 576 msec
