                         Program Version 6.0.1  -  RELEASE   -
|  1> ! pbe def2-sv(p) def2/J RI DEFGRID1 loosescf d4 GCP(DFT/SV(P)) printgap
|  2> %output
|  3>     printlevel normal
|  4> end
|  5> * xyz 0 1
|  6> C 0.7401570553 -0.0004065057 -0.0001318876
|  7> C 1.4436806245 -0.9535606415 0.7323909662
|  8> C 2.8376584854 -0.9593713669 0.7360997158
|  9> C 3.5333990231 0.0001530552 -0.0002679995
| 10> C 2.8372157923 0.9593606827 -0.7365927589
| 11> C 1.4432424725 0.9530080787 -0.7327772723
| 12> Cl 0.5786170034 2.1145089707 -1.6468759946
| 13> Cl 3.691380345 2.1342302648 -1.6394137563
| 14> Cl 5.2426080421 0.0006968876 -9.25121e-05
| 15> Cl 3.6923534559 -2.1337558774 1.6389891465
| 16> Cl 0.5795954168 -2.1154967844 1.6464488655
| 17> C -0.7401586374 -0.0003854375 8.48214e-05
| 18> C -1.4436945906 -0.9535362267 -0.7324400047
| 19> C -2.83768253 -0.9592608764 -0.7361614492
| 20> C -3.5334087813 0.0003246495 0.0001002651
| 21> C -2.8371946424 0.9594800683 0.7365129288
| 22> C -1.4432341574 0.9530137202 0.7327569778
| 23> Cl -0.5785964376 2.1144824307 1.6468837444
| 24> Cl -3.691294832 2.1343164915 1.6394046005
| 25> Cl -5.2425846283 0.0006967881 0.0001741788
| 26> Cl -3.6924491596 -2.1338278725 -1.6388104166
| 27> Cl -0.5796224686 -2.1154512599 -1.6465636357
| 28> *
| 29>
| 30>                          ****END OF INPUT****

CARTESIAN COORDINATES (ANGSTROEM)
---------------------------------
  C      0.740157   -0.000407   -0.000132
  C      1.443681   -0.953561    0.732391
  C      2.837658   -0.959371    0.736100
  C      3.533399    0.000153   -0.000268
  C      2.837216    0.959361   -0.736593
  C      1.443242    0.953008   -0.732777
  Cl     0.578617    2.114509   -1.646876
  Cl     3.691380    2.134230   -1.639414
  Cl     5.242608    0.000697   -0.000093
  Cl     3.692353   -2.133756    1.638989
  Cl     0.579595   -2.115497    1.646449
  C     -0.740159   -0.000385    0.000085
  C     -1.443695   -0.953536   -0.732440
  C     -2.837683   -0.959261   -0.736161
  C     -3.533409    0.000325    0.000100
  C     -2.837195    0.959480    0.736513
  C     -1.443234    0.953014    0.732757
  Cl    -0.578596    2.114482    1.646884
  Cl    -3.691295    2.134316    1.639405
  Cl    -5.242585    0.000697    0.000174
  Cl    -3.692449   -2.133828   -1.638810
  Cl    -0.579622   -2.115451   -1.646564

 Total Charge           Charge          ....    0
 Multiplicity           Mult            ....    1
 Number of Electrons    NEL             ....  242
 Basis Dimension        Dim             ....  348

ORBITAL ENERGIES
----------------

  NO   OCC          E(Eh)            E(eV)
   0   2.0000    -100.667104     -2739.2912
   1   2.0000    -100.667088     -2739.2907
   2   2.0000    -100.667082     -2739.2906
   3   2.0000    -100.667057     -2739.2899
   4   2.0000    -100.667049     -2739.2897
   5   2.0000    -100.667045     -2739.2896
   6   2.0000    -100.665188     -2739.2390
   7   2.0000    -100.665181     -2739.2388
   8   2.0000    -100.665171     -2739.2386
   9   2.0000    -100.665171     -2739.2386
  10   2.0000      -9.988864      -271.8108
  11   2.0000      -9.988814      -271.8095
  12   2.0000      -9.988802      -271.8091
  13   2.0000      -9.988769      -271.8082
  14   2.0000      -9.988650      -271.8050
  15   2.0000      -9.988643      -271.8048
  16   2.0000      -9.984543      -271.6932
  17   2.0000      -9.984533      -271.6930
  18   2.0000      -9.984529      -271.6929
  19   2.0000      -9.984525      -271.6928
  20   2.0000      -9.956117      -270.9197
  21   2.0000      -9.956073      -270.9185
  22   2.0000      -9.202889      -250.4233
  23   2.0000      -9.202886      -250.4233
  24   2.0000      -9.202807      -250.4211
  25   2.0000      -9.202798      -250.4209
  26   2.0000      -9.202781      -250.4204
  27   2.0000      -9.202764      -250.4199
  28   2.0000      -9.201023      -250.3726
  29   2.0000      -9.201018      -250.3724
  30   2.0000      -9.201007      -250.3721
  31   2.0000      -9.201006      -250.3721
  32   2.0000      -7.034646      -191.4225
  33   2.0000      -7.034644      -191.4224
  34   2.0000      -7.034394      -191.4156
  35   2.0000      -7.034391      -191.4155
  36   2.0000      -7.034389      -191.4155
  37   2.0000      -7.034387      -191.4154
  38   2.0000      -7.032780      -191.3717
  39   2.0000      -7.032778      -191.3716
  40   2.0000      -7.032776      -191.3716
  41   2.0000      -7.032775      -191.3715
  42   2.0000      -7.022966      -191.1046
  43   2.0000      -7.022963      -191.1045
  44   2.0000      -7.022812      -191.1004
  45   2.0000      -7.022810      -191.1004
  46   2.0000      -7.022797      -191.1000
  47   2.0000      -7.022795      -191.1000
  48   2.0000      -7.021837      -191.0739
  49   2.0000      -7.021835      -191.0738
  50   2.0000      -7.021830      -191.0737
  51   2.0000      -7.021827      -191.0736
  52   2.0000      -7.021724      -191.0708
  53   2.0000      -7.021721      -191.0707
  54   2.0000      -7.021032      -191.0520
  55   2.0000      -7.021032      -191.0520
  56   2.0000      -7.021028      -191.0519
  57   2.0000      -7.021028      -191.0519
  58   2.0000      -7.019913      -191.0216
  59   2.0000      -7.019913      -191.0215
  60   2.0000      -7.019909      -191.0214
  61   2.0000      -7.019908      -191.0214
  62   2.0000      -0.890581       -24.2339
  63   2.0000      -0.880912       -23.9708
  64   2.0000      -0.848485       -23.0885
  65   2.0000      -0.845694       -23.0125
  66   2.0000      -0.843946       -22.9649
  67   2.0000      -0.826482       -22.4897
  68   2.0000      -0.805372       -21.9153
  69   2.0000      -0.801994       -21.8234
  70   2.0000      -0.793174       -21.5834
  71   2.0000      -0.788250       -21.4494
  72   2.0000      -0.764906       -20.8141
  73   2.0000      -0.758716       -20.6457
  74   2.0000      -0.710531       -19.3345
  75   2.0000      -0.663994       -18.0682
  76   2.0000      -0.663973       -18.0676
  77   2.0000      -0.660933       -17.9849
  78   2.0000      -0.596005       -16.2181
  79   2.0000      -0.567948       -15.4546
  80   2.0000      -0.562793       -15.3144
  81   2.0000      -0.553946       -15.0736
  82   2.0000      -0.512250       -13.9390
  83   2.0000      -0.502835       -13.6828
  84   2.0000      -0.495974       -13.4961
  85   2.0000      -0.476379       -12.9629
  86   2.0000      -0.448730       -12.2106
  87   2.0000      -0.439445       -11.9579
  88   2.0000      -0.428898       -11.6709
  89   2.0000      -0.428797       -11.6682
  90   2.0000      -0.428285       -11.6542
  91   2.0000      -0.424393       -11.5483
  92   2.0000      -0.423140       -11.5142
  93   2.0000      -0.407326       -11.0839
  94   2.0000      -0.393210       -10.6998
  95   2.0000      -0.391021       -10.6402
  96   2.0000      -0.383063       -10.4237
  97   2.0000      -0.374474       -10.1900
  98   2.0000      -0.363739        -9.8979
  99   2.0000      -0.353422        -9.6171
 100   2.0000      -0.352196        -9.5837
 101   2.0000      -0.324181        -8.8214
 102   2.0000      -0.314554        -8.5594
 103   2.0000      -0.309446        -8.4205
 104   2.0000      -0.309414        -8.4196
 105   2.0000      -0.307648        -8.3715
 106   2.0000      -0.307481        -8.3670
 107   2.0000      -0.307189        -8.3590
 108   2.0000      -0.305946        -8.3252
 109   2.0000      -0.296130        -8.0581
 110   2.0000      -0.293702        -7.9920
 111   2.0000      -0.284850        -7.7512
 112   2.0000      -0.283528        -7.7152
 113   2.0000      -0.283080        -7.7030
 114   2.0000      -0.278972        -7.5912
 115   2.0000      -0.265011        -7.2113
 116   2.0000      -0.264286        -7.1916
 117   2.0000      -0.238996        -6.5034
 118   2.0000      -0.231554        -6.3009
 119   2.0000      -0.227804        -6.1989
 120   2.0000      -0.227540        -6.1917
 121   0.0000      -0.088681        -2.4131
 122   0.0000      -0.077891        -2.1195
 123   0.0000      -0.074033        -2.0145
 124   0.0000      -0.071584        -1.9479
 125   0.0000      -0.067314        -1.8317

MULLIKEN ATOMIC CHARGES
-----------------------
   0 C :   -0.060601
   1 C :    0.036338
   2 C :    0.013773
   3 C :    0.006333
   4 C :    0.013770
   5 C :    0.036324
   6 Cl:   -0.011142
   7 Cl:   -0.009590
   8 Cl:   -0.004479
   9 Cl:   -0.009580
  10 Cl:   -0.011152
  11 C :   -0.060601
  12 C :    0.036345
  13 C :    0.013751
  14 C :    0.006344
  15 C :    0.013774
  16 C :    0.036329
  17 Cl:   -0.011145
  18 Cl:   -0.009582
  19 Cl:   -0.004472
  20 Cl:   -0.009592
  21 Cl:   -0.011147
Sum of atomic charges:   -0.0000000

LOEWDIN ATOMIC CHARGES
----------------------
   0 C :   -0.084393
   1 C :   -0.149445
   2 C :   -0.183595
   3 C :   -0.174938
   4 C :   -0.183584
   5 C :   -0.149449
   6 Cl:    0.188311
   7 Cl:    0.181325
   8 Cl:    0.186123
   9 Cl:    0.181350
  10 Cl:    0.188297
  11 C :   -0.084393
  12 C :   -0.149438
  13 C :   -0.183582
  14 C :   -0.174952
  15 C :   -0.183591
  16 C :   -0.149451
  17 Cl:    0.188307
  18 Cl:    0.181339
  19 Cl:    0.186146
  20 Cl:    0.181322
  21 Cl:    0.188292

  Mayer bond orders larger than 0.100000
B(  0-C ,  1-C ) :   1.4031 B(  0-C ,  5-C ) :   1.4031 B(  0-C , 11-C ) :   0.9858
B(  1-C ,  2-C ) :   1.3762 B(  1-C , 10-Cl) :   1.1284 B(  2-C ,  3-C ) :   1.4011
B(  2-C ,  9-Cl) :   1.1224 B(  3-C ,  4-C ) :   1.4011 B(  3-C ,  8-Cl) :   1.1256
B(  4-C ,  5-C ) :   1.3762 B(  4-C ,  7-Cl) :   1.1224 B(  5-C ,  6-Cl) :   1.1284
B( 11-C , 12-C ) :   1.4031 B( 11-C , 16-C ) :   1.4030 B( 12-C , 13-C ) :   1.3762
B( 12-C , 21-Cl) :   1.1284 B( 13-C , 14-C ) :   1.4011 B( 13-C , 20-Cl) :   1.1224
B( 14-C , 15-C ) :   1.4011 B( 14-C , 19-Cl) :   1.1256 B( 15-C , 16-C ) :   1.3763
B( 15-C , 18-Cl) :   1.1224 B( 16-C , 17-Cl) :   1.1284

Dispersion correction           -0.063254387
FINAL SINGLE POINT ENERGY     -5055.068715281367

DIPOLE MOMENT
-------------

Method             : SCF
Type of density    : Electron Density
Multiplicity       :   1
Irrep              :   0
Energy             : -5055.0664393542174366 Eh
Relativity type    :
Basis              : AO
                                X                 Y                 Z
Electronic contribution:     -0.000034641       0.000548190       0.000250042
Nuclear contribution   :     -0.000009043      -0.000536936      -0.000193574
                        -----------------------------------------
Total Dipole Moment    :     -0.000043683       0.000011254       0.000056468
                        -----------------------------------------
Magnitude (a.u.)       :      0.000072274
Magnitude (Debye)      :      0.000183706

Rotational constants in cm-1:             0.007714             0.003039             0.002765
Rotational constants in MHz :           231.247572            91.114225            82.885582

                             ****ORCA TERMINATED NORMALLY****
TOTAL RUN TIME: 0 days 0 hours 0 minutes 18 seconds 574 msec
