                         Program Version 6.0.1  -  RELEASE   -
|  1> ! pbe def2-sv(p) def2/J RI DEFGRID1 loosescf d4 GCP(DFT/SV(P)) printgap
|  2> %output
|  3>     printlevel normal
|  4> end
|  5> * xyz 0 1
|  6> C -2.6476562031 -1.4994518758 -0.1086655413
|  7> C -1.953901049 -0.1502668709 0.010224238
|  8> C -0.4502916214 -0.1917796856 -0.012453289
|  9> C 0.2980475182 -1.3501370087 -0.1310250937
| 10> C 1.6842306293 -1.3149218499 -0.1449531885
| 11> C 2.3462126062 -0.1075809057 -0.0393151427
| 12> C 1.6192015511 1.0644997525 0.0802645097
| 13> C 0.2337043949 1.0266125225 0.0939317984
| 14> O -0.5104688006 2.1662489762 0.2106654222
| 15> H -2.3699421636 -2.1533133423 0.7150442534
| 16> H -2.391947766 -1.986723569 -1.0469285519
| 17> H -3.726197975 -1.3598229243 -0.0819873132
| 18> H -2.2613979182 0.3386632807 0.9394663868
| 19> H -2.2831350251 0.5033966521 -0.8030547656
| 20> H -0.2007656456 -2.3023677582 -0.2146364477
| 21> H 2.2434531867 -2.2336920156 -0.2385658011
| 22> H 3.4252501779 -0.0703640024 -0.0492191376
| 23> H 2.1280900809 2.0167209469 0.1637338946
| 24> H 0.0791127288 2.9270150596 0.27499465
| 25> *
| 26>
| 27>                          ****END OF INPUT****

CARTESIAN COORDINATES (ANGSTROEM)
---------------------------------
  C     -2.647656   -1.499452   -0.108666
  C     -1.953901   -0.150267    0.010224
  C     -0.450292   -0.191780   -0.012453
  C      0.298048   -1.350137   -0.131025
  C      1.684231   -1.314922   -0.144953
  C      2.346213   -0.107581   -0.039315
  C      1.619202    1.064500    0.080265
  C      0.233704    1.026613    0.093932
  O     -0.510469    2.166249    0.210665
  H     -2.369942   -2.153313    0.715044
  H     -2.391948   -1.986724   -1.046929
  H     -3.726198   -1.359823   -0.081987
  H     -2.261398    0.338663    0.939466
  H     -2.283135    0.503397   -0.803055
  H     -0.200766   -2.302368   -0.214636
  H      2.243453   -2.233692   -0.238566
  H      3.425250   -0.070364   -0.049219
  H      2.128090    2.016721    0.163734
  H      0.079113    2.927015    0.274995

 Total Charge           Charge          ....    0
 Multiplicity           Mult            ....    1
 Number of Electrons    NEL             ....   66
 Basis Dimension        Dim             ....  146

ORBITAL ENERGIES
----------------

  NO   OCC          E(Eh)            E(eV)
   0   2.0000     -18.780571      -511.0453
   1   2.0000      -9.945427      -270.6288
   2   2.0000      -9.892490      -269.1884
   3   2.0000      -9.887905      -269.0636
   4   2.0000      -9.887592      -269.0551
   5   2.0000      -9.885276      -268.9920
   6   2.0000      -9.884668      -268.9755
   7   2.0000      -9.880534      -268.8630
   8   2.0000      -9.874005      -268.6853
   9   2.0000      -0.962415       -26.1887
  10   2.0000      -0.770356       -20.9625
  11   2.0000      -0.707097       -19.2411
  12   2.0000      -0.659113       -17.9354
  13   2.0000      -0.646168       -17.5831
  14   2.0000      -0.574318       -15.6280
  15   2.0000      -0.550679       -14.9847
  16   2.0000      -0.510319       -13.8865
  17   2.0000      -0.488705       -13.2984
  18   2.0000      -0.437201       -11.8968
  19   2.0000      -0.412716       -11.2306
  20   2.0000      -0.403427       -10.9778
  21   2.0000      -0.383886       -10.4461
  22   2.0000      -0.382071       -10.3967
  23   2.0000      -0.357009        -9.7147
  24   2.0000      -0.339662        -9.2427
  25   2.0000      -0.330728        -8.9996
  26   2.0000      -0.321501        -8.7485
  27   2.0000      -0.303612        -8.2617
  28   2.0000      -0.294996        -8.0272
  29   2.0000      -0.293306        -7.9813
  30   2.0000      -0.282265        -7.6808
  31   2.0000      -0.219496        -5.9728
  32   2.0000      -0.189969        -5.1693
  33   0.0000      -0.026350        -0.7170
  34   0.0000      -0.014967        -0.4073
  35   0.0000       0.023344         0.6352
  36   0.0000       0.049851         1.3565
  37   0.0000       0.054695         1.4883

MULLIKEN ATOMIC CHARGES
-----------------------
   0 C :   -0.266671
   1 C :   -0.137954
   2 C :   -0.003841
   3 C :   -0.166006
   4 C :   -0.035042
   5 C :   -0.052826
   6 C :   -0.161560
   7 C :    0.178552
   8 O :   -0.337760
   9 H :    0.105846
  10 H :    0.106042
  11 H :    0.102920
  12 H :    0.100694
  13 H :    0.100628
  14 H :    0.039006
  15 H :    0.042812
  16 H :    0.048443
  17 H :    0.021406
  18 H :    0.315309
Sum of atomic charges:   -0.0000000

LOEWDIN ATOMIC CHARGES
----------------------
   0 C :   -0.340520
   1 C :   -0.219025
   2 C :   -0.064591
   3 C :   -0.122965
   4 C :   -0.146459
   5 C :   -0.123744
   6 C :   -0.176931
   7 C :    0.025828
   8 O :   -0.235343
   9 H :    0.119566
  10 H :    0.119652
  11 H :    0.122163
  12 H :    0.130103
  13 H :    0.130057
  14 H :    0.123886
  15 H :    0.120884
  16 H :    0.122480
  17 H :    0.117835
  18 H :    0.297124

  Mayer bond orders larger than 0.100000
B(  0-C ,  1-C ) :   1.1975 B(  0-C ,  9-H ) :   0.9432 B(  0-C , 10-H ) :   0.9431
B(  0-C , 11-H ) :   0.9474 B(  1-C ,  2-C ) :   1.0641 B(  1-C , 12-H ) :   0.8994
B(  1-C , 13-H ) :   0.8995 B(  2-C ,  3-C ) :   1.4393 B(  2-C ,  7-C ) :   1.3764
B(  3-C ,  4-C ) :   1.3220 B(  3-C , 14-H ) :   0.9559 B(  4-C ,  5-C ) :   1.3861
B(  4-C , 15-H ) :   0.9646 B(  5-C ,  6-C ) :   1.3526 B(  5-C , 16-H ) :   0.9635
B(  6-C ,  7-C ) :   1.3410 B(  6-C , 17-H ) :   0.9543 B(  7-C ,  8-O ) :   1.2069
B(  8-O , 18-H ) :   0.8419

Dispersion correction           -0.018942353
FINAL SINGLE POINT ENERGY      -385.235644593883

DIPOLE MOMENT
-------------

Method             : SCF
Type of density    : Electron Density
Multiplicity       :   1
Irrep              :   0
Energy             :  -385.2958042269950738 Eh
Relativity type    :
Basis              : AO
                                X                 Y                 Z
Electronic contribution:      5.235619676       4.457730568       0.355682185
Nuclear contribution   :     -5.033785659      -4.021242461      -0.316936842
                        -----------------------------------------
Total Dipole Moment    :      0.201834017       0.436488107       0.038745342
                        -----------------------------------------
Magnitude (a.u.)       :      0.482452111
Magnitude (Debye)      :      1.226295811

Rotational constants in cm-1:             0.084049             0.049477             0.031507
Rotational constants in MHz :          2519.715814          1483.292308           944.566793

                             ****ORCA TERMINATED NORMALLY****
TOTAL RUN TIME: 0 days 0 hours 0 minutes 9 seconds 478 msec
