                         Program Version 6.0.0  -   RELEASE  -
|  1> ! r2SCAN-3c DEF2-TZVP FREQ
|  2> * xyzfile 0 1 censo.xyz
|  3>
|  4>                          ****END OF INPUT****

CARTESIAN COORDINATES (ANGSTROEM)
---------------------------------
  C     -1.869926   -1.409269   -0.006783
  C     -0.548253   -0.697485   -0.002293
  C      0.653675   -1.404213   -0.000115
  C      1.889827   -0.758889   -0.001137
  C      1.924417    0.633751   -0.002883
  C      0.741086    1.362974   -0.002407
  C     -0.502189    0.714182   -0.004704
  N     -1.678808    1.455857   -0.072520
  H     -1.724935   -2.491669   -0.029827
  H     -2.463426   -1.169605    0.885178
  H     -2.476124   -1.128208   -0.876712
  H      0.614303   -2.490625    0.002654
  H      2.808971   -1.335629    0.000385
  H      2.875015    1.158791    0.000055
  H      0.768557    2.449708   -0.000743
  H     -1.581982    2.411075    0.241805
  H     -2.490147    1.009117    0.330554

 Total Charge           Charge          ....    0
 Multiplicity           Mult            ....    1
 Number of Electrons    NEL             ....   58
 Basis Dimension        Dim             ....  302

ORBITAL ENERGIES
----------------

  NO   OCC          E(Eh)            E(eV)
   0   2.0000     -14.168905      -385.5555
   1   2.0000     -10.068386      -273.9747
   2   2.0000     -10.034850      -273.0622
   3   2.0000     -10.032587      -273.0006
   4   2.0000     -10.026796      -272.8430
   5   2.0000     -10.026652      -272.8391
   6   2.0000     -10.024130      -272.7704
   7   2.0000     -10.019147      -272.6348
   8   2.0000      -0.888064       -24.1654
   9   2.0000      -0.799648       -21.7595
  10   2.0000      -0.734494       -19.9866
  11   2.0000      -0.689948       -18.7744
  12   2.0000      -0.648461       -17.6455
  13   2.0000      -0.571090       -15.5401
  14   2.0000      -0.549772       -14.9601
  15   2.0000      -0.482107       -13.1188
  16   2.0000      -0.478824       -13.0295
  17   2.0000      -0.434981       -11.8364
  18   2.0000      -0.403011       -10.9665
  19   2.0000      -0.395664       -10.7666
  20   2.0000      -0.389633       -10.6024
  21   2.0000      -0.372800       -10.1444
  22   2.0000      -0.356420        -9.6987
  23   2.0000      -0.339869        -9.2483
  24   2.0000      -0.314278        -8.5519
  25   2.0000      -0.302648        -8.2355
  26   2.0000      -0.285101        -7.7580
  27   2.0000      -0.221940        -6.0393
  28   2.0000      -0.183950        -5.0055
  29   0.0000      -0.023427        -0.6375
  30   0.0000      -0.010242        -0.2787
  31   0.0000       0.034258         0.9322
  32   0.0000       0.064780         1.7627
  33   0.0000       0.072733         1.9792

MULLIKEN ATOMIC CHARGES
-----------------------
   0 C :   -0.405575
   1 C :    0.027923
   2 C :   -0.126028
   3 C :   -0.162756
   4 C :   -0.076247
   5 C :   -0.273591
   6 C :    0.270897
   7 N :   -0.435412
   8 H :    0.111122
   9 H :    0.107833
  10 H :    0.133513
  11 H :    0.091000
  12 H :    0.099680
  13 H :    0.102114
  14 H :    0.081985
  15 H :    0.224011
  16 H :    0.229532
Sum of atomic charges:   -0.0000000

LOEWDIN ATOMIC CHARGES
----------------------
   0 C :   -0.262863
   1 C :   -0.163682
   2 C :   -0.124827
   3 C :   -0.167615
   4 C :   -0.151617
   5 C :   -0.140929
   6 C :   -0.218754
   7 N :   -0.039088
   8 H :    0.128490
   9 H :    0.122324
  10 H :    0.129030
  11 H :    0.143217
  12 H :    0.139392
  13 H :    0.141490
  14 H :    0.139310
  15 H :    0.163680
  16 H :    0.162441

  Mayer bond orders larger than 0.100000
B(  0-C ,  1-C ) :   0.9015 B(  0-C ,  8-H ) :   0.9769 B(  0-C ,  9-H ) :   0.9677
B(  0-C , 10-H ) :   0.9730 B(  1-C ,  2-C ) :   1.3874 B(  1-C ,  6-C ) :   1.2978
B(  2-C ,  3-C ) :   1.3990 B(  2-C , 11-H ) :   0.9739 B(  3-C ,  4-C ) :   1.3898
B(  3-C , 12-H ) :   0.9804 B(  4-C ,  5-C ) :   1.4310 B(  4-C , 13-H ) :   0.9695
B(  5-C ,  6-C ) :   1.3527 B(  5-C , 14-H ) :   0.9808 B(  6-C ,  7-N ) :   1.0574
B(  7-N , 15-H ) :   0.9242 B(  7-N , 16-H ) :   0.9157

Dispersion correction           -0.005439158
FINAL SINGLE POINT ENERGY      -326.856921004455

DIPOLE MOMENT
-------------

Method             : SCF
Type of density    : Electron Density
Multiplicity       :   1
Irrep              :   0
Energy             :  -326.8588448332280905 Eh
Relativity type    :
Basis              : AO
                                X                 Y                 Z
Electronic contribution:      2.906220380       1.730612574      -0.208603939
Nuclear contribution   :     -3.473788244      -1.486265825       0.574099168
                        -----------------------------------------
Total Dipole Moment    :     -0.567567863       0.244346749       0.365495229
                        -----------------------------------------
Magnitude (a.u.)       :      0.717931317
Magnitude (Debye)      :      1.824836385

VIBRATIONAL FREQUENCIES
-----------------------

Scaling factor for frequencies =  1.000000000  (already applied!)

     0:       0.00 cm**-1
     1:       0.00 cm**-1
     2:       0.00 cm**-1
     3:       0.00 cm**-1
     4:       0.00 cm**-1
     5:       0.00 cm**-1
     6:     172.58 cm**-1
     7:     206.35 cm**-1
     8:     261.51 cm**-1
     9:     319.37 cm**-1
    10:     386.43 cm**-1
    11:     434.79 cm**-1
    12:     444.20 cm**-1
    13:     524.89 cm**-1
    14:     546.11 cm**-1
    15:     597.01 cm**-1
    16:     643.53 cm**-1
    17:     723.83 cm**-1
    18:     753.45 cm**-1
    19:     760.13 cm**-1
    20:     843.49 cm**-1
    21:     863.26 cm**-1
    22:     910.71 cm**-1
    23:     938.36 cm**-1
    24:    1002.95 cm**-1
    25:    1048.79 cm**-1
    26:    1056.51 cm**-1
    27:    1090.14 cm**-1
    28:    1168.15 cm**-1
    29:    1180.73 cm**-1
    30:    1224.38 cm**-1
    31:    1301.21 cm**-1
    32:    1330.75 cm**-1
    33:    1357.66 cm**-1
    34:    1399.90 cm**-1
    35:    1469.27 cm**-1
    36:    1476.04 cm**-1
    37:    1503.71 cm**-1
    38:    1525.47 cm**-1
    39:    1612.52 cm**-1
    40:    1635.49 cm**-1
    41:    1663.95 cm**-1
    42:    2987.10 cm**-1
    43:    3040.22 cm**-1
    44:    3100.61 cm**-1
    45:    3142.22 cm**-1
    46:    3146.02 cm**-1
    47:    3161.89 cm**-1
    48:    3179.08 cm**-1
    49:    3528.85 cm**-1
    50:    3632.65 cm**-1

IR SPECTRUM
-----------

 Mode   freq       eps      Int      T**2         TX        TY        TZ
       cm**-1   L/(mol*cm) km/mol    a.u.
----------------------------------------------------------------------------
  6:    172.58   0.000080    0.40  0.000145  (-0.011997 -0.000680  0.000694)
  7:    206.35   0.000258    1.30  0.000390  (-0.007415 -0.003498 -0.017957)
  8:    261.51   0.001721    8.70  0.002054  (-0.004779  0.018746 -0.040980)
  9:    319.37   0.000012    0.06  0.000012  ( 0.000716  0.003335  0.000611)
 10:    386.43   0.004441   22.44  0.003586  ( 0.043397  0.040575  0.007515)
 11:    434.79   0.000048    0.24  0.000035  (-0.005713  0.001232  0.000734)
 12:    444.20   0.001774    8.96  0.001246  (-0.011749  0.006287 -0.032688)
 13:    524.89   0.000488    2.47  0.000290  ( 0.015748  0.000856  0.006440)
 14:    546.11   0.004971   25.12  0.002841  ( 0.029942 -0.021789  0.038332)
 15:    597.01   0.001068    5.39  0.000558  ( 0.012725 -0.016322  0.011388)
 16:    643.53   0.046711  236.06  0.022651  ( 0.107670 -0.072704  0.075979)
 17:    723.83   0.003341   16.88  0.001440  (-0.010629  0.004891  0.036104)
 18:    753.45   0.011818   59.72  0.004895  (-0.016702  0.010910 -0.067058)
 19:    760.13   0.002142   10.82  0.000879  (-0.005844  0.006707 -0.028286)
 20:    843.49   0.000812    4.10  0.000300  (-0.006031  0.008098 -0.014088)
 21:    863.26   0.000539    2.72  0.000195  ( 0.001061  0.007436  0.011767)
 22:    910.71   0.000445    2.25  0.000152  ( 0.002544 -0.000925  0.012045)
 23:    938.36   0.000010    0.05  0.000003  (-0.000205  0.000491  0.001754)
 24:   1002.95   0.001082    5.47  0.000337  (-0.017506 -0.005445  0.000736)
 25:   1048.79   0.000177    0.90  0.000053  ( 0.000209  0.001061 -0.007185)
 26:   1056.51   0.000950    4.80  0.000281  (-0.016593 -0.001375  0.001856)
 27:   1090.14   0.001548    7.82  0.000443  ( 0.020215 -0.005772  0.001120)
 28:   1168.15   0.001133    5.73  0.000303  ( 0.006558 -0.016096 -0.000745)
 29:   1180.73   0.000818    4.14  0.000216  ( 0.002764 -0.014441 -0.000338)
 30:   1224.38   0.000288    1.46  0.000073  (-0.008346 -0.001944  0.000227)
 31:   1301.21   0.006931   35.03  0.001662  ( 0.035681 -0.019725  0.000025)
 32:   1330.75   0.003083   15.58  0.000723  ( 0.025949 -0.007045  0.000253)
 33:   1357.66   0.000983    4.97  0.000226  ( 0.006234  0.013664 -0.000589)
 34:   1399.90   0.000322    1.63  0.000072  (-0.005689 -0.006263 -0.000335)
 35:   1469.27   0.001544    7.80  0.000328  (-0.016583  0.007037  0.001867)
 36:   1476.04   0.001760    8.89  0.000372  (-0.001691 -0.000188 -0.019215)
 37:   1503.71   0.003720   18.80  0.000772  ( 0.011401 -0.025312  0.001169)
 38:   1525.47   0.010750   54.33  0.002199  ( 0.042748 -0.019281  0.000228)
 39:   1612.52   0.002317   11.71  0.000448  (-0.011931  0.017462 -0.001023)
 40:   1635.49   0.002382   12.04  0.000455  (-0.016570  0.011640 -0.006673)
 41:   1663.95   0.020260  102.39  0.003800  (-0.045164  0.037787  0.018220)
 42:   2987.10   0.008267   41.78  0.000864  (-0.027314 -0.009393  0.005422)
 43:   3040.22   0.004111   20.78  0.000422  (-0.000999 -0.003465 -0.020223)
 44:   3100.61   0.002612   13.20  0.000263  ( 0.003100 -0.015914  0.000092)
 45:   3142.22   0.003522   17.80  0.000350  (-0.005317  0.017930  0.000118)
 46:   3146.02   0.000939    4.75  0.000093  ( 0.006957  0.006692 -0.000044)
 47:   3161.89   0.004508   22.78  0.000445  (-0.004936 -0.020506 -0.000026)
 48:   3179.08   0.003149   15.92  0.000309  (-0.017269  0.003307  0.000020)
 49:   3528.85   0.001869    9.44  0.000165  (-0.010094  0.006486  0.004616)
 50:   3632.65   0.002750   13.90  0.000236  ( 0.007310  0.013522  0.000034)

--------------------------
THERMOCHEMISTRY AT 298.15K
--------------------------

Temperature         ...   298.15 K
Pressure            ...     1.00 atm
Total Mass          ...   107.16 AMU
Quasi RRHO          ...     True
Cut-Off Frequency   ...     1.00 cm^-1

Throughout the following assumptions are being made:
  (1) The electronic state is orbitally nondegenerate
  (2) There are no thermally accessible electronically excited states
  (3) Hindered rotations indicated by low frequency modes are not
      treated as such but are treated as vibrations and this may
      cause some error
  (4) All equations used are the standard statistical mechanics
      equations for an ideal gas
  (5) All vibrations are strictly harmonic

freq.     172.58  E(vib)   ...       0.38
freq.     206.35  E(vib)   ...       0.35
freq.     261.51  E(vib)   ...       0.30
freq.     319.37  E(vib)   ...       0.25
freq.     386.43  E(vib)   ...       0.20
freq.     434.79  E(vib)   ...       0.17
freq.     444.20  E(vib)   ...       0.17
freq.     524.89  E(vib)   ...       0.13
freq.     546.11  E(vib)   ...       0.12
freq.     597.01  E(vib)   ...       0.10
freq.     643.53  E(vib)   ...       0.09
freq.     723.83  E(vib)   ...       0.06
freq.     753.45  E(vib)   ...       0.06
freq.     760.13  E(vib)   ...       0.06
freq.     843.49  E(vib)   ...       0.04
freq.     863.26  E(vib)   ...       0.04
freq.     910.71  E(vib)   ...       0.03
freq.     938.36  E(vib)   ...       0.03
freq.    1002.95  E(vib)   ...       0.02
freq.    1048.79  E(vib)   ...       0.02
freq.    1056.51  E(vib)   ...       0.02
freq.    1090.14  E(vib)   ...       0.02
freq.    1168.15  E(vib)   ...       0.01
freq.    1180.73  E(vib)   ...       0.01
freq.    1224.38  E(vib)   ...       0.01
freq.    1301.21  E(vib)   ...       0.01
freq.    1330.75  E(vib)   ...       0.01
freq.    1357.66  E(vib)   ...       0.01
freq.    1399.90  E(vib)   ...       0.00
freq.    1469.27  E(vib)   ...       0.00
freq.    1476.04  E(vib)   ...       0.00
freq.    1503.71  E(vib)   ...       0.00
freq.    1525.47  E(vib)   ...       0.00
freq.    1612.52  E(vib)   ...       0.00
freq.    1635.49  E(vib)   ...       0.00
freq.    1663.95  E(vib)   ...       0.00
freq.    2987.10  E(vib)   ...       0.00
freq.    3040.22  E(vib)   ...       0.00
freq.    3100.61  E(vib)   ...       0.00
freq.    3142.22  E(vib)   ...       0.00
freq.    3146.02  E(vib)   ...       0.00
freq.    3161.89  E(vib)   ...       0.00
freq.    3179.08  E(vib)   ...       0.00
freq.    3528.85  E(vib)   ...       0.00
freq.    3632.65  E(vib)   ...       0.00

------------
INNER ENERGY
------------

The inner energy is: U= E(el) + E(ZPE) + E(vib) + E(rot) + E(trans)
    E(el)   - is the total energy from the electronic structure calculation
              = E(kin-el) + E(nuc-el) + E(el-el) + E(nuc-nuc)
    E(ZPE)  - the the zero temperature vibrational energy from the frequency calculation
    E(vib)  - the the finite temperature correction to E(ZPE) due to population
              of excited vibrational states
    E(rot)  - is the rotational thermal energy
    E(trans)- is the translational thermal energy

Summary of contributions to the inner energy U:
Electronic energy                ...   -326.85692100 Eh
Zero point energy                ...      0.14419940 Eh      90.49 kcal/mol
Thermal vibrational correction   ...      0.00434438 Eh       2.73 kcal/mol
Thermal rotational correction    ...      0.00141627 Eh       0.89 kcal/mol
Thermal translational correction ...      0.00141627 Eh       0.89 kcal/mol
-----------------------------------------------------------------------
Total thermal energy                   -326.70554467 Eh

Summary of corrections to the electronic energy:
(perhaps to be used in another calculation)
Total thermal correction                  0.00717693 Eh       4.50 kcal/mol
Non-thermal (ZPE) correction              0.14419940 Eh      90.49 kcal/mol
-----------------------------------------------------------------------
Total correction                          0.15137633 Eh      94.99 kcal/mol

--------
ENTHALPY
--------

The enthalpy is H = U + kB*T
                kB is Boltzmann's constant
Total thermal energy              ...   -326.70554467 Eh
Thermal Enthalpy correction       ...      0.00094421 Eh       0.59 kcal/mol
-----------------------------------------------------------------------
Total Enthalpy                    ...   -326.70460047 Eh

Note: Only C1 symmetry has been detected, increase convergence thresholds
      if your molecule has a higher symmetry. Symmetry factor of 1.0 is
      used for the rotational entropy correction.

Note: Rotational entropy computed according to Herzberg
Infrared and Raman Spectra, Chapter V,1, Van Nostrand Reinhold, 1945
Point Group:  C1, Symmetry Number:   1
Rotational constants in cm-1:     0.107846     0.073181     0.044007

Vibrational entropy computed according to the QRRHO of S. Grimme
Chem.Eur.J. 2012 18 9955 using a reference frequency of 100.0 cm-1

-------
ENTROPY
-------

The entropy contributions are T*S = T*(S(el)+S(vib)+S(rot)+S(trans))
     S(el)   - electronic entropy
     S(vib)  - vibrational entropy
     S(rot)  - rotational entropy
     S(trans)- translational entropy
The entropies will be listed as multiplied by the temperature to get
units of energy

Electronic entropy                ...      0.00000000 Eh      0.00 kcal/mol
Vibrational entropy               ...      0.00668670 Eh      4.20 kcal/mol
Rotational entropy                ...      0.01327114 Eh      8.33 kcal/mol
Translational entropy             ...      0.01896913 Eh     11.90 kcal/mol
-----------------------------------------------------------------------
Final entropy term                ...      0.03892697 Eh     24.43 kcal/mol

In case the symmetry of your molecule has not been determined correctly
or in case you have a reason to use a different symmetry number we print
out the resulting rotational entropy values for sn=1,12:

 non-linear molecules -----------------------------------
|  sn= 1 | S(rot)=       0.01327114 Eh      8.33 kcal/mol|
|  sn= 2 | S(rot)=       0.01261668 Eh      7.92 kcal/mol|
|  sn= 3 | S(rot)=       0.01223385 Eh      7.68 kcal/mol|
|  sn= 4 | S(rot)=       0.01196222 Eh      7.51 kcal/mol|
|  sn= 5 | S(rot)=       0.01175153 Eh      7.37 kcal/mol|
|  sn= 6 | S(rot)=       0.01157939 Eh      7.27 kcal/mol|
|  sn= 7 | S(rot)=       0.01143384 Eh      7.17 kcal/mol|
|  sn= 8 | S(rot)=       0.01130777 Eh      7.10 kcal/mol|
|  sn= 9 | S(rot)=       0.01119656 Eh      7.03 kcal/mol|
|  sn=10 | S(rot)=       0.01109708 Eh      6.96 kcal/mol|
|  sn=11 | S(rot)=       0.01100709 Eh      6.91 kcal/mol|
|  sn=12 | S(rot)=       0.01092493 Eh      6.86 kcal/mol|
 linear molecules ---------------------------------------
|  Dinfh | S(rot)=       0.00827486 Eh      5.19 kcal/mol|
|  Cinfv | S(rot)=       0.00892932 Eh      5.60 kcal/mol|

                             ****ORCA TERMINATED NORMALLY****
TOTAL RUN TIME: 0 days 0 hours 11 minutes 52 seconds 599 msec
