                         Program Version 6.0.0  -   RELEASE  -
|  1> ! r2SCAN-3c DEF2-TZVP FREQ
|  2> * xyzfile 0 1 vacuum_censo.xyz
|  3>
|  4>                          ****END OF INPUT****

CARTESIAN COORDINATES (ANGSTROEM)
---------------------------------
  C     -1.869328   -1.406773   -0.008716
  C     -0.546061   -0.695719    0.002956
  C      0.654758   -1.401469    0.006593
  C      1.887926   -0.755982    0.003492
  C      1.922303    0.634613   -0.003586
  C      0.740068    1.362688   -0.003432
  C     -0.499697    0.712725    0.000132
  N     -1.683422    1.452364   -0.068066
  H     -2.479890   -1.102927   -0.867911
  H     -1.727369   -2.488260   -0.061839
  H     -2.454983   -1.200349    0.897916
  H      0.617164   -2.487677    0.009161
  H      2.807022   -1.331538    0.004896
  H      2.872551    1.159250   -0.006467
  H      0.771084    2.449340   -0.011578
  H     -2.487333    1.012019    0.352306
  H     -1.590929    2.410487    0.232834

 Total Charge           Charge          ....    0
 Multiplicity           Mult            ....    1
 Number of Electrons    NEL             ....   58
 Basis Dimension        Dim             ....  302

ORBITAL ENERGIES
----------------

  NO   OCC          E(Eh)            E(eV)
   0   2.0000     -14.167953      -385.5296
   1   2.0000     -10.068069      -273.9661
   2   2.0000     -10.034578      -273.0547
   3   2.0000     -10.032374      -272.9948
   4   2.0000     -10.026425      -272.8329
   5   2.0000     -10.026244      -272.8280
   6   2.0000     -10.023957      -272.7657
   7   2.0000     -10.018756      -272.6242
   8   2.0000      -0.886866       -24.1328
   9   2.0000      -0.800613       -21.7858
  10   2.0000      -0.734604       -19.9896
  11   2.0000      -0.690775       -18.7970
  12   2.0000      -0.648694       -17.6519
  13   2.0000      -0.571279       -15.5453
  14   2.0000      -0.549833       -14.9617
  15   2.0000      -0.482157       -13.1202
  16   2.0000      -0.478210       -13.0128
  17   2.0000      -0.434581       -11.8255
  18   2.0000      -0.403446       -10.9783
  19   2.0000      -0.395587       -10.7645
  20   2.0000      -0.389824       -10.6076
  21   2.0000      -0.372850       -10.1458
  22   2.0000      -0.356013        -9.6876
  23   2.0000      -0.339882        -9.2487
  24   2.0000      -0.314214        -8.5502
  25   2.0000      -0.302974        -8.2443
  26   2.0000      -0.284731        -7.7479
  27   2.0000      -0.222360        -6.0507
  28   2.0000      -0.184556        -5.0220
  29   0.0000      -0.023328        -0.6348
  30   0.0000      -0.010077        -0.2742
  31   0.0000       0.034934         0.9506
  32   0.0000       0.064854         1.7648
  33   0.0000       0.073004         1.9865

MULLIKEN ATOMIC CHARGES
-----------------------
   0 C :   -0.408714
   1 C :    0.024958
   2 C :   -0.124760
   3 C :   -0.162247
   4 C :   -0.074643
   5 C :   -0.275097
   6 C :    0.275907
   7 N :   -0.437273
   8 H :    0.133653
   9 H :    0.111035
  10 H :    0.109920
  11 H :    0.090951
  12 H :    0.099417
  13 H :    0.102021
  14 H :    0.082466
  15 H :    0.229693
  16 H :    0.222714
Sum of atomic charges:    0.0000000

LOEWDIN ATOMIC CHARGES
----------------------
   0 C :   -0.262654
   1 C :   -0.163530
   2 C :   -0.124647
   3 C :   -0.167360
   4 C :   -0.151446
   5 C :   -0.140552
   6 C :   -0.216596
   7 N :   -0.041231
   8 H :    0.129224
   9 H :    0.128160
  10 H :    0.122783
  11 H :    0.143463
  12 H :    0.139575
  13 H :    0.141602
  14 H :    0.139769
  15 H :    0.161430
  16 H :    0.162010

  Mayer bond orders larger than 0.100000
B(  0-C ,  1-C ) :   0.9027 B(  0-C ,  8-H ) :   0.9731 B(  0-C ,  9-H ) :   0.9770
B(  0-C , 10-H ) :   0.9675 B(  1-C ,  2-C ) :   1.3861 B(  1-C ,  6-C ) :   1.3011
B(  2-C ,  3-C ) :   1.4004 B(  2-C , 11-H ) :   0.9744 B(  3-C ,  4-C ) :   1.3906
B(  3-C , 12-H ) :   0.9806 B(  4-C ,  5-C ) :   1.4314 B(  4-C , 13-H ) :   0.9695
B(  5-C ,  6-C ) :   1.3559 B(  5-C , 14-H ) :   0.9809 B(  6-C ,  7-N ) :   1.0492
B(  7-N , 15-H ) :   0.9166 B(  7-N , 16-H ) :   0.9254

Dispersion correction           -0.005441262
FINAL SINGLE POINT ENERGY      -326.857008141412

DIPOLE MOMENT
-------------

Method             : SCF
Type of density    : Electron Density
Multiplicity       :   1
Irrep              :   0
Energy             :  -326.8589174616379296 Eh
Relativity type    :
Basis              : AO
                                X                 Y                 Z
Electronic contribution:      2.922088946       1.726431300      -0.185059935
Nuclear contribution   :     -3.472481649      -1.484637313       0.548923591
                        -----------------------------------------
Total Dipole Moment    :     -0.550392703       0.241793987       0.363863656
                        -----------------------------------------
Magnitude (a.u.)       :      0.702704219
Magnitude (Debye)      :      1.786132178

VIBRATIONAL FREQUENCIES
-----------------------

Scaling factor for frequencies =  1.000000000  (already applied!)

     0:       0.00 cm**-1
     1:       0.00 cm**-1
     2:       0.00 cm**-1
     3:       0.00 cm**-1
     4:       0.00 cm**-1
     5:       0.00 cm**-1
     6:     172.58 cm**-1
     7:     208.10 cm**-1
     8:     260.68 cm**-1
     9:     316.41 cm**-1
    10:     354.90 cm**-1
    11:     432.16 cm**-1
    12:     442.65 cm**-1
    13:     524.42 cm**-1
    14:     544.09 cm**-1
    15:     596.29 cm**-1
    16:     634.84 cm**-1
    17:     723.47 cm**-1
    18:     752.21 cm**-1
    19:     761.19 cm**-1
    20:     844.06 cm**-1
    21:     862.40 cm**-1
    22:     911.25 cm**-1
    23:     938.39 cm**-1
    24:    1002.60 cm**-1
    25:    1050.82 cm**-1
    26:    1058.03 cm**-1
    27:    1088.96 cm**-1
    28:    1167.91 cm**-1
    29:    1182.12 cm**-1
    30:    1223.37 cm**-1
    31:    1295.06 cm**-1
    32:    1330.45 cm**-1
    33:    1365.54 cm**-1
    34:    1400.91 cm**-1
    35:    1470.25 cm**-1
    36:    1477.81 cm**-1
    37:    1504.60 cm**-1
    38:    1527.40 cm**-1
    39:    1620.40 cm**-1
    40:    1640.64 cm**-1
    41:    1661.99 cm**-1
    42:    2981.86 cm**-1
    43:    3038.82 cm**-1
    44:    3101.05 cm**-1
    45:    3143.04 cm**-1
    46:    3148.20 cm**-1
    47:    3165.80 cm**-1
    48:    3184.23 cm**-1
    49:    3550.06 cm**-1
    50:    3652.02 cm**-1

IR SPECTRUM
-----------

 Mode   freq       eps      Int      T**2         TX        TY        TZ
       cm**-1   L/(mol*cm) km/mol    a.u.
----------------------------------------------------------------------------
  6:    172.58   0.000107    0.54  0.000193  ( 0.013746  0.001994 -0.000221)
  7:    208.10   0.000322    1.63  0.000483  (-0.011105 -0.004973 -0.018297)
  8:    260.68   0.001804    9.12  0.002159  (-0.000446  0.023038 -0.040354)
  9:    316.41   0.000210    1.06  0.000207  ( 0.009111  0.010862  0.002525)
 10:    354.90   0.004301   21.74  0.003782  (-0.045708 -0.040189 -0.008816)
 11:    432.16   0.000038    0.19  0.000027  (-0.004240  0.003047  0.000273)
 12:    442.65   0.001890    9.55  0.001332  ( 0.011892 -0.007722  0.033632)
 13:    524.42   0.000583    2.95  0.000347  ( 0.017080  0.000240  0.007445)
 14:    544.09   0.005891   29.77  0.003379  (-0.034431  0.023174 -0.040696)
 15:    596.29   0.001710    8.64  0.000895  (-0.017749  0.019295 -0.014402)
 16:    634.84   0.044959  227.21  0.022101  ( 0.107491 -0.070241  0.074917)
 17:    723.47   0.003647   18.43  0.001573  ( 0.008531 -0.004321 -0.038491)
 18:    752.21   0.011982   60.55  0.004971  ( 0.016537 -0.010494  0.067731)
 19:    761.19   0.001143    5.78  0.000469  ( 0.002820 -0.004678  0.020951)
 20:    844.06   0.000717    3.63  0.000265  (-0.005507  0.007300 -0.013476)
 21:    862.40   0.000581    2.94  0.000210  (-0.000450 -0.007883 -0.012158)
 22:    911.25   0.000463    2.34  0.000158  (-0.002735  0.000751 -0.012265)
 23:    938.39   0.000008    0.04  0.000003  (-0.000197  0.000275  0.001564)
 24:   1002.60   0.001090    5.51  0.000339  ( 0.017785  0.004690 -0.000918)
 25:   1050.82   0.000173    0.88  0.000052  (-0.001202 -0.001545  0.006905)
 26:   1058.03   0.000771    3.90  0.000228  (-0.014871 -0.001602  0.001949)
 27:   1088.96   0.001643    8.30  0.000471  ( 0.020909 -0.005691  0.001087)
 28:   1167.91   0.001284    6.49  0.000343  ( 0.007109 -0.017092 -0.000693)
 29:   1182.12   0.000710    3.59  0.000187  ( 0.002824 -0.013391 -0.000280)
 30:   1223.37   0.000179    0.91  0.000046  ( 0.006366  0.002281 -0.000188)
 31:   1295.06   0.008059   40.73  0.001942  (-0.038748  0.020987  0.000291)
 32:   1330.45   0.002334   11.79  0.000547  ( 0.022435 -0.006624  0.000353)
 33:   1365.54   0.001027    5.19  0.000235  ( 0.008745  0.012563 -0.000675)
 34:   1400.91   0.000354    1.79  0.000079  ( 0.005964  0.006559  0.000598)
 35:   1470.25   0.001295    6.54  0.000275  (-0.015640  0.005504  0.000078)
 36:   1477.81   0.001712    8.65  0.000362  (-0.000271  0.001445  0.018957)
 37:   1504.60   0.003944   19.93  0.000818  ( 0.012426 -0.025728  0.001328)
 38:   1527.40   0.010567   53.40  0.002159  (-0.042398  0.019011  0.000039)
 39:   1620.40   0.002521   12.74  0.000486  ( 0.012815 -0.017876  0.001318)
 40:   1640.64   0.001226    6.19  0.000233  ( 0.011042 -0.006513  0.008295)
 41:   1661.99   0.019996  101.05  0.003755  ( 0.044935 -0.037663 -0.017802)
 42:   2981.86   0.008192   41.40  0.000857  ( 0.026980  0.008921 -0.007057)
 43:   3038.82   0.003943   19.93  0.000405  ( 0.002749  0.004167  0.019494)
 44:   3101.05   0.002711   13.70  0.000273  (-0.002319  0.016350 -0.000318)
 45:   3143.04   0.003509   17.73  0.000348  (-0.005959  0.017688  0.000078)
 46:   3148.20   0.001339    6.77  0.000133  (-0.005405 -0.010174  0.000027)
 47:   3165.80   0.004021   20.32  0.000396  ( 0.005959  0.018997 -0.000065)
 48:   3184.23   0.003235   16.35  0.000317  ( 0.017365 -0.003936 -0.000028)
 49:   3550.06   0.001897    9.59  0.000167  ( 0.010199 -0.006489 -0.004545)
 50:   3652.02   0.002639   13.34  0.000226  ( 0.007073  0.013244 -0.000264)

--------------------------
THERMOCHEMISTRY AT 298.15K
--------------------------

Temperature         ...   298.15 K
Pressure            ...     1.00 atm
Total Mass          ...   107.16 AMU
Quasi RRHO          ...     True
Cut-Off Frequency   ...     1.00 cm^-1

Throughout the following assumptions are being made:
  (1) The electronic state is orbitally nondegenerate
  (2) There are no thermally accessible electronically excited states
  (3) Hindered rotations indicated by low frequency modes are not
      treated as such but are treated as vibrations and this may
      cause some error
  (4) All equations used are the standard statistical mechanics
      equations for an ideal gas
  (5) All vibrations are strictly harmonic

freq.     172.58  E(vib)   ...       0.38
freq.     208.10  E(vib)   ...       0.34
freq.     260.68  E(vib)   ...       0.30
freq.     316.41  E(vib)   ...       0.25
freq.     354.90  E(vib)   ...       0.22
freq.     432.16  E(vib)   ...       0.18
freq.     442.65  E(vib)   ...       0.17
freq.     524.42  E(vib)   ...       0.13
freq.     544.09  E(vib)   ...       0.12
freq.     596.29  E(vib)   ...       0.10
freq.     634.84  E(vib)   ...       0.09
freq.     723.47  E(vib)   ...       0.06
freq.     752.21  E(vib)   ...       0.06
freq.     761.19  E(vib)   ...       0.06
freq.     844.06  E(vib)   ...       0.04
freq.     862.40  E(vib)   ...       0.04
freq.     911.25  E(vib)   ...       0.03
freq.     938.39  E(vib)   ...       0.03
freq.    1002.60  E(vib)   ...       0.02
freq.    1050.82  E(vib)   ...       0.02
freq.    1058.03  E(vib)   ...       0.02
freq.    1088.96  E(vib)   ...       0.02
freq.    1167.91  E(vib)   ...       0.01
freq.    1182.12  E(vib)   ...       0.01
freq.    1223.37  E(vib)   ...       0.01
freq.    1295.06  E(vib)   ...       0.01
freq.    1330.45  E(vib)   ...       0.01
freq.    1365.54  E(vib)   ...       0.01
freq.    1400.91  E(vib)   ...       0.00
freq.    1470.25  E(vib)   ...       0.00
freq.    1477.81  E(vib)   ...       0.00
freq.    1504.60  E(vib)   ...       0.00
freq.    1527.40  E(vib)   ...       0.00
freq.    1620.40  E(vib)   ...       0.00
freq.    1640.64  E(vib)   ...       0.00
freq.    1661.99  E(vib)   ...       0.00
freq.    2981.86  E(vib)   ...       0.00
freq.    3038.82  E(vib)   ...       0.00
freq.    3101.05  E(vib)   ...       0.00
freq.    3143.04  E(vib)   ...       0.00
freq.    3148.20  E(vib)   ...       0.00
freq.    3165.80  E(vib)   ...       0.00
freq.    3184.23  E(vib)   ...       0.00
freq.    3550.06  E(vib)   ...       0.00
freq.    3652.02  E(vib)   ...       0.00

------------
INNER ENERGY
------------

The inner energy is: U= E(el) + E(ZPE) + E(vib) + E(rot) + E(trans)
    E(el)   - is the total energy from the electronic structure calculation
              = E(kin-el) + E(nuc-el) + E(el-el) + E(nuc-nuc)
    E(ZPE)  - the the zero temperature vibrational energy from the frequency calculation
    E(vib)  - the the finite temperature correction to E(ZPE) due to population
              of excited vibrational states
    E(rot)  - is the rotational thermal energy
    E(trans)- is the translational thermal energy

Summary of contributions to the inner energy U:
Electronic energy                ...   -326.85700814 Eh
Zero point energy                ...      0.14424006 Eh      90.51 kcal/mol
Thermal vibrational correction   ...      0.00438902 Eh       2.75 kcal/mol
Thermal rotational correction    ...      0.00141627 Eh       0.89 kcal/mol
Thermal translational correction ...      0.00141627 Eh       0.89 kcal/mol
-----------------------------------------------------------------------
Total thermal energy                   -326.70554652 Eh

Summary of corrections to the electronic energy:
(perhaps to be used in another calculation)
Total thermal correction                  0.00722156 Eh       4.53 kcal/mol
Non-thermal (ZPE) correction              0.14424006 Eh      90.51 kcal/mol
-----------------------------------------------------------------------
Total correction                          0.15146162 Eh      95.04 kcal/mol

--------
ENTHALPY
--------

The enthalpy is H = U + kB*T
                kB is Boltzmann's constant
Total thermal energy              ...   -326.70554652 Eh
Thermal Enthalpy correction       ...      0.00094421 Eh       0.59 kcal/mol
-----------------------------------------------------------------------
Total Enthalpy                    ...   -326.70460231 Eh

Note: Only C1 symmetry has been detected, increase convergence thresholds
      if your molecule has a higher symmetry. Symmetry factor of 1.0 is
      used for the rotational entropy correction.

Note: Rotational entropy computed according to Herzberg
Infrared and Raman Spectra, Chapter V,1, Van Nostrand Reinhold, 1945
Point Group:  C1, Symmetry Number:   1
Rotational constants in cm-1:     0.108144     0.073199     0.044067

Vibrational entropy computed according to the QRRHO of S. Grimme
Chem.Eur.J. 2012 18 9955 using a reference frequency of 100.0 cm-1

-------
ENTROPY
-------

The entropy contributions are T*S = T*(S(el)+S(vib)+S(rot)+S(trans))
     S(el)   - electronic entropy
     S(vib)  - vibrational entropy
     S(rot)  - rotational entropy
     S(trans)- translational entropy
The entropies will be listed as multiplied by the temperature to get
units of energy

Electronic entropy                ...      0.00000000 Eh      0.00 kcal/mol
Vibrational entropy               ...      0.00676684 Eh      4.25 kcal/mol
Rotational entropy                ...      0.01326908 Eh      8.33 kcal/mol
Translational entropy             ...      0.01896913 Eh     11.90 kcal/mol
-----------------------------------------------------------------------
Final entropy term                ...      0.03900505 Eh     24.48 kcal/mol

In case the symmetry of your molecule has not been determined correctly
or in case you have a reason to use a different symmetry number we print
out the resulting rotational entropy values for sn=1,12:

 non-linear molecules -----------------------------------
|  sn= 1 | S(rot)=       0.01326908 Eh      8.33 kcal/mol|
|  sn= 2 | S(rot)=       0.01261463 Eh      7.92 kcal/mol|
|  sn= 3 | S(rot)=       0.01223179 Eh      7.68 kcal/mol|
|  sn= 4 | S(rot)=       0.01196017 Eh      7.51 kcal/mol|
|  sn= 5 | S(rot)=       0.01174948 Eh      7.37 kcal/mol|
|  sn= 6 | S(rot)=       0.01157734 Eh      7.26 kcal/mol|
|  sn= 7 | S(rot)=       0.01143179 Eh      7.17 kcal/mol|
|  sn= 8 | S(rot)=       0.01130571 Eh      7.09 kcal/mol|
|  sn= 9 | S(rot)=       0.01119450 Eh      7.02 kcal/mol|
|  sn=10 | S(rot)=       0.01109502 Eh      6.96 kcal/mol|
|  sn=11 | S(rot)=       0.01100503 Eh      6.91 kcal/mol|
|  sn=12 | S(rot)=       0.01092288 Eh      6.85 kcal/mol|
 linear molecules ---------------------------------------
|  Dinfh | S(rot)=       0.00827358 Eh      5.19 kcal/mol|
|  Cinfv | S(rot)=       0.00892804 Eh      5.60 kcal/mol|

                             ****ORCA TERMINATED NORMALLY****
TOTAL RUN TIME: 0 days 0 hours 11 minutes 38 seconds 92 msec
