                         Program Version 6.0.0  -   RELEASE  -
|  1> ! r2SCAN-3c DEF2-TZVP FREQ
|  2> * xyzfile 0 1 censo.xyz
|  3>
|  4>                          ****END OF INPUT****

CARTESIAN COORDINATES (ANGSTROEM)
---------------------------------
  C      2.074904   -1.034345    0.000351
  C      2.331340    0.343078    0.000121
  C      1.300903    1.271787   -0.000102
  C     -0.021971    0.829948   -0.000129
  C     -0.300699   -0.558997   -0.000039
  C      0.766166   -1.475533    0.000283
  C     -1.658332   -1.046776   -0.000429
  O     -2.659019   -0.312844   -0.000040
  O     -1.018052    1.746606   -0.000397
  H      2.895956   -1.741994    0.000557
  H      3.357485    0.696807    0.000175
  H      1.503964    2.337309   -0.000277
  H      0.535031   -2.537072    0.000433
  H     -1.780922   -2.144177    0.000659
  H     -1.867731    1.239717   -0.000390

 Total Charge           Charge          ....    0
 Multiplicity           Mult            ....    1
 Number of Electrons    NEL             ....   64
 Basis Dimension        Dim             ....  315

ORBITAL ENERGIES
----------------

  NO   OCC          E(Eh)            E(eV)
   0   2.0000     -18.986955      -516.6613
   1   2.0000     -18.964158      -516.0410
   2   2.0000     -10.133635      -275.7502
   3   2.0000     -10.122809      -275.4556
   4   2.0000     -10.065530      -273.8970
   5   2.0000     -10.064084      -273.8576
   6   2.0000     -10.061205      -273.7793
   7   2.0000     -10.050708      -273.4937
   8   2.0000     -10.050403      -273.4854
   9   2.0000      -1.038426       -28.2570
  10   2.0000      -1.008974       -27.4556
  11   2.0000      -0.841126       -22.8882
  12   2.0000      -0.754096       -20.5200
  13   2.0000      -0.727319       -19.7913
  14   2.0000      -0.637100       -17.3364
  15   2.0000      -0.596336       -16.2271
  16   2.0000      -0.576174       -15.6785
  17   2.0000      -0.503568       -13.7028
  18   2.0000      -0.496141       -13.5007
  19   2.0000      -0.452510       -12.3134
  20   2.0000      -0.439710       -11.9651
  21   2.0000      -0.418239       -11.3809
  22   2.0000      -0.411744       -11.2041
  23   2.0000      -0.411552       -11.1989
  24   2.0000      -0.371755       -10.1160
  25   2.0000      -0.365517        -9.9462
  26   2.0000      -0.356865        -9.7108
  27   2.0000      -0.330060        -8.9814
  28   2.0000      -0.329424        -8.9641
  29   2.0000      -0.262488        -7.1427
  30   2.0000      -0.244155        -6.6438
  31   2.0000      -0.225922        -6.1477
  32   0.0000      -0.106127        -2.8879
  33   0.0000      -0.043497        -1.1836
  34   0.0000      -0.005849        -0.1592
  35   0.0000       0.048852         1.3293
  36   0.0000       0.069347         1.8870

MULLIKEN ATOMIC CHARGES
-----------------------
   0 C :   -0.152196
   1 C :   -0.045788
   2 C :   -0.233469
   3 C :    0.234611
   4 C :    0.049151
   5 C :   -0.139927
   6 C :    0.154526
   7 O :   -0.393940
   8 O :   -0.381741
   9 H :    0.116191
  10 H :    0.121923
  11 H :    0.121059
  12 H :    0.116872
  13 H :    0.085040
  14 H :    0.347689
Sum of atomic charges:    0.0000000

LOEWDIN ATOMIC CHARGES
----------------------
   0 C :   -0.153700
   1 C :   -0.110916
   2 C :   -0.110597
   3 C :   -0.212027
   4 C :   -0.157500
   5 C :   -0.090655
   6 C :   -0.243617
   7 O :    0.057235
   8 O :    0.114022
   9 H :    0.145055
  10 H :    0.148397
  11 H :    0.152940
  12 H :    0.150097
  13 H :    0.124141
  14 H :    0.187125

  Mayer bond orders larger than 0.100000
B(  0-C ,  1-C ) :   1.3340 B(  0-C ,  5-C ) :   1.4736 B(  0-C ,  9-H ) :   0.9735
B(  1-C ,  2-C ) :   1.4226 B(  1-C , 10-H ) :   0.9646 B(  2-C ,  3-C ) :   1.3817
B(  2-C , 11-H ) :   0.9748 B(  3-C ,  4-C ) :   1.1829 B(  3-C ,  8-O ) :   1.2393
B(  4-C ,  5-C ) :   1.2186 B(  4-C ,  6-C ) :   1.0297 B(  5-C , 12-H ) :   0.9605
B(  6-C ,  7-O ) :   1.8156 B(  6-C , 13-H ) :   1.0012 B(  7-O , 14-H ) :   0.1353
B(  8-O , 14-H ) :   0.7718

Dispersion correction           -0.005041304
FINAL SINGLE POINT ENERGY      -420.753590930250

DIPOLE MOMENT
-------------

Method             : SCF
Type of density    : Electron Density
Multiplicity       :   1
Irrep              :   0
Energy             :  -420.7548564639146207 Eh
Relativity type    :
Basis              : AO
                                X                 Y                 Z
Electronic contribution:     -3.235190978       1.369072642      -0.001254905
Nuclear contribution   :      4.311172596      -2.027928982       0.001316723
                        -----------------------------------------
Total Dipole Moment    :      1.075981618      -0.658856340       0.000061818
                        -----------------------------------------
Magnitude (a.u.)       :      1.261676711
Magnitude (Debye)      :      3.206927341

VIBRATIONAL FREQUENCIES
-----------------------

Scaling factor for frequencies =  1.000000000  (already applied!)

     0:       0.00 cm**-1
     1:       0.00 cm**-1
     2:       0.00 cm**-1
     3:       0.00 cm**-1
     4:       0.00 cm**-1
     5:       0.00 cm**-1
     6:     149.23 cm**-1
     7:     228.30 cm**-1
     8:     262.81 cm**-1
     9:     311.87 cm**-1
    10:     422.20 cm**-1
    11:     437.44 cm**-1
    12:     464.55 cm**-1
    13:     548.57 cm**-1
    14:     573.62 cm**-1
    15:     679.55 cm**-1
    16:     738.77 cm**-1
    17:     762.88 cm**-1
    18:     780.00 cm**-1
    19:     821.81 cm**-1
    20:     868.33 cm**-1
    21:     902.47 cm**-1
    22:     938.73 cm**-1
    23:     977.17 cm**-1
    24:    1000.17 cm**-1
    25:    1047.37 cm**-1
    26:    1139.88 cm**-1
    27:    1176.63 cm**-1
    28:    1231.53 cm**-1
    29:    1245.78 cm**-1
    30:    1292.72 cm**-1
    31:    1369.87 cm**-1
    32:    1390.93 cm**-1
    33:    1418.18 cm**-1
    34:    1472.73 cm**-1
    35:    1513.62 cm**-1
    36:    1607.55 cm**-1
    37:    1642.58 cm**-1
    38:    1661.00 cm**-1
    39:    2963.35 cm**-1
    40:    3159.17 cm**-1
    41:    3168.50 cm**-1
    42:    3186.12 cm**-1
    43:    3192.57 cm**-1
    44:    3293.38 cm**-1

IR SPECTRUM
-----------

 Mode   freq       eps      Int      T**2         TX        TY        TZ
       cm**-1   L/(mol*cm) km/mol    a.u.
----------------------------------------------------------------------------
  6:    149.23   0.000003    0.02  0.000007  ( 0.000077 -0.000138 -0.002649)
  7:    228.30   0.000259    1.31  0.000354  ( 0.000249 -0.000012 -0.018815)
  8:    262.81   0.001919    9.70  0.002279  (-0.017681 -0.044343 -0.000003)
  9:    311.87   0.000832    4.20  0.000833  ( 0.000144  0.000167 -0.028853)
 10:    422.20   0.000689    3.48  0.000509  ( 0.016110 -0.015797  0.000004)
 11:    437.44   0.000223    1.13  0.000159  (-0.000062 -0.000062  0.012604)
 12:    464.55   0.000997    5.04  0.000670  (-0.025420  0.004885  0.000000)
 13:    548.57   0.001063    5.37  0.000605  (-0.000043 -0.000066  0.024594)
 14:    573.62   0.000948    4.79  0.000516  (-0.006771  0.021673 -0.000002)
 15:    679.55   0.005614   28.37  0.002578  (-0.042025 -0.028494 -0.000028)
 16:    738.77   0.002744   13.87  0.001159  ( 0.000051 -0.000023  0.034044)
 17:    762.88   0.014029   70.90  0.005739  (-0.000064 -0.000041 -0.075753)
 18:    780.00   0.003351   16.93  0.001341  ( 0.006394  0.036052 -0.000009)
 19:    821.81   0.013561   68.53  0.005150  (-0.000034  0.000044 -0.071760)
 20:    868.33   0.000084    0.43  0.000030  ( 0.000013  0.000011 -0.005506)
 21:    902.47   0.004882   24.67  0.001688  ( 0.040718  0.005493 -0.000007)
 22:    938.73   0.000102    0.52  0.000034  (-0.000019  0.000016 -0.005832)
 23:    977.17   0.000040    0.20  0.000013  (-0.000012  0.000017 -0.003581)
 24:   1000.17   0.000428    2.17  0.000134  (-0.000006  0.000012 -0.011562)
 25:   1047.37   0.001763    8.91  0.000525  ( 0.018307 -0.013786  0.000005)
 26:   1139.88   0.001000    5.05  0.000274  (-0.015909  0.004536 -0.000003)
 27:   1176.63   0.005191   26.23  0.001377  ( 0.016358  0.033305 -0.000002)
 28:   1231.53   0.013258   67.00  0.003359  ( 0.004129  0.057813 -0.000009)
 29:   1245.78   0.005171   26.13  0.001295  ( 0.032079  0.016320  0.000004)
 30:   1292.72   0.021645  109.38  0.005225  ( 0.058743 -0.042123  0.000010)
 31:   1369.87   0.008053   40.70  0.001835  ( 0.038587 -0.018591  0.000009)
 32:   1390.93   0.008519   43.05  0.001911  ( 0.035768 -0.025138  0.000006)
 33:   1418.18   0.013052   65.96  0.002872  ( 0.053424 -0.004240  0.000012)
 34:   1472.73   0.010968   55.43  0.002324  (-0.009432 -0.047276  0.000001)
 35:   1513.62   0.011651   58.88  0.002402  (-0.025991  0.041551 -0.000007)
 36:   1607.55   0.007319   36.99  0.001421  ( 0.016195  0.034037  0.000001)
 37:   1642.58   0.027819  140.59  0.005285  ( 0.056821 -0.045350  0.000022)
 38:   1661.00   0.052822  266.94  0.009924  ( 0.099585  0.002617  0.000017)
 39:   2963.35   0.017692   89.41  0.001863  ( 0.015486  0.040290 -0.000002)
 40:   3159.17   0.000588    2.97  0.000058  (-0.000115 -0.007621  0.000001)
 41:   3168.50   0.001324    6.69  0.000130  (-0.009130 -0.006857  0.000001)
 42:   3186.12   0.001534    7.75  0.000150  (-0.004879  0.011243 -0.000003)
 43:   3192.57   0.001357    6.86  0.000133  (-0.011308  0.002185 -0.000002)
 44:   3293.38   0.048732  246.27  0.004618  ( 0.060264  0.031399 -0.000002)

--------------------------
THERMOCHEMISTRY AT 298.15K
--------------------------

Temperature         ...   298.15 K
Pressure            ...     1.00 atm
Total Mass          ...   122.12 AMU
Quasi RRHO          ...     True
Cut-Off Frequency   ...     1.00 cm^-1

Throughout the following assumptions are being made:
  (1) The electronic state is orbitally nondegenerate
  (2) There are no thermally accessible electronically excited states
  (3) Hindered rotations indicated by low frequency modes are not
      treated as such but are treated as vibrations and this may
      cause some error
  (4) All equations used are the standard statistical mechanics
      equations for an ideal gas
  (5) All vibrations are strictly harmonic

freq.     149.23  E(vib)   ...       0.40
freq.     228.30  E(vib)   ...       0.32
freq.     262.81  E(vib)   ...       0.29
freq.     311.87  E(vib)   ...       0.25
freq.     422.20  E(vib)   ...       0.18
freq.     437.44  E(vib)   ...       0.17
freq.     464.55  E(vib)   ...       0.16
freq.     548.57  E(vib)   ...       0.12
freq.     573.62  E(vib)   ...       0.11
freq.     679.55  E(vib)   ...       0.08
freq.     738.77  E(vib)   ...       0.06
freq.     762.88  E(vib)   ...       0.06
freq.     780.00  E(vib)   ...       0.05
freq.     821.81  E(vib)   ...       0.05
freq.     868.33  E(vib)   ...       0.04
freq.     902.47  E(vib)   ...       0.03
freq.     938.73  E(vib)   ...       0.03
freq.     977.17  E(vib)   ...       0.03
freq.    1000.17  E(vib)   ...       0.02
freq.    1047.37  E(vib)   ...       0.02
freq.    1139.88  E(vib)   ...       0.01
freq.    1176.63  E(vib)   ...       0.01
freq.    1231.53  E(vib)   ...       0.01
freq.    1245.78  E(vib)   ...       0.01
freq.    1292.72  E(vib)   ...       0.01
freq.    1369.87  E(vib)   ...       0.01
freq.    1390.93  E(vib)   ...       0.00
freq.    1418.18  E(vib)   ...       0.00
freq.    1472.73  E(vib)   ...       0.00
freq.    1513.62  E(vib)   ...       0.00
freq.    1607.55  E(vib)   ...       0.00
freq.    1642.58  E(vib)   ...       0.00
freq.    1661.00  E(vib)   ...       0.00
freq.    2963.35  E(vib)   ...       0.00
freq.    3159.17  E(vib)   ...       0.00
freq.    3168.50  E(vib)   ...       0.00
freq.    3186.12  E(vib)   ...       0.00
freq.    3192.57  E(vib)   ...       0.00
freq.    3293.38  E(vib)   ...       0.00

------------
INNER ENERGY
------------

The inner energy is: U= E(el) + E(ZPE) + E(vib) + E(rot) + E(trans)
    E(el)   - is the total energy from the electronic structure calculation
              = E(kin-el) + E(nuc-el) + E(el-el) + E(nuc-nuc)
    E(ZPE)  - the the zero temperature vibrational energy from the frequency calculation
    E(vib)  - the the finite temperature correction to E(ZPE) due to population
              of excited vibrational states
    E(rot)  - is the rotational thermal energy
    E(trans)- is the translational thermal energy

Summary of contributions to the inner energy U:
Electronic energy                ...   -420.75359093 Eh
Zero point energy                ...      0.11400385 Eh      71.54 kcal/mol
Thermal vibrational correction   ...      0.00407310 Eh       2.56 kcal/mol
Thermal rotational correction    ...      0.00141627 Eh       0.89 kcal/mol
Thermal translational correction ...      0.00141627 Eh       0.89 kcal/mol
-----------------------------------------------------------------------
Total thermal energy                   -420.63268144 Eh

Summary of corrections to the electronic energy:
(perhaps to be used in another calculation)
Total thermal correction                  0.00690565 Eh       4.33 kcal/mol
Non-thermal (ZPE) correction              0.11400385 Eh      71.54 kcal/mol
-----------------------------------------------------------------------
Total correction                          0.12090949 Eh      75.87 kcal/mol

--------
ENTHALPY
--------

The enthalpy is H = U + kB*T
                kB is Boltzmann's constant
Total thermal energy              ...   -420.63268144 Eh
Thermal Enthalpy correction       ...      0.00094421 Eh       0.59 kcal/mol
-----------------------------------------------------------------------
Total Enthalpy                    ...   -420.63173723 Eh

Note: Only C1 symmetry has been detected, increase convergence thresholds
      if your molecule has a higher symmetry. Symmetry factor of 1.0 is
      used for the rotational entropy correction.

Note: Rotational entropy computed according to Herzberg
Infrared and Raman Spectra, Chapter V,1, Van Nostrand Reinhold, 1945
Point Group:  C1, Symmetry Number:   1
Rotational constants in cm-1:     0.107296     0.049978     0.034096

Vibrational entropy computed according to the QRRHO of S. Grimme
Chem.Eur.J. 2012 18 9955 using a reference frequency of 100.0 cm-1

-------
ENTROPY
-------

The entropy contributions are T*S = T*(S(el)+S(vib)+S(rot)+S(trans))
     S(el)   - electronic entropy
     S(vib)  - vibrational entropy
     S(rot)  - rotational entropy
     S(trans)- translational entropy
The entropies will be listed as multiplied by the temperature to get
units of energy

Electronic entropy                ...      0.00000000 Eh      0.00 kcal/mol
Vibrational entropy               ...      0.00632198 Eh      3.97 kcal/mol
Rotational entropy                ...      0.01357405 Eh      8.52 kcal/mol
Translational entropy             ...      0.01915430 Eh     12.02 kcal/mol
-----------------------------------------------------------------------
Final entropy term                ...      0.03905032 Eh     24.50 kcal/mol

In case the symmetry of your molecule has not been determined correctly
or in case you have a reason to use a different symmetry number we print
out the resulting rotational entropy values for sn=1,12:

 non-linear molecules -----------------------------------
|  sn= 1 | S(rot)=       0.01357405 Eh      8.52 kcal/mol|
|  sn= 2 | S(rot)=       0.01291959 Eh      8.11 kcal/mol|
|  sn= 3 | S(rot)=       0.01253676 Eh      7.87 kcal/mol|
|  sn= 4 | S(rot)=       0.01226514 Eh      7.70 kcal/mol|
|  sn= 5 | S(rot)=       0.01205445 Eh      7.56 kcal/mol|
|  sn= 6 | S(rot)=       0.01188230 Eh      7.46 kcal/mol|
|  sn= 7 | S(rot)=       0.01173676 Eh      7.36 kcal/mol|
|  sn= 8 | S(rot)=       0.01161068 Eh      7.29 kcal/mol|
|  sn= 9 | S(rot)=       0.01149947 Eh      7.22 kcal/mol|
|  sn=10 | S(rot)=       0.01139999 Eh      7.15 kcal/mol|
|  sn=11 | S(rot)=       0.01131000 Eh      7.10 kcal/mol|
|  sn=12 | S(rot)=       0.01122785 Eh      7.05 kcal/mol|
 linear molecules ---------------------------------------
|  Dinfh | S(rot)=       0.00851579 Eh      5.34 kcal/mol|
|  Cinfv | S(rot)=       0.00917025 Eh      5.75 kcal/mol|
 --------------------------------------------------------

-------------------
GIBBS FREE ENERGY
-------------------

                             ****ORCA TERMINATED NORMALLY****
TOTAL RUN TIME: 0 days 0 hours 11 minutes 14 seconds 332 msec
