                         Program Version 6.0.0  -   RELEASE  -
|  1> ! r2SCAN-3c DEF2-TZVP FREQ
|  2> * xyzfile 0 1 vacuum_censo.xyz
|  3>
|  4>                          ****END OF INPUT****

CARTESIAN COORDINATES (ANGSTROEM)
---------------------------------
  C      2.082104   -1.027888    0.000013
  C      2.328996    0.351844    0.000066
  C      1.295192    1.272887    0.000115
  C     -0.030299    0.827073    0.000113
  C     -0.296015   -0.566263   -0.000212
  C      0.776007   -1.474308   -0.000106
  C     -1.659625   -1.047352   -0.001060
  O     -2.653141   -0.317731    0.000355
  O     -1.018708    1.728593    0.000017
  H      2.907084   -1.730699   -0.000000
  H      3.353524    0.710831    0.000099
  H      1.485486    2.340277    0.000109
  H      0.554421   -2.538644   -0.000152
  H     -1.785154   -2.149508    0.001098
  H     -1.868234    1.219057   -0.000021

 Total Charge           Charge          ....    0
 Multiplicity           Mult            ....    1
 Number of Electrons    NEL             ....   64
 Basis Dimension        Dim             ....  315

ORBITAL ENERGIES
----------------

  NO   OCC          E(Eh)            E(eV)
   0   2.0000     -18.988378      -516.7000
   1   2.0000     -18.965197      -516.0693
   2   2.0000     -10.133572      -275.7485
   3   2.0000     -10.121983      -275.4332
   4   2.0000     -10.064458      -273.8678
   5   2.0000     -10.062883      -273.8250
   6   2.0000     -10.060013      -273.7469
   7   2.0000     -10.049237      -273.4536
   8   2.0000     -10.049219      -273.4532
   9   2.0000      -1.045082       -28.4381
  10   2.0000      -1.014548       -27.6073
  11   2.0000      -0.839928       -22.8556
  12   2.0000      -0.752808       -20.4850
  13   2.0000      -0.726223       -19.7615
  14   2.0000      -0.636105       -17.3093
  15   2.0000      -0.595170       -16.1954
  16   2.0000      -0.577896       -15.7254
  17   2.0000      -0.504206       -13.7201
  18   2.0000      -0.496488       -13.5101
  19   2.0000      -0.453086       -12.3291
  20   2.0000      -0.439022       -11.9464
  21   2.0000      -0.417565       -11.3625
  22   2.0000      -0.413613       -11.2550
  23   2.0000      -0.413159       -11.2426
  24   2.0000      -0.371916       -10.1204
  25   2.0000      -0.368644       -10.0313
  26   2.0000      -0.357059        -9.7161
  27   2.0000      -0.330429        -8.9914
  28   2.0000      -0.329319        -8.9612
  29   2.0000      -0.261981        -7.1289
  30   2.0000      -0.244329        -6.6485
  31   2.0000      -0.224602        -6.1117
  32   0.0000      -0.104413        -2.8412
  33   0.0000      -0.042032        -1.1437
  34   0.0000      -0.004773        -0.1299
  35   0.0000       0.049862         1.3568
  36   0.0000       0.070190         1.9100

MULLIKEN ATOMIC CHARGES
-----------------------
   0 C :   -0.150940
   1 C :   -0.047082
   2 C :   -0.232420
   3 C :    0.239580
   4 C :    0.041730
   5 C :   -0.142702
   6 C :    0.151528
   7 O :   -0.386472
   8 O :   -0.377587
   9 H :    0.116079
  10 H :    0.121029
  11 H :    0.119700
  12 H :    0.116449
  13 H :    0.082746
  14 H :    0.348362
Sum of atomic charges:    0.0000000

LOEWDIN ATOMIC CHARGES
----------------------
   0 C :   -0.154551
   1 C :   -0.112403
   2 C :   -0.111472
   3 C :   -0.224256
   4 C :   -0.157948
   5 C :   -0.092690
   6 C :   -0.250904
   7 O :    0.066945
   8 O :    0.129179
   9 H :    0.144868
  10 H :    0.148405
  11 H :    0.152251
  12 H :    0.150227
  13 H :    0.123876
  14 H :    0.188472

  Mayer bond orders larger than 0.100000
B(  0-C ,  1-C ) :   1.3292 B(  0-C ,  5-C ) :   1.4777 B(  0-C ,  9-H ) :   0.9737
B(  1-C ,  2-C ) :   1.4303 B(  1-C , 10-H ) :   0.9649 B(  2-C ,  3-C ) :   1.3721
B(  2-C , 11-H ) :   0.9753 B(  3-C ,  4-C ) :   1.1826 B(  3-C ,  8-O ) :   1.2497
B(  4-C ,  5-C ) :   1.2186 B(  4-C ,  6-C ) :   1.0276 B(  5-C , 12-H ) :   0.9602
B(  6-C ,  7-O ) :   1.8202 B(  6-C , 13-H ) :   1.0003 B(  7-O , 14-H ) :   0.1398
B(  8-O , 14-H ) :   0.7670

Dispersion correction           -0.005043733
FINAL SINGLE POINT ENERGY      -420.754081794188

DIPOLE MOMENT
-------------

Method             : SCF
Type of density    : Electron Density
Multiplicity       :   1
Irrep              :   0
Energy             :  -420.7554038576265043 Eh
Relativity type    :
Basis              : AO
                                X                 Y                 Z
Electronic contribution:     -3.281930301       1.385079598      -0.001701413
Nuclear contribution   :      4.308106627      -2.014445854       0.001335737
                        -----------------------------------------
Total Dipole Moment    :      1.026176326      -0.629366256      -0.000365676
                        -----------------------------------------
Magnitude (a.u.)       :      1.203802255
Magnitude (Debye)      :      3.059822165

VIBRATIONAL FREQUENCIES
-----------------------

Scaling factor for frequencies =  1.000000000  (already applied!)

     0:       0.00 cm**-1
     1:       0.00 cm**-1
     2:       0.00 cm**-1
     3:       0.00 cm**-1
     4:       0.00 cm**-1
     5:       0.00 cm**-1
     6:     143.96 cm**-1
     7:     215.89 cm**-1
     8:     261.89 cm**-1
     9:     306.76 cm**-1
    10:     419.41 cm**-1
    11:     436.38 cm**-1
    12:     463.79 cm**-1
    13:     545.47 cm**-1
    14:     575.23 cm**-1
    15:     678.64 cm**-1
    16:     738.27 cm**-1
    17:     762.83 cm**-1
    18:     781.23 cm**-1
    19:     835.92 cm**-1
    20:     868.14 cm**-1
    21:     904.67 cm**-1
    22:     939.83 cm**-1
    23:     977.19 cm**-1
    24:    1010.48 cm**-1
    25:    1047.90 cm**-1
    26:    1141.46 cm**-1
    27:    1177.14 cm**-1
    28:    1227.65 cm**-1
    29:    1252.97 cm**-1
    30:    1324.16 cm**-1
    31:    1369.36 cm**-1
    32:    1401.60 cm**-1
    33:    1422.40 cm**-1
    34:    1482.96 cm**-1
    35:    1516.85 cm**-1
    36:    1613.49 cm**-1
    37:    1653.35 cm**-1
    38:    1685.42 cm**-1
    39:    2916.46 cm**-1
    40:    3152.56 cm**-1
    41:    3166.74 cm**-1
    42:    3188.67 cm**-1
    43:    3194.09 cm**-1
    44:    3266.38 cm**-1

IR SPECTRUM
-----------

 Mode   freq       eps      Int      T**2         TX        TY        TZ
       cm**-1   L/(mol*cm) km/mol    a.u.
----------------------------------------------------------------------------
  6:    143.96   0.000016    0.08  0.000035  (-0.000156  0.000178  0.005943)
  7:    215.89   0.000242    1.22  0.000350  (-0.000255  0.000019  0.018716)
  8:    261.89   0.002122   10.72  0.002529  (-0.019418 -0.046386  0.000021)
  9:    306.76   0.000829    4.19  0.000843  (-0.000216 -0.000188  0.029035)
 10:    419.41   0.000742    3.75  0.000552  ( 0.017355 -0.015841  0.000032)
 11:    436.38   0.000253    1.28  0.000181  ( 0.000197  0.000004 -0.013442)
 12:    463.79   0.000920    4.65  0.000619  ( 0.024363 -0.005076  0.000039)
 13:    545.47   0.001066    5.39  0.000610  ( 0.000022  0.000053  0.024692)
 14:    575.23   0.000807    4.08  0.000438  (-0.005141  0.020281 -0.000007)
 15:    678.64   0.005652   28.56  0.002599  ( 0.041627  0.029428  0.000050)
 16:    738.27   0.002416   12.21  0.001021  (-0.000126 -0.000039 -0.031954)
 17:    762.83   0.013515   68.30  0.005529  ( 0.000058  0.000049  0.074356)
 18:    781.23   0.003083   15.58  0.001232  (-0.010144 -0.033595 -0.000006)
 19:    835.92   0.014390   72.72  0.005372  ( 0.000050 -0.000162  0.073295)
 20:    868.14   0.000010    0.05  0.000004  (-0.000082 -0.000054  0.001916)
 21:    904.67   0.004848   24.50  0.001672  (-0.040299 -0.006963  0.000018)
 22:    939.83   0.000116    0.58  0.000038  ( 0.000068 -0.000032  0.006196)
 23:    977.19   0.000043    0.21  0.000014  ( 0.000053  0.000013  0.003685)
 24:   1010.48   0.000396    2.00  0.000122  (-0.000116  0.000001  0.011064)
 25:   1047.90   0.001728    8.73  0.000515  ( 0.018160 -0.013599 -0.000003)
 26:   1141.46   0.000931    4.70  0.000254  (-0.015941 -0.000588 -0.000004)
 27:   1177.14   0.005117   25.86  0.001357  ( 0.017822  0.032232  0.000005)
 28:   1227.65   0.013067   66.03  0.003322  ( 0.007613  0.057128  0.000004)
 29:   1252.97   0.008506   42.99  0.002119  (-0.045696 -0.005521 -0.000007)
 30:   1324.16   0.018363   92.80  0.004328  (-0.050901  0.041674  0.000004)
 31:   1369.36   0.005629   28.45  0.001283  ( 0.033173 -0.013508  0.000003)
 32:   1401.60   0.009853   49.79  0.002194  (-0.037384  0.028217  0.000005)
 33:   1422.40   0.011330   57.26  0.002486  ( 0.049840 -0.001252  0.000014)
 34:   1482.96   0.011598   58.61  0.002441  ( 0.000920  0.049394  0.000011)
 35:   1516.85   0.012348   62.40  0.002540  (-0.026260  0.043022  0.000005)
 36:   1613.49   0.011350   57.36  0.002195  ( 0.006264  0.046433  0.000009)
 37:   1653.35   0.007425   37.53  0.001402  ( 0.024375  0.028414 -0.000003)
 38:   1685.42   0.075418  381.13  0.013964  (-0.115152  0.026533 -0.000032)
 39:   2916.46   0.019554   98.82  0.002092  (-0.016608 -0.042620 -0.000007)
 40:   3152.56   0.000835    4.22  0.000083  ( 0.000146  0.009091  0.000001)
 41:   3166.74   0.001397    7.06  0.000138  ( 0.009869  0.006347 -0.000001)
 42:   3188.67   0.001775    8.97  0.000174  ( 0.006688 -0.011356  0.000000)
 43:   3194.09   0.001015    5.13  0.000099  ( 0.009958  0.000171  0.000001)
 44:   3266.38   0.051912  262.34  0.004960  ( 0.062310  0.032817 -0.000000)

--------------------------
THERMOCHEMISTRY AT 298.15K
--------------------------

Temperature         ...   298.15 K
Pressure            ...     1.00 atm
Total Mass          ...   122.12 AMU
Quasi RRHO          ...     True
Cut-Off Frequency   ...     1.00 cm^-1

Throughout the following assumptions are being made:
  (1) The electronic state is orbitally nondegenerate
  (2) There are no thermally accessible electronically excited states
  (3) Hindered rotations indicated by low frequency modes are not
      treated as such but are treated as vibrations and this may
      cause some error
  (4) All equations used are the standard statistical mechanics
      equations for an ideal gas
  (5) All vibrations are strictly harmonic

freq.     143.96  E(vib)   ...       0.41
freq.     215.89  E(vib)   ...       0.34
freq.     261.89  E(vib)   ...       0.29
freq.     306.76  E(vib)   ...       0.26
freq.     419.41  E(vib)   ...       0.18
freq.     436.38  E(vib)   ...       0.17
freq.     463.79  E(vib)   ...       0.16
freq.     545.47  E(vib)   ...       0.12
freq.     575.23  E(vib)   ...       0.11
freq.     678.64  E(vib)   ...       0.08
freq.     738.27  E(vib)   ...       0.06
freq.     762.83  E(vib)   ...       0.06
freq.     781.23  E(vib)   ...       0.05
freq.     835.92  E(vib)   ...       0.04
freq.     868.14  E(vib)   ...       0.04
freq.     904.67  E(vib)   ...       0.03
freq.     939.83  E(vib)   ...       0.03
freq.     977.19  E(vib)   ...       0.03
freq.    1010.48  E(vib)   ...       0.02
freq.    1047.90  E(vib)   ...       0.02
freq.    1141.46  E(vib)   ...       0.01
freq.    1177.14  E(vib)   ...       0.01
freq.    1227.65  E(vib)   ...       0.01
freq.    1252.97  E(vib)   ...       0.01
freq.    1324.16  E(vib)   ...       0.01
freq.    1369.36  E(vib)   ...       0.01
freq.    1401.60  E(vib)   ...       0.00
freq.    1422.40  E(vib)   ...       0.00
freq.    1482.96  E(vib)   ...       0.00
freq.    1516.85  E(vib)   ...       0.00
freq.    1613.49  E(vib)   ...       0.00
freq.    1653.35  E(vib)   ...       0.00
freq.    1685.42  E(vib)   ...       0.00
freq.    2916.46  E(vib)   ...       0.00
freq.    3152.56  E(vib)   ...       0.00
freq.    3166.74  E(vib)   ...       0.00
freq.    3188.67  E(vib)   ...       0.00
freq.    3194.09  E(vib)   ...       0.00
freq.    3266.38  E(vib)   ...       0.00

------------
INNER ENERGY
------------

The inner energy is: U= E(el) + E(ZPE) + E(vib) + E(rot) + E(trans)
    E(el)   - is the total energy from the electronic structure calculation
              = E(kin-el) + E(nuc-el) + E(el-el) + E(nuc-nuc)
    E(ZPE)  - the the zero temperature vibrational energy from the frequency calculation
    E(vib)  - the the finite temperature correction to E(ZPE) due to population
              of excited vibrational states
    E(rot)  - is the rotational thermal energy
    E(trans)- is the translational thermal energy

Summary of contributions to the inner energy U:
Electronic energy                ...   -420.75408179 Eh
Zero point energy                ...      0.11406237 Eh      71.58 kcal/mol
Thermal vibrational correction   ...      0.00410505 Eh       2.58 kcal/mol
Thermal rotational correction    ...      0.00141627 Eh       0.89 kcal/mol
Thermal translational correction ...      0.00141627 Eh       0.89 kcal/mol
-----------------------------------------------------------------------
Total thermal energy                   -420.63308183 Eh

Summary of corrections to the electronic energy:
(perhaps to be used in another calculation)
Total thermal correction                  0.00693759 Eh       4.35 kcal/mol
Non-thermal (ZPE) correction              0.11406237 Eh      71.58 kcal/mol
-----------------------------------------------------------------------
Total correction                          0.12099996 Eh      75.93 kcal/mol

--------
ENTHALPY
--------

The enthalpy is H = U + kB*T
                kB is Boltzmann's constant
Total thermal energy              ...   -420.63308183 Eh
Thermal Enthalpy correction       ...      0.00094421 Eh       0.59 kcal/mol
-----------------------------------------------------------------------
Total Enthalpy                    ...   -420.63213762 Eh

Note: Only C1 symmetry has been detected, increase convergence thresholds
      if your molecule has a higher symmetry. Symmetry factor of 1.0 is
      used for the rotational entropy correction.

Note: Rotational entropy computed according to Herzberg
Infrared and Raman Spectra, Chapter V,1, Van Nostrand Reinhold, 1945
Point Group:  C1, Symmetry Number:   1
Rotational constants in cm-1:     0.107990     0.050009     0.034180

Vibrational entropy computed according to the QRRHO of S. Grimme
Chem.Eur.J. 2012 18 9955 using a reference frequency of 100.0 cm-1

-------
ENTROPY
-------

The entropy contributions are T*S = T*(S(el)+S(vib)+S(rot)+S(trans))
     S(el)   - electronic entropy
     S(vib)  - vibrational entropy
     S(rot)  - rotational entropy
     S(trans)- translational entropy
The entropies will be listed as multiplied by the temperature to get
units of energy

Electronic entropy                ...      0.00000000 Eh      0.00 kcal/mol
Vibrational entropy               ...      0.00641104 Eh      4.02 kcal/mol
Rotational entropy                ...      0.01356955 Eh      8.52 kcal/mol
Translational entropy             ...      0.01915430 Eh     12.02 kcal/mol
-----------------------------------------------------------------------
Final entropy term                ...      0.03913488 Eh     24.56 kcal/mol

In case the symmetry of your molecule has not been determined correctly
or in case you have a reason to use a different symmetry number we print
out the resulting rotational entropy values for sn=1,12:

 non-linear molecules -----------------------------------
|  sn= 1 | S(rot)=       0.01356955 Eh      8.52 kcal/mol|
|  sn= 2 | S(rot)=       0.01291509 Eh      8.10 kcal/mol|
|  sn= 3 | S(rot)=       0.01253226 Eh      7.86 kcal/mol|
|  sn= 4 | S(rot)=       0.01226064 Eh      7.69 kcal/mol|
|  sn= 5 | S(rot)=       0.01204995 Eh      7.56 kcal/mol|
|  sn= 6 | S(rot)=       0.01187781 Eh      7.45 kcal/mol|
|  sn= 7 | S(rot)=       0.01173226 Eh      7.36 kcal/mol|
|  sn= 8 | S(rot)=       0.01160618 Eh      7.28 kcal/mol|
|  sn= 9 | S(rot)=       0.01149497 Eh      7.21 kcal/mol|
|  sn=10 | S(rot)=       0.01139549 Eh      7.15 kcal/mol|
|  sn=11 | S(rot)=       0.01130550 Eh      7.09 kcal/mol|
|  sn=12 | S(rot)=       0.01122335 Eh      7.04 kcal/mol|
 linear molecules ---------------------------------------
|  Dinfh | S(rot)=       0.00851346 Eh      5.34 kcal/mol|
|  Cinfv | S(rot)=       0.00916792 Eh      5.75 kcal/mol|
 --------------------------------------------------------

-------------------
GIBBS FREE ENERGY
-------------------

                             ****ORCA TERMINATED NORMALLY****
TOTAL RUN TIME: 0 days 0 hours 11 minutes 27 seconds 884 msec
