                         Program Version 6.0.1  -  RELEASE   -
|  1> ! pbe def2-sv(p) def2/J RI DEFGRID1 loosescf d4 GCP(DFT/SV(P)) printgap
|  2> %output
|  3>     printlevel normal
|  4> end
|  5> * xyz 0 1
|  6> C -2.6772135939 -0.8726367731 0.0163782292
|  7> C -1.6639660077 0.1135224828 -0.5547990089
|  8> C -0.5892746452 0.505418812 0.4735041953
|  9> C 0.8632717354 0.1605604968 0.0962780032
| 10> C 1.2839328548 0.8996383084 -1.1759492943
| 11> C 1.7708807459 0.6122579519 1.2460195035
| 12> C 1.0319449909 -1.3481184363 -0.0950880531
| 13> H -3.4246762908 -1.1295695909 -0.7317418054
| 14> H -2.1820170111 -1.7877068306 0.3338065185
| 15> H -3.1886596886 -0.4424531738 0.8751213286
| 16> H -1.2044944 -0.3343494633 -1.4358475709
| 17> H -2.1938137038 1.0062442563 -0.8926315286
| 18> H -0.8139110174 0.010725297 1.4210285653
| 19> H -0.6395875219 1.5807362836 0.6574221567
| 20> H 2.3274783968 0.6928526454 -1.4043064001
| 21> H 0.6849854852 0.5934165347 -2.0296153638
| 22> H 1.1682814379 1.973652633 -1.0466478348
| 23> H 2.8112388652 0.3868938008 1.0217002278
| 24> H 1.5033857165 0.1037598724 2.1699242518
| 25> H 1.6815172197 1.6843878535 1.4081184634
| 26> H 0.7481250325 -1.8796470883 0.8107109584
| 27> H 0.4189675376 -1.715426149 -0.9136814555
| 28> H 2.069894597 -1.5853575201 -0.3189559856
| 29> *
| 30>
| 31>                          ****END OF INPUT****

CARTESIAN COORDINATES (ANGSTROEM)
---------------------------------
  C     -2.677214   -0.872637    0.016378
  C     -1.663966    0.113522   -0.554799
  C     -0.589275    0.505419    0.473504
  C      0.863272    0.160560    0.096278
  C      1.283933    0.899638   -1.175949
  C      1.770881    0.612258    1.246020
  C      1.031945   -1.348118   -0.095088
  H     -3.424676   -1.129570   -0.731742
  H     -2.182017   -1.787707    0.333807
  H     -3.188660   -0.442453    0.875121
  H     -1.204494   -0.334349   -1.435848
  H     -2.193814    1.006244   -0.892632
  H     -0.813911    0.010725    1.421029
  H     -0.639588    1.580736    0.657422
  H      2.327478    0.692853   -1.404306
  H      0.684985    0.593417   -2.029615
  H      1.168281    1.973653   -1.046648
  H      2.811239    0.386894    1.021700
  H      1.503386    0.103760    2.169924
  H      1.681517    1.684388    1.408118
  H      0.748125   -1.879647    0.810711
  H      0.418968   -1.715426   -0.913681
  H      2.069895   -1.585358   -0.318956

 Total Charge           Charge          ....    0
 Multiplicity           Mult            ....    1
 Number of Electrons    NEL             ....   58
 Basis Dimension        Dim             ....  130

ORBITAL ENERGIES
----------------

  NO   OCC          E(Eh)            E(eV)
   0   2.0000      -9.901705      -269.4391
   1   2.0000      -9.878318      -268.8027
   2   2.0000      -9.875588      -268.7284
   3   2.0000      -9.869635      -268.5664
   4   2.0000      -9.868539      -268.5366
   5   2.0000      -9.867848      -268.5178
   6   2.0000      -9.867353      -268.5043
   7   2.0000      -0.745255       -20.2794
   8   2.0000      -0.686652       -18.6848
   9   2.0000      -0.610184       -16.6039
  10   2.0000      -0.608737       -16.5646
  11   2.0000      -0.600156       -16.3311
  12   2.0000      -0.523889       -14.2557
  13   2.0000      -0.466428       -12.6922
  14   2.0000      -0.418419       -11.3858
  15   2.0000      -0.408708       -11.1215
  16   2.0000      -0.392012       -10.6672
  17   2.0000      -0.378081       -10.2881
  18   2.0000      -0.363320        -9.8864
  19   2.0000      -0.353199        -9.6110
  20   2.0000      -0.336914        -9.1679
  21   2.0000      -0.325765        -8.8645
  22   2.0000      -0.316793        -8.6204
  23   2.0000      -0.308225        -8.3872
  24   2.0000      -0.300831        -8.1860
  25   2.0000      -0.290696        -7.9102
  26   2.0000      -0.272105        -7.4043
  27   2.0000      -0.266055        -7.2397
  28   2.0000      -0.262791        -7.1509
  29   0.0000       0.028947         0.7877
  30   0.0000       0.058861         1.6017
  31   0.0000       0.066910         1.8207
  32   0.0000       0.069400         1.8885
  33   0.0000       0.084468         2.2985

MULLIKEN ATOMIC CHARGES
-----------------------
   0 C :   -0.295071
   1 C :   -0.170035
   2 C :   -0.097624
   3 C :   -0.278975
   4 C :   -0.207663
   5 C :   -0.204200
   6 C :   -0.213747
   7 H :    0.098338
   8 H :    0.102333
   9 H :    0.102895
  10 H :    0.096408
  11 H :    0.081448
  12 H :    0.075398
  13 H :    0.071677
  14 H :    0.092184
  15 H :    0.098232
  16 H :    0.090425
  17 H :    0.091461
  18 H :    0.091356
  19 H :    0.090906
  20 H :    0.093097
  21 H :    0.098309
  22 H :    0.092848
Sum of atomic charges:   -0.0000000

LOEWDIN ATOMIC CHARGES
----------------------
   0 C :   -0.339999
   1 C :   -0.237488
   2 C :   -0.207933
   3 C :   -0.106806
   4 C :   -0.316801
   5 C :   -0.315380
   6 C :   -0.317673
   7 H :    0.116415
   8 H :    0.115445
   9 H :    0.116313
  10 H :    0.112835
  11 H :    0.116448
  12 H :    0.112655
  13 H :    0.113985
  14 H :    0.115963
  15 H :    0.115234
  16 H :    0.115669
  17 H :    0.114488
  18 H :    0.114486
  19 H :    0.114509
  20 H :    0.115549
  21 H :    0.115403
  22 H :    0.116682

  Mayer bond orders larger than 0.100000
B(  0-C ,  1-C ) :   1.1596 B(  0-C ,  7-H ) :   0.9513 B(  0-C ,  8-H ) :   0.9537
B(  0-C ,  9-H ) :   0.9538 B(  1-C ,  2-C ) :   1.0862 B(  1-C , 10-H ) :   0.9243
B(  1-C , 11-H ) :   0.9272 B(  2-C ,  3-C ) :   1.0561 B(  2-C , 12-H ) :   0.9271
B(  2-C , 13-H ) :   0.9164 B(  3-C ,  4-C ) :   1.0733 B(  3-C ,  5-C ) :   1.0762
B(  3-C ,  6-C ) :   1.0736 B(  4-C , 14-H ) :   0.9485 B(  4-C , 15-H ) :   0.9413
B(  4-C , 16-H ) :   0.9489 B(  5-C , 17-H ) :   0.9479 B(  5-C , 18-H ) :   0.9464
B(  5-C , 19-H ) :   0.9471 B(  6-C , 20-H ) :   0.9470 B(  6-C , 21-H ) :   0.9408
B(  6-C , 22-H ) :   0.9473

Dispersion correction           -0.019276237
FINAL SINGLE POINT ENERGY      -275.658992970420

DIPOLE MOMENT
-------------

Method             : SCF
Type of density    : Electron Density
Multiplicity       :   1
Irrep              :   0
Energy             :  -275.7360723404492546 Eh
Relativity type    :
Basis              : AO
                                X                 Y                 Z
Electronic contribution:      0.214385863       0.806400577       0.047205356
Nuclear contribution   :     -0.218859314      -0.789782423      -0.070920759
                        -----------------------------------------
Total Dipole Moment    :     -0.004473451       0.016618154      -0.023715402
                        -----------------------------------------
Magnitude (a.u.)       :      0.029301794
Magnitude (Debye)      :      0.074479240

Rotational constants in cm-1:             0.131616             0.050542             0.049328
Rotational constants in MHz :          3945.740866          1515.214161          1478.811549

                             ****ORCA TERMINATED NORMALLY****
TOTAL RUN TIME: 0 days 0 hours 0 minutes 15 seconds 638 msec
