                         Program Version 6.0.1  -  RELEASE   -
|  1> ! pbe def2-sv(p) def2/J RI DEFGRID1 loosescf d4 GCP(DFT/SV(P)) printgap
|  2> %output
|  3>     printlevel normal
|  4> end
|  5> * xyz 0 1
|  6> C -3.1731434983 0.1767467231 -0.0080832762
|  7> O -1.9622029083 0.8894971362 0.0056952672
|  8> C -0.7923979871 0.1830051925 0.0022972989
|  9> C -0.7006792374 -1.2040484365 -0.0027992504
| 10> C 0.5521378739 -1.7976040531 -0.0006024819
| 11> C 1.7041651066 -1.0418139837 0.0071396867
| 12> C 1.6208027777 0.3528306579 0.0106193532
| 13> C 0.3670197719 0.9515047306 0.0116221995
| 14> N 2.7641738873 1.1245244827 -0.0565666036
| 15> H -3.9596183541 0.9302500513 -0.0080987862
| 16> H -3.2796699589 -0.455406418 0.8799312758
| 17> H -3.2667028004 -0.4422572329 -0.9065950154
| 18> H -1.5808718824 -1.826069562 -0.0070923513
| 19> H 0.6223144234 -2.8756970913 -0.002109414
| 20> H 2.6734854925 -1.5182278226 0.0081995816
| 21> H 0.2721702612 2.026529343 0.0156984788
| 22> H 2.6670252748 2.0857787377 0.2275956758
| 23> H 3.6164277015 0.6825269712 0.2475217515
| 24> *
| 25>
| 26>                          ****END OF INPUT****

CARTESIAN COORDINATES (ANGSTROEM)
---------------------------------
  C     -3.173143    0.176747   -0.008083
  O     -1.962203    0.889497    0.005695
  C     -0.792398    0.183005    0.002297
  C     -0.700679   -1.204048   -0.002799
  C      0.552138   -1.797604   -0.000602
  C      1.704165   -1.041814    0.007140
  C      1.620803    0.352831    0.010619
  C      0.367020    0.951505    0.011622
  N      2.764174    1.124524   -0.056567
  H     -3.959618    0.930250   -0.008099
  H     -3.279670   -0.455406    0.879931
  H     -3.266703   -0.442257   -0.906595
  H     -1.580872   -1.826070   -0.007092
  H      0.622314   -2.875697   -0.002109
  H      2.673485   -1.518228    0.008200
  H      0.272170    2.026529    0.015698
  H      2.667025    2.085779    0.227596
  H      3.616428    0.682527    0.247522

 Total Charge           Charge          ....    0
 Multiplicity           Mult            ....    1
 Number of Electrons    NEL             ....   66
 Basis Dimension        Dim             ....  144

ORBITAL ENERGIES
----------------

  NO   OCC          E(Eh)            E(eV)
   0   2.0000     -18.773483      -510.8524
   1   2.0000     -13.990653      -380.7050
   2   2.0000      -9.938215      -270.4326
   3   2.0000      -9.932754      -270.2840
   4   2.0000      -9.925045      -270.0742
   5   2.0000      -9.883296      -268.9382
   6   2.0000      -9.872536      -268.6454
   7   2.0000      -9.870976      -268.6029
   8   2.0000      -9.869548      -268.5641
   9   2.0000      -0.958152       -26.0726
  10   2.0000      -0.830889       -22.6096
  11   2.0000      -0.748884       -20.3782
  12   2.0000      -0.673963       -18.3395
  13   2.0000      -0.644801       -17.5459
  14   2.0000      -0.616063       -16.7639
  15   2.0000      -0.542912       -14.7734
  16   2.0000      -0.525869       -14.3096
  17   2.0000      -0.482430       -13.1276
  18   2.0000      -0.465246       -12.6600
  19   2.0000      -0.428044       -11.6477
  20   2.0000      -0.416207       -11.3256
  21   2.0000      -0.411698       -11.2029
  22   2.0000      -0.405844       -11.0436
  23   2.0000      -0.367810       -10.0086
  24   2.0000      -0.357984        -9.7413
  25   2.0000      -0.340462        -9.2644
  26   2.0000      -0.317526        -8.6403
  27   2.0000      -0.312759        -8.5106
  28   2.0000      -0.291833        -7.9412
  29   2.0000      -0.271929        -7.3996
  30   2.0000      -0.251478        -6.8431
  31   2.0000      -0.186012        -5.0616
  32   2.0000      -0.168332        -4.5806
  33   0.0000      -0.016845        -0.4584
  34   0.0000       0.002503         0.0681
  35   0.0000       0.037672         1.0251
  36   0.0000       0.052178         1.4198
  37   0.0000       0.066702         1.8151

MULLIKEN ATOMIC CHARGES
-----------------------
   0 C :   -0.114603
   1 O :   -0.269853
   2 C :    0.268184
   3 C :   -0.199192
   4 C :   -0.063456
   5 C :   -0.122501
   6 C :    0.171454
   7 C :   -0.208354
   8 N :   -0.341148
   9 H :    0.120539
  10 H :    0.106895
  11 H :    0.107718
  12 H :    0.029735
  13 H :    0.045849
  14 H :    0.014970
  15 H :    0.011670
  16 H :    0.221142
  17 H :    0.220951
Sum of atomic charges:    0.0000000

LOEWDIN ATOMIC CHARGES
----------------------
   0 C :   -0.204810
   1 O :   -0.093002
   2 C :    0.038510
   3 C :   -0.209328
   4 C :   -0.110091
   5 C :   -0.182455
   6 C :   -0.001491
   7 C :   -0.187092
   8 N :   -0.316466
   9 H :    0.119431
  10 H :    0.106859
  11 H :    0.107361
  12 H :    0.122498
  13 H :    0.121731
  14 H :    0.116262
  15 H :    0.123470
  16 H :    0.224414
  17 H :    0.224199

  Mayer bond orders larger than 0.100000
B(  0-C ,  1-O ) :   0.9981 B(  0-C ,  9-H ) :   0.9592 B(  0-C , 10-H ) :   0.9413
B(  0-C , 11-H ) :   0.9414 B(  1-O ,  2-C ) :   1.1296 B(  2-C ,  3-C ) :   1.2992
B(  2-C ,  7-C ) :   1.3461 B(  3-C ,  4-C ) :   1.3348 B(  3-C , 12-H ) :   0.9648
B(  4-C ,  5-C ) :   1.3987 B(  4-C , 13-H ) :   0.9575 B(  5-C ,  6-C ) :   1.3051
B(  5-C , 14-H ) :   0.9646 B(  6-C ,  7-C ) :   1.3116 B(  6-C ,  8-N ) :   1.2292
B(  7-C , 15-H ) :   0.9651 B(  8-N , 16-H ) :   0.8842 B(  8-N , 17-H ) :   0.8836

Dispersion correction           -0.017613542
FINAL SINGLE POINT ENERGY      -401.251911111047

DIPOLE MOMENT
-------------

Method             : SCF
Type of density    : Electron Density
Multiplicity       :   1
Irrep              :   0
Energy             :  -401.3122715400990614 Eh
Relativity type    :
Basis              : AO
                                X                 Y                 Z
Electronic contribution:      2.292063318       1.373329148      -0.096445752
Nuclear contribution   :     -2.111130765      -1.287120926       0.426689233
                        -----------------------------------------
Total Dipole Moment    :      0.180932553       0.086208221       0.330243480
                        -----------------------------------------
Magnitude (a.u.)       :      0.386301958
Magnitude (Debye)      :      0.981901544

Rotational constants in cm-1:             0.121412             0.037931             0.029078
Rotational constants in MHz :          3639.852217          1137.138767           871.749067

                             ****ORCA TERMINATED NORMALLY****
TOTAL RUN TIME: 0 days 0 hours 0 minutes 30 seconds 536 msec
