                         Program Version 6.0.1  -  RELEASE   -
|  1> ! pbe def2-sv(p) def2/J RI DEFGRID1 loosescf d4 GCP(DFT/SV(P)) printgap
|  2> %output
|  3>     printlevel normal
|  4> end
|  5> * xyz 0 1
|  6> C 2.4733206395 -0.5120944306 0.2036974298
|  7> C 1.2459997291 0.2136816263 -0.3383334422
|  8> C -0.0334417991 -0.1895773153 0.3860016615
|  9> H 0.0670358372 -0.0095542593 1.4599952376
| 10> C -0.4616906803 -1.6218260308 0.12539231
| 11> Cl -1.3550068651 0.9055995011 -0.1570805647
| 12> H 3.3698332714 -0.128204096 -0.2762882094
| 13> H 2.4168605538 -1.5798096285 0.0103447446
| 14> H 2.5661725214 -0.3581966127 1.2765090394
| 15> H 1.1343076886 0.0067026574 -1.4045190808
| 16> H 1.3883249619 1.2899343806 -0.2206896818
| 17> H -1.4203238451 -1.822941856 0.5973767305
| 18> H -0.5563909901 -1.8014423759 -0.9431297799
| 19> H 0.2745189758 -2.3086792299 0.535957518
| 20> *
| 21>
| 22>                          ****END OF INPUT****

CARTESIAN COORDINATES (ANGSTROEM)
---------------------------------
  C      2.473321   -0.512094    0.203697
  C      1.246000    0.213682   -0.338333
  C     -0.033442   -0.189577    0.386002
  H      0.067036   -0.009554    1.459995
  C     -0.461691   -1.621826    0.125392
  Cl    -1.355007    0.905600   -0.157081
  H      3.369833   -0.128204   -0.276288
  H      2.416861   -1.579810    0.010345
  H      2.566173   -0.358197    1.276509
  H      1.134308    0.006703   -1.404519
  H      1.388325    1.289934   -0.220690
  H     -1.420324   -1.822942    0.597377
  H     -0.556391   -1.801442   -0.943130
  H      0.274519   -2.308679    0.535958

 Total Charge           Charge          ....    0
 Multiplicity           Mult            ....    1
 Number of Electrons    NEL             ....   50
 Basis Dimension        Dim             ....   92

ORBITAL ENERGIES
----------------

  NO   OCC          E(Eh)            E(eV)
   0   2.0000    -100.610653     -2737.7551
   1   2.0000      -9.947552      -270.6867
   2   2.0000      -9.894234      -269.2358
   3   2.0000      -9.886131      -269.0153
   4   2.0000      -9.884193      -268.9626
   5   2.0000      -9.146780      -248.8965
   6   2.0000      -6.978042      -189.8822
   7   2.0000      -6.966552      -189.5695
   8   2.0000      -6.966512      -189.5684
   9   2.0000      -0.782053       -21.2808
  10   2.0000      -0.697654       -18.9841
  11   2.0000      -0.650439       -17.6993
  12   2.0000      -0.576846       -15.6968
  13   2.0000      -0.513625       -13.9765
  14   2.0000      -0.429495       -11.6871
  15   2.0000      -0.415769       -11.3136
  16   2.0000      -0.393101       -10.6968
  17   2.0000      -0.364892        -9.9292
  18   2.0000      -0.352310        -9.5868
  19   2.0000      -0.337816        -9.1924
  20   2.0000      -0.310885        -8.4596
  21   2.0000      -0.307758        -8.3745
  22   2.0000      -0.299859        -8.1596
  23   2.0000      -0.241447        -6.5701
  24   2.0000      -0.240252        -6.5376
  25   0.0000       0.009856         0.2682
  26   0.0000       0.040091         1.0909
  27   0.0000       0.065004         1.7689
  28   0.0000       0.076595         2.0842
  29   0.0000       0.089612         2.4385

MULLIKEN ATOMIC CHARGES
-----------------------
   0 C :   -0.292587
   1 C :   -0.124766
   2 C :   -0.193795
   3 H :    0.119193
   4 C :   -0.223598
   5 Cl:   -0.138050
   6 H :    0.112396
   7 H :    0.109866
   8 H :    0.102667
   9 H :    0.093480
  10 H :    0.099204
  11 H :    0.116684
  12 H :    0.108548
  13 H :    0.110759
Sum of atomic charges:   -0.0000000

LOEWDIN ATOMIC CHARGES
----------------------
   0 C :   -0.342041
   1 C :   -0.246905
   2 C :   -0.191257
   3 H :    0.121349
   4 C :   -0.350459
   5 Cl:    0.030223
   6 H :    0.125861
   7 H :    0.118418
   8 H :    0.119341
   9 H :    0.119923
  10 H :    0.120442
  11 H :    0.125934
  12 H :    0.124529
  13 H :    0.124642

  Mayer bond orders larger than 0.100000
B(  0-C ,  1-C ) :   1.1401 B(  0-C ,  6-H ) :   0.9487 B(  0-C ,  7-H ) :   0.9497
B(  0-C ,  8-H ) :   0.9528 B(  1-C ,  2-C ) :   1.0627 B(  1-C ,  9-H ) :   0.9183
B(  1-C , 10-H ) :   0.9210 B(  2-C ,  3-H ) :   0.9114 B(  2-C ,  4-C ) :   1.0989
B(  2-C ,  5-Cl) :   1.0231 B(  4-C , 11-H ) :   0.9442 B(  4-C , 12-H ) :   0.9449
B(  4-C , 13-H ) :   0.9323

Dispersion correction           -0.010501381
FINAL SINGLE POINT ENERGY      -617.303835542921

DIPOLE MOMENT
-------------

Method             : SCF
Type of density    : Electron Density
Multiplicity       :   1
Irrep              :   0
Energy             :  -617.3504719364528910 Eh
Relativity type    :
Basis              : AO
                                X                 Y                 Z
Electronic contribution:     -9.907697579       7.062781511      -0.998278399
Nuclear contribution   :     10.487697524      -7.512670220       1.182361463
                        -----------------------------------------
Total Dipole Moment    :      0.579999945      -0.449888709       0.184083064
                        -----------------------------------------
Magnitude (a.u.)       :      0.756760438
Magnitude (Debye)      :      1.923532167

Rotational constants in cm-1:             0.224351             0.077404             0.061853
Rotational constants in MHz :          6725.888286          2320.509143          1854.298416

                             ****ORCA TERMINATED NORMALLY****
TOTAL RUN TIME: 0 days 0 hours 0 minutes 9 seconds 190 msec
