                         Program Version 6.0.1  -  RELEASE   -
|  1> ! pbe def2-sv(p) def2/J RI DEFGRID1 loosescf d4 GCP(DFT/SV(P)) printgap
|  2> %output
|  3>     printlevel normal
|  4> end
|  5> * xyz 0 1
|  6> C 1.4755264957 -0.1274897209 1.1662716527
|  7> C 0.7217206518 0.1521772335 -0.1013477401
|  8> C 1.3248589405 0.6650799224 -1.1680153927
|  9> C -0.7217118656 -0.1521773088 -0.1013862069
| 10> C -1.3248882733 -0.6650580018 -1.1680223775
| 11> C -1.4755015861 0.1274752267 1.166280377
| 12> H 1.1564504159 0.5475200462 1.9594341797
| 13> H 2.5431821642 0.0056331168 1.0115124587
| 14> H 1.2940805977 -1.1486709372 1.499213604
| 15> H 0.7854781739 0.8991876428 -2.0692555082
| 16> H 2.3798939619 0.8827062558 -1.1721917985
| 17> H -2.3799395654 -0.8825304345 -1.1721488631
| 18> H -0.7854692502 -0.8992736123 -2.0691980223
| 19> H -2.5431206877 -0.0062874641 1.0116459791
| 20> H -1.1560703106 -0.54721503 1.9596244736
| 21> H -1.2945374936 1.1488428142 1.4988539902
| 22> *
| 23>
| 24>                          ****END OF INPUT****

CARTESIAN COORDINATES (ANGSTROEM)
---------------------------------
  C      1.475526   -0.127490    1.166272
  C      0.721721    0.152177   -0.101348
  C      1.324859    0.665080   -1.168015
  C     -0.721712   -0.152177   -0.101386
  C     -1.324888   -0.665058   -1.168022
  C     -1.475502    0.127475    1.166280
  H      1.156450    0.547520    1.959434
  H      2.543182    0.005633    1.011512
  H      1.294081   -1.148671    1.499214
  H      0.785478    0.899188   -2.069256
  H      2.379894    0.882706   -1.172192
  H     -2.379940   -0.882530   -1.172149
  H     -0.785469   -0.899274   -2.069198
  H     -2.543121   -0.006287    1.011646
  H     -1.156070   -0.547215    1.959624
  H     -1.294537    1.148843    1.498854

 Total Charge           Charge          ....    0
 Multiplicity           Mult            ....    1
 Number of Electrons    NEL             ....   46
 Basis Dimension        Dim             ....  104

ORBITAL ENERGIES
----------------

  NO   OCC          E(Eh)            E(eV)
   0   2.0000      -9.899599      -269.3818
   1   2.0000      -9.899549      -269.3804
   2   2.0000      -9.883192      -268.9353
   3   2.0000      -9.883147      -268.9341
   4   2.0000      -9.873441      -268.6700
   5   2.0000      -9.873429      -268.6697
   6   2.0000      -0.748641       -20.3716
   7   2.0000      -0.678867       -18.4729
   8   2.0000      -0.627416       -17.0729
   9   2.0000      -0.598437       -16.2843
  10   2.0000      -0.527984       -14.3672
  11   2.0000      -0.442462       -12.0400
  12   2.0000      -0.426197       -11.5974
  13   2.0000      -0.400091       -10.8870
  14   2.0000      -0.388991       -10.5850
  15   2.0000      -0.367101        -9.9893
  16   2.0000      -0.363055        -9.8792
  17   2.0000      -0.344977        -9.3873
  18   2.0000      -0.331497        -9.0205
  19   2.0000      -0.309029        -8.4091
  20   2.0000      -0.291303        -7.9268
  21   2.0000      -0.249695        -6.7945
  22   2.0000      -0.201614        -5.4862
  23   0.0000      -0.043192        -1.1753
  24   0.0000       0.025070         0.6822
  25   0.0000       0.041808         1.1377
  26   0.0000       0.075460         2.0534
  27   0.0000       0.081707         2.2234

MULLIKEN ATOMIC CHARGES
-----------------------
   0 C :   -0.227461
   1 C :   -0.045449
   2 C :   -0.232244
   3 C :   -0.045474
   4 C :   -0.232209
   5 C :   -0.227475
   6 H :    0.114181
   7 H :    0.100331
   8 H :    0.114668
   9 H :    0.092607
  10 H :    0.083380
  11 H :    0.083376
  12 H :    0.092599
  13 H :    0.100318
  14 H :    0.114178
  15 H :    0.114674
Sum of atomic charges:   -0.0000000

LOEWDIN ATOMIC CHARGES
----------------------
   0 C :   -0.321180
   1 C :   -0.051382
   2 C :   -0.249642
   3 C :   -0.051377
   4 C :   -0.249647
   5 C :   -0.321176
   6 H :    0.130066
   7 H :    0.125734
   8 H :    0.128544
   9 H :    0.120642
  10 H :    0.117219
  11 H :    0.117224
  12 H :    0.120644
  13 H :    0.125725
  14 H :    0.130056
  15 H :    0.128550

  Mayer bond orders larger than 0.100000
B(  0-C ,  1-C ) :   1.1149 B(  0-C ,  6-H ) :   0.9215 B(  0-C ,  7-H ) :   0.9380
B(  0-C ,  8-H ) :   0.9348 B(  1-C ,  2-C ) :   1.9995 B(  1-C ,  3-C ) :   1.0256
B(  2-C ,  9-H ) :   0.9097 B(  2-C , 10-H ) :   0.9053 B(  3-C ,  4-C ) :   1.9995
B(  3-C ,  5-C ) :   1.1149 B(  4-C , 11-H ) :   0.9053 B(  4-C , 12-H ) :   0.9097
B(  5-C , 13-H ) :   0.9380 B(  5-C , 14-H ) :   0.9215 B(  5-C , 15-H ) :   0.9348

Dispersion correction           -0.012870596
FINAL SINGLE POINT ENERGY      -234.040984236883

DIPOLE MOMENT
-------------

Method             : SCF
Type of density    : Electron Density
Multiplicity       :   1
Irrep              :   0
Energy             :  -234.0880723218658943 Eh
Relativity type    :
Basis              : AO
                                X                 Y                 Z
Electronic contribution:      0.000086219       0.000087742      -2.009143029
Nuclear contribution   :     -0.000048779      -0.000082185       2.305531557
                        -----------------------------------------
Total Dipole Moment    :      0.000037440       0.000005557       0.296388529
                        -----------------------------------------
Magnitude (a.u.)       :      0.296388531
Magnitude (Debye)      :      0.753359775

Rotational constants in cm-1:             0.160331             0.107519             0.071886
Rotational constants in MHz :          4806.616316          3223.325846          2155.085094

                             ****ORCA TERMINATED NORMALLY****
TOTAL RUN TIME: 0 days 0 hours 0 minutes 34 seconds 485 msec
