                         Program Version 6.0.1  -  RELEASE   -
|  1> ! r2scan-3c def2/J RI DEFGRID2 scfconv6 printgap
|  2> %output
|  3>     printlevel normal
|  4> end
|  5> * xyz 0 1
|  6> C 0.7332325353 -1.1978407765 0.2311543555
|  7> C -0.7332177827 -1.1978341187 -0.2310512992
|  8> N -1.4437773606 2.28534e-05 0.1919912959
|  9> C -0.7331517156 1.1978608476 -0.2311217717
| 10> C 0.7332452249 1.1977905741 0.2312320227
| 11> N 1.4437287125 5.3058e-06 -0.1922023383
| 12> H 1.2602142564 -2.0711377162 -0.1585253397
| 13> H 0.77244051 -1.2298862392 1.3257399499
| 14> H -0.7723958146 -1.2301095726 -1.3256576903
| 15> H -1.2602114357 -2.0710652323 0.1587497239
| 16> H -1.5201825162 7.83656e-05 1.2062195845
| 17> H -0.7722772014 1.2300240215 -1.3257409469
| 18> H -1.2601845806 2.0711389588 0.1585333305
| 19> H 1.2602682005 2.071133103 -0.1582713424
| 20> H 0.7723323572 1.2297051766 1.3258340661
| 21> H 1.5193821407 7.5395e-06 -1.206490449
| 22> *
| 23>
| 24>                          ****END OF INPUT****

CARTESIAN COORDINATES (ANGSTROEM)
---------------------------------
  C      0.733233   -1.197841    0.231154
  C     -0.733218   -1.197834   -0.231051
  N     -1.443777    0.000023    0.191991
  C     -0.733152    1.197861   -0.231122
  C      0.733245    1.197791    0.231232
  N      1.443729    0.000005   -0.192202
  H      1.260214   -2.071138   -0.158525
  H      0.772441   -1.229886    1.325740
  H     -0.772396   -1.230110   -1.325658
  H     -1.260211   -2.071065    0.158750
  H     -1.520183    0.000078    1.206220
  H     -0.772277    1.230024   -1.325741
  H     -1.260185    2.071139    0.158533
  H      1.260268    2.071133   -0.158271
  H      0.772332    1.229705    1.325834
  H      1.519382    0.000008   -1.206490

 Total Charge           Charge          ....    0
 Multiplicity           Mult            ....    1
 Number of Electrons    NEL             ....   48
 Basis Dimension        Dim             ....  174

ORBITAL ENERGIES
----------------

  NO   OCC          E(Eh)            E(eV)
   0   2.0000     -14.141485      -384.8094
   1   2.0000     -14.141482      -384.8093
   2   2.0000     -10.047856      -273.4161
   3   2.0000     -10.047851      -273.4159
   4   2.0000     -10.047735      -273.4128
   5   2.0000     -10.047731      -273.4127
   6   2.0000      -0.898546       -24.4507
   7   2.0000      -0.842570       -22.9275
   8   2.0000      -0.721614       -19.6361
   9   2.0000      -0.624682       -16.9985
  10   2.0000      -0.601307       -16.3624
  11   2.0000      -0.558312       -15.1924
  12   2.0000      -0.474592       -12.9143
  13   2.0000      -0.424451       -11.5499
  14   2.0000      -0.423101       -11.5132
  15   2.0000      -0.416100       -11.3227
  16   2.0000      -0.396668       -10.7939
  17   2.0000      -0.359460        -9.7814
  18   2.0000      -0.351414        -9.5625
  19   2.0000      -0.320885        -8.7317
  20   2.0000      -0.309409        -8.4194
  21   2.0000      -0.306500        -8.3403
  22   2.0000      -0.229319        -6.2401
  23   2.0000      -0.163477        -4.4484
  24   0.0000       0.077196         2.1006
  25   0.0000       0.081132         2.2077
  26   0.0000       0.108383         2.9493
  27   0.0000       0.113818         3.0971
  28   0.0000       0.120639         3.2827

MULLIKEN ATOMIC CHARGES
-----------------------
   0 C :   -0.255014
   1 C :   -0.255214
   2 N :   -0.326994
   3 C :   -0.255188
   4 C :   -0.255018
   5 N :   -0.327165
   6 H :    0.145943
   7 H :    0.155008
   8 H :    0.155023
   9 H :    0.145935
  10 H :    0.235380
  11 H :    0.155022
  12 H :    0.145937
  13 H :    0.145944
  14 H :    0.155007
  15 H :    0.235394
Sum of atomic charges:   -0.0000000

LOEWDIN ATOMIC CHARGES
----------------------
   0 C :   -0.060350
   1 C :   -0.060337
   2 N :   -0.822895
   3 C :   -0.060334
   4 C :   -0.060342
   5 N :   -0.822883
   6 H :    0.174661
   7 H :    0.174525
   8 H :    0.174523
   9 H :    0.174665
  10 H :    0.245197
  11 H :    0.174525
  12 H :    0.174661
  13 H :    0.174659
  14 H :    0.174530
  15 H :    0.245196

  Mayer bond orders larger than 0.100000
B(  0-C ,  1-C ) :   0.8221 B(  0-C ,  5-N ) :   0.9457 B(  0-C ,  6-H ) :   0.9733
B(  0-C ,  7-H ) :   0.9937 B(  1-C ,  2-N ) :   0.9457 B(  1-C ,  8-H ) :   0.9937
B(  1-C ,  9-H ) :   0.9733 B(  2-N ,  3-C ) :   0.9457 B(  2-N , 10-H ) :   0.9007
B(  3-C ,  4-C ) :   0.8221 B(  3-C , 11-H ) :   0.9937 B(  3-C , 12-H ) :   0.9733
B(  4-C ,  5-N ) :   0.9457 B(  4-C , 13-H ) :   0.9733 B(  4-C , 14-H ) :   0.9937
B(  5-N , 15-H ) :   0.9007

Dispersion correction           -0.004222894
FINAL SINGLE POINT ENERGY      -267.843082441447

DIPOLE MOMENT
-------------

Method             : SCF
Type of density    : Electron Density
Multiplicity       :   1
Irrep              :   0
Energy             :  -267.8548276163924697 Eh
Relativity type    :
Basis              : AO
                                X                 Y                 Z
Electronic contribution:      0.000225191       0.000124135      -0.000082009
Nuclear contribution   :     -0.000576378      -0.000104541       0.000365561
                        -----------------------------------------
Total Dipole Moment    :     -0.000351188       0.000019595       0.000283552
                        -----------------------------------------
Magnitude (a.u.)       :      0.000451795
Magnitude (Debye)      :      0.001148371

Rotational constants in cm-1:             0.158958             0.151313             0.088718
Rotational constants in MHz :          4765.454985          4536.256747          2659.683937

                             ****ORCA TERMINATED NORMALLY****
TOTAL RUN TIME: 0 days 0 hours 0 minutes 35 seconds 542 msec
