                         Program Version 6.0.1  -  RELEASE   -
|  1> ! pbe def2-sv(p) def2/J RI DEFGRID1 loosescf d4 GCP(DFT/SV(P)) printgap
|  2> %output
|  3>     printlevel normal
|  4> end
|  5> * xyz 0 1
|  6> C 3.7312314119 -0.2603479547 -0.1694402669
|  7> C 2.2438816422 -0.1762082933 -0.072741312
|  8> C 1.5558852647 0.9016410101 -0.4590814886
|  9> C 0.0978657348 1.0162053283 -0.3805967351
| 10> O -0.4619113063 2.0778808552 -0.5568318959
| 11> C -0.6414779703 -0.2823899229 -0.0737572616
| 12> H -0.6063943955 -0.8859288165 -0.9911942723
| 13> C 0.1503015479 -1.0258669195 1.0060624707
| 14> C 1.5434462864 -1.373803959 0.4896448165
| 15> C -2.1181963409 -0.0100083199 0.2722733845
| 16> C -2.8859450227 0.3569250619 -0.9982867284
| 17> C -2.8030725201 -1.1970914695 0.9477517659
| 18> H 4.0215693221 -1.1645596924 -0.7034835421
| 19> H 4.1672443637 -0.3156604415 0.8281541838
| 20> H 4.1438039619 0.6035779322 -0.6829686077
| 21> H 2.0643942661 1.7797043534 -0.8332752754
| 22> H 0.2334036997 -0.393423917 1.8933282757
| 23> H -0.3611495383 -1.9452319824 1.2891482527
| 24> H 2.1458991521 -1.813776679 1.2881407676
| 25> H 1.4590858388 -2.1270061971 -0.3025652633
| 26> H -2.1508564665 0.8473805841 0.9528459642
| 27> H -3.9145683793 0.6139601632 -0.7560610329
| 28> H -2.8963317073 -0.4827506836 -1.691744837
| 29> H -2.4272454158 1.2111678939 -1.4863112849
| 30> H -2.6838547568 -2.100264072 0.3518777718
| 31> H -3.8674364865 -0.9942295985 1.043161387
| 32> H -2.4095654165 -1.3764069 1.9448629626
| 33> *
| 34>
| 35>                          ****END OF INPUT****

CARTESIAN COORDINATES (ANGSTROEM)
---------------------------------
  C      3.731231   -0.260348   -0.169440
  C      2.243882   -0.176208   -0.072741
  C      1.555885    0.901641   -0.459081
  C      0.097866    1.016205   -0.380597
  O     -0.461911    2.077881   -0.556832
  C     -0.641478   -0.282390   -0.073757
  H     -0.606394   -0.885929   -0.991194
  C      0.150302   -1.025867    1.006062
  C      1.543446   -1.373804    0.489645
  C     -2.118196   -0.010008    0.272273
  C     -2.885945    0.356925   -0.998287
  C     -2.803073   -1.197091    0.947752
  H      4.021569   -1.164560   -0.703484
  H      4.167244   -0.315660    0.828154
  H      4.143804    0.603578   -0.682969
  H      2.064394    1.779704   -0.833275
  H      0.233404   -0.393424    1.893328
  H     -0.361150   -1.945232    1.289148
  H      2.145899   -1.813777    1.288141
  H      1.459086   -2.127006   -0.302565
  H     -2.150856    0.847381    0.952846
  H     -3.914568    0.613960   -0.756061
  H     -2.896332   -0.482751   -1.691745
  H     -2.427245    1.211168   -1.486311
  H     -2.683855   -2.100264    0.351878
  H     -3.867436   -0.994230    1.043161
  H     -2.409565   -1.376407    1.944863

 Total Charge           Charge          ....    0
 Multiplicity           Mult            ....    1
 Number of Electrons    NEL             ....   84
 Basis Dimension        Dim             ....  186

ORBITAL ENERGIES
----------------

  NO   OCC          E(Eh)            E(eV)
   0   2.0000     -18.728517      -509.6289
   1   2.0000      -9.962237      -271.0863
   2   2.0000      -9.920778      -269.9581
   3   2.0000      -9.902370      -269.4572
   4   2.0000      -9.896848      -269.3069
   5   2.0000      -9.896342      -269.2931
   6   2.0000      -9.894470      -269.2422
   7   2.0000      -9.890377      -269.1308
   8   2.0000      -9.887432      -269.0507
   9   2.0000      -9.870969      -268.6027
  10   2.0000      -9.859340      -268.2863
  11   2.0000      -0.929788       -25.3008
  12   2.0000      -0.774058       -21.0632
  13   2.0000      -0.729380       -19.8474
  14   2.0000      -0.683221       -18.5914
  15   2.0000      -0.655598       -17.8397
  16   2.0000      -0.620240       -16.8776
  17   2.0000      -0.604579       -16.4514
  18   2.0000      -0.552645       -15.0382
  19   2.0000      -0.520101       -14.1527
  20   2.0000      -0.492886       -13.4121
  21   2.0000      -0.472290       -12.8517
  22   2.0000      -0.426369       -11.6021
  23   2.0000      -0.420892       -11.4530
  24   2.0000      -0.406874       -11.0716
  25   2.0000      -0.388318       -10.5667
  26   2.0000      -0.383434       -10.4338
  27   2.0000      -0.378028       -10.2867
  28   2.0000      -0.376465       -10.2441
  29   2.0000      -0.355158        -9.6643
  30   2.0000      -0.351806        -9.5731
  31   2.0000      -0.343291        -9.3414
  32   2.0000      -0.336851        -9.1662
  33   2.0000      -0.331042        -9.0081
  34   2.0000      -0.320198        -8.7130
  35   2.0000      -0.305266        -8.3067
  36   2.0000      -0.298732        -8.1289
  37   2.0000      -0.282999        -7.7008
  38   2.0000      -0.276373        -7.5205
  39   2.0000      -0.270486        -7.3603
  40   2.0000      -0.233533        -6.3548
  41   2.0000      -0.187864        -5.1120
  42   0.0000      -0.076117        -2.0712
  43   0.0000       0.013755         0.3743
  44   0.0000       0.036545         0.9945
  45   0.0000       0.051153         1.3919
  46   0.0000       0.060639         1.6501

MULLIKEN ATOMIC CHARGES
-----------------------
   0 C :   -0.217189
   1 C :   -0.092624
   2 C :   -0.108048
   3 C :    0.080296
   4 O :   -0.162333
   5 C :   -0.193310
   6 H :    0.081568
   7 C :   -0.135745
   8 C :   -0.072897
   9 C :   -0.115786
  10 C :   -0.253636
  11 C :   -0.237308
  12 H :    0.117162
  13 H :    0.121811
  14 H :    0.111631
  15 H :    0.042728
  16 H :    0.094838
  17 H :    0.091683
  18 H :    0.091316
  19 H :    0.097989
  20 H :    0.069343
  21 H :    0.094124
  22 H :    0.081017
  23 H :    0.120356
  24 H :    0.088295
  25 H :    0.098346
  26 H :    0.106372
Sum of atomic charges:    0.0000000

LOEWDIN ATOMIC CHARGES
----------------------
   0 C :   -0.321752
   1 C :   -0.017735
   2 C :   -0.171470
   3 C :    0.042596
   4 O :   -0.126712
   5 C :   -0.159404
   6 H :    0.131715
   7 C :   -0.208295
   8 C :   -0.212782
   9 C :   -0.145921
  10 C :   -0.334467
  11 C :   -0.331309
  12 H :    0.134996
  13 H :    0.137370
  14 H :    0.129021
  15 H :    0.127962
  16 H :    0.122476
  17 H :    0.121667
  18 H :    0.126146
  19 H :    0.135740
  20 H :    0.120114
  21 H :    0.115804
  22 H :    0.109908
  23 H :    0.124473
  24 H :    0.114410
  25 H :    0.119876
  26 H :    0.115573

  Mayer bond orders larger than 0.100000
B(  0-C ,  1-C ) :   1.1244 B(  0-C , 12-H ) :   0.9298 B(  0-C , 13-H ) :   0.9237
B(  0-C , 14-H ) :   0.9427 B(  1-C ,  2-C ) :   1.7451 B(  1-C ,  8-C ) :   1.0725
B(  2-C ,  3-C ) :   1.0523 B(  2-C , 15-H ) :   0.9346 B(  3-C ,  4-O ) :   2.0988
B(  3-C ,  5-C ) :   0.9410 B(  5-C ,  6-H ) :   0.8579 B(  5-C ,  7-C ) :   1.0698
B(  5-C ,  9-C ) :   1.0463 B(  7-C ,  8-C ) :   1.1287 B(  7-C , 16-H ) :   0.9174
B(  7-C , 17-H ) :   0.8953 B(  8-C , 18-H ) :   0.9053 B(  8-C , 19-H ) :   0.8715
B(  9-C , 10-C ) :   1.1100 B(  9-C , 11-C ) :   1.1260 B(  9-C , 20-H ) :   0.8858
B( 10-C , 21-H ) :   0.9486 B( 10-C , 22-H ) :   0.9457 B( 10-C , 23-H ) :   0.9389
B( 11-C , 24-H ) :   0.9428 B( 11-C , 25-H ) :   0.9473 B( 11-C , 26-H ) :   0.9375

Dispersion correction           -0.027872768
FINAL SINGLE POINT ENERGY      -464.843007461801

DIPOLE MOMENT
-------------

Method             : SCF
Type of density    : Electron Density
Multiplicity       :   1
Irrep              :   0
Energy             :  -464.9291692693308278 Eh
Relativity type    :
Basis              : AO
                                X                 Y                 Z
Electronic contribution:      3.786083582       6.844722173      -1.723435228
Nuclear contribution   :     -2.898280713      -7.984364722       2.003092617
                        -----------------------------------------
Total Dipole Moment    :      0.887802868      -1.139642549       0.279657389
                        -----------------------------------------
Magnitude (a.u.)       :      1.471457552
Magnitude (Debye)      :      3.740147863

Rotational constants in cm-1:             0.068681             0.024141             0.019082
Rotational constants in MHz :          2059.002678           723.742786           572.061948

                             ****ORCA TERMINATED NORMALLY****
TOTAL RUN TIME: 0 days 0 hours 0 minutes 29 seconds 193 msec
