                         Program Version 6.0.1  -  RELEASE   -
|  1> ! pbe def2-sv(p) def2/J RI DEFGRID1 loosescf d4 GCP(DFT/SV(P)) printgap
|  2> %output
|  3>     printlevel normal
|  4> end
|  5> * xyz 0 1
|  6> C -3.3221902155 -0.3195875308 -0.1879690338
|  7> C -2.1809600833 0.5472251747 0.3386748214
|  8> H -2.6062003292 1.3044110823 1.006499707
|  9> C -1.4573603853 1.249954249 -0.8225784558
| 10> C 0.0463227036 1.3513570229 -0.5811846881
| 11> C 0.6404197644 -0.0555730129 -0.571872326
| 12> H 0.5759744961 -0.4613237947 -1.5897612333
| 13> C -0.173266903 -0.9899948225 0.3051161271
| 14> O 0.0104400717 -2.1826855453 0.3192133704
| 15> C -1.2038612221 -0.3066245986 1.1663838528
| 16> C 2.1289450784 -0.1498323241 -0.1618805043
| 17> C 3.0175066861 0.6522959893 -1.1091053586
| 18> C 2.3700530211 0.2789134636 1.2837990974
| 19> H -2.9283909597 -1.1413773624 -0.7824776595
| 20> H -3.8999188746 -0.7377714478 0.6333451319
| 21> H -3.9910875576 0.2710716914 -0.8104376638
| 22> H -1.6176152617 0.6828165583 -1.742834419
| 23> H -1.8810665493 2.2441609691 -0.9739848868
| 24> H 0.5040859112 1.9377604745 -1.3792079487
| 25> H 0.2343742223 1.8660860242 0.3611172067
| 26> H -1.7494936821 -1.0551538562 1.7427510208
| 27> H -0.6623688076 0.3350577731 1.8649563564
| 28> H 2.3988362866 -1.2085628245 -0.2459359236
| 29> H 2.8309748059 0.3753813868 -2.1441646565
| 30> H 4.0647552022 0.4591266721 -0.8881383902
| 31> H 2.8400959744 1.7191897916 -0.996614664
| 32> H 2.1168038061 1.3258941251 1.4343253258
| 33> H 3.4211732873 0.1507880026 1.5328821296
| 34> H 1.7848673059 -0.3294698231 1.9695666649
| 35> *
| 36>
| 37>                          ****END OF INPUT****

CARTESIAN COORDINATES (ANGSTROEM)
---------------------------------
  C     -3.322190   -0.319588   -0.187969
  C     -2.180960    0.547225    0.338675
  H     -2.606200    1.304411    1.006500
  C     -1.457360    1.249954   -0.822578
  C      0.046323    1.351357   -0.581185
  C      0.640420   -0.055573   -0.571872
  H      0.575974   -0.461324   -1.589761
  C     -0.173267   -0.989995    0.305116
  O      0.010440   -2.182686    0.319213
  C     -1.203861   -0.306625    1.166384
  C      2.128945   -0.149832   -0.161881
  C      3.017507    0.652296   -1.109105
  C      2.370053    0.278913    1.283799
  H     -2.928391   -1.141377   -0.782478
  H     -3.899919   -0.737771    0.633345
  H     -3.991088    0.271072   -0.810438
  H     -1.617615    0.682817   -1.742834
  H     -1.881067    2.244161   -0.973985
  H      0.504086    1.937760   -1.379208
  H      0.234374    1.866086    0.361117
  H     -1.749494   -1.055154    1.742751
  H     -0.662369    0.335058    1.864956
  H      2.398836   -1.208563   -0.245936
  H      2.830975    0.375381   -2.144165
  H      4.064755    0.459127   -0.888138
  H      2.840096    1.719190   -0.996615
  H      2.116804    1.325894    1.434325
  H      3.421173    0.150788    1.532882
  H      1.784867   -0.329470    1.969567

 Total Charge           Charge          ....    0
 Multiplicity           Mult            ....    1
 Number of Electrons    NEL             ....   86
 Basis Dimension        Dim             ....  190

ORBITAL ENERGIES
----------------

  NO   OCC          E(Eh)            E(eV)
   0   2.0000     -18.737488      -509.8730
   1   2.0000      -9.966657      -271.2065
   2   2.0000      -9.905067      -269.5306
   3   2.0000      -9.900783      -269.4140
   4   2.0000      -9.896872      -269.3076
   5   2.0000      -9.891218      -269.1537
   6   2.0000      -9.890442      -269.1326
   7   2.0000      -9.889290      -269.1013
   8   2.0000      -9.879368      -268.8313
   9   2.0000      -9.878625      -268.8111
  10   2.0000      -9.877901      -268.7914
  11   2.0000      -0.936851       -25.4930
  12   2.0000      -0.768622       -20.9153
  13   2.0000      -0.730834       -19.8870
  14   2.0000      -0.678524       -18.4636
  15   2.0000      -0.651777       -17.7357
  16   2.0000      -0.616232       -16.7685
  17   2.0000      -0.612923       -16.6785
  18   2.0000      -0.558773       -15.2050
  19   2.0000      -0.522063       -14.2061
  20   2.0000      -0.500370       -13.6158
  21   2.0000      -0.460628       -12.5343
  22   2.0000      -0.440372       -11.9831
  23   2.0000      -0.427038       -11.6203
  24   2.0000      -0.412731       -11.2310
  25   2.0000      -0.395238       -10.7550
  26   2.0000      -0.391124       -10.6430
  27   2.0000      -0.381730       -10.3874
  28   2.0000      -0.368046       -10.0150
  29   2.0000      -0.358286        -9.7494
  30   2.0000      -0.352791        -9.5999
  31   2.0000      -0.345534        -9.4025
  32   2.0000      -0.338196        -9.2028
  33   2.0000      -0.334590        -9.1047
  34   2.0000      -0.322454        -8.7744
  35   2.0000      -0.314965        -8.5706
  36   2.0000      -0.301600        -8.2070
  37   2.0000      -0.296968        -8.0809
  38   2.0000      -0.290388        -7.9019
  39   2.0000      -0.281029        -7.6472
  40   2.0000      -0.273845        -7.4517
  41   2.0000      -0.269639        -7.3373
  42   2.0000      -0.188639        -5.1331
  43   0.0000      -0.050133        -1.3642
  44   0.0000       0.025013         0.6806
  45   0.0000       0.045141         1.2284
  46   0.0000       0.046113         1.2548
  47   0.0000       0.064375         1.7517

MULLIKEN ATOMIC CHARGES
-----------------------
   0 C :   -0.248471
   1 C :   -0.197060
   2 H :    0.070131
   3 C :   -0.094209
   4 C :   -0.109033
   5 C :   -0.159109
   6 H :    0.079397
   7 C :   -0.018052
   8 O :   -0.154942
   9 C :   -0.047668
  10 C :   -0.136787
  11 C :   -0.232091
  12 C :   -0.274639
  13 H :    0.110389
  14 H :    0.101457
  15 H :    0.104860
  16 H :    0.071280
  17 H :    0.084319
  18 H :    0.089622
  19 H :    0.077153
  20 H :    0.081898
  21 H :    0.093571
  22 H :    0.085046
  23 H :    0.096751
  24 H :    0.101951
  25 H :    0.100695
  26 H :    0.100440
  27 H :    0.102855
  28 H :    0.120246
Sum of atomic charges:   -0.0000000

LOEWDIN ATOMIC CHARGES
----------------------
   0 C :   -0.328902
   1 C :   -0.144786
   2 H :    0.118216
   3 C :   -0.217255
   4 C :   -0.222224
   5 C :   -0.161766
   6 H :    0.135184
   7 C :    0.049817
   8 O :   -0.123912
   9 C :   -0.239562
  10 C :   -0.138990
  11 C :   -0.328936
  12 C :   -0.333651
  13 H :    0.120764
  14 H :    0.118886
  15 H :    0.119336
  16 H :    0.117014
  17 H :    0.120774
  18 H :    0.121587
  19 H :    0.116639
  20 H :    0.127999
  21 H :    0.136625
  22 H :    0.123077
  23 H :    0.117879
  24 H :    0.120900
  25 H :    0.116254
  26 H :    0.115158
  27 H :    0.122718
  28 H :    0.121155

  Mayer bond orders larger than 0.100000
B(  0-C ,  1-C ) :   1.1109 B(  0-C , 13-H ) :   0.9467 B(  0-C , 14-H ) :   0.9471
B(  0-C , 15-H ) :   0.9496 B(  1-C ,  2-H ) :   0.8890 B(  1-C ,  3-C ) :   1.0874
B(  1-C ,  9-C ) :   1.0865 B(  3-C ,  4-C ) :   1.1869 B(  3-C , 16-H ) :   0.9026
B(  3-C , 17-H ) :   0.9108 B(  4-C ,  5-C ) :   1.0821 B(  4-C , 18-H ) :   0.9027
B(  4-C , 19-H ) :   0.8787 B(  5-C ,  6-H ) :   0.8574 B(  5-C ,  7-C ) :   0.9269
B(  5-C , 10-C ) :   1.0361 B(  7-C ,  8-O ) :   2.1843 B(  7-C ,  9-C ) :   1.0835
B(  9-C , 20-H ) :   0.8912 B(  9-C , 21-H ) :   0.8625 B( 10-C , 11-C ) :   1.1200
B( 10-C , 12-C ) :   1.1103 B( 10-C , 22-H ) :   0.8903 B( 11-C , 23-H ) :   0.9477
B( 11-C , 24-H ) :   0.9477 B( 11-C , 25-H ) :   0.9419 B( 12-C , 26-H ) :   0.9406
B( 12-C , 27-H ) :   0.9470 B( 12-C , 28-H ) :   0.9396

Dispersion correction           -0.030564090
FINAL SINGLE POINT ENERGY      -466.030970695278

DIPOLE MOMENT
-------------

Method             : SCF
Type of density    : Electron Density
Multiplicity       :   1
Irrep              :   0
Energy             :  -466.1267433477678424 Eh
Relativity type    :
Basis              : AO
                                X                 Y                 Z
Electronic contribution:     -1.439757411      -6.199295688       0.892892102
Nuclear contribution   :      1.347172146       7.227228429      -0.941042709
                        -----------------------------------------
Total Dipole Moment    :     -0.092585265       1.027932741      -0.048150607
                        -----------------------------------------
Magnitude (a.u.)       :      1.033216450
Magnitude (Debye)      :      2.626227505

Rotational constants in cm-1:             0.062759             0.025344             0.021722
Rotational constants in MHz :          1881.470805           759.805920           651.198833

                             ****ORCA TERMINATED NORMALLY****
TOTAL RUN TIME: 0 days 0 hours 0 minutes 18 seconds 482 msec
