                         Program Version 6.0.1  -  RELEASE   -
|  1> ! pbe def2-sv(p) def2/J RI DEFGRID1 loosescf d4 GCP(DFT/SV(P)) printgap
|  2> %output
|  3>     printlevel normal
|  4> end
|  5> * xyz 0 1
|  6> C -2.5574549184 -0.8842712532 0.2673503523
|  7> C -1.1353112715 -0.4347879259 0.6297354861
|  8> H -1.0366262437 -0.3693536132 1.722926001
|  9> C -0.8340164126 0.9478665599 0.0346146935
| 10> H -1.0681182944 0.9335112786 -1.0414494104
| 11> C 0.6514018121 1.2937870434 0.20400858
| 12> H 0.8688494245 1.418354047 1.2782356866
| 13> C 1.5172571866 0.1529094068 -0.330033823
| 14> H 1.3478185246 0.0479833618 -1.4158846905
| 15> C 1.0981770786 -1.1575510928 0.3626266224
| 16> H 1.2964828196 -1.0698747852 1.4445687907
| 17> O -0.2552224504 -1.4239092653 0.1186129876
| 18> O 1.8561266393 -2.2265176666 -0.0923793145
| 19> O 2.8684418277 0.4462552971 -0.0744163098
| 20> O 0.8954015615 2.5000127491 -0.4765299129
| 21> O -1.6378818722 1.8839270418 0.7010587883
| 22> O -2.6969516697 -1.1060860988 -1.1077547599
| 23> H -3.2552539683 -0.0910562955 0.5371507513
| 24> H -2.7946929792 -1.7946289621 0.8343741077
| 25> H 1.4657752327 -2.5428000556 -0.9167042887
| 26> H 3.3634907014 -0.3829135008 -0.1033543247
| 27> H 1.8512108255 2.6287510282 -0.5016801721
| 28> H -1.3664111699 2.7579831141 0.3932267385
| 29> H -2.0067732267 -1.7278387859 -1.3687211877
| 30> *
| 31>
| 32>                          ****END OF INPUT****

CARTESIAN COORDINATES (ANGSTROEM)
---------------------------------
  C     -2.557455   -0.884271    0.267350
  C     -1.135311   -0.434788    0.629735
  H     -1.036626   -0.369354    1.722926
  C     -0.834016    0.947867    0.034615
  H     -1.068118    0.933511   -1.041449
  C      0.651402    1.293787    0.204009
  H      0.868849    1.418354    1.278236
  C      1.517257    0.152909   -0.330034
  H      1.347819    0.047983   -1.415885
  C      1.098177   -1.157551    0.362627
  H      1.296483   -1.069875    1.444569
  O     -0.255222   -1.423909    0.118613
  O      1.856127   -2.226518   -0.092379
  O      2.868442    0.446255   -0.074416
  O      0.895402    2.500013   -0.476530
  O     -1.637882    1.883927    0.701059
  O     -2.696952   -1.106086   -1.107755
  H     -3.255254   -0.091056    0.537151
  H     -2.794693   -1.794629    0.834374
  H      1.465775   -2.542800   -0.916704
  H      3.363491   -0.382914   -0.103354
  H      1.851211    2.628751   -0.501680
  H     -1.366411    2.757983    0.393227
  H     -2.006773   -1.727839   -1.368721

 Total Charge           Charge          ....    0
 Multiplicity           Mult            ....    1
 Number of Electrons    NEL             ....   96
 Basis Dimension        Dim             ....  192

ORBITAL ENERGIES
----------------

  NO   OCC          E(Eh)            E(eV)
   0   2.0000     -18.790805      -511.3238
   1   2.0000     -18.779268      -511.0099
   2   2.0000     -18.763256      -510.5741
   3   2.0000     -18.757365      -510.4139
   4   2.0000     -18.752361      -510.2777
   5   2.0000     -18.748273      -510.1664
   6   2.0000     -10.000087      -272.1162
   7   2.0000      -9.950929      -270.7786
   8   2.0000      -9.945550      -270.6322
   9   2.0000      -9.944012      -270.5903
  10   2.0000      -9.941609      -270.5249
  11   2.0000      -9.931109      -270.2392
  12   2.0000      -1.002653       -27.2836
  13   2.0000      -0.951017       -25.8785
  14   2.0000      -0.946581       -25.7578
  15   2.0000      -0.931109       -25.3368
  16   2.0000      -0.921853       -25.0849
  17   2.0000      -0.919477       -25.0202
  18   2.0000      -0.708307       -19.2740
  19   2.0000      -0.697595       -18.9825
  20   2.0000      -0.620341       -16.8803
  21   2.0000      -0.591965       -16.1082
  22   2.0000      -0.564660       -15.3652
  23   2.0000      -0.544277       -14.8105
  24   2.0000      -0.510912       -13.9026
  25   2.0000      -0.497266       -13.5313
  26   2.0000      -0.476219       -12.9586
  27   2.0000      -0.454494       -12.3674
  28   2.0000      -0.447241       -12.1700
  29   2.0000      -0.441563       -12.0155
  30   2.0000      -0.429233       -11.6800
  31   2.0000      -0.417410       -11.3583
  32   2.0000      -0.380480       -10.3534
  33   2.0000      -0.375216       -10.2102
  34   2.0000      -0.365710        -9.9515
  35   2.0000      -0.357858        -9.7378
  36   2.0000      -0.337448        -9.1824
  37   2.0000      -0.331267        -9.0142
  38   2.0000      -0.313255        -8.5241
  39   2.0000      -0.302843        -8.2408
  40   2.0000      -0.291382        -7.9289
  41   2.0000      -0.279542        -7.6067
  42   2.0000      -0.263909        -7.1813
  43   2.0000      -0.250813        -6.8250
  44   2.0000      -0.233571        -6.3558
  45   2.0000      -0.222959        -6.0670
  46   2.0000      -0.216596        -5.8939
  47   2.0000      -0.215148        -5.8545
  48   0.0000       0.012206         0.3321
  49   0.0000       0.020222         0.5503
  50   0.0000       0.040096         1.0911
  51   0.0000       0.041945         1.1414
  52   0.0000       0.063949         1.7401

MULLIKEN ATOMIC CHARGES
-----------------------
   0 C :    0.096872
   1 C :   -0.019159
   2 H :    0.063638
   3 C :    0.064442
   4 H :    0.056938
   5 C :    0.071175
   6 H :    0.052331
   7 C :    0.038036
   8 H :    0.041886
   9 C :    0.168055
  10 H :    0.059710
  11 O :   -0.320800
  12 O :   -0.385712
  13 O :   -0.422327
  14 O :   -0.423180
  15 O :   -0.418417
  16 O :   -0.435109
  17 H :    0.101520
  18 H :    0.079766
  19 H :    0.304391
  20 H :    0.306132
  21 H :    0.313969
  22 H :    0.312528
  23 H :    0.293315
Sum of atomic charges:   -0.0000000

LOEWDIN ATOMIC CHARGES
----------------------
   0 C :   -0.122078
   1 C :   -0.066362
   2 H :    0.111228
   3 C :   -0.068627
   4 H :    0.106813
   5 C :   -0.079141
   6 H :    0.103387
   7 C :   -0.101655
   8 H :    0.099208
   9 C :   -0.003658
  10 H :    0.100026
  11 O :   -0.151392
  12 O :   -0.295360
  13 O :   -0.326109
  14 O :   -0.324580
  15 O :   -0.315384
  16 O :   -0.328488
  17 H :    0.126456
  18 H :    0.100158
  19 H :    0.289746
  20 H :    0.286145
  21 H :    0.292262
  22 H :    0.291833
  23 H :    0.275571

  Mayer bond orders larger than 0.100000
B(  0-C ,  1-C ) :   1.0519 B(  0-C , 16-O ) :   1.0631 B(  0-C , 17-H ) :   0.9128
B(  0-C , 18-H ) :   0.9160 B(  1-C ,  2-H ) :   0.8705 B(  1-C ,  3-C ) :   1.0138
B(  1-C , 11-O ) :   0.9705 B(  3-C ,  4-H ) :   0.8630 B(  3-C ,  5-C ) :   1.0246
B(  3-C , 15-O ) :   1.0635 B(  5-C ,  6-H ) :   0.8726 B(  5-C ,  7-C ) :   1.0052
B(  5-C , 14-O ) :   1.0830 B(  7-C ,  8-H ) :   0.8574 B(  7-C ,  9-C ) :   0.9893
B(  7-C , 13-O ) :   1.0756 B(  9-C , 10-H ) :   0.8795 B(  9-C , 11-O ) :   1.0200
B(  9-C , 12-O ) :   1.1076 B( 12-O , 19-H ) :   0.8427 B( 13-O , 20-H ) :   0.8299
B( 14-O , 21-H ) :   0.8379 B( 15-O , 22-H ) :   0.8374 B( 16-O , 23-H ) :   0.8421

Dispersion correction           -0.023999282
FINAL SINGLE POINT ENERGY      -685.703709390366

DIPOLE MOMENT
-------------

Method             : SCF
Type of density    : Electron Density
Multiplicity       :   1
Irrep              :   0
Energy             :  -685.8352335128868162 Eh
Relativity type    :
Basis              : AO
                                X                 Y                 Z
Electronic contribution:      2.044590285      -0.213820551      -0.931292075
Nuclear contribution   :     -1.236494283      -0.178927493       0.795549761
                        -----------------------------------------
Total Dipole Moment    :      0.808096002      -0.392748044      -0.135742314
                        -----------------------------------------
Magnitude (a.u.)       :      0.908678244
Magnitude (Debye)      :      2.309676542

Rotational constants in cm-1:             0.038809             0.027471             0.017927
Rotational constants in MHz :          1163.470739           823.562198           537.449614

                             ****ORCA TERMINATED NORMALLY****
TOTAL RUN TIME: 0 days 0 hours 2 minutes 46 seconds 814 msec
