                         Program Version 6.0.1  -  RELEASE   -
|  1> ! pbe def2-sv(p) def2/J RI DEFGRID1 loosescf d4 GCP(DFT/SV(P)) printgap
|  2> %output
|  3>     printlevel normal
|  4> end
|  5> * xyz 0 1
|  6> C -2.2997585864 -1.0444060544 -0.2395716239
|  7> C -0.9070525154 -0.5539598874 0.1694150848
|  8> H -0.7999036299 -0.6865904401 1.2585050135
|  9> C -0.7285436064 0.94624135 -0.1570765315
| 10> H -1.2878441548 1.1999514478 -1.0673981562
| 11> C 0.7673463853 1.2575005421 -0.4027672372
| 12> H 0.9402562741 2.3072866116 -0.1070829781
| 13> C 1.6146433609 0.3254469753 0.4773020591
| 14> H 2.6788532402 0.5226275806 0.3058646959
| 15> C 1.3644369756 -1.1424792812 0.0342182435
| 16> H 1.5053999935 -1.7941627539 0.91155855
| 17> O 0.0697067089 -1.3151226047 -0.4988482116
| 18> O 2.2760965817 -1.5364327085 -0.9175956412
| 19> O 1.2728899647 0.4873744734 1.8384756118
| 20> O 1.1715223124 1.0484498867 -1.7324899842
| 21> O -1.2644433899 1.7600165795 0.8559826249
| 22> O -3.3053035933 -0.43241875 0.5215482993
| 23> H -2.3741254576 -2.1185667058 -0.0598332823
| 24> H -2.4440079297 -0.8618104808 -1.314587099
| 25> H 2.0890625205 -1.0271518016 -1.7204004817
| 26> H 1.8012003037 1.19780484 2.217576087
| 27> H 0.5975402556 1.5494986179 -2.3228456851
| 28> H -0.8226740825 1.5268151216 1.6846532218
| 29> H -3.1320468745 0.5182017097 0.561187657
| 30> *
| 31>
| 32>                          ****END OF INPUT****

CARTESIAN COORDINATES (ANGSTROEM)
---------------------------------
  C     -2.299759   -1.044406   -0.239572
  C     -0.907053   -0.553960    0.169415
  H     -0.799904   -0.686590    1.258505
  C     -0.728544    0.946241   -0.157077
  H     -1.287844    1.199951   -1.067398
  C      0.767346    1.257501   -0.402767
  H      0.940256    2.307287   -0.107083
  C      1.614643    0.325447    0.477302
  H      2.678853    0.522628    0.305865
  C      1.364437   -1.142479    0.034218
  H      1.505400   -1.794163    0.911559
  O      0.069707   -1.315123   -0.498848
  O      2.276097   -1.536433   -0.917596
  O      1.272890    0.487374    1.838476
  O      1.171522    1.048450   -1.732490
  O     -1.264443    1.760017    0.855983
  O     -3.305304   -0.432419    0.521548
  H     -2.374125   -2.118567   -0.059833
  H     -2.444008   -0.861810   -1.314587
  H      2.089063   -1.027152   -1.720400
  H      1.801200    1.197805    2.217576
  H      0.597540    1.549499   -2.322846
  H     -0.822674    1.526815    1.684653
  H     -3.132047    0.518202    0.561188

 Total Charge           Charge          ....    0
 Multiplicity           Mult            ....    1
 Number of Electrons    NEL             ....   96
 Basis Dimension        Dim             ....  192

ORBITAL ENERGIES
----------------

  NO   OCC          E(Eh)            E(eV)
   0   2.0000     -18.785075      -511.1679
   1   2.0000     -18.777514      -510.9621
   2   2.0000     -18.767050      -510.6774
   3   2.0000     -18.765565      -510.6370
   4   2.0000     -18.749315      -510.1948
   5   2.0000     -18.737636      -509.8770
   6   2.0000      -9.985517      -271.7197
   7   2.0000      -9.955853      -270.9125
   8   2.0000      -9.954609      -270.8787
   9   2.0000      -9.952844      -270.8307
  10   2.0000      -9.941679      -270.5268
  11   2.0000      -9.926737      -270.1202
  12   2.0000      -0.986587       -26.8464
  13   2.0000      -0.957743       -26.0615
  14   2.0000      -0.951136       -25.8817
  15   2.0000      -0.944494       -25.7010
  16   2.0000      -0.917818       -24.9751
  17   2.0000      -0.910137       -24.7661
  18   2.0000      -0.706384       -19.2217
  19   2.0000      -0.689407       -18.7597
  20   2.0000      -0.621429       -16.9099
  21   2.0000      -0.595453       -16.2031
  22   2.0000      -0.569147       -15.4873
  23   2.0000      -0.529945       -14.4205
  24   2.0000      -0.514946       -14.0124
  25   2.0000      -0.499698       -13.5975
  26   2.0000      -0.477114       -12.9829
  27   2.0000      -0.472093       -12.8463
  28   2.0000      -0.456945       -12.4341
  29   2.0000      -0.432594       -11.7715
  30   2.0000      -0.422772       -11.5042
  31   2.0000      -0.400486       -10.8978
  32   2.0000      -0.389209       -10.5909
  33   2.0000      -0.376332       -10.2405
  34   2.0000      -0.362548        -9.8654
  35   2.0000      -0.352682        -9.5970
  36   2.0000      -0.341837        -9.3018
  37   2.0000      -0.333281        -9.0690
  38   2.0000      -0.308961        -8.4073
  39   2.0000      -0.302316        -8.2264
  40   2.0000      -0.283317        -7.7094
  41   2.0000      -0.277896        -7.5619
  42   2.0000      -0.262589        -7.1454
  43   2.0000      -0.256792        -6.9877
  44   2.0000      -0.245863        -6.6903
  45   2.0000      -0.223049        -6.0695
  46   2.0000      -0.214263        -5.8304
  47   2.0000      -0.198162        -5.3923
  48   0.0000      -0.006357        -0.1730
  49   0.0000       0.007895         0.2148
  50   0.0000       0.032778         0.8919
  51   0.0000       0.053697         1.4612
  52   0.0000       0.066526         1.8103

MULLIKEN ATOMIC CHARGES
-----------------------
   0 C :    0.097978
   1 C :   -0.018782
   2 H :    0.074005
   3 C :    0.022355
   4 H :    0.053377
   5 C :    0.078763
   6 H :    0.058373
   7 C :   -0.061067
   8 H :    0.091472
   9 C :    0.232674
  10 H :    0.070587
  11 O :   -0.291192
  12 O :   -0.390226
  13 O :   -0.409957
  14 O :   -0.417469
  15 O :   -0.424188
  16 O :   -0.443101
  17 H :    0.090687
  18 H :    0.065862
  19 H :    0.302080
  20 H :    0.312565
  21 H :    0.309083
  22 H :    0.299120
  23 H :    0.297000
Sum of atomic charges:   -0.0000000

LOEWDIN ATOMIC CHARGES
----------------------
   0 C :   -0.115990
   1 C :   -0.085019
   2 H :    0.107650
   3 C :   -0.083987
   4 H :    0.108320
   5 C :   -0.080336
   6 H :    0.097151
   7 C :   -0.092484
   8 H :    0.117112
   9 C :    0.011338
  10 H :    0.101967
  11 O :   -0.146198
  12 O :   -0.290422
  13 O :   -0.311329
  14 O :   -0.312622
  15 O :   -0.309160
  16 O :   -0.337298
  17 H :    0.115461
  18 H :    0.092290
  19 H :    0.278797
  20 H :    0.295353
  21 H :    0.289983
  22 H :    0.276069
  23 H :    0.273354

  Mayer bond orders larger than 0.100000
B(  0-C ,  1-C ) :   1.0464 B(  0-C , 16-O ) :   1.0810 B(  0-C , 17-H ) :   0.9195
B(  0-C , 18-H ) :   0.9065 B(  1-C ,  2-H ) :   0.8690 B(  1-C ,  3-C ) :   0.9787
B(  1-C , 11-O ) :   1.0306 B(  3-C ,  4-H ) :   0.8837 B(  3-C ,  5-C ) :   0.9689
B(  3-C , 15-O ) :   1.0070 B(  5-C ,  6-H ) :   0.8934 B(  5-C ,  7-C ) :   1.0099
B(  5-C , 14-O ) :   1.0409 B(  7-C ,  8-H ) :   0.9048 B(  7-C ,  9-C ) :   0.9416
B(  7-C , 13-O ) :   1.0484 B(  9-C , 10-H ) :   0.9023 B(  9-C , 11-O ) :   1.0254
B(  9-C , 12-O ) :   1.1493 B( 12-O , 19-H ) :   0.8284 B( 13-O , 20-H ) :   0.8427
B( 14-O , 21-H ) :   0.8411 B( 15-O , 22-H ) :   0.8265 B( 16-O , 23-H ) :   0.8281

Dispersion correction           -0.025201425
FINAL SINGLE POINT ENERGY      -685.691518904020

DIPOLE MOMENT
-------------

Method             : SCF
Type of density    : Electron Density
Multiplicity       :   1
Irrep              :   0
Energy             :  -685.8241710241819646 Eh
Relativity type    :
Basis              : AO
                                X                 Y                 Z
Electronic contribution:      1.903305685      -0.709519108      -0.316825231
Nuclear contribution   :     -1.167841816       2.189774555       0.326724008
                        -----------------------------------------
Total Dipole Moment    :      0.735463869       1.480255448       0.009898777
                        -----------------------------------------
Magnitude (a.u.)       :      1.652925067
Magnitude (Debye)      :      4.201401630

Rotational constants in cm-1:             0.044433             0.025303             0.022059
Rotational constants in MHz :          1332.072906           758.568320           661.317598

                             ****ORCA TERMINATED NORMALLY****
TOTAL RUN TIME: 0 days 0 hours 0 minutes 10 seconds 599 msec
