                         Program Version 6.0.1  -  RELEASE   -
|  1> ! r2scan-3c def2/J RI DEFGRID2 scfconv6 printgap
|  2> %output
|  3>     printlevel normal
|  4> end
|  5> * xyz 0 1
|  6> C -1.5875894475 1.6948214297 0.3659922151
|  7> C -1.5875113797 0.238845237 0.824667846
|  8> C -2.2502809269 -0.6803147804 -0.2140014424
|  9> C -0.1765132019 -0.2226662875 1.1670066112
| 10> Br 1.0193620536 -0.1901246786 -0.3791671766
| 11> H -1.1338359364 2.33747683 1.1185826855
| 12> H -1.0294076008 1.8017372601 -0.5619332084
| 13> H -2.6060453436 2.0350115432 0.1958131586
| 14> H -2.1469045595 0.1794760159 1.7672388151
| 15> H -1.5605136671 -1.4456333967 -0.5621578699
| 16> H -2.5709286128 -0.1109220338 -1.0823907589
| 17> H -3.1211838797 -1.1803684482 0.2018116759
| 18> H -0.1709926295 -1.2520153963 1.5245073633
| 19> H 0.2841070839 0.4253533057 1.9122804981
| 20> *
| 21>
| 22>                          ****END OF INPUT****

CARTESIAN COORDINATES (ANGSTROEM)
---------------------------------
  C     -1.587589    1.694821    0.365992
  C     -1.587511    0.238845    0.824668
  C     -2.250281   -0.680315   -0.214001
  C     -0.176513   -0.222666    1.167007
  Br     1.019362   -0.190125   -0.379167
  H     -1.133836    2.337477    1.118583
  H     -1.029408    1.801737   -0.561933
  H     -2.606045    2.035012    0.195813
  H     -2.146905    0.179476    1.767239
  H     -1.560514   -1.445633   -0.562158
  H     -2.570929   -0.110922   -1.082391
  H     -3.121184   -1.180368    0.201812
  H     -0.170993   -1.252015    1.524507
  H      0.284107    0.425353    1.912280

 Total Charge           Charge          ....    0
 Multiplicity           Mult            ....    1
 Number of Electrons    NEL             ....   68
 Basis Dimension        Dim             ....  157

ORBITAL ENERGIES
----------------

  NO   OCC          E(Eh)            E(eV)
   0   2.0000    -482.211035    -13121.6294
   1   2.0000     -62.283033     -1694.8075
   2   2.0000     -56.063441     -1525.5638
   3   2.0000     -56.060808     -1525.4921
   4   2.0000     -56.060752     -1525.4906
   5   2.0000     -10.089265      -274.5429
   6   2.0000     -10.054706      -273.6024
   7   2.0000     -10.022115      -272.7156
   8   2.0000     -10.021920      -272.7103
   9   2.0000      -8.615333      -234.4351
  10   2.0000      -6.422638      -174.7689
  11   2.0000      -6.409275      -174.4052
  12   2.0000      -6.409111      -174.4008
  13   2.0000      -2.520279       -68.5803
  14   2.0000      -2.516951       -68.4897
  15   2.0000      -2.516828       -68.4864
  16   2.0000      -2.506908       -68.2164
  17   2.0000      -2.506876       -68.2156
  18   2.0000      -0.803676       -21.8691
  19   2.0000      -0.733677       -19.9644
  20   2.0000      -0.658429       -17.9168
  21   2.0000      -0.640536       -17.4299
  22   2.0000      -0.533468       -14.5164
  23   2.0000      -0.448876       -12.2145
  24   2.0000      -0.434042       -11.8109
  25   2.0000      -0.414016       -11.2659
  26   2.0000      -0.366540        -9.9741
  27   2.0000      -0.362484        -9.8637
  28   2.0000      -0.348375        -9.4798
  29   2.0000      -0.322014        -8.7624
  30   2.0000      -0.312515        -8.5040
  31   2.0000      -0.303691        -8.2639
  32   2.0000      -0.250695        -6.8218
  33   2.0000      -0.247771        -6.7422
  34   0.0000      -0.019378        -0.5273
  35   0.0000       0.076269         2.0754
  36   0.0000       0.111349         3.0300
  37   0.0000       0.120704         3.2845
  38   0.0000       0.126227         3.4348

MULLIKEN ATOMIC CHARGES
-----------------------
   0 C :   -0.512742
   1 C :    0.047293
   2 C :   -0.538022
   3 C :   -0.253674
   4 Br:   -0.179110
   5 H :    0.141089
   6 H :    0.171801
   7 H :    0.152393
   8 H :    0.149292
   9 H :    0.170912
  10 H :    0.164364
  11 H :    0.150386
  12 H :    0.172797
  13 H :    0.163220
Sum of atomic charges:   -0.0000000

LOEWDIN ATOMIC CHARGES
----------------------
   0 C :   -0.424780
   1 C :   -0.270800
   2 C :   -0.424170
   3 C :   -0.388887
   4 Br:    0.075209
   5 H :    0.153308
   6 H :    0.161835
   7 H :    0.154939
   8 H :    0.164346
   9 H :    0.162075
  10 H :    0.160792
  11 H :    0.155202
  12 H :    0.160571
  13 H :    0.160360

  Mayer bond orders larger than 0.100000
B(  0-C ,  1-C ) :   0.9260 B(  0-C ,  5-H ) :   0.9723 B(  0-C ,  6-H ) :   0.9709
B(  0-C ,  7-H ) :   0.9730 B(  1-C ,  2-C ) :   0.8300 B(  1-C ,  3-C ) :   0.9227
B(  1-C ,  8-H ) :   0.9405 B(  2-C ,  9-H ) :   0.9800 B(  2-C , 10-H ) :   0.9835
B(  2-C , 11-H ) :   0.9683 B(  3-C ,  4-Br) :   0.9688 B(  3-C , 12-H ) :   0.9584
B(  3-C , 13-H ) :   0.9636

Dispersion correction           -0.003631883
FINAL SINGLE POINT ENERGY     -2731.928666865489

DIPOLE MOMENT
-------------

Method             : SCF
Type of density    : Electron Density
Multiplicity       :   1
Irrep              :   0
Energy             : -2731.9321867980456773 Eh
Relativity type    :
Basis              : AO
                                X                 Y                 Z
Electronic contribution:     21.999285894      -4.355532710      -7.158120336
Nuclear contribution   :    -22.651545902       4.382935590       7.755277000
                        -----------------------------------------
Total Dipole Moment    :     -0.652260008       0.027402879       0.597156664
                        -----------------------------------------
Magnitude (a.u.)       :      0.884754270
Magnitude (Debye)      :      2.248866633

Rotational constants in cm-1:             0.184439             0.057273             0.053412
Rotational constants in MHz :          5529.332774          1717.009631          1601.264938

                             ****ORCA TERMINATED NORMALLY****
TOTAL RUN TIME: 0 days 0 hours 0 minutes 13 seconds 361 msec
