                         Program Version 6.0.1  -  RELEASE   -
|  1> ! pbe def2-sv(p) def2/J RI DEFGRID1 loosescf d4 GCP(DFT/SV(P)) printgap
|  2> %output
|  3>     printlevel normal
|  4> end
|  5> * xyz 0 1
|  6> C 0.7834493133 -1.9706710857 0.34775458
|  7> C 0.3968448549 -0.5858208354 -0.1431101353
|  8> H 0.0634439548 -0.6309165708 -1.1824073673
|  9> C -0.676641307 0.0639221079 0.7317169392
| 10> Cl -2.0726824454 0.5991673377 -0.2400356927
| 11> Cl 1.8640528911 0.451988653 -0.1603622415
| 12> H -0.0829564894 -2.6273117805 0.3043619277
| 13> H 1.5678575787 -2.3868769805 -0.2790527571
| 14> H 1.1453955655 -1.9250503207 1.3722632391
| 15> H -1.0614979511 -0.6460278048 1.4638893058
| 16> H -0.2956328032 0.9452465484 1.2465051134
| 17> *
| 18>
| 19>                          ****END OF INPUT****

CARTESIAN COORDINATES (ANGSTROEM)
---------------------------------
  C      0.783449   -1.970671    0.347755
  C      0.396845   -0.585821   -0.143110
  H      0.063444   -0.630917   -1.182407
  C     -0.676641    0.063922    0.731717
  Cl    -2.072682    0.599167   -0.240036
  Cl     1.864053    0.451989   -0.160362
  H     -0.082956   -2.627312    0.304362
  H      1.567858   -2.386877   -0.279053
  H      1.145396   -1.925050    1.372263
  H     -1.061498   -0.646028    1.463889
  H     -0.295633    0.945247    1.246505

 Total Charge           Charge          ....    0
 Multiplicity           Mult            ....    1
 Number of Electrons    NEL             ....   58
 Basis Dimension        Dim             ....   90

ORBITAL ENERGIES
----------------

  NO   OCC          E(Eh)            E(eV)
   0   2.0000    -100.627824     -2738.2223
   1   2.0000    -100.624819     -2738.1405
   2   2.0000      -9.963394      -271.1177
   3   2.0000      -9.952254      -270.8146
   4   2.0000      -9.899826      -269.3880
   5   2.0000      -9.163800      -249.3597
   6   2.0000      -9.160946      -249.2820
   7   2.0000      -6.995519      -190.3578
   8   2.0000      -6.992399      -190.2728
   9   2.0000      -6.983446      -190.0292
  10   2.0000      -6.983185      -190.0221
  11   2.0000      -6.980651      -189.9532
  12   2.0000      -6.980531      -189.9499
  13   2.0000      -0.808697       -22.0058
  14   2.0000      -0.765470       -20.8295
  15   2.0000      -0.680294       -18.5117
  16   2.0000      -0.615383       -16.7454
  17   2.0000      -0.538561       -14.6550
  18   2.0000      -0.438613       -11.9353
  19   2.0000      -0.431306       -11.7364
  20   2.0000      -0.412114       -11.2142
  21   2.0000      -0.379466       -10.3258
  22   2.0000      -0.352950        -9.6043
  23   2.0000      -0.344134        -9.3644
  24   2.0000      -0.332203        -9.0397
  25   2.0000      -0.266139        -7.2420
  26   2.0000      -0.258942        -7.0462
  27   2.0000      -0.248659        -6.7664
  28   2.0000      -0.246886        -6.7181
  29   0.0000      -0.011501        -0.3130
  30   0.0000       0.001758         0.0478
  31   0.0000       0.045495         1.2380
  32   0.0000       0.069809         1.8996
  33   0.0000       0.085715         2.3324

MULLIKEN ATOMIC CHARGES
-----------------------
   0 C :   -0.245275
   1 C :   -0.165022
   2 H :    0.145243
   3 C :   -0.115186
   4 Cl:   -0.144455
   5 Cl:   -0.130607
   6 H :    0.119474
   7 H :    0.124474
   8 H :    0.117763
   9 H :    0.142290
  10 H :    0.151303
Sum of atomic charges:   -0.0000000

LOEWDIN ATOMIC CHARGES
----------------------
   0 C :   -0.350345
   1 C :   -0.215825
   2 H :    0.127708
   3 C :   -0.290335
   4 Cl:    0.042545
   5 Cl:    0.043276
   6 H :    0.129202
   7 H :    0.129179
   8 H :    0.125762
   9 H :    0.128493
  10 H :    0.130339

  Mayer bond orders larger than 0.100000
B(  0-C ,  1-C ) :   1.1006 B(  0-C ,  6-H ) :   0.9322 B(  0-C ,  7-H ) :   0.9455
B(  0-C ,  8-H ) :   0.9440 B(  1-C ,  2-H ) :   0.9126 B(  1-C ,  3-C ) :   0.9984
B(  1-C ,  5-Cl) :   1.0286 B(  3-C ,  4-Cl) :   1.0401 B(  3-C ,  9-H ) :   0.9299
B(  3-C , 10-H ) :   0.9189

Dispersion correction           -0.009339310
FINAL SINGLE POINT ENERGY     -1037.357689941041

DIPOLE MOMENT
-------------

Method             : SCF
Type of density    : Electron Density
Multiplicity       :   1
Irrep              :   0
Energy             : -1037.3932652405430872 Eh
Relativity type    :
Basis              : AO
                                X                 Y                 Z
Electronic contribution:     -1.544434756       7.593382835      -2.929529280
Nuclear contribution   :      1.533996502      -8.232271982       3.282100356
                        -----------------------------------------
Total Dipole Moment    :     -0.010438254      -0.638889147       0.352571076
                        -----------------------------------------
Magnitude (a.u.)       :      0.729790835
Magnitude (Debye)      :      1.854980884

Rotational constants in cm-1:             0.170085             0.053003             0.043459
Rotational constants in MHz :          5099.034266          1589.001415          1302.878098

                             ****ORCA TERMINATED NORMALLY****
TOTAL RUN TIME: 0 days 0 hours 0 minutes 4 seconds 239 msec
