                         Program Version 6.0.1  -  RELEASE   -
|  1> ! pbe def2-sv(p) def2/J RI DEFGRID1 loosescf d4 GCP(DFT/SV(P)) printgap
|  2> %output
|  3>     printlevel normal
|  4> end
|  5> * xyz 0 1
|  6> C -2.7503676238 -0.6722231803 -0.8956835287
|  7> C -1.3131923195 -0.5571719685 -0.3910043931
|  8> H -0.6353441212 -0.8189134665 -1.2125709357
|  9> C -1.0465897942 -1.4854668314 0.7938751714
| 10> C 0.4076226976 -1.4361474612 1.2876083719
| 11> C 1.0880934205 -0.0912642262 0.9941109555
| 12> H 1.8301807743 0.0953588377 1.7816071336
| 13> C 0.0274035326 1.0167107968 1.0787200936
| 14> C -0.977028831 0.8789623344 -0.0396480818
| 15> O -1.4504344708 1.8292712573 -0.6117431779
| 16> C 1.8433038364 -0.0021409431 -0.3171686418
| 17> C 1.9540951302 -0.973644041 -1.2092603595
| 18> C 2.5097547544 1.32311924 -0.557202754
| 19> H -2.9270999334 0.0668275949 -1.6726271722
| 20> H -2.937728809 -1.6637961642 -1.3004998667
| 21> H -3.4520178328 -0.4893371541 -0.0842398437
| 22> H -1.7205505785 -1.2004798187 1.6055052191
| 23> H -1.3041096698 -2.5079658718 0.511508526
| 24> H 0.4114352214 -1.5998790771 2.367394025
| 25> H 0.9897055429 -2.2450549024 0.8491974938
| 26> H -0.5144057557 0.9184045168 2.023444795
| 27> H 0.4657805316 2.0141950262 1.0539303862
| 28> H 2.5286852023 -0.8322281127 -2.109433034
| 29> H 1.4957704019 -1.9410240995 -1.1062411703
| 30> H 2.9691649872 1.7007518634 0.354646879
| 31> H 3.2748823605 1.2350567098 -1.3239054006
| 32> H 1.7776306363 2.0552105604 -0.8971832664
| 33> *
| 34>
| 35>                          ****END OF INPUT****

CARTESIAN COORDINATES (ANGSTROEM)
---------------------------------
  C     -2.750368   -0.672223   -0.895684
  C     -1.313192   -0.557172   -0.391004
  H     -0.635344   -0.818913   -1.212571
  C     -1.046590   -1.485467    0.793875
  C      0.407623   -1.436147    1.287608
  C      1.088093   -0.091264    0.994111
  H      1.830181    0.095359    1.781607
  C      0.027404    1.016711    1.078720
  C     -0.977029    0.878962   -0.039648
  O     -1.450434    1.829271   -0.611743
  C      1.843304   -0.002141   -0.317169
  C      1.954095   -0.973644   -1.209260
  C      2.509755    1.323119   -0.557203
  H     -2.927100    0.066828   -1.672627
  H     -2.937729   -1.663796   -1.300500
  H     -3.452018   -0.489337   -0.084240
  H     -1.720551   -1.200480    1.605505
  H     -1.304110   -2.507966    0.511509
  H      0.411435   -1.599879    2.367394
  H      0.989706   -2.245055    0.849197
  H     -0.514406    0.918405    2.023445
  H      0.465781    2.014195    1.053930
  H      2.528685   -0.832228   -2.109433
  H      1.495770   -1.941024   -1.106241
  H      2.969165    1.700752    0.354647
  H      3.274882    1.235057   -1.323905
  H      1.777631    2.055211   -0.897183

 Total Charge           Charge          ....    0
 Multiplicity           Mult            ....    1
 Number of Electrons    NEL             ....   84
 Basis Dimension        Dim             ....  186

ORBITAL ENERGIES
----------------

  NO   OCC          E(Eh)            E(eV)
   0   2.0000     -18.735196      -509.8106
   1   2.0000      -9.967934      -271.2413
   2   2.0000      -9.912737      -269.7393
   3   2.0000      -9.908071      -269.6123
   4   2.0000      -9.897028      -269.3118
   5   2.0000      -9.895020      -269.2572
   6   2.0000      -9.893598      -269.2185
   7   2.0000      -9.892146      -269.1790
   8   2.0000      -9.883116      -268.9333
   9   2.0000      -9.874887      -268.7093
  10   2.0000      -9.872659      -268.6487
  11   2.0000      -0.937106       -25.4999
  12   2.0000      -0.775359       -21.0986
  13   2.0000      -0.724997       -19.7282
  14   2.0000      -0.685266       -18.6470
  15   2.0000      -0.659702       -17.9514
  16   2.0000      -0.616276       -16.7697
  17   2.0000      -0.605594       -16.4790
  18   2.0000      -0.555584       -15.1182
  19   2.0000      -0.532863       -14.4999
  20   2.0000      -0.476297       -12.9607
  21   2.0000      -0.462322       -12.5804
  22   2.0000      -0.437560       -11.9066
  23   2.0000      -0.427488       -11.6325
  24   2.0000      -0.415691       -11.3115
  25   2.0000      -0.399368       -10.8674
  26   2.0000      -0.381688       -10.3863
  27   2.0000      -0.378380       -10.2962
  28   2.0000      -0.374144       -10.1810
  29   2.0000      -0.359253        -9.7758
  30   2.0000      -0.352086        -9.5807
  31   2.0000      -0.340487        -9.2651
  32   2.0000      -0.337033        -9.1711
  33   2.0000      -0.327936        -8.9236
  34   2.0000      -0.321898        -8.7593
  35   2.0000      -0.316719        -8.6184
  36   2.0000      -0.300733        -8.1834
  37   2.0000      -0.285795        -7.7769
  38   2.0000      -0.281501        -7.6600
  39   2.0000      -0.274979        -7.4826
  40   2.0000      -0.223737        -6.0882
  41   2.0000      -0.190280        -5.1778
  42   0.0000      -0.051080        -1.3900
  43   0.0000      -0.017739        -0.4827
  44   0.0000       0.022724         0.6184
  45   0.0000       0.051547         1.4027
  46   0.0000       0.055077         1.4987

MULLIKEN ATOMIC CHARGES
-----------------------
   0 C :   -0.214226
   1 C :   -0.185902
   2 H :    0.114235
   3 C :   -0.140419
   4 C :   -0.088470
   5 C :   -0.164850
   6 H :    0.085674
   7 C :   -0.077125
   8 C :   -0.012569
   9 O :   -0.155723
  10 C :   -0.062899
  11 C :   -0.228650
  12 C :   -0.235898
  13 H :    0.117543
  14 H :    0.094839
  15 H :    0.092656
  16 H :    0.076587
  17 H :    0.087339
  18 H :    0.079362
  19 H :    0.092509
  20 H :    0.107767
  21 H :    0.097182
  22 H :    0.084745
  23 H :    0.091878
  24 H :    0.105719
  25 H :    0.104287
  26 H :    0.134407
Sum of atomic charges:    0.0000000

LOEWDIN ATOMIC CHARGES
----------------------
   0 C :   -0.323144
   1 C :   -0.185168
   2 H :    0.146998
   3 C :   -0.216345
   4 C :   -0.218505
   5 C :   -0.131620
   6 H :    0.131534
   7 C :   -0.234561
   8 C :    0.052504
   9 O :   -0.119534
  10 C :   -0.053223
  11 C :   -0.269470
  12 C :   -0.324279
  13 H :    0.127247
  14 H :    0.117995
  15 H :    0.118094
  16 H :    0.116632
  17 H :    0.122815
  18 H :    0.122013
  19 H :    0.120874
  20 H :    0.143161
  21 H :    0.129388
  22 H :    0.121008
  23 H :    0.116281
  24 H :    0.124390
  25 H :    0.127244
  26 H :    0.137670

  Mayer bond orders larger than 0.100000
B(  0-C ,  1-C ) :   1.1217 B(  0-C , 13-H ) :   0.9377 B(  0-C , 14-H ) :   0.9488
B(  0-C , 15-H ) :   0.9520 B(  1-C ,  2-H ) :   0.8316 B(  1-C ,  3-C ) :   1.1309
B(  1-C ,  8-C ) :   0.9230 B(  3-C ,  4-C ) :   1.1449 B(  3-C , 16-H ) :   0.9005
B(  3-C , 17-H ) :   0.9149 B(  4-C ,  5-C ) :   1.1093 B(  4-C , 18-H ) :   0.9068
B(  4-C , 19-H ) :   0.8985 B(  5-C ,  6-H ) :   0.8642 B(  5-C ,  7-C ) :   1.0818
B(  5-C , 10-C ) :   1.0016 B(  7-C ,  8-C ) :   1.0466 B(  7-C , 20-H ) :   0.8686
B(  7-C , 21-H ) :   0.8888 B(  8-C ,  9-O ) :   2.1937 B( 10-C , 11-C ) :   2.0530
B( 10-C , 12-C ) :   1.1082 B( 11-C , 22-H ) :   0.9003 B( 11-C , 23-H ) :   0.8863
B( 12-C , 24-H ) :   0.9359 B( 12-C , 25-H ) :   0.9371 B( 12-C , 26-H ) :   0.9211

Dispersion correction           -0.029960780
FINAL SINGLE POINT ENERGY      -464.823663410913

DIPOLE MOMENT
-------------

Method             : SCF
Type of density    : Electron Density
Multiplicity       :   1
Irrep              :   0
Energy             :  -464.9088343472512861 Eh
Relativity type    :
Basis              : AO
                                X                 Y                 Z
Electronic contribution:     -1.600198599       4.196574772      -0.245728398
Nuclear contribution   :      2.091223152      -4.863417727       0.779489259
                        -----------------------------------------
Total Dipole Moment    :      0.491024552      -0.666842954       0.533760861
                        -----------------------------------------
Magnitude (a.u.)       :      0.985233624
Magnitude (Debye)      :      2.504264854

Rotational constants in cm-1:             0.051356             0.031331             0.026569
Rotational constants in MHz :          1539.620164           939.273181           796.526038

                             ****ORCA TERMINATED NORMALLY****
TOTAL RUN TIME: 0 days 0 hours 0 minutes 26 seconds 137 msec
