                         Program Version 6.0.1  -  RELEASE   -
|  1> ! pbe def2-sv(p) def2/J RI DEFGRID1 loosescf d4 GCP(DFT/SV(P)) printgap
|  2> %output
|  3>     printlevel normal
|  4> end
|  5> * xyz 0 1
|  6> C -2.5724682455 -0.6823152437 -0.2495526001
|  7> C -1.178349982 -0.2855010247 0.246777181
|  8> H -1.195943512 -0.1911319585 1.343646965
|  9> C -0.7187506195 1.0444962435 -0.359319355
| 10> H -0.7045045159 0.9385328922 -1.4598675491
| 11> C 0.7033492208 1.3411757771 0.1284558006
| 12> H 0.6788357103 1.5232177152 1.2098266441
| 13> C 1.6510445249 0.1680649287 -0.155616516
| 14> H 1.8188066748 0.0826746705 -1.2430994042
| 15> C 1.0356074013 -1.1586227004 0.3168891942
| 16> H 1.0538846185 -1.1677009044 1.4265560426
| 17> O -0.2916562773 -1.3206574162 -0.1323530851
| 18> O 1.780629111 -2.1879224121 -0.2162236117
| 19> O 2.8645449429 0.3465409182 0.5203767962
| 20> O 1.1962865662 2.5411731756 -0.4287459132
| 21> O -1.6015488008 2.0665155371 0.0164221869
| 22> O -3.0207741303 -1.8633972628 0.351510005
| 23> H -2.535388433 -0.788306223 -1.342566879
| 24> H -3.2794185484 0.1045478519 0.0150184572
| 25> H 1.3544150336 -3.0266005231 -0.0024362474
| 26> H 3.1577703614 1.2557015233 0.372031506
| 27> H 1.2612766016 2.4402385708 -1.3873524218
| 28> H -1.1214221192 2.9049938167 -0.0338486392
| 29> H -2.3460938473 -2.5368950147 0.2026730491
| 30> *
| 31>
| 32>                          ****END OF INPUT****

CARTESIAN COORDINATES (ANGSTROEM)
---------------------------------
  C     -2.572468   -0.682315   -0.249553
  C     -1.178350   -0.285501    0.246777
  H     -1.195944   -0.191132    1.343647
  C     -0.718751    1.044496   -0.359319
  H     -0.704505    0.938533   -1.459868
  C      0.703349    1.341176    0.128456
  H      0.678836    1.523218    1.209827
  C      1.651045    0.168065   -0.155617
  H      1.818807    0.082675   -1.243099
  C      1.035607   -1.158623    0.316889
  H      1.053885   -1.167701    1.426556
  O     -0.291656   -1.320657   -0.132353
  O      1.780629   -2.187922   -0.216224
  O      2.864545    0.346541    0.520377
  O      1.196287    2.541173   -0.428746
  O     -1.601549    2.066516    0.016422
  O     -3.020774   -1.863397    0.351510
  H     -2.535388   -0.788306   -1.342567
  H     -3.279419    0.104548    0.015018
  H      1.354415   -3.026601   -0.002436
  H      3.157770    1.255702    0.372032
  H      1.261277    2.440239   -1.387352
  H     -1.121422    2.904994   -0.033849
  H     -2.346094   -2.536895    0.202673

 Total Charge           Charge          ....    0
 Multiplicity           Mult            ....    1
 Number of Electrons    NEL             ....   96
 Basis Dimension        Dim             ....  192

ORBITAL ENERGIES
----------------

  NO   OCC          E(Eh)            E(eV)
   0   2.0000     -18.783367      -511.1214
   1   2.0000     -18.781807      -511.0789
   2   2.0000     -18.764561      -510.6097
   3   2.0000     -18.759662      -510.4764
   4   2.0000     -18.755367      -510.3595
   5   2.0000     -18.743301      -510.0312
   6   2.0000      -9.994739      -271.9707
   7   2.0000      -9.954632      -270.8793
   8   2.0000      -9.950838      -270.7761
   9   2.0000      -9.949633      -270.7433
  10   2.0000      -9.947935      -270.6971
  11   2.0000      -9.929455      -270.1942
  12   2.0000      -0.993126       -27.0243
  13   2.0000      -0.966087       -26.2886
  14   2.0000      -0.941330       -25.6149
  15   2.0000      -0.929404       -25.2904
  16   2.0000      -0.927685       -25.2436
  17   2.0000      -0.915185       -24.9034
  18   2.0000      -0.712623       -19.3915
  19   2.0000      -0.697298       -18.9745
  20   2.0000      -0.625292       -17.0151
  21   2.0000      -0.588217       -16.0062
  22   2.0000      -0.568776       -15.4772
  23   2.0000      -0.539968       -14.6933
  24   2.0000      -0.510482       -13.8909
  25   2.0000      -0.495198       -13.4750
  26   2.0000      -0.484615       -13.1870
  27   2.0000      -0.463762       -12.6196
  28   2.0000      -0.446967       -12.1626
  29   2.0000      -0.441953       -12.0261
  30   2.0000      -0.434474       -11.8227
  31   2.0000      -0.413326       -11.2472
  32   2.0000      -0.391046       -10.6409
  33   2.0000      -0.376733       -10.2514
  34   2.0000      -0.367413        -9.9978
  35   2.0000      -0.360962        -9.8223
  36   2.0000      -0.327561        -8.9134
  37   2.0000      -0.317973        -8.6525
  38   2.0000      -0.310900        -8.4600
  39   2.0000      -0.303222        -8.2511
  40   2.0000      -0.294694        -8.0190
  41   2.0000      -0.275736        -7.5032
  42   2.0000      -0.261124        -7.1055
  43   2.0000      -0.251702        -6.8492
  44   2.0000      -0.239797        -6.5252
  45   2.0000      -0.228835        -6.2269
  46   2.0000      -0.217141        -5.9087
  47   2.0000      -0.213120        -5.7993
  48   0.0000      -0.000203        -0.0055
  49   0.0000       0.025644         0.6978
  50   0.0000       0.033743         0.9182
  51   0.0000       0.043011         1.1704
  52   0.0000       0.051206         1.3934

MULLIKEN ATOMIC CHARGES
-----------------------
   0 C :    0.106583
   1 C :   -0.027768
   2 H :    0.059392
   3 C :    0.071420
   4 H :    0.038571
   5 C :    0.014432
   6 H :    0.072359
   7 C :    0.046042
   8 H :    0.048147
   9 C :    0.202773
  10 H :    0.046437
  11 O :   -0.326660
  12 O :   -0.365308
  13 O :   -0.402157
  14 O :   -0.419226
  15 O :   -0.407992
  16 O :   -0.429326
  17 H :    0.064530
  18 H :    0.101629
  19 H :    0.303529
  20 H :    0.302288
  21 H :    0.302580
  22 H :    0.304405
  23 H :    0.293320
Sum of atomic charges:   -0.0000000

LOEWDIN ATOMIC CHARGES
----------------------
   0 C :   -0.123960
   1 C :   -0.072056
   2 H :    0.108009
   3 C :   -0.077874
   4 H :    0.094829
   5 C :   -0.094207
   6 H :    0.120978
   7 C :   -0.085431
   8 H :    0.102291
   9 C :    0.009969
  10 H :    0.086623
  11 O :   -0.158354
  12 O :   -0.285532
  13 O :   -0.311005
  14 O :   -0.311812
  15 O :   -0.316158
  16 O :   -0.332095
  17 H :    0.099263
  18 H :    0.125266
  19 H :    0.288823
  20 H :    0.283936
  21 H :    0.286763
  22 H :    0.284172
  23 H :    0.277563

  Mayer bond orders larger than 0.100000
B(  0-C ,  1-C ) :   1.0566 B(  0-C , 16-O ) :   1.0828 B(  0-C , 17-H ) :   0.9030
B(  0-C , 18-H ) :   0.9127 B(  1-C ,  2-H ) :   0.8697 B(  1-C ,  3-C ) :   0.9971
B(  1-C , 11-O ) :   0.9740 B(  3-C ,  4-H ) :   0.8602 B(  3-C ,  5-C ) :   1.0138
B(  3-C , 15-O ) :   1.0846 B(  5-C ,  6-H ) :   0.8618 B(  5-C ,  7-C ) :   1.0189
B(  5-C , 14-O ) :   1.0080 B(  7-C ,  8-H ) :   0.8588 B(  7-C ,  9-C ) :   0.9905
B(  7-C , 13-O ) :   1.0869 B(  9-C , 10-H ) :   0.8860 B(  9-C , 11-O ) :   1.0029
B(  9-C , 12-O ) :   1.1987 B( 12-O , 19-H ) :   0.8426 B( 13-O , 20-H ) :   0.8366
B( 14-O , 21-H ) :   0.8462 B( 15-O , 22-H ) :   0.8307 B( 16-O , 23-H ) :   0.8468

Dispersion correction           -0.023641518
FINAL SINGLE POINT ENERGY      -685.699183404655

DIPOLE MOMENT
-------------

Method             : SCF
Type of density    : Electron Density
Multiplicity       :   1
Irrep              :   0
Energy             :  -685.8296233782408535 Eh
Relativity type    :
Basis              : AO
                                X                 Y                 Z
Electronic contribution:      2.215412837      -1.034078309       0.305132871
Nuclear contribution   :     -1.729175370       1.437910669      -0.842163332
                        -----------------------------------------
Total Dipole Moment    :      0.486237467       0.403832360      -0.537030461
                        -----------------------------------------
Magnitude (a.u.)       :      0.829402897
Magnitude (Debye)      :      2.108174624

Rotational constants in cm-1:             0.039080             0.026207             0.016499
Rotational constants in MHz :          1171.593767           785.663853           494.628737

                             ****ORCA TERMINATED NORMALLY****
TOTAL RUN TIME: 0 days 0 hours 0 minutes 8 seconds 75 msec
