                         Program Version 6.0.1  -  RELEASE   -
|  1> ! r2scan-3c def2/J RI DEFGRID2 scfconv6 printgap
|  2> %output
|  3>     printlevel normal
|  4> end
|  5> * xyz 0 1
|  6> C 1.9045958038 -1.454193676 -6.18689e-05
|  7> C 2.5836930639 -0.2362803955 0.0002517177
|  8> C 1.8937540003 0.9529118733 0.0002540712
|  9> C 0.4925009129 0.978129528 -7.10837e-05
| 10> C -0.1853994538 -0.2591726582 -0.0004070526
| 11> C 0.5321046889 -1.4611398406 -0.0003874914
| 12> N -1.6047933259 -0.3313097894 -0.0001330914
| 13> O -2.2368099838 0.7251026068 -4.01135e-05
| 14> O -2.1353337643 -1.4193549442 0.0005150981
| 15> O -0.1105285676 2.1620046936 -1.49817e-05
| 16> H 2.4526958395 -2.382363506 -9.09572e-05
| 17> H 3.6628119558 -0.2249252335 0.0004231565
| 18> H 2.4056309376 1.9018106797 0.0004317126
| 19> H -0.0279225883 -2.3838023361 -0.000683939
| 20> H -1.0882114852 2.0282812946 -0.0005070663
| 21> *
| 22>
| 23>                          ****END OF INPUT****

CARTESIAN COORDINATES (ANGSTROEM)
---------------------------------
  C      1.904596   -1.454194   -0.000062
  C      2.583693   -0.236280    0.000252
  C      1.893754    0.952912    0.000254
  C      0.492501    0.978130   -0.000071
  C     -0.185399   -0.259173   -0.000407
  C      0.532105   -1.461140   -0.000387
  N     -1.604793   -0.331310   -0.000133
  O     -2.236810    0.725103   -0.000040
  O     -2.135334   -1.419355    0.000515
  O     -0.110529    2.162005   -0.000015
  H      2.452696   -2.382364   -0.000091
  H      3.662812   -0.224925    0.000423
  H      2.405631    1.901811    0.000432
  H     -0.027923   -2.383802   -0.000684
  H     -1.088211    2.028281   -0.000507

 Total Charge           Charge          ....    0
 Multiplicity           Mult            ....    1
 Number of Electrons    NEL             ....   72
 Basis Dimension        Dim             ....  235

ORBITAL ENERGIES
----------------

  NO   OCC          E(Eh)            E(eV)
   0   2.0000     -19.003331      -517.1069
   1   2.0000     -18.997363      -516.9445
   2   2.0000     -18.991573      -516.7870
   3   2.0000     -14.405602      -391.9964
   4   2.0000     -10.140535      -275.9380
   5   2.0000     -10.106057      -274.9998
   6   2.0000     -10.071528      -274.0602
   7   2.0000     -10.070400      -274.0295
   8   2.0000     -10.060846      -273.7695
   9   2.0000     -10.059101      -273.7221
  10   2.0000      -1.216503       -33.1027
  11   2.0000      -1.061014       -28.8717
  12   2.0000      -1.034427       -28.1482
  13   2.0000      -0.864808       -23.5326
  14   2.0000      -0.795234       -21.6394
  15   2.0000      -0.743702       -20.2372
  16   2.0000      -0.684644       -18.6301
  17   2.0000      -0.608924       -16.5697
  18   2.0000      -0.604096       -16.4383
  19   2.0000      -0.543480       -14.7888
  20   2.0000      -0.523972       -14.2580
  21   2.0000      -0.523716       -14.2510
  22   2.0000      -0.501501       -13.6465
  23   2.0000      -0.476163       -12.9571
  24   2.0000      -0.454611       -12.3706
  25   2.0000      -0.428803       -11.6683
  26   2.0000      -0.411431       -11.1956
  27   2.0000      -0.384256       -10.4561
  28   2.0000      -0.375702       -10.2234
  29   2.0000      -0.344171        -9.3654
  30   2.0000      -0.342320        -9.3150
  31   2.0000      -0.303788        -8.2665
  32   2.0000      -0.289751        -7.8845
  33   2.0000      -0.274103        -7.4587
  34   2.0000      -0.273547        -7.4436
  35   2.0000      -0.237551        -6.4641
  36   0.0000      -0.128133        -3.4867
  37   0.0000      -0.050304        -1.3689
  38   0.0000      -0.033368        -0.9080
  39   0.0000       0.054399         1.4803
  40   0.0000       0.078902         2.1470

MULLIKEN ATOMIC CHARGES
-----------------------
   0 C :   -0.155319
   1 C :   -0.081469
   2 C :   -0.272879
   3 C :    0.188845
   4 C :    0.010166
   5 C :   -0.180542
   6 N :    0.325392
   7 O :   -0.279256
   8 O :   -0.224679
   9 O :   -0.364810
  10 H :    0.155241
  11 H :    0.154930
  12 H :    0.167039
  13 H :    0.185417
  14 H :    0.371925
Sum of atomic charges:    0.0000000

LOEWDIN ATOMIC CHARGES
----------------------
   0 C :   -0.176224
   1 C :   -0.118115
   2 C :   -0.131575
   3 C :    0.249977
   4 C :    0.190828
   5 C :   -0.065765
   6 N :   -0.483820
   7 O :   -0.071070
   8 O :   -0.006598
   9 O :   -0.438599
  10 H :    0.173441
  11 H :    0.173658
  12 H :    0.187017
  13 H :    0.201866
  14 H :    0.314979

  Mayer bond orders larger than 0.100000
B(  0-C ,  1-C ) :   1.3224 B(  0-C ,  5-C ) :   1.4024 B(  0-C , 10-H ) :   0.9514
B(  1-C ,  2-C ) :   1.4340 B(  1-C , 11-H ) :   0.9455 B(  2-C ,  3-C ) :   1.3033
B(  2-C , 12-H ) :   0.9515 B(  3-C ,  4-C ) :   1.3564 B(  3-C ,  9-O ) :   1.0991
B(  4-C ,  5-C ) :   1.2594 B(  4-C ,  6-N ) :   1.0080 B(  5-C ,  8-O ) :   0.1046
B(  5-C , 13-H ) :   0.9474 B(  6-N ,  7-O ) :   1.6876 B(  6-N ,  8-O ) :   1.8967
B(  7-O ,  8-O ) :   0.2147 B(  9-O , 14-H ) :   0.7680

Dispersion correction           -0.005277573
FINAL SINGLE POINT ENERGY      -511.901218303800

DIPOLE MOMENT
-------------

Method             : SCF
Type of density    : Electron Density
Multiplicity       :   1
Irrep              :   0
Energy             :  -511.9079588619114247 Eh
Relativity type    :
Basis              : AO
                                X                 Y                 Z
Electronic contribution:     -5.493244355       0.836469844      -0.000190980
Nuclear contribution   :      6.871998182      -0.975494705      -0.000394610
                        -----------------------------------------
Total Dipole Moment    :      1.378753827      -0.139024861      -0.000585590
                        -----------------------------------------
Magnitude (a.u.)       :      1.385745420
Magnitude (Debye)      :      3.522284938

Rotational constants in cm-1:             0.079828             0.043288             0.028068
Rotational constants in MHz :          2393.190699          1297.733116           841.448671

                             ****ORCA TERMINATED NORMALLY****
TOTAL RUN TIME: 0 days 0 hours 0 minutes 22 seconds 16 msec
