                         Program Version 6.0.1  -  RELEASE   -
|  1> ! pbe def2-sv(p) def2/J RI DEFGRID1 loosescf d4 GCP(DFT/SV(P)) printgap
|  2> %output
|  3>     printlevel normal
|  4> end
|  5> * xyz 0 1
|  6> C -2.0015174634 -1.2228635396 -0.3340737751
|  7> C -1.277275884 -0.3879586404 0.7345348849
|  8> H -1.9425240741 -0.2940905538 1.5992310546
|  9> C -0.9667435089 1.0371666959 0.2378469429
| 10> H -1.3120518083 1.1481000066 -0.8003359164
| 11> C 0.54590687 1.2795514501 0.2385476631
| 12> H 0.9032073214 1.3577228234 1.2787416565
| 13> C 1.2202234869 0.0788255219 -0.4249601983
| 14> H 0.7424892093 -0.1193509544 -1.3936777224
| 15> C 1.0087474518 -1.140920839 0.4819762987
| 16> H 1.8368800235 -1.1873344385 1.2131762422
| 17> O -0.1426095038 -1.0489995949 1.2730812101
| 18> O 1.0180029353 -2.2883111924 -0.3196448088
| 19> O 2.5878963187 0.3759650743 -0.5951824407
| 20> O 0.8066831048 2.4755476106 -0.4507339726
| 21> O -1.6344100901 1.9533570101 1.068397841
| 22> O -1.3846102314 -1.0666491447 -1.5920108461
| 23> H -3.0454304954 -0.8821543759 -0.3820478204
| 24> H -1.986071739 -2.2723160398 -0.0147972925
| 25> H 0.761332558 -3.0415927245 0.2253041701
| 26> H 3.0084348154 -0.38130215 -1.0159022778
| 27> H 1.7396563919 2.4556589366 -0.6988212983
| 28> H -1.3131382391 2.8331743785 0.8345421884
| 29> H -1.7247654515 -1.7357779885 -2.1943719709
| 30> *
| 31>
| 32>                          ****END OF INPUT****

CARTESIAN COORDINATES (ANGSTROEM)
---------------------------------
  C     -2.001517   -1.222864   -0.334074
  C     -1.277276   -0.387959    0.734535
  H     -1.942524   -0.294091    1.599231
  C     -0.966744    1.037167    0.237847
  H     -1.312052    1.148100   -0.800336
  C      0.545907    1.279551    0.238548
  H      0.903207    1.357723    1.278742
  C      1.220223    0.078826   -0.424960
  H      0.742489   -0.119351   -1.393678
  C      1.008747   -1.140921    0.481976
  H      1.836880   -1.187334    1.213176
  O     -0.142610   -1.049000    1.273081
  O      1.018003   -2.288311   -0.319645
  O      2.587896    0.375965   -0.595182
  O      0.806683    2.475548   -0.450734
  O     -1.634410    1.953357    1.068398
  O     -1.384610   -1.066649   -1.592011
  H     -3.045430   -0.882154   -0.382048
  H     -1.986072   -2.272316   -0.014797
  H      0.761333   -3.041593    0.225304
  H      3.008435   -0.381302   -1.015902
  H      1.739656    2.455659   -0.698821
  H     -1.313138    2.833174    0.834542
  H     -1.724765   -1.735778   -2.194372

 Total Charge           Charge          ....    0
 Multiplicity           Mult            ....    1
 Number of Electrons    NEL             ....   96
 Basis Dimension        Dim             ....  192

ORBITAL ENERGIES
----------------

  NO   OCC          E(Eh)            E(eV)
   0   2.0000     -18.765736      -510.6416
   1   2.0000     -18.758257      -510.4381
   2   2.0000     -18.756593      -510.3928
   3   2.0000     -18.756144      -510.3806
   4   2.0000     -18.743252      -510.0298
   5   2.0000     -18.738551      -509.9019
   6   2.0000      -9.979942      -271.5680
   7   2.0000      -9.942644      -270.5531
   8   2.0000      -9.936762      -270.3930
   9   2.0000      -9.932104      -270.2663
  10   2.0000      -9.932032      -270.2643
  11   2.0000      -9.931406      -270.2473
  12   2.0000      -0.977866       -26.6091
  13   2.0000      -0.941280       -25.6135
  14   2.0000      -0.932722       -25.3806
  15   2.0000      -0.926029       -25.1985
  16   2.0000      -0.908851       -24.7311
  17   2.0000      -0.906987       -24.6804
  18   2.0000      -0.700585       -19.0639
  19   2.0000      -0.690668       -18.7940
  20   2.0000      -0.617763       -16.8102
  21   2.0000      -0.574613       -15.6360
  22   2.0000      -0.564591       -15.3633
  23   2.0000      -0.518284       -14.1032
  24   2.0000      -0.504092       -13.7171
  25   2.0000      -0.475116       -12.9286
  26   2.0000      -0.463965       -12.6251
  27   2.0000      -0.454814       -12.3761
  28   2.0000      -0.436699       -11.8832
  29   2.0000      -0.430449       -11.7131
  30   2.0000      -0.411041       -11.1850
  31   2.0000      -0.399425       -10.8689
  32   2.0000      -0.382646       -10.4123
  33   2.0000      -0.376657       -10.2494
  34   2.0000      -0.348005        -9.4697
  35   2.0000      -0.346924        -9.4403
  36   2.0000      -0.332476        -9.0471
  37   2.0000      -0.312041        -8.4911
  38   2.0000      -0.307237        -8.3603
  39   2.0000      -0.293981        -7.9996
  40   2.0000      -0.276248        -7.5171
  41   2.0000      -0.266482        -7.2513
  42   2.0000      -0.240097        -6.5334
  43   2.0000      -0.233008        -6.3405
  44   2.0000      -0.227152        -6.1811
  45   2.0000      -0.215636        -5.8678
  46   2.0000      -0.209351        -5.6967
  47   2.0000      -0.206897        -5.6300
  48   0.0000       0.016794         0.4570
  49   0.0000       0.023815         0.6480
  50   0.0000       0.042831         1.1655
  51   0.0000       0.056110         1.5268
  52   0.0000       0.062251         1.6939

MULLIKEN ATOMIC CHARGES
-----------------------
   0 C :    0.013126
   1 C :    0.044946
   2 H :    0.086420
   3 C :    0.079946
   4 H :    0.078142
   5 C :    0.036668
   6 H :    0.056506
   7 C :   -0.013355
   8 H :    0.090203
   9 C :    0.200954
  10 H :    0.053715
  11 O :   -0.311402
  12 O :   -0.400940
  13 O :   -0.425932
  14 O :   -0.428376
  15 O :   -0.419393
  16 O :   -0.417070
  17 H :    0.083209
  18 H :    0.067920
  19 H :    0.294347
  20 H :    0.310933
  21 H :    0.308689
  22 H :    0.306250
  23 H :    0.304496
Sum of atomic charges:   -0.0000000

LOEWDIN ATOMIC CHARGES
----------------------
   0 C :   -0.135218
   1 C :   -0.053095
   2 H :    0.130577
   3 C :   -0.064695
   4 H :    0.110828
   5 C :   -0.072713
   6 H :    0.104047
   7 C :   -0.096619
   8 H :    0.117542
   9 C :   -0.008960
  10 H :    0.093824
  11 O :   -0.140523
  12 O :   -0.321867
  13 O :   -0.322393
  14 O :   -0.326200
  15 O :   -0.321875
  16 O :   -0.329745
  17 H :    0.103665
  18 H :    0.097909
  19 H :    0.280089
  20 H :    0.293181
  21 H :    0.286044
  22 H :    0.287259
  23 H :    0.288940

  Mayer bond orders larger than 0.100000
B(  0-C ,  1-C ) :   1.0622 B(  0-C , 16-O ) :   1.0724 B(  0-C , 17-H ) :   0.9108
B(  0-C , 18-H ) :   0.9089 B(  1-C ,  2-H ) :   0.8852 B(  1-C ,  3-C ) :   0.9889
B(  1-C , 11-O ) :   1.0305 B(  3-C ,  4-H ) :   0.8778 B(  3-C ,  5-C ) :   1.0511
B(  3-C , 15-O ) :   1.0720 B(  5-C ,  6-H ) :   0.8653 B(  5-C ,  7-C ) :   1.0309
B(  5-C , 14-O ) :   1.0866 B(  7-C ,  8-H ) :   0.8655 B(  7-C ,  9-C ) :   1.0001
B(  7-C , 13-O ) :   1.0442 B(  9-C , 10-H ) :   0.8861 B(  9-C , 11-O ) :   1.0570
B(  9-C , 12-O ) :   1.1176 B( 12-O , 19-H ) :   0.8429 B( 13-O , 20-H ) :   0.8454
B( 14-O , 21-H ) :   0.8306 B( 15-O , 22-H ) :   0.8437 B( 16-O , 23-H ) :   0.8464

Dispersion correction           -0.025209230
FINAL SINGLE POINT ENERGY      -685.691319487153

DIPOLE MOMENT
-------------

Method             : SCF
Type of density    : Electron Density
Multiplicity       :   1
Irrep              :   0
Energy             :  -685.8223994583013337 Eh
Relativity type    :
Basis              : AO
                                X                 Y                 Z
Electronic contribution:      2.197084137       0.866112995       0.751881869
Nuclear contribution   :     -2.169263122      -1.982290020      -1.274680117
                        -----------------------------------------
Total Dipole Moment    :      0.027821015      -1.116177025      -0.522798248
                        -----------------------------------------
Magnitude (a.u.)       :      1.232859752
Magnitude (Debye)      :      3.133680452

Rotational constants in cm-1:             0.035024             0.033260             0.022241
Rotational constants in MHz :          1049.990600           997.113485           666.773483

                             ****ORCA TERMINATED NORMALLY****
TOTAL RUN TIME: 0 days 0 hours 0 minutes 9 seconds 751 msec
