                         Program Version 6.0.1  -  RELEASE   -
|  1> ! r2scan-3c def2/J RI DEFGRID2 scfconv6 printgap
|  2> %output
|  3>     printlevel normal
|  4> end
|  5> * xyz 0 1
|  6> C -2.7499943807 0.6607013159 -0.7889129064
|  7> C -1.7547948095 -0.1008296625 0.0503556005
|  8> O -2.0782653153 -0.7543947199 1.0094361748
|  9> C -0.3093019988 0.0413269077 -0.3930539502
| 10> C 0.4598313868 -1.2645220423 -0.1823376375
| 11> C 1.9311791049 -1.0929122737 -0.5430384514
| 12> C 2.5604567223 0.0219454388 0.2861219814
| 13> C 1.8022210585 1.3286017252 0.0765400955
| 14> C 0.3319288832 1.1587063454 0.4450675625
| 15> H -3.7264445165 0.6626627521 -0.3119960335
| 16> H -2.4093498173 1.68136331 -0.9454117087
| 17> H -2.8299497551 0.1782364604 -1.7617457578
| 18> H -0.2740665898 0.3265915356 -1.4491485118
| 19> H 0.363281116 -1.561010713 0.8634312653
| 20> H 0.0138024139 -2.0522366646 -0.7939073074
| 21> H 2.4625777589 -2.0308680951 -0.3712487494
| 22> H 2.0195278515 -0.8488298625 -1.6048631884
| 23> H 2.5260050297 -0.2500629963 1.3432105742
| 24> H 3.6080239507 0.150322669 0.0060812837
| 25> H 2.2422216116 2.1188055744 0.688337864
| 26> H 1.8822705126 1.6315559484 -0.9703939583
| 27> H 0.2461395964 0.8970221114 1.5017708893
| 28> H -0.2031147654 2.0981015417 0.2859519631
| 29> *
| 30>
| 31>                          ****END OF INPUT****

CARTESIAN COORDINATES (ANGSTROEM)
---------------------------------
  C     -2.749994    0.660701   -0.788913
  C     -1.754795   -0.100830    0.050356
  O     -2.078265   -0.754395    1.009436
  C     -0.309302    0.041327   -0.393054
  C      0.459831   -1.264522   -0.182338
  C      1.931179   -1.092912   -0.543038
  C      2.560457    0.021945    0.286122
  C      1.802221    1.328602    0.076540
  C      0.331929    1.158706    0.445068
  H     -3.726445    0.662663   -0.311996
  H     -2.409350    1.681363   -0.945412
  H     -2.829950    0.178236   -1.761746
  H     -0.274067    0.326592   -1.449149
  H      0.363281   -1.561011    0.863431
  H      0.013802   -2.052237   -0.793907
  H      2.462578   -2.030868   -0.371249
  H      2.019528   -0.848830   -1.604863
  H      2.526005   -0.250063    1.343211
  H      3.608024    0.150323    0.006081
  H      2.242222    2.118806    0.688338
  H      1.882271    1.631556   -0.970394
  H      0.246140    0.897022    1.501771
  H     -0.203115    2.098102    0.285952

 Total Charge           Charge          ....    0
 Multiplicity           Mult            ....    1
 Number of Electrons    NEL             ....   70
 Basis Dimension        Dim             ....  246

ORBITAL ENERGIES
----------------

  NO   OCC          E(Eh)            E(eV)
   0   2.0000     -18.935699      -515.2666
   1   2.0000     -10.113827      -275.2112
   2   2.0000     -10.039949      -273.2009
   3   2.0000     -10.035959      -273.0923
   4   2.0000     -10.032382      -272.9950
   5   2.0000     -10.029589      -272.9190
   6   2.0000     -10.025506      -272.8079
   7   2.0000     -10.025364      -272.8040
   8   2.0000     -10.024760      -272.7876
   9   2.0000      -1.007190       -27.4070
  10   2.0000      -0.809211       -22.0198
  11   2.0000      -0.738236       -20.0884
  12   2.0000      -0.713425       -19.4133
  13   2.0000      -0.698702       -19.0126
  14   2.0000      -0.594221       -16.1696
  15   2.0000      -0.580255       -15.7895
  16   2.0000      -0.529972       -14.4213
  17   2.0000      -0.496923       -13.5220
  18   2.0000      -0.449170       -12.2225
  19   2.0000      -0.435466       -11.8496
  20   2.0000      -0.422103       -11.4860
  21   2.0000      -0.417524       -11.3614
  22   2.0000      -0.406224       -11.0539
  23   2.0000      -0.393873       -10.7178
  24   2.0000      -0.380362       -10.3502
  25   2.0000      -0.356228        -9.6935
  26   2.0000      -0.351990        -9.5781
  27   2.0000      -0.345983        -9.4147
  28   2.0000      -0.322922        -8.7872
  29   2.0000      -0.319656        -8.6983
  30   2.0000      -0.314032        -8.5452
  31   2.0000      -0.295013        -8.0277
  32   2.0000      -0.283023        -7.7014
  33   2.0000      -0.271529        -7.3887
  34   2.0000      -0.208767        -5.6808
  35   0.0000      -0.040927        -1.1137
  36   0.0000       0.070510         1.9187
  37   0.0000       0.092799         2.5252
  38   0.0000       0.103513         2.8167
  39   0.0000       0.112884         3.0717

MULLIKEN ATOMIC CHARGES
-----------------------
   0 C :   -0.510658
   1 C :    0.276289
   2 O :   -0.351561
   3 C :   -0.077756
   4 C :   -0.367555
   5 C :   -0.265367
   6 C :   -0.288179
   7 C :   -0.277468
   8 C :   -0.323529
   9 H :    0.176477
  10 H :    0.154047
  11 H :    0.169443
  12 H :    0.167169
  13 H :    0.182155
  14 H :    0.146718
  15 H :    0.147825
  16 H :    0.140543
  17 H :    0.146094
  18 H :    0.147931
  19 H :    0.148838
  20 H :    0.142516
  21 H :    0.176443
  22 H :    0.139583
Sum of atomic charges:    0.0000000

LOEWDIN ATOMIC CHARGES
----------------------
   0 C :   -0.386346
   1 C :    0.222892
   2 O :   -0.458209
   3 C :   -0.208770
   4 C :   -0.275925
   5 C :   -0.301410
   6 C :   -0.303400
   7 C :   -0.299802
   8 C :   -0.270789
   9 H :    0.172083
  10 H :    0.169081
  11 H :    0.175494
  12 H :    0.167774
  13 H :    0.174280
  14 H :    0.161554
  15 H :    0.156734
  16 H :    0.154045
  17 H :    0.156369
  18 H :    0.155471
  19 H :    0.157067
  20 H :    0.155183
  21 H :    0.168278
  22 H :    0.158348

  Mayer bond orders larger than 0.100000
B(  0-C ,  1-C ) :   0.9058 B(  0-C ,  9-H ) :   0.9902 B(  0-C , 10-H ) :   0.9442
B(  0-C , 11-H ) :   0.9515 B(  1-C ,  2-O ) :   1.9812 B(  1-C ,  3-C ) :   0.8438
B(  3-C ,  4-C ) :   0.8963 B(  3-C ,  8-C ) :   0.9017 B(  3-C , 12-H ) :   0.9466
B(  4-C ,  5-C ) :   0.8947 B(  4-C , 13-H ) :   1.0019 B(  4-C , 14-H ) :   0.9476
B(  5-C ,  6-C ) :   0.9190 B(  5-C , 15-H ) :   0.9450 B(  5-C , 16-H ) :   0.9870
B(  6-C ,  7-C ) :   0.9249 B(  6-C , 17-H ) :   0.9951 B(  6-C , 18-H ) :   0.9481
B(  7-C ,  8-C ) :   0.9016 B(  7-C , 19-H ) :   0.9434 B(  7-C , 20-H ) :   0.9890
B(  8-C , 21-H ) :   1.0034 B(  8-C , 22-H ) :   0.9317

Dispersion correction           -0.007283849
FINAL SINGLE POINT ENERGY      -388.408789770811

DIPOLE MOMENT
-------------

Method             : SCF
Type of density    : Electron Density
Multiplicity       :   1
Irrep              :   0
Energy             :  -388.4111860867943733 Eh
Relativity type    :
Basis              : AO
                                X                 Y                 Z
Electronic contribution:     -5.074449076      -2.207683327       2.470533816
Nuclear contribution   :      5.523987237       2.804860905      -3.287309005
                        -----------------------------------------
Total Dipole Moment    :      0.449538161       0.597177579      -0.816775188
                        -----------------------------------------
Magnitude (a.u.)       :      1.107170866
Magnitude (Debye)      :      2.814204693

Rotational constants in cm-1:             0.104097             0.035110             0.030984
Rotational constants in MHz :          3120.741126          1052.570899           928.888575

                             ****ORCA TERMINATED NORMALLY****
TOTAL RUN TIME: 0 days 0 hours 0 minutes 35 seconds 758 msec
