                         Program Version 6.0.0  -   RELEASE  -
|  1> ! r2SCAN-3c DEF2-TZVP FREQ
|  2> * xyzfile 0 1 censo.xyz
|  3>
|  4>                          ****END OF INPUT****

CARTESIAN COORDINATES (ANGSTROEM)
---------------------------------
  C     -1.873222    0.005999    0.000067
  C     -1.171950   -1.199243    0.000463
  C      0.219199   -1.212224    0.000484
  C      0.913619   -0.002736    0.000115
  C      0.225666    1.210694   -0.000300
  C     -1.166565    1.206795   -0.000325
  O      2.290416   -0.060521    0.000192
  H     -2.957974    0.008945    0.000055
  H     -1.710999   -2.141678    0.000810
  H      0.771383   -2.146470    0.000818
  H      0.781207    2.144624   -0.000604
  H     -1.699047    2.152980   -0.000652
  H      2.640081    0.841597   -0.000085

 Total Charge           Charge          ....    0
 Multiplicity           Mult            ....    1
 Number of Electrons    NEL             ....   50
 Basis Dimension        Dim             ....  253

ORBITAL ENERGIES
----------------

  NO   OCC          E(Eh)            E(eV)
   0   2.0000     -18.987100      -516.6653
   1   2.0000     -10.098624      -274.7975
   2   2.0000     -10.041815      -273.2517
   3   2.0000     -10.039767      -273.1960
   4   2.0000     -10.039129      -273.1786
   5   2.0000     -10.033247      -273.0185
   6   2.0000     -10.031921      -272.9824
   7   2.0000      -1.024675       -27.8828
   8   2.0000      -0.818662       -22.2769
   9   2.0000      -0.718628       -19.5549
  10   2.0000      -0.707064       -19.2402
  11   2.0000      -0.592912       -16.1339
  12   2.0000      -0.572072       -15.5669
  13   2.0000      -0.513683       -13.9780
  14   2.0000      -0.468537       -12.7495
  15   2.0000      -0.434984       -11.8365
  16   2.0000      -0.408465       -11.1149
  17   2.0000      -0.394050       -10.7227
  18   2.0000      -0.380939       -10.3659
  19   2.0000      -0.359986        -9.7957
  20   2.0000      -0.331560        -9.0222
  21   2.0000      -0.313162        -8.5216
  22   2.0000      -0.310952        -8.4614
  23   2.0000      -0.239894        -6.5278
  24   2.0000      -0.208832        -5.6826
  25   0.0000      -0.037380        -1.0171
  26   0.0000      -0.020227        -0.5504
  27   0.0000       0.035184         0.9574
  28   0.0000       0.056901         1.5484
  29   0.0000       0.098317         2.6753

MULLIKEN ATOMIC CHARGES
-----------------------
   0 C :   -0.154474
   1 C :   -0.065268
   2 C :   -0.221349
   3 C :    0.314618
   4 C :   -0.221432
   5 C :   -0.098655
   6 O :   -0.400987
   7 H :    0.107104
   8 H :    0.110007
   9 H :    0.111742
  10 H :    0.095281
  11 H :    0.110597
  12 H :    0.312816
Sum of atomic charges:    0.0000000

LOEWDIN ATOMIC CHARGES
----------------------
   0 C :   -0.160805
   1 C :   -0.137721
   2 C :   -0.122635
   3 C :   -0.265207
   4 C :   -0.149210
   5 C :   -0.141141
   6 O :    0.071216
   7 H :    0.141602
   8 H :    0.144114
   9 H :    0.148792
  10 H :    0.140387
  11 H :    0.143634
  12 H :    0.186973

  Mayer bond orders larger than 0.100000
B(  0-C ,  1-C ) :   1.3873 B(  0-C ,  5-C ) :   1.4063 B(  0-C ,  7-H ) :   0.9723
B(  1-C ,  2-C ) :   1.4118 B(  1-C ,  8-H ) :   0.9706 B(  2-C ,  3-C ) :   1.3722
B(  2-C ,  9-H ) :   0.9775 B(  3-C ,  4-C ) :   1.3329 B(  3-C ,  6-O ) :   1.1007
B(  4-C ,  5-C ) :   1.3929 B(  4-C , 10-H ) :   0.9664 B(  5-C , 11-H ) :   0.9584
B(  6-O , 12-H ) :   0.8863

Dispersion correction           -0.003768939
FINAL SINGLE POINT ENERGY      -307.421796087982

DIPOLE MOMENT
-------------

Method             : SCF
Type of density    : Electron Density
Multiplicity       :   1
Irrep              :   0
Energy             :  -307.4217049627696952 Eh
Relativity type    :
Basis              : AO
                                X                 Y                 Z
Electronic contribution:      2.036415652      -0.289973248       0.000097504
Nuclear contribution   :     -2.017852204       0.805325597      -0.000245093
                        -----------------------------------------
Total Dipole Moment    :      0.018563448       0.515352348      -0.000147589
                        -----------------------------------------
Magnitude (a.u.)       :      0.515686597
Magnitude (Debye)      :      1.310771161

VIBRATIONAL FREQUENCIES
-----------------------

Scaling factor for frequencies =  1.000000000  (already applied!)

     0:       0.00 cm**-1
     1:       0.00 cm**-1
     2:       0.00 cm**-1
     3:       0.00 cm**-1
     4:       0.00 cm**-1
     5:       0.00 cm**-1
     6:     237.12 cm**-1
     7:     418.13 cm**-1
     8:     418.88 cm**-1
     9:     427.78 cm**-1
    10:     511.58 cm**-1
    11:     536.54 cm**-1
    12:     634.60 cm**-1
    13:     694.14 cm**-1
    14:     754.37 cm**-1
    15:     813.78 cm**-1
    16:     823.31 cm**-1
    17:     877.84 cm**-1
    18:     938.85 cm**-1
    19:     959.58 cm**-1
    20:    1019.34 cm**-1
    21:    1041.99 cm**-1
    22:    1094.02 cm**-1
    23:    1175.96 cm**-1
    24:    1188.64 cm**-1
    25:    1202.78 cm**-1
    26:    1257.74 cm**-1
    27:    1354.75 cm**-1
    28:    1373.96 cm**-1
    29:    1498.10 cm**-1
    30:    1519.67 cm**-1
    31:    1627.43 cm**-1
    32:    1638.93 cm**-1
    33:    3148.57 cm**-1
    34:    3159.47 cm**-1
    35:    3167.30 cm**-1
    36:    3178.84 cm**-1
    37:    3186.28 cm**-1
    38:    3758.23 cm**-1

IR SPECTRUM
-----------

 Mode   freq       eps      Int      T**2         TX        TY        TZ
       cm**-1   L/(mol*cm) km/mol    a.u.
----------------------------------------------------------------------------
  6:    237.12   0.000094    0.48  0.000124  ( 0.000006 -0.000047 -0.011128)
  7:    418.13   0.002965   14.99  0.002213  ( 0.000203 -0.000020 -0.047044)
  8:    418.88   0.001813    9.16  0.001351  ( 0.036734  0.001067  0.000208)
  9:    427.78   0.016013   80.92  0.011682  (-0.000075  0.000075  0.108081)
 10:    511.58   0.003655   18.47  0.002230  (-0.000011  0.000137 -0.047221)
 11:    536.54   0.000480    2.43  0.000279  ( 0.016362 -0.003421 -0.000002)
 12:    634.60   0.000083    0.42  0.000041  ( 0.002949 -0.005648  0.000001)
 13:    694.14   0.004972   25.13  0.002235  ( 0.000018  0.000048 -0.047278)
 14:    754.37   0.011526   58.25  0.004768  (-0.000010  0.000028 -0.069051)
 15:    813.78   0.000003    0.01  0.000001  (-0.000011  0.000004  0.001005)
 16:    823.31   0.004723   23.87  0.001790  ( 0.042302  0.000794  0.000003)
 17:    877.84   0.001154    5.83  0.000410  (-0.000003 -0.000008  0.020257)
 18:    938.85   0.000042    0.21  0.000014  ( 0.000020 -0.000006  0.003757)
 19:    959.58   0.000029    0.15  0.000009  (-0.000012 -0.000009 -0.003072)
 20:   1019.34   0.001047    5.29  0.000321  ( 0.017842 -0.001481  0.000000)
 21:   1041.99   0.000647    3.27  0.000194  (-0.013912  0.000377 -0.000000)
 22:   1094.02   0.002361   11.93  0.000674  (-0.014851 -0.021284  0.000009)
 23:   1175.96   0.002474   12.50  0.000656  (-0.024148  0.008564 -0.000003)
 24:   1188.64   0.002792   14.11  0.000733  ( 0.026728  0.004317 -0.000001)
 25:   1202.78   0.031931  161.37  0.008285  ( 0.090980 -0.002686  0.000004)
 26:   1257.74   0.010092   51.00  0.002504  ( 0.049934  0.003256  0.000000)
 27:   1354.75   0.000597    3.02  0.000138  ( 0.005417 -0.010404  0.000003)
 28:   1373.96   0.006443   32.56  0.001463  ( 0.038036  0.004086  0.000000)
 29:   1498.10   0.006711   33.92  0.001398  ( 0.036683  0.007237  0.000000)
 30:   1519.67   0.007798   39.41  0.001601  (-0.039693  0.005089 -0.000002)
 31:   1627.43   0.012698   64.17  0.002435  (-0.048771  0.007500 -0.000004)
 32:   1638.93   0.002479   12.53  0.000472  (-0.015943 -0.014762  0.000004)
 33:   3148.57   0.002233   11.28  0.000221  ( 0.014165  0.004547 -0.000001)
 34:   3159.47   0.000031    0.15  0.000003  ( 0.000292 -0.001711  0.000000)
 35:   3167.30   0.003514   17.76  0.000346  ( 0.007906  0.016845 -0.000005)
 36:   3178.84   0.002873   14.52  0.000282  ( 0.011906 -0.011844  0.000004)
 37:   3186.28   0.001103    5.57  0.000108  ( 0.009615  0.003941 -0.000001)
 38:   3758.23   0.009868   49.87  0.000819  ( 0.022704  0.017432 -0.000004)

--------------------------
THERMOCHEMISTRY AT 298.15K
--------------------------

Temperature         ...   298.15 K
Pressure            ...     1.00 atm
Total Mass          ...    94.11 AMU
Quasi RRHO          ...     True
Cut-Off Frequency   ...     1.00 cm^-1

Throughout the following assumptions are being made:
  (1) The electronic state is orbitally nondegenerate
  (2) There are no thermally accessible electronically excited states
  (3) Hindered rotations indicated by low frequency modes are not
      treated as such but are treated as vibrations and this may
      cause some error
  (4) All equations used are the standard statistical mechanics
      equations for an ideal gas
  (5) All vibrations are strictly harmonic

freq.     237.12  E(vib)   ...       0.32
freq.     418.13  E(vib)   ...       0.18
freq.     418.88  E(vib)   ...       0.18
freq.     427.78  E(vib)   ...       0.18
freq.     511.58  E(vib)   ...       0.14
freq.     536.54  E(vib)   ...       0.12
freq.     634.60  E(vib)   ...       0.09
freq.     694.14  E(vib)   ...       0.07
freq.     754.37  E(vib)   ...       0.06
freq.     813.78  E(vib)   ...       0.05
freq.     823.31  E(vib)   ...       0.05
freq.     877.84  E(vib)   ...       0.04
freq.     938.85  E(vib)   ...       0.03
freq.     959.58  E(vib)   ...       0.03
freq.    1019.34  E(vib)   ...       0.02
freq.    1041.99  E(vib)   ...       0.02
freq.    1094.02  E(vib)   ...       0.02
freq.    1175.96  E(vib)   ...       0.01
freq.    1188.64  E(vib)   ...       0.01
freq.    1202.78  E(vib)   ...       0.01
freq.    1257.74  E(vib)   ...       0.01
freq.    1354.75  E(vib)   ...       0.01
freq.    1373.96  E(vib)   ...       0.01
freq.    1498.10  E(vib)   ...       0.00
freq.    1519.67  E(vib)   ...       0.00
freq.    1627.43  E(vib)   ...       0.00
freq.    1638.93  E(vib)   ...       0.00
freq.    3148.57  E(vib)   ...       0.00
freq.    3159.47  E(vib)   ...       0.00
freq.    3167.30  E(vib)   ...       0.00
freq.    3178.84  E(vib)   ...       0.00
freq.    3186.28  E(vib)   ...       0.00
freq.    3758.23  E(vib)   ...       0.00

------------
INNER ENERGY
------------

The inner energy is: U= E(el) + E(ZPE) + E(vib) + E(rot) + E(trans)
    E(el)   - is the total energy from the electronic structure calculation
              = E(kin-el) + E(nuc-el) + E(el-el) + E(nuc-nuc)
    E(ZPE)  - the the zero temperature vibrational energy from the frequency calculation
    E(vib)  - the the finite temperature correction to E(ZPE) due to population
              of excited vibrational states
    E(rot)  - is the rotational thermal energy
    E(trans)- is the translational thermal energy

Summary of contributions to the inner energy U:
Electronic energy                ...   -307.42179609 Eh
Zero point energy                ...      0.10397211 Eh      65.24 kcal/mol
Thermal vibrational correction   ...      0.00261957 Eh       1.64 kcal/mol
Thermal rotational correction    ...      0.00141627 Eh       0.89 kcal/mol
Thermal translational correction ...      0.00141627 Eh       0.89 kcal/mol
-----------------------------------------------------------------------
Total thermal energy                   -307.31237187 Eh

Summary of corrections to the electronic energy:
(perhaps to be used in another calculation)
Total thermal correction                  0.00545211 Eh       3.42 kcal/mol
Non-thermal (ZPE) correction              0.10397211 Eh      65.24 kcal/mol
-----------------------------------------------------------------------
Total correction                          0.10942422 Eh      68.66 kcal/mol

--------
ENTHALPY
--------

The enthalpy is H = U + kB*T
                kB is Boltzmann's constant
Total thermal energy              ...   -307.31237187 Eh
Thermal Enthalpy correction       ...      0.00094421 Eh       0.59 kcal/mol
-----------------------------------------------------------------------
Total Enthalpy                    ...   -307.31142766 Eh

Note: Rotational entropy computed according to Herzberg
Infrared and Raman Spectra, Chapter V,1, Van Nostrand Reinhold, 1945
Point Group:  Cs, Symmetry Number:   1
Rotational constants in cm-1:     0.188625     0.087321     0.059689

Vibrational entropy computed according to the QRRHO of S. Grimme
Chem.Eur.J. 2012 18 9955 using a reference frequency of 100.0 cm-1

-------
ENTROPY
-------

The entropy contributions are T*S = T*(S(el)+S(vib)+S(rot)+S(trans))
     S(el)   - electronic entropy
     S(vib)  - vibrational entropy
     S(rot)  - rotational entropy
     S(trans)- translational entropy
The entropies will be listed as multiplied by the temperature to get
units of energy

Electronic entropy                ...      0.00000000 Eh      0.00 kcal/mol
Vibrational entropy               ...      0.00375018 Eh      2.35 kcal/mol
Rotational entropy                ...      0.01277993 Eh      8.02 kcal/mol
Translational entropy             ...      0.01878531 Eh     11.79 kcal/mol
-----------------------------------------------------------------------
Final entropy term                ...      0.03531542 Eh     22.16 kcal/mol

In case the symmetry of your molecule has not been determined correctly
or in case you have a reason to use a different symmetry number we print
out the resulting rotational entropy values for sn=1,12:

 non-linear molecules -----------------------------------
|  sn= 1 | S(rot)=       0.01277993 Eh      8.02 kcal/mol|
|  sn= 2 | S(rot)=       0.01212547 Eh      7.61 kcal/mol|
|  sn= 3 | S(rot)=       0.01174264 Eh      7.37 kcal/mol|
|  sn= 4 | S(rot)=       0.01147102 Eh      7.20 kcal/mol|
|  sn= 5 | S(rot)=       0.01126033 Eh      7.07 kcal/mol|
|  sn= 6 | S(rot)=       0.01108818 Eh      6.96 kcal/mol|
|  sn= 7 | S(rot)=       0.01094264 Eh      6.87 kcal/mol|
|  sn= 8 | S(rot)=       0.01081656 Eh      6.79 kcal/mol|
|  sn= 9 | S(rot)=       0.01070535 Eh      6.72 kcal/mol|
|  sn=10 | S(rot)=       0.01060587 Eh      6.66 kcal/mol|
|  sn=11 | S(rot)=       0.01051588 Eh      6.60 kcal/mol|
|  sn=12 | S(rot)=       0.01043373 Eh      6.55 kcal/mol|
 linear molecules ---------------------------------------
|  Dinfh | S(rot)=       0.00798708 Eh      5.01 kcal/mol|
|  Cinfv | S(rot)=       0.00864154 Eh      5.42 kcal/mol|
 --------------------------------------------------------

-------------------
GIBBS FREE ENERGY
-------------------

The Gibbs free energy is G = H - T*S

Total enthalpy                    ...   -307.31142766 Eh
Total entropy correction          ...     -0.03531542 Eh    -22.16 kcal/mol
-----------------------------------------------------------------------
Final Gibbs free energy         ...   -307.34674308 Eh

For completeness - the Gibbs free energy minus the electronic energy
G-E(el)                           ...      0.07505300 Eh     47.10 kcal/mol

                             ****ORCA TERMINATED NORMALLY****
TOTAL RUN TIME: 0 days 0 hours 7 minutes 54 seconds 704 msec
