                         Program Version 6.0.0  -   RELEASE  -
|  1> ! r2SCAN-3c DEF2-TZVP FREQ
|  2> * xyzfile 0 1 vacuum_censo.xyz
|  3>
|  4>                          ****END OF INPUT****

CARTESIAN COORDINATES (ANGSTROEM)
---------------------------------
  C     -1.872762   -0.009176    0.000008
  C     -1.166830   -1.207958    0.000006
  C      0.224749   -1.209680    0.000002
  C      0.915860    0.002153    0.000001
  C      0.217598    1.209072    0.000004
  C     -1.171271    1.194802    0.000007
  O      2.282719    0.069902   -0.000002
  H     -2.957084   -0.012109    0.000011
  H     -1.698853   -2.154130    0.000006
  H      0.772288   -2.149459   -0.000000
  H      0.774605    2.139736    0.000003
  H     -1.710760    2.136800    0.000008
  H      2.641526   -0.824584   -0.000000

 Total Charge           Charge          ....    0
 Multiplicity           Mult            ....    1
 Number of Electrons    NEL             ....   50
 Basis Dimension        Dim             ....  253

ORBITAL ENERGIES
----------------

  NO   OCC          E(Eh)            E(eV)
   0   2.0000     -18.987901      -516.6870
   1   2.0000     -10.098043      -274.7817
   2   2.0000     -10.040885      -273.2264
   3   2.0000     -10.038798      -273.1696
   4   2.0000     -10.038405      -273.1589
   5   2.0000     -10.032014      -272.9850
   6   2.0000     -10.030854      -272.9534
   7   2.0000      -1.029195       -28.0058
   8   2.0000      -0.818668       -22.2771
   9   2.0000      -0.718385       -19.5482
  10   2.0000      -0.707116       -19.2416
  11   2.0000      -0.594022       -16.1642
  12   2.0000      -0.572134       -15.5686
  13   2.0000      -0.514968       -14.0130
  14   2.0000      -0.468319       -12.7436
  15   2.0000      -0.435765       -11.8578
  16   2.0000      -0.407946       -11.1008
  17   2.0000      -0.393257       -10.7011
  18   2.0000      -0.382761       -10.4154
  19   2.0000      -0.360436        -9.8080
  20   2.0000      -0.331385        -9.0174
  21   2.0000      -0.313946        -8.5429
  22   2.0000      -0.310279        -8.4431
  23   2.0000      -0.239492        -6.5169
  24   2.0000      -0.208289        -5.6678
  25   0.0000      -0.036560        -0.9949
  26   0.0000      -0.019317        -0.5256
  27   0.0000       0.035915         0.9773
  28   0.0000       0.057481         1.5641
  29   0.0000       0.098367         2.6767

MULLIKEN ATOMIC CHARGES
-----------------------
   0 C :   -0.152717
   1 C :   -0.100155
   2 C :   -0.221884
   3 C :    0.312150
   4 C :   -0.216279
   5 C :   -0.067900
   6 O :   -0.398846
   7 H :    0.106653
   8 H :    0.110513
   9 H :    0.095460
  10 H :    0.110936
  11 H :    0.109157
  12 H :    0.312912
Sum of atomic charges:    0.0000000

LOEWDIN ATOMIC CHARGES
----------------------
   0 C :   -0.161497
   1 C :   -0.141984
   2 C :   -0.149531
   3 C :   -0.272735
   4 C :   -0.122895
   5 C :   -0.138233
   6 O :    0.082309
   7 H :    0.141548
   8 H :    0.143671
   9 H :    0.140567
  10 H :    0.148621
  11 H :    0.144195
  12 H :    0.185965

  Mayer bond orders larger than 0.100000
B(  0-C ,  1-C ) :   1.4092 B(  0-C ,  5-C ) :   1.3857 B(  0-C ,  7-H ) :   0.9725
B(  1-C ,  2-C ) :   1.3927 B(  1-C ,  8-H ) :   0.9581 B(  2-C ,  3-C ) :   1.3320
B(  2-C ,  9-H ) :   0.9655 B(  3-C ,  4-C ) :   1.3695 B(  3-C ,  6-O ) :   1.1079
B(  4-C ,  5-C ) :   1.4152 B(  4-C , 10-H ) :   0.9777 B(  5-C , 11-H ) :   0.9713
B(  6-O , 12-H ) :   0.8863

Dispersion correction           -0.003771416
FINAL SINGLE POINT ENERGY      -307.421980233288

DIPOLE MOMENT
-------------

Method             : SCF
Type of density    : Electron Density
Multiplicity       :   1
Irrep              :   0
Energy             :  -307.4218832005586250 Eh
Relativity type    :
Basis              : AO
                                X                 Y                 Z
Electronic contribution:      2.061206797       0.293487193      -0.000004117
Nuclear contribution   :     -2.013582435      -0.809194701       0.000004924
                        -----------------------------------------
Total Dipole Moment    :      0.047624362      -0.515707507       0.000000807
                        -----------------------------------------
Magnitude (a.u.)       :      0.517901837
Magnitude (Debye)      :      1.316401854

VIBRATIONAL FREQUENCIES
-----------------------

Scaling factor for frequencies =  1.000000000  (already applied!)

     0:       0.00 cm**-1
     1:       0.00 cm**-1
     2:       0.00 cm**-1
     3:       0.00 cm**-1
     4:       0.00 cm**-1
     5:       0.00 cm**-1
     6:     230.68 cm**-1
     7:     367.62 cm**-1
     8:     412.91 cm**-1
     9:     417.99 cm**-1
    10:     508.99 cm**-1
    11:     538.53 cm**-1
    12:     635.06 cm**-1
    13:     693.25 cm**-1
    14:     753.34 cm**-1
    15:     815.36 cm**-1
    16:     830.20 cm**-1
    17:     878.05 cm**-1
    18:     938.72 cm**-1
    19:     959.28 cm**-1
    20:    1020.71 cm**-1
    21:    1044.40 cm**-1
    22:    1095.17 cm**-1
    23:    1176.75 cm**-1
    24:    1190.84 cm**-1
    25:    1195.52 cm**-1
    26:    1277.63 cm**-1
    27:    1358.83 cm**-1
    28:    1373.84 cm**-1
    29:    1499.82 cm**-1
    30:    1525.10 cm**-1
    31:    1632.09 cm**-1
    32:    1643.20 cm**-1
    33:    3140.93 cm**-1
    34:    3161.00 cm**-1
    35:    3168.40 cm**-1
    36:    3183.06 cm**-1
    37:    3189.67 cm**-1
    38:    3806.96 cm**-1

IR SPECTRUM
-----------

 Mode   freq       eps      Int      T**2         TX        TY        TZ
       cm**-1   L/(mol*cm) km/mol    a.u.
----------------------------------------------------------------------------
  6:    230.68   0.000178    0.90  0.000240  ( 0.000001  0.000000 -0.015507)
  7:    367.62   0.019491   98.50  0.016545  ( 0.000000  0.000000  0.128628)
  8:    412.91   0.001910    9.65  0.001444  (-0.037994  0.000373  0.000000)
  9:    417.99   0.000071    0.36  0.000053  ( 0.000000 -0.000001 -0.007294)
 10:    508.99   0.003230   16.32  0.001980  ( 0.000000 -0.000000 -0.044502)
 11:    538.53   0.000402    2.03  0.000233  (-0.014895 -0.003301  0.000000)
 12:    635.06   0.000086    0.44  0.000042  ( 0.003094  0.005723  0.000000)
 13:    693.25   0.004740   23.95  0.002134  (-0.000001 -0.000000 -0.046191)
 14:    753.34   0.011574   58.49  0.004794  ( 0.000001 -0.000000 -0.069240)
 15:    815.36   0.000005    0.03  0.000002  (-0.000000  0.000000  0.001399)
 16:    830.20   0.004134   20.89  0.001554  (-0.039416  0.000492  0.000000)
 17:    878.05   0.001264    6.39  0.000449  (-0.000001 -0.000000  0.021197)
 18:    938.72   0.000030    0.15  0.000010  (-0.000000 -0.000000  0.003183)
 19:    959.28   0.000027    0.14  0.000009  ( 0.000000  0.000000 -0.002982)
 20:   1020.71   0.000971    4.91  0.000297  ( 0.017179  0.001343 -0.000000)
 21:   1044.40   0.000732    3.70  0.000219  (-0.014788 -0.000182  0.000000)
 22:   1095.17   0.002584   13.06  0.000736  (-0.017221  0.020973  0.000000)
 23:   1176.75   0.003400   17.18  0.000902  (-0.028584 -0.009198  0.000000)
 24:   1190.84   0.000736    3.72  0.000193  ( 0.013244 -0.004195 -0.000000)
 25:   1195.52   0.028417  143.61  0.007417  ( 0.086059  0.003370 -0.000000)
 26:   1277.63   0.014828   74.94  0.003622  (-0.060140  0.002225  0.000000)
 27:   1358.83   0.000808    4.08  0.000186  (-0.009192 -0.010057  0.000000)
 28:   1373.84   0.005842   29.52  0.001327  ( 0.035977 -0.005709 -0.000000)
 29:   1499.82   0.005912   29.88  0.001230  ( 0.034428 -0.006702 -0.000000)
 30:   1525.10   0.009227   46.63  0.001888  ( 0.043211  0.004551 -0.000000)
 31:   1632.09   0.011262   56.91  0.002153  (-0.045034 -0.011193  0.000000)
 32:   1643.20   0.005302   26.79  0.001007  (-0.029119  0.012605  0.000000)
 33:   3140.93   0.002757   13.93  0.000274  (-0.014899  0.007209  0.000000)
 34:   3161.00   0.000084    0.42  0.000008  ( 0.001991 -0.002073 -0.000000)
 35:   3168.40   0.003270   16.52  0.000322  ( 0.005189 -0.017179 -0.000000)
 36:   3183.06   0.002978   15.05  0.000292  ( 0.013792  0.010088 -0.000000)
 37:   3189.67   0.001007    5.09  0.000098  (-0.008446  0.005211  0.000000)
 38:   3806.96   0.010186   51.47  0.000835  ( 0.023051 -0.017424  0.000000)

--------------------------
THERMOCHEMISTRY AT 298.15K
--------------------------

Temperature         ...   298.15 K
Pressure            ...     1.00 atm
Total Mass          ...    94.11 AMU
Quasi RRHO          ...     True
Cut-Off Frequency   ...     1.00 cm^-1

Throughout the following assumptions are being made:
  (1) The electronic state is orbitally nondegenerate
  (2) There are no thermally accessible electronically excited states
  (3) Hindered rotations indicated by low frequency modes are not
      treated as such but are treated as vibrations and this may
      cause some error
  (4) All equations used are the standard statistical mechanics
      equations for an ideal gas
  (5) All vibrations are strictly harmonic

freq.     230.68  E(vib)   ...       0.32
freq.     367.62  E(vib)   ...       0.21
freq.     412.91  E(vib)   ...       0.19
freq.     417.99  E(vib)   ...       0.18
freq.     508.99  E(vib)   ...       0.14
freq.     538.53  E(vib)   ...       0.12
freq.     635.06  E(vib)   ...       0.09
freq.     693.25  E(vib)   ...       0.07
freq.     753.34  E(vib)   ...       0.06
freq.     815.36  E(vib)   ...       0.05
freq.     830.20  E(vib)   ...       0.04
freq.     878.05  E(vib)   ...       0.04
freq.     938.72  E(vib)   ...       0.03
freq.     959.28  E(vib)   ...       0.03
freq.    1020.71  E(vib)   ...       0.02
freq.    1044.40  E(vib)   ...       0.02
freq.    1095.17  E(vib)   ...       0.02
freq.    1176.75  E(vib)   ...       0.01
freq.    1190.84  E(vib)   ...       0.01
freq.    1195.52  E(vib)   ...       0.01
freq.    1277.63  E(vib)   ...       0.01
freq.    1358.83  E(vib)   ...       0.01
freq.    1373.84  E(vib)   ...       0.01
freq.    1499.82  E(vib)   ...       0.00
freq.    1525.10  E(vib)   ...       0.00
freq.    1632.09  E(vib)   ...       0.00
freq.    1643.20  E(vib)   ...       0.00
freq.    3140.93  E(vib)   ...       0.00
freq.    3161.00  E(vib)   ...       0.00
freq.    3168.40  E(vib)   ...       0.00
freq.    3183.06  E(vib)   ...       0.00
freq.    3189.67  E(vib)   ...       0.00
freq.    3806.96  E(vib)   ...       0.00

------------
INNER ENERGY
------------

The inner energy is: U= E(el) + E(ZPE) + E(vib) + E(rot) + E(trans)
    E(el)   - is the total energy from the electronic structure calculation
              = E(kin-el) + E(nuc-el) + E(el-el) + E(nuc-nuc)
    E(ZPE)  - the the zero temperature vibrational energy from the frequency calculation
    E(vib)  - the the finite temperature correction to E(ZPE) due to population
              of excited vibrational states
    E(rot)  - is the rotational thermal energy
    E(trans)- is the translational thermal energy

Summary of contributions to the inner energy U:
Electronic energy                ...   -307.42198023 Eh
Zero point energy                ...      0.10403003 Eh      65.28 kcal/mol
Thermal vibrational correction   ...      0.00269064 Eh       1.69 kcal/mol
Thermal rotational correction    ...      0.00141627 Eh       0.89 kcal/mol
Thermal translational correction ...      0.00141627 Eh       0.89 kcal/mol
-----------------------------------------------------------------------
Total thermal energy                   -307.31242702 Eh

Summary of corrections to the electronic energy:
(perhaps to be used in another calculation)
Total thermal correction                  0.00552318 Eh       3.47 kcal/mol
Non-thermal (ZPE) correction              0.10403003 Eh      65.28 kcal/mol
-----------------------------------------------------------------------
Total correction                          0.10955321 Eh      68.75 kcal/mol

--------
ENTHALPY
--------

The enthalpy is H = U + kB*T
                kB is Boltzmann's constant
Total thermal energy              ...   -307.31242702 Eh
Thermal Enthalpy correction       ...      0.00094421 Eh       0.59 kcal/mol
-----------------------------------------------------------------------
Total Enthalpy                    ...   -307.31148281 Eh

Note: Rotational entropy computed according to Herzberg
Infrared and Raman Spectra, Chapter V,1, Van Nostrand Reinhold, 1945
Point Group:  Cs, Symmetry Number:   1
Rotational constants in cm-1:     0.189158     0.087576     0.059862

Vibrational entropy computed according to the QRRHO of S. Grimme
Chem.Eur.J. 2012 18 9955 using a reference frequency of 100.0 cm-1

-------
ENTROPY
-------

The entropy contributions are T*S = T*(S(el)+S(vib)+S(rot)+S(trans))
     S(el)   - electronic entropy
     S(vib)  - vibrational entropy
     S(rot)  - rotational entropy
     S(trans)- translational entropy
The entropies will be listed as multiplied by the temperature to get
units of energy

Electronic entropy                ...      0.00000000 Eh      0.00 kcal/mol
Vibrational entropy               ...      0.00388686 Eh      2.44 kcal/mol
Rotational entropy                ...      0.01277585 Eh      8.02 kcal/mol
Translational entropy             ...      0.01878531 Eh     11.79 kcal/mol
-----------------------------------------------------------------------
Final entropy term                ...      0.03544803 Eh     22.24 kcal/mol

In case the symmetry of your molecule has not been determined correctly
or in case you have a reason to use a different symmetry number we print
out the resulting rotational entropy values for sn=1,12:

 non-linear molecules -----------------------------------
|  sn= 1 | S(rot)=       0.01277585 Eh      8.02 kcal/mol|
|  sn= 2 | S(rot)=       0.01212140 Eh      7.61 kcal/mol|
|  sn= 3 | S(rot)=       0.01173856 Eh      7.37 kcal/mol|
|  sn= 4 | S(rot)=       0.01146694 Eh      7.20 kcal/mol|
|  sn= 5 | S(rot)=       0.01125625 Eh      7.06 kcal/mol|
|  sn= 6 | S(rot)=       0.01108411 Eh      6.96 kcal/mol|
|  sn= 7 | S(rot)=       0.01093856 Eh      6.86 kcal/mol|
|  sn= 8 | S(rot)=       0.01081248 Eh      6.78 kcal/mol|
|  sn= 9 | S(rot)=       0.01070128 Eh      6.72 kcal/mol|
|  sn=10 | S(rot)=       0.01060180 Eh      6.65 kcal/mol|
|  sn=11 | S(rot)=       0.01051181 Eh      6.60 kcal/mol|
|  sn=12 | S(rot)=       0.01042965 Eh      6.54 kcal/mol|
 linear molecules ---------------------------------------
|  Dinfh | S(rot)=       0.00798436 Eh      5.01 kcal/mol|
|  Cinfv | S(rot)=       0.00863881 Eh      5.42 kcal/mol|
 --------------------------------------------------------

-------------------
GIBBS FREE ENERGY
-------------------

The Gibbs free energy is G = H - T*S

Total enthalpy                    ...   -307.31148281 Eh
Total entropy correction          ...     -0.03544803 Eh    -22.24 kcal/mol
-----------------------------------------------------------------------
Final Gibbs free energy         ...   -307.34693084 Eh

For completeness - the Gibbs free energy minus the electronic energy
G-E(el)                           ...      0.07504939 Eh     47.09 kcal/mol

                             ****ORCA TERMINATED NORMALLY****
TOTAL RUN TIME: 0 days 0 hours 7 minutes 52 seconds 726 msec
