                         Program Version 6.0.1  -  RELEASE   -
|  1> ! pbe def2-sv(p) def2/J RI DEFGRID1 loosescf d4 GCP(DFT/SV(P)) printgap
|  2> %output
|  3>     printlevel normal
|  4> end
|  5> * xyz 0 1
|  6> C 3.360186034 0.1230127037 0.0113000962
|  7> N 1.945993865 0.3618312597 0.1788469992
|  8> C 1.6021856655 1.5923564291 0.8423976926
|  9> C 1.0596828442 -0.5760842693 -0.2328954712
| 10> O 1.4098399914 -1.6416885565 -0.7076194187
| 11> C -0.3920820729 -0.2335791705 -0.0941319425
| 12> C -1.1966630452 -0.9915896223 0.7474040191
| 13> C -2.55366556 -0.733398354 0.8291286022
| 14> C -3.1177999195 0.268911147 0.057925108
| 15> C -2.3230104017 1.0124862066 -0.7987750481
| 16> C -0.9639791785 0.764946918 -0.8752571875
| 17> H 3.4826942932 -0.8291420564 -0.5011897263
| 18> H 3.8601867783 0.0796926803 0.981985837
| 19> H 3.8094642868 0.9209487596 -0.5843241173
| 20> H 2.1702200145 1.6768700638 1.7730492661
| 21> H 0.5409322857 1.6178537869 1.0764260445
| 22> H 1.8489148321 2.4521796598 0.2117104374
| 23> H -0.7516092778 -1.7812972144 1.3342094938
| 24> H -3.1732871274 -1.320063849 1.4911879855
| 25> H -4.1779438952 0.4662622194 0.1185229622
| 26> H -2.763127029 1.7867581525 -1.4100000307
| 27> H -0.3440362099 1.3390343789 -1.5489038961
| 28> *
| 29>
| 30>                          ****END OF INPUT****

CARTESIAN COORDINATES (ANGSTROEM)
---------------------------------
  C      3.360186    0.123013    0.011300
  N      1.945994    0.361831    0.178847
  C      1.602186    1.592356    0.842398
  C      1.059683   -0.576084   -0.232895
  O      1.409840   -1.641689   -0.707619
  C     -0.392082   -0.233579   -0.094132
  C     -1.196663   -0.991590    0.747404
  C     -2.553666   -0.733398    0.829129
  C     -3.117800    0.268911    0.057925
  C     -2.323010    1.012486   -0.798775
  C     -0.963979    0.764947   -0.875257
  H      3.482694   -0.829142   -0.501190
  H      3.860187    0.079693    0.981986
  H      3.809464    0.920949   -0.584324
  H      2.170220    1.676870    1.773049
  H      0.540932    1.617854    1.076426
  H      1.848915    2.452180    0.211710
  H     -0.751609   -1.781297    1.334209
  H     -3.173287   -1.320064    1.491188
  H     -4.177944    0.466262    0.118523
  H     -2.763127    1.786758   -1.410000
  H     -0.344036    1.339034   -1.548904

 Total Charge           Charge          ....    0
 Multiplicity           Mult            ....    1
 Number of Electrons    NEL             ....   80
 Basis Dimension        Dim             ....  176

ORBITAL ENERGIES
----------------

  NO   OCC          E(Eh)            E(eV)
   0   2.0000     -18.710096      -509.1276
   1   2.0000     -14.025921      -381.6647
   2   2.0000      -9.977713      -271.5074
   3   2.0000      -9.923733      -270.0385
   4   2.0000      -9.913325      -269.7553
   5   2.0000      -9.906391      -269.5666
   6   2.0000      -9.900399      -269.4035
   7   2.0000      -9.898561      -269.3535
   8   2.0000      -9.897586      -269.3270
   9   2.0000      -9.897307      -269.3194
  10   2.0000      -9.897051      -269.3125
  11   2.0000      -0.934968       -25.4418
  12   2.0000      -0.850059       -23.1313
  13   2.0000      -0.782397       -21.2901
  14   2.0000      -0.691808       -18.8251
  15   2.0000      -0.676191       -18.4001
  16   2.0000      -0.653618       -17.7859
  17   2.0000      -0.630455       -17.1555
  18   2.0000      -0.554512       -15.0890
  19   2.0000      -0.548673       -14.9302
  20   2.0000      -0.498417       -13.5626
  21   2.0000      -0.479769       -13.0552
  22   2.0000      -0.440576       -11.9887
  23   2.0000      -0.434643       -11.8272
  24   2.0000      -0.420314       -11.4373
  25   2.0000      -0.409310       -11.1379
  26   2.0000      -0.395077       -10.7506
  27   2.0000      -0.380585       -10.3562
  28   2.0000      -0.364292        -9.9129
  29   2.0000      -0.362808        -9.8725
  30   2.0000      -0.352583        -9.5943
  31   2.0000      -0.344438        -9.3726
  32   2.0000      -0.331117        -9.0101
  33   2.0000      -0.326029        -8.8717
  34   2.0000      -0.313231        -8.5234
  35   2.0000      -0.303125        -8.2485
  36   2.0000      -0.238007        -6.4765
  37   2.0000      -0.235459        -6.4072
  38   2.0000      -0.204573        -5.5667
  39   2.0000      -0.194363        -5.2889
  40   0.0000      -0.046971        -1.2781
  41   0.0000      -0.040206        -1.0941
  42   0.0000       0.005400         0.1469
  43   0.0000       0.030274         0.8238
  44   0.0000       0.045067         1.2263

MULLIKEN ATOMIC CHARGES
-----------------------
   0 C :   -0.181939
   1 N :   -0.240313
   2 C :   -0.181791
   3 C :    0.139405
   4 O :   -0.215851
   5 C :   -0.023666
   6 C :   -0.071162
   7 C :   -0.048815
   8 C :   -0.045669
   9 C :   -0.048636
  10 C :   -0.083625
  11 H :    0.143339
  12 H :    0.108318
  13 H :    0.106384
  14 H :    0.107791
  15 H :    0.159884
  16 H :    0.105750
  17 H :    0.053465
  18 H :    0.056832
  19 H :    0.056605
  20 H :    0.055230
  21 H :    0.048463
Sum of atomic charges:   -0.0000000

LOEWDIN ATOMIC CHARGES
----------------------
   0 C :   -0.255737
   1 N :   -0.052215
   2 C :   -0.251589
   3 C :    0.027373
   4 O :   -0.186417
   5 C :   -0.062502
   6 C :   -0.102672
   7 C :   -0.119015
   8 C :   -0.121768
   9 C :   -0.120761
  10 C :   -0.115990
  11 H :    0.136584
  12 H :    0.115311
  13 H :    0.115346
  14 H :    0.115629
  15 H :    0.135886
  16 H :    0.113047
  17 H :    0.129594
  18 H :    0.125638
  19 H :    0.124752
  20 H :    0.124886
  21 H :    0.124621

  Mayer bond orders larger than 0.100000
B(  0-C ,  1-N ) :   1.0061 B(  0-C , 11-H ) :   0.9272 B(  0-C , 12-H ) :   0.9518
B(  0-C , 13-H ) :   0.9510 B(  1-N ,  2-C ) :   1.0196 B(  1-N ,  3-C ) :   1.1793
B(  1-N ,  4-O ) :   0.1031 B(  2-C , 14-H ) :   0.9444 B(  2-C , 15-H ) :   0.9298
B(  2-C , 16-H ) :   0.9478 B(  3-C ,  4-O ) :   2.0556 B(  3-C ,  5-C ) :   0.8950
B(  5-C ,  6-C ) :   1.3983 B(  5-C , 10-C ) :   1.3813 B(  6-C ,  7-C ) :   1.3629
B(  6-C , 17-H ) :   0.9677 B(  7-C ,  8-C ) :   1.3754 B(  7-C , 18-H ) :   0.9644
B(  8-C ,  9-C ) :   1.3808 B(  8-C , 19-H ) :   0.9651 B(  9-C , 10-C ) :   1.3712
B(  9-C , 20-H ) :   0.9637 B( 10-C , 21-H ) :   0.9633

Dispersion correction           -0.024091263
FINAL SINGLE POINT ENERGY      -478.522348725454

DIPOLE MOMENT
-------------

Method             : SCF
Type of density    : Electron Density
Multiplicity       :   1
Irrep              :   0
Energy             :  -478.5885396304643109 Eh
Relativity type    :
Basis              : AO
                                X                 Y                 Z
Electronic contribution:     -4.272423558      -4.757433896      -2.150738705
Nuclear contribution   :      4.255587771       5.990478865       2.751223511
                        -----------------------------------------
Total Dipole Moment    :     -0.016835787       1.233044969       0.600484806
                        -----------------------------------------
Magnitude (a.u.)       :      1.371592265
Magnitude (Debye)      :      3.486310476

Rotational constants in cm-1:             0.081819             0.023898             0.021519
Rotational constants in MHz :          2452.863824           716.431478           645.131692

                             ****ORCA TERMINATED NORMALLY****
TOTAL RUN TIME: 0 days 0 hours 0 minutes 16 seconds 615 msec
