                         Program Version 6.0.1  -  RELEASE   -
|  1> ! pbe def2-sv(p) def2/J RI DEFGRID1 loosescf d4 GCP(DFT/SV(P)) printgap
|  2> %output
|  3>     printlevel normal
|  4> end
|  5> * xyz 0 1
|  6> C 0.7202492429 -0.5621105198 -0.2411984932
|  7> C -0.7204140748 -0.5618606385 0.2413682611
|  8> Cl -1.0759670164 0.8982955625 1.1793737292
|  9> Cl -1.802376689 -0.6668261507 -1.1641011155
| 10> Cl 1.0762417779 0.8977532965 -1.1795404208
| 11> Cl 1.8021717122 -0.6672380319 1.1642019481
| 12> H 0.9150540252 -1.4282935198 -0.8787080911
| 13> H -0.9155444358 -1.4278679539 0.8790015923
| 14> *
| 15>
| 16>                          ****END OF INPUT****

CARTESIAN COORDINATES (ANGSTROEM)
---------------------------------
  C      0.720249   -0.562111   -0.241198
  C     -0.720414   -0.561861    0.241368
  Cl    -1.075967    0.898296    1.179374
  Cl    -1.802377   -0.666826   -1.164101
  Cl     1.076242    0.897753   -1.179540
  Cl     1.802172   -0.667238    1.164202
  H      0.915054   -1.428294   -0.878708
  H     -0.915544   -1.427868    0.879002

 Total Charge           Charge          ....    0
 Multiplicity           Mult            ....    1
 Number of Electrons    NEL             ....   82
 Basis Dimension        Dim             ....  104

ORBITAL ENERGIES
----------------

  NO   OCC          E(Eh)            E(eV)
   0   2.0000    -100.654378     -2738.9449
   1   2.0000    -100.654353     -2738.9442
   2   2.0000    -100.649638     -2738.8159
   3   2.0000    -100.649597     -2738.8148
   4   2.0000     -10.028923      -272.9009
   5   2.0000     -10.028905      -272.9004
   6   2.0000      -9.190710      -250.0919
   7   2.0000      -9.190695      -250.0915
   8   2.0000      -9.185913      -249.9614
   9   2.0000      -9.185873      -249.9603
  10   2.0000      -7.022559      -191.0936
  11   2.0000      -7.022548      -191.0933
  12   2.0000      -7.017973      -190.9688
  13   2.0000      -7.017968      -190.9686
  14   2.0000      -7.010365      -190.7617
  15   2.0000      -7.010355      -190.7615
  16   2.0000      -7.009858      -190.7479
  17   2.0000      -7.009849      -190.7477
  18   2.0000      -7.005370      -190.6258
  19   2.0000      -7.005367      -190.6257
  20   2.0000      -7.005026      -190.6164
  21   2.0000      -7.004998      -190.6157
  22   2.0000      -0.872614       -23.7450
  23   2.0000      -0.812964       -22.1219
  24   2.0000      -0.764099       -20.7922
  25   2.0000      -0.756466       -20.5845
  26   2.0000      -0.651146       -17.7186
  27   2.0000      -0.554836       -15.0979
  28   2.0000      -0.482450       -13.1281
  29   2.0000      -0.456448       -12.4206
  30   2.0000      -0.440921       -11.9981
  31   2.0000      -0.400072       -10.8865
  32   2.0000      -0.395994       -10.7755
  33   2.0000      -0.308788        -8.4026
  34   2.0000      -0.298204        -8.1146
  35   2.0000      -0.290163        -7.8957
  36   2.0000      -0.286936        -7.8079
  37   2.0000      -0.275056        -7.4847
  38   2.0000      -0.268651        -7.3104
  39   2.0000      -0.265941        -7.2366
  40   2.0000      -0.263627        -7.1737
  41   0.0000      -0.043625        -1.1871
  42   0.0000      -0.038471        -1.0468
  43   0.0000       0.003899         0.1061
  44   0.0000       0.004606         0.1253
  45   0.0000       0.045279         1.2321

MULLIKEN ATOMIC CHARGES
-----------------------
   0 C :   -0.083545
   1 C :   -0.083559
   2 Cl:   -0.044930
   3 Cl:   -0.053489
   4 Cl:   -0.044941
   5 Cl:   -0.053466
   6 H :    0.181963
   7 H :    0.181966
Sum of atomic charges:   -0.0000000

LOEWDIN ATOMIC CHARGES
----------------------
   0 C :   -0.320168
   1 C :   -0.320148
   2 Cl:    0.093698
   3 Cl:    0.088371
   4 Cl:    0.093680
   5 Cl:    0.088419
   6 H :    0.138072
   7 H :    0.138075

  Mayer bond orders larger than 0.100000
B(  0-C ,  1-C ) :   0.9206 B(  0-C ,  4-Cl) :   1.0829 B(  0-C ,  5-Cl) :   1.0597
B(  0-C ,  6-H ) :   0.8924 B(  1-C ,  2-Cl) :   1.0829 B(  1-C ,  3-Cl) :   1.0596
B(  1-C ,  7-H ) :   0.8924

Dispersion correction           -0.011947756
FINAL SINGLE POINT ENERGY     -1916.692999664704

DIPOLE MOMENT
-------------

Method             : SCF
Type of density    : Electron Density
Multiplicity       :   1
Irrep              :   0
Energy             : -1916.7098292444102299 Eh
Relativity type    :
Basis              : AO
                                X                 Y                 Z
Electronic contribution:      0.000495701       2.615868333      -0.000203492
Nuclear contribution   :     -0.000553758      -3.299668552       0.000363753
                        -----------------------------------------
Total Dipole Moment    :     -0.000058057      -0.683800219       0.000160261
                        -----------------------------------------
Magnitude (a.u.)       :      0.683800240
Magnitude (Debye)      :      1.738082083

Rotational constants in cm-1:             0.060392             0.037798             0.032155
Rotational constants in MHz :          1810.500318          1133.169009           963.970629

                             ****ORCA TERMINATED NORMALLY****
TOTAL RUN TIME: 0 days 0 hours 0 minutes 14 seconds 749 msec
