                         Program Version 6.0.1  -  RELEASE   -
|  1> ! pbe def2-sv(p) def2/J RI DEFGRID1 loosescf d4 GCP(DFT/SV(P)) printgap
|  2> %output
|  3>     printlevel normal
|  4> end
|  5> * xyz 0 1
|  6> C -1.7894231112 0.3796398727 0.4923379999
|  7> C -0.7551727315 0.4316074564 -0.6275597603
|  8> N 0.5106498148 -0.1191609568 -0.1071381646
|  9> O 0.6849882448 -1.3068735475 -0.2253852842
| 10> O 1.2683559257 0.6520138465 0.4278631649
| 11> H -2.7345984324 0.780902092 0.1378681099
| 12> H -1.9457284495 -0.6472088421 0.8152192608
| 13> H -1.4561314282 0.9712049854 1.3420827447
| 14> H -0.5739831979 1.4619144082 -0.9369532941
| 15> H -1.0698073414 -0.1831214009 -1.4720415159
| 16> *
| 17>
| 18>                          ****END OF INPUT****

CARTESIAN COORDINATES (ANGSTROEM)
---------------------------------
  C     -1.789423    0.379640    0.492338
  C     -0.755173    0.431607   -0.627560
  N      0.510650   -0.119161   -0.107138
  O      0.684988   -1.306874   -0.225385
  O      1.268356    0.652014    0.427863
  H     -2.734598    0.780902    0.137868
  H     -1.945728   -0.647209    0.815219
  H     -1.456131    0.971205    1.342083
  H     -0.573983    1.461914   -0.936953
  H     -1.069807   -0.183121   -1.472042

 Total Charge           Charge          ....    0
 Multiplicity           Mult            ....    1
 Number of Electrons    NEL             ....   40
 Basis Dimension        Dim             ....   80

ORBITAL ENERGIES
----------------

  NO   OCC          E(Eh)            E(eV)
   0   2.0000     -18.777360      -510.9579
   1   2.0000     -18.776950      -510.9468
   2   2.0000     -14.208216      -386.6252
   3   2.0000      -9.949082      -270.7283
   4   2.0000      -9.910225      -269.6709
   5   2.0000      -1.137866       -30.9629
   6   2.0000      -0.969225       -26.3740
   7   2.0000      -0.761270       -20.7152
   8   2.0000      -0.638927       -17.3861
   9   2.0000      -0.534334       -14.5400
  10   2.0000      -0.494510       -13.4563
  11   2.0000      -0.473193       -12.8762
  12   2.0000      -0.459462       -12.5026
  13   2.0000      -0.423916       -11.5353
  14   2.0000      -0.377760       -10.2794
  15   2.0000      -0.359576        -9.7846
  16   2.0000      -0.344658        -9.3786
  17   2.0000      -0.273880        -7.4527
  18   2.0000      -0.250613        -6.8195
  19   2.0000      -0.234438        -6.3794
  20   0.0000      -0.091413        -2.4875
  21   0.0000       0.035457         0.9648
  22   0.0000       0.070881         1.9288
  23   0.0000       0.072629         1.9763
  24   0.0000       0.098561         2.6820

MULLIKEN ATOMIC CHARGES
-----------------------
   0 C :   -0.305360
   1 C :   -0.062180
   2 N :    0.172762
   3 O :   -0.217108
   4 O :   -0.216549
   5 H :    0.130074
   6 H :    0.129576
   7 H :    0.129740
   8 H :    0.119651
   9 H :    0.119394
Sum of atomic charges:    0.0000000

LOEWDIN ATOMIC CHARGES
----------------------
   0 C :   -0.341018
   1 C :   -0.187583
   2 N :    0.233719
   3 O :   -0.185888
   4 O :   -0.185492
   5 H :    0.135364
   6 H :    0.132153
   7 H :    0.132208
   8 H :    0.133350
   9 H :    0.133188

  Mayer bond orders larger than 0.100000
B(  0-C ,  1-C ) :   1.1603 B(  0-C ,  5-H ) :   0.9480 B(  0-C ,  6-H ) :   0.9460
B(  0-C ,  7-H ) :   0.9458 B(  1-C ,  2-N ) :   0.8951 B(  1-C ,  8-H ) :   0.9162
B(  1-C ,  9-H ) :   0.9162 B(  2-N ,  3-O ) :   1.5566 B(  2-N ,  4-O ) :   1.5565
B(  3-O ,  4-O ) :   0.3122

Dispersion correction           -0.005836066
FINAL SINGLE POINT ENERGY      -283.756154901125

DIPOLE MOMENT
-------------

Method             : SCF
Type of density    : Electron Density
Multiplicity       :   1
Irrep              :   0
Energy             :  -283.7961202889703145 Eh
Relativity type    :
Basis              : AO
                                X                 Y                 Z
Electronic contribution:      6.085830936      -1.750913010      -0.256423701
Nuclear contribution   :     -7.267456896       2.225952567      -0.104375272
                        -----------------------------------------
Total Dipole Moment    :     -1.181625959       0.475039557      -0.360798973
                        -----------------------------------------
Magnitude (a.u.)       :      1.323660979
Magnitude (Debye)      :      3.364478830

Rotational constants in cm-1:             0.308701             0.144420             0.118542
Rotational constants in MHz :          9254.618360          4329.610281          3553.798459

                             ****ORCA TERMINATED NORMALLY****
TOTAL RUN TIME: 0 days 0 hours 0 minutes 10 seconds 443 msec
