                         Program Version 6.0.1  -  RELEASE   -
|  1> ! pbe def2-sv(p) def2/J RI DEFGRID1 loosescf d4 GCP(DFT/SV(P)) printgap
|  2> %output
|  3>     printlevel normal
|  4> end
|  5> * xyz 0 1
|  6> C -2.0232496929 -0.5866114988 -0.7086492001
|  7> C -1.2062756174 -0.0866031074 0.5037235157
|  8> H -1.8741011563 -0.0535172661 1.3731008668
|  9> C -0.6339174798 1.3248857548 0.2962578697
| 10> H -1.3706950056 1.9310456775 -0.2408291013
| 11> C 0.6727182069 1.3047758229 -0.5271940108
| 12> H 1.1042218011 2.3171695491 -0.4618828407
| 13> C 1.6638144413 0.2933241038 0.0840830695
| 14> H 2.530629409 0.1785971858 -0.5891300514
| 15> C 0.9846423999 -1.0878251426 0.1946509061
| 16> H 1.6184585769 -1.7470908794 0.7997892672
| 17> O -0.2154955718 -1.0265515127 0.9100974555
| 18> O 0.8636455483 -1.6900386123 -1.0516827656
| 19> O 2.078272025 0.6711932291 1.3726266285
| 20> O 0.3823113489 0.9782694069 -1.8707306319
| 21> O -0.4100951925 1.9670575177 1.5216735313
| 22> O -2.3102218021 -1.9518115596 -0.6041975232
| 23> H -1.497323692 -0.3661289522 -1.6483455631
| 24> H -2.9814487674 -0.0618322132 -0.7274784613
| 25> H 0.4296765036 -1.0711159509 -1.6610065887
| 26> H 2.5167298977 1.5298778986 1.3332282348
| 27> H 1.1401998757 1.1949638168 -2.425918807
| 28> H 0.1750627017 1.400442783 2.0488022252
| 29> H -1.4950025567 -2.4015923533 -0.3374438113
| 30> *
| 31>
| 32>                          ****END OF INPUT****

CARTESIAN COORDINATES (ANGSTROEM)
---------------------------------
  C     -2.023250   -0.586611   -0.708649
  C     -1.206276   -0.086603    0.503724
  H     -1.874101   -0.053517    1.373101
  C     -0.633917    1.324886    0.296258
  H     -1.370695    1.931046   -0.240829
  C      0.672718    1.304776   -0.527194
  H      1.104222    2.317170   -0.461883
  C      1.663814    0.293324    0.084083
  H      2.530629    0.178597   -0.589130
  C      0.984642   -1.087825    0.194651
  H      1.618459   -1.747091    0.799789
  O     -0.215496   -1.026552    0.910097
  O      0.863646   -1.690039   -1.051683
  O      2.078272    0.671193    1.372627
  O      0.382311    0.978269   -1.870731
  O     -0.410095    1.967058    1.521674
  O     -2.310222   -1.951812   -0.604198
  H     -1.497324   -0.366129   -1.648346
  H     -2.981449   -0.061832   -0.727478
  H      0.429677   -1.071116   -1.661007
  H      2.516730    1.529878    1.333228
  H      1.140200    1.194964   -2.425919
  H      0.175063    1.400443    2.048802
  H     -1.495003   -2.401592   -0.337444

 Total Charge           Charge          ....    0
 Multiplicity           Mult            ....    1
 Number of Electrons    NEL             ....   96
 Basis Dimension        Dim             ....  192

ORBITAL ENERGIES
----------------

  NO   OCC          E(Eh)            E(eV)
   0   2.0000     -18.796078      -511.4673
   1   2.0000     -18.784984      -511.1654
   2   2.0000     -18.772615      -510.8288
   3   2.0000     -18.762783      -510.5613
   4   2.0000     -18.749604      -510.2027
   5   2.0000     -18.729141      -509.6458
   6   2.0000      -9.992167      -271.9007
   7   2.0000      -9.966513      -271.2026
   8   2.0000      -9.962216      -271.0857
   9   2.0000      -9.952408      -270.8188
  10   2.0000      -9.943074      -270.5648
  11   2.0000      -9.924965      -270.0720
  12   2.0000      -0.992743       -27.0139
  13   2.0000      -0.966865       -26.3097
  14   2.0000      -0.958072       -26.0705
  15   2.0000      -0.933869       -25.4119
  16   2.0000      -0.918370       -24.9901
  17   2.0000      -0.904474       -24.6120
  18   2.0000      -0.712544       -19.3893
  19   2.0000      -0.699062       -19.0224
  20   2.0000      -0.624232       -16.9862
  21   2.0000      -0.599556       -16.3148
  22   2.0000      -0.575639       -15.6639
  23   2.0000      -0.534452       -14.5432
  24   2.0000      -0.520998       -14.1771
  25   2.0000      -0.494987       -13.4693
  26   2.0000      -0.487259       -13.2590
  27   2.0000      -0.463905       -12.6235
  28   2.0000      -0.455818       -12.4034
  29   2.0000      -0.428517       -11.6605
  30   2.0000      -0.423974       -11.5369
  31   2.0000      -0.407429       -11.0867
  32   2.0000      -0.396912       -10.8005
  33   2.0000      -0.384668       -10.4674
  34   2.0000      -0.370114       -10.0713
  35   2.0000      -0.359949        -9.7947
  36   2.0000      -0.344263        -9.3679
  37   2.0000      -0.317061        -8.6277
  38   2.0000      -0.315828        -8.5941
  39   2.0000      -0.305826        -8.3220
  40   2.0000      -0.285154        -7.7594
  41   2.0000      -0.275217        -7.4890
  42   2.0000      -0.274285        -7.4637
  43   2.0000      -0.259632        -7.0650
  44   2.0000      -0.238901        -6.5008
  45   2.0000      -0.228871        -6.2279
  46   2.0000      -0.219315        -5.9679
  47   2.0000      -0.198069        -5.3897
  48   0.0000      -0.010307        -0.2805
  49   0.0000       0.000474         0.0129
  50   0.0000       0.048755         1.3267
  51   0.0000       0.062150         1.6912
  52   0.0000       0.065339         1.7780

MULLIKEN ATOMIC CHARGES
-----------------------
   0 C :    0.014920
   1 C :   -0.001182
   2 H :    0.085279
   3 C :    0.098336
   4 H :    0.082989
   5 C :   -0.013501
   6 H :    0.071724
   7 C :   -0.009202
   8 H :    0.070712
   9 C :    0.221484
  10 H :    0.082419
  11 O :   -0.312632
  12 O :   -0.410771
  13 O :   -0.404180
  14 O :   -0.404118
  15 O :   -0.429112
  16 O :   -0.436011
  17 H :    0.080537
  18 H :    0.085421
  19 H :    0.306463
  20 H :    0.308601
  21 H :    0.313983
  22 H :    0.300459
  23 H :    0.297382
Sum of atomic charges:    0.0000000

LOEWDIN ATOMIC CHARGES
----------------------
   0 C :   -0.148597
   1 C :   -0.078026
   2 H :    0.123717
   3 C :   -0.062592
   4 H :    0.123414
   5 C :   -0.084607
   6 H :    0.102752
   7 C :   -0.099912
   8 H :    0.102183
   9 C :   -0.000709
  10 H :    0.116426
  11 O :   -0.137208
  12 O :   -0.307011
  13 O :   -0.300139
  14 O :   -0.303137
  15 O :   -0.316139
  16 O :   -0.336662
  17 H :    0.090113
  18 H :    0.117099
  19 H :    0.269770
  20 H :    0.290084
  21 H :    0.295482
  22 H :    0.272458
  23 H :    0.271244

  Mayer bond orders larger than 0.100000
B(  0-C ,  1-C ) :   1.0395 B(  0-C , 16-O ) :   1.0882 B(  0-C , 17-H ) :   0.8935
B(  0-C , 18-H ) :   0.9116 B(  1-C ,  2-H ) :   0.8917 B(  1-C ,  3-C ) :   1.0024
B(  1-C , 11-O ) :   1.0007 B(  3-C ,  4-H ) :   0.8924 B(  3-C ,  5-C ) :   0.9696
B(  3-C , 15-O ) :   1.0509 B(  5-C ,  6-H ) :   0.9029 B(  5-C ,  7-C ) :   0.9709
B(  5-C , 14-O ) :   1.0264 B(  7-C ,  8-H ) :   0.8975 B(  7-C ,  9-C ) :   0.9822
B(  7-C , 13-O ) :   1.0458 B(  9-C , 10-H ) :   0.9037 B(  9-C , 11-O ) :   1.0508
B(  9-C , 12-O ) :   1.1190 B( 12-O , 19-H ) :   0.7952 B( 13-O , 20-H ) :   0.8366
B( 14-O , 21-H ) :   0.8358 B( 15-O , 22-H ) :   0.8173 B( 16-O , 23-H ) :   0.8265

Dispersion correction           -0.026409050
FINAL SINGLE POINT ENERGY      -685.695720431810

DIPOLE MOMENT
-------------

Method             : SCF
Type of density    : Electron Density
Multiplicity       :   1
Irrep              :   0
Energy             :  -685.8303487177148554 Eh
Relativity type    :
Basis              : AO
                                X                 Y                 Z
Electronic contribution:      1.222816868      -1.354779085       1.761412697
Nuclear contribution   :      0.283834932       2.658970385      -2.376129864
                        -----------------------------------------
Total Dipole Moment    :      1.506651800       1.304191300      -0.614717167
                        -----------------------------------------
Magnitude (a.u.)       :      2.085375695
Magnitude (Debye)      :      5.300603771

Rotational constants in cm-1:             0.042254             0.028901             0.025589
Rotational constants in MHz :          1266.748406           866.434976           767.143298

                             ****ORCA TERMINATED NORMALLY****
TOTAL RUN TIME: 0 days 0 hours 0 minutes 8 seconds 926 msec
