                         Program Version 6.0.1  -  RELEASE   -
|  1> ! pbe def2-sv(p) def2/J RI DEFGRID1 loosescf d4 GCP(DFT/SV(P)) printgap
|  2> %output
|  3>     printlevel normal
|  4> end
|  5> * xyz 0 1
|  6> C -2.3137380506 -0.9758454653 -0.3518192689
|  7> C -0.9321764909 -0.5238478234 0.132087613
|  8> H -0.8531571722 -0.751816448 1.2070046628
|  9> C -0.7328212519 1.0010739934 -0.0597232969
| 10> H -1.3642953125 1.3721658547 -0.8767491168
| 11> C 0.7385022354 1.2600924504 -0.4566251175
| 12> H 0.9760003346 2.3151043842 -0.2776002172
| 13> C 1.6447370181 0.3541936143 0.4054009072
| 14> H 2.6980676489 0.5299658586 0.1525831326
| 15> C 1.3300632592 -1.1291972248 0.0684063159
| 16> H 1.3294111795 -1.704105162 1.0072504343
| 17> O 0.069003447 -1.2388244904 -0.5679220181
| 18> O 2.2826754108 -1.6985437405 -0.7449648478
| 19> O 1.4109748386 0.5684960536 1.7830429337
| 20> O 0.9583341565 1.0291315756 -1.823150068
| 21> O -1.1217129685 1.7204616648 1.0791812421
| 22> O -3.3324951743 -0.4468729472 0.4496880141
| 23> H -2.3879010857 -2.0630162009 -0.2811102057
| 24> H -2.4419928631 -0.6857469234 -1.4056231702
| 25> H 2.2680551888 -1.263178533 -1.6082076483
| 26> H 1.8917315813 1.3538034502 2.067082685
| 27> H 0.5507126987 0.1774225238 -2.0421606284
| 28> H -0.561661249 1.4323171243 1.8153576429
| 29> H -3.1767004442 0.4984192801 0.5757973882
| 30> *
| 31>
| 32>                          ****END OF INPUT****

CARTESIAN COORDINATES (ANGSTROEM)
---------------------------------
  C     -2.313738   -0.975845   -0.351819
  C     -0.932176   -0.523848    0.132088
  H     -0.853157   -0.751816    1.207005
  C     -0.732821    1.001074   -0.059723
  H     -1.364295    1.372166   -0.876749
  C      0.738502    1.260092   -0.456625
  H      0.976000    2.315104   -0.277600
  C      1.644737    0.354194    0.405401
  H      2.698068    0.529966    0.152583
  C      1.330063   -1.129197    0.068406
  H      1.329411   -1.704105    1.007250
  O      0.069003   -1.238824   -0.567922
  O      2.282675   -1.698544   -0.744965
  O      1.410975    0.568496    1.783043
  O      0.958334    1.029132   -1.823150
  O     -1.121713    1.720462    1.079181
  O     -3.332495   -0.446873    0.449688
  H     -2.387901   -2.063016   -0.281110
  H     -2.441993   -0.685747   -1.405623
  H      2.268055   -1.263179   -1.608208
  H      1.891732    1.353803    2.067083
  H      0.550713    0.177423   -2.042161
  H     -0.561661    1.432317    1.815358
  H     -3.176700    0.498419    0.575797

 Total Charge           Charge          ....    0
 Multiplicity           Mult            ....    1
 Number of Electrons    NEL             ....   96
 Basis Dimension        Dim             ....  192

ORBITAL ENERGIES
----------------

  NO   OCC          E(Eh)            E(eV)
   0   2.0000     -18.790116      -511.3050
   1   2.0000     -18.789596      -511.2909
   2   2.0000     -18.769971      -510.7569
   3   2.0000     -18.764666      -510.6125
   4   2.0000     -18.760696      -510.5045
   5   2.0000     -18.746530      -510.1190
   6   2.0000      -9.999638      -272.1040
   7   2.0000      -9.956543      -270.9313
   8   2.0000      -9.951945      -270.8062
   9   2.0000      -9.951215      -270.7863
  10   2.0000      -9.950639      -270.7706
  11   2.0000      -9.935533      -270.3596
  12   2.0000      -1.001834       -27.2613
  13   2.0000      -0.963334       -26.2137
  14   2.0000      -0.947406       -25.7802
  15   2.0000      -0.938291       -25.5322
  16   2.0000      -0.930313       -25.3151
  17   2.0000      -0.923096       -25.1187
  18   2.0000      -0.703596       -19.1458
  19   2.0000      -0.697894       -18.9907
  20   2.0000      -0.627690       -17.0803
  21   2.0000      -0.597971       -16.2716
  22   2.0000      -0.578873       -15.7519
  23   2.0000      -0.542998       -14.7757
  24   2.0000      -0.514533       -14.0011
  25   2.0000      -0.505237       -13.7482
  26   2.0000      -0.491927       -13.3860
  27   2.0000      -0.468184       -12.7399
  28   2.0000      -0.463772       -12.6199
  29   2.0000      -0.437412       -11.9026
  30   2.0000      -0.421962       -11.4822
  31   2.0000      -0.409927       -11.1547
  32   2.0000      -0.388643       -10.5755
  33   2.0000      -0.384814       -10.4713
  34   2.0000      -0.364924        -9.9301
  35   2.0000      -0.355694        -9.6789
  36   2.0000      -0.345025        -9.3886
  37   2.0000      -0.331052        -9.0084
  38   2.0000      -0.321495        -8.7483
  39   2.0000      -0.303739        -8.2652
  40   2.0000      -0.291913        -7.9433
  41   2.0000      -0.286521        -7.7966
  42   2.0000      -0.273953        -7.4546
  43   2.0000      -0.263475        -7.1695
  44   2.0000      -0.259911        -7.0725
  45   2.0000      -0.225468        -6.1353
  46   2.0000      -0.214708        -5.8425
  47   2.0000      -0.208304        -5.6682
  48   0.0000      -0.008142        -0.2215
  49   0.0000       0.012652         0.3443
  50   0.0000       0.031462         0.8561
  51   0.0000       0.050124         1.3639
  52   0.0000       0.052718         1.4345

MULLIKEN ATOMIC CHARGES
-----------------------
   0 C :    0.091312
   1 C :   -0.027992
   2 H :    0.073571
   3 C :    0.032809
   4 H :    0.077643
   5 C :    0.034870
   6 H :    0.071128
   7 C :   -0.008329
   8 H :    0.087253
   9 C :    0.182334
  10 H :    0.082128
  11 O :   -0.302952
  12 O :   -0.369703
  13 O :   -0.414441
  14 O :   -0.419922
  15 O :   -0.426707
  16 O :   -0.435471
  17 H :    0.093502
  18 H :    0.069273
  19 H :    0.293608
  20 H :    0.314673
  21 H :    0.301682
  22 H :    0.295777
  23 H :    0.303956
Sum of atomic charges:    0.0000000

LOEWDIN ATOMIC CHARGES
----------------------
   0 C :   -0.116612
   1 C :   -0.084052
   2 H :    0.111357
   3 C :   -0.087593
   4 H :    0.115882
   5 C :   -0.082542
   6 H :    0.113378
   7 C :   -0.098913
   8 H :    0.113845
   9 C :    0.005523
  10 H :    0.109795
  11 O :   -0.154510
  12 O :   -0.280801
  13 O :   -0.311158
  14 O :   -0.313710
  15 O :   -0.314504
  16 O :   -0.329767
  17 H :    0.116338
  18 H :    0.093326
  19 H :    0.279238
  20 H :    0.296110
  21 H :    0.268307
  22 H :    0.270480
  23 H :    0.280584

  Mayer bond orders larger than 0.100000
B(  0-C ,  1-C ) :   1.0524 B(  0-C , 16-O ) :   1.0814 B(  0-C , 17-H ) :   0.9191
B(  0-C , 18-H ) :   0.9075 B(  1-C ,  2-H ) :   0.8668 B(  1-C ,  3-C ) :   0.9674
B(  1-C , 11-O ) :   0.9931 B(  3-C ,  4-H ) :   0.8895 B(  3-C ,  5-C ) :   0.9888
B(  3-C , 15-O ) :   1.0211 B(  5-C ,  6-H ) :   0.8920 B(  5-C ,  7-C ) :   0.9736
B(  5-C , 14-O ) :   1.0438 B(  7-C ,  8-H ) :   0.9042 B(  7-C ,  9-C ) :   0.9413
B(  7-C , 13-O ) :   1.0320 B(  9-C , 10-H ) :   0.8960 B(  9-C , 11-O ) :   0.9999
B(  9-C , 12-O ) :   1.1576 B( 12-O , 19-H ) :   0.8341 B( 13-O , 20-H ) :   0.8396
B( 14-O , 21-H ) :   0.8152 B( 15-O , 22-H ) :   0.8187 B( 16-O , 23-H ) :   0.8351

Dispersion correction           -0.025295495
FINAL SINGLE POINT ENERGY      -685.690907095187

DIPOLE MOMENT
-------------

Method             : SCF
Type of density    : Electron Density
Multiplicity       :   1
Irrep              :   0
Energy             :  -685.8250114688042913 Eh
Relativity type    :
Basis              : AO
                                X                 Y                 Z
Electronic contribution:      1.860812400      -0.486809591      -0.107116337
Nuclear contribution   :     -1.001512381       1.135458489       0.315602470
                        -----------------------------------------
Total Dipole Moment    :      0.859300019       0.648648898       0.208486133
                        -----------------------------------------
Magnitude (a.u.)       :      1.096635027
Magnitude (Debye)      :      2.787424718

Rotational constants in cm-1:             0.043484             0.025562             0.021958
Rotational constants in MHz :          1303.612338           766.341070           658.279438

                             ****ORCA TERMINATED NORMALLY****
TOTAL RUN TIME: 0 days 0 hours 17 minutes 34 seconds 762 msec
