                         Program Version 6.0.1  -  RELEASE   -
|  1> ! pbe def2-sv(p) def2/J RI DEFGRID1 loosescf d4 GCP(DFT/SV(P)) printgap
|  2> %output
|  3>     printlevel normal
|  4> end
|  5> * xyz 0 1
|  6> C -1.1897664601 0.9025479327 1.0331490225
|  7> C -0.5109352412 0.2192914243 0.0344331838
|  8> C -1.2252567328 -0.5763889205 -0.8602235053
|  9> C -2.6118640131 -0.6763332389 -0.760110913
| 10> C -3.2894186073 0.0196552061 0.2408845334
| 11> C -2.5677804102 0.806975073 1.1382307342
| 12> Cl -3.3900085584 1.6617265321 2.3768864052
| 13> Cl -4.9933235 -0.0997334361 0.363960395
| 14> Cl -3.4853461255 -1.6543618429 -1.8619225219
| 15> Cl -0.3931249808 -1.4595183939 -2.0738405316
| 16> C 0.9596357265 0.330997749 -0.0822122593
| 17> C 1.5458672782 1.0297277235 -1.1373110526
| 18> C 2.9224015543 1.126400657 -1.2586399768
| 19> C 3.7364147063 0.5184665582 -0.3155914393
| 20> C 3.1796444957 -0.1830282177 0.7544125883
| 21> C 1.7922187177 -0.2685873374 0.8608353819
| 22> Cl 1.09225974 -1.1441977314 2.1605254052
| 23> Cl 4.1847367139 -0.9330851431 1.922370751
| 24> Cl 5.439192433 0.6331144622 -0.4657339479
| 25> Cl 0.5396558307 1.804498352 -2.2929702298
| 26> H -0.6415649581 1.5169367538 1.7290707001
| 27> H 3.3602472555 1.6697237964 -2.0799133179
| 28> *
| 29>
| 30>                          ****END OF INPUT****

CARTESIAN COORDINATES (ANGSTROEM)
---------------------------------
  C     -1.189766    0.902548    1.033149
  C     -0.510935    0.219291    0.034433
  C     -1.225257   -0.576389   -0.860224
  C     -2.611864   -0.676333   -0.760111
  C     -3.289419    0.019655    0.240885
  C     -2.567780    0.806975    1.138231
  Cl    -3.390009    1.661727    2.376886
  Cl    -4.993323   -0.099733    0.363960
  Cl    -3.485346   -1.654362   -1.861923
  Cl    -0.393125   -1.459518   -2.073841
  C      0.959636    0.330998   -0.082212
  C      1.545867    1.029728   -1.137311
  C      2.922402    1.126401   -1.258640
  C      3.736415    0.518467   -0.315591
  C      3.179644   -0.183028    0.754413
  C      1.792219   -0.268587    0.860835
  Cl     1.092260   -1.144198    2.160525
  Cl     4.184737   -0.933085    1.922371
  Cl     5.439192    0.633114   -0.465734
  Cl     0.539656    1.804498   -2.292970
  H     -0.641565    1.516937    1.729071
  H      3.360247    1.669724   -2.079913

 Total Charge           Charge          ....    0
 Multiplicity           Mult            ....    1
 Number of Electrons    NEL             ....  210
 Basis Dimension        Dim             ....  316

ORBITAL ENERGIES
----------------

  NO   OCC          E(Eh)            E(eV)
   0   2.0000    -100.665851     -2739.2571
   1   2.0000    -100.663910     -2739.2043
   2   2.0000    -100.662680     -2739.1708
   3   2.0000    -100.662336     -2739.1614
   4   2.0000    -100.661638     -2739.1424
   5   2.0000    -100.661182     -2739.1300
   6   2.0000    -100.660962     -2739.1240
   7   2.0000    -100.659150     -2739.0747
   8   2.0000      -9.985780      -271.7269
   9   2.0000      -9.984564      -271.6938
  10   2.0000      -9.981843      -271.6197
  11   2.0000      -9.981451      -271.6091
  12   2.0000      -9.981403      -271.6078
  13   2.0000      -9.981172      -271.6015
  14   2.0000      -9.979047      -271.5437
  15   2.0000      -9.977672      -271.5063
  16   2.0000      -9.949037      -270.7270
  17   2.0000      -9.947035      -270.6726
  18   2.0000      -9.932123      -270.2668
  19   2.0000      -9.930172      -270.2137
  20   2.0000      -9.201517      -250.3860
  21   2.0000      -9.199906      -250.3422
  22   2.0000      -9.198500      -250.3039
  23   2.0000      -9.198186      -250.2954
  24   2.0000      -9.197477      -250.2761
  25   2.0000      -9.197027      -250.2638
  26   2.0000      -9.196618      -250.2527
  27   2.0000      -9.195104      -250.2115
  28   2.0000      -7.033112      -191.3807
  29   2.0000      -7.031489      -191.3365
  30   2.0000      -7.030238      -191.3025
  31   2.0000      -7.029629      -191.2859
  32   2.0000      -7.029208      -191.2745
  33   2.0000      -7.028758      -191.2622
  34   2.0000      -7.028212      -191.2474
  35   2.0000      -7.026683      -191.2058
  36   2.0000      -7.021636      -191.0684
  37   2.0000      -7.020489      -191.0372
  38   2.0000      -7.019946      -191.0224
  39   2.0000      -7.018936      -190.9950
  40   2.0000      -7.018524      -190.9837
  41   2.0000      -7.018180      -190.9744
  42   2.0000      -7.017551      -190.9573
  43   2.0000      -7.017429      -190.9540
  44   2.0000      -7.017397      -190.9531
  45   2.0000      -7.017084      -190.9446
  46   2.0000      -7.016636      -190.9324
  47   2.0000      -7.016350      -190.9246
  48   2.0000      -7.015923      -190.9130
  49   2.0000      -7.015706      -190.9071
  50   2.0000      -7.015108      -190.8908
  51   2.0000      -7.014192      -190.8659
  52   2.0000      -0.878656       -23.9094
  53   2.0000      -0.870404       -23.6849
  54   2.0000      -0.838805       -22.8250
  55   2.0000      -0.829930       -22.5835
  56   2.0000      -0.828259       -22.5381
  57   2.0000      -0.811219       -22.0744
  58   2.0000      -0.794562       -21.6211
  59   2.0000      -0.786065       -21.3899
  60   2.0000      -0.768394       -20.9091
  61   2.0000      -0.757531       -20.6135
  62   2.0000      -0.711310       -19.3557
  63   2.0000      -0.675206       -18.3733
  64   2.0000      -0.668699       -18.1962
  65   2.0000      -0.654714       -17.8157
  66   2.0000      -0.590258       -16.0617
  67   2.0000      -0.570095       -15.5131
  68   2.0000      -0.567692       -15.4477
  69   2.0000      -0.545402       -14.8411
  70   2.0000      -0.496755       -13.5174
  71   2.0000      -0.495929       -13.4949
  72   2.0000      -0.485049       -13.1988
  73   2.0000      -0.473351       -12.8805
  74   2.0000      -0.444528       -12.0962
  75   2.0000      -0.434685       -11.8284
  76   2.0000      -0.423469       -11.5232
  77   2.0000      -0.422076       -11.4853
  78   2.0000      -0.420872       -11.4525
  79   2.0000      -0.413284       -11.2460
  80   2.0000      -0.411573       -11.1995
  81   2.0000      -0.396424       -10.7873
  82   2.0000      -0.380224       -10.3464
  83   2.0000      -0.376167       -10.2360
  84   2.0000      -0.368453       -10.0261
  85   2.0000      -0.359534        -9.7834
  86   2.0000      -0.350737        -9.5440
  87   2.0000      -0.346548        -9.4301
  88   2.0000      -0.333432        -9.0731
  89   2.0000      -0.311777        -8.4839
  90   2.0000      -0.306891        -8.3509
  91   2.0000      -0.304436        -8.2841
  92   2.0000      -0.302558        -8.2330
  93   2.0000      -0.298351        -8.1185
  94   2.0000      -0.296643        -8.0721
  95   2.0000      -0.288211        -7.8426
  96   2.0000      -0.286126        -7.7859
  97   2.0000      -0.282024        -7.6743
  98   2.0000      -0.280049        -7.6205
  99   2.0000      -0.268633        -7.3099
 100   2.0000      -0.263943        -7.1822
 101   2.0000      -0.243188        -6.6175
 102   2.0000      -0.232604        -6.3295
 103   2.0000      -0.228255        -6.2111
 104   2.0000      -0.224640        -6.1128
 105   0.0000      -0.084798        -2.3075
 106   0.0000      -0.074982        -2.0404
 107   0.0000      -0.068200        -1.8558
 108   0.0000      -0.063317        -1.7229
 109   0.0000      -0.053403        -1.4532

MULLIKEN ATOMIC CHARGES
-----------------------
   0 C :   -0.153230
   1 C :   -0.013060
   2 C :    0.062210
   3 C :    0.005416
   4 C :    0.028565
   5 C :    0.086811
   6 Cl:   -0.039368
   7 Cl:   -0.012728
   8 Cl:   -0.014023
   9 Cl:   -0.020185
  10 C :    0.026187
  11 C :    0.084813
  12 C :   -0.152118
  13 C :    0.073941
  14 C :    0.046403
  15 C :   -0.004331
  16 Cl:   -0.014652
  17 Cl:   -0.015977
  18 Cl:   -0.032952
  19 Cl:   -0.039360
  20 H :    0.049164
  21 H :    0.048474
Sum of atomic charges:    0.0000000

LOEWDIN ATOMIC CHARGES
----------------------
   0 C :   -0.120874
   1 C :   -0.062024
   2 C :   -0.152164
   3 C :   -0.176446
   4 C :   -0.178461
   5 C :   -0.159801
   6 Cl:    0.164829
   7 Cl:    0.177828
   8 Cl:    0.177631
   9 Cl:    0.178369
  10 C :   -0.076599
  11 C :   -0.126978
  12 C :   -0.153884
  13 C :   -0.151794
  14 C :   -0.186938
  15 C :   -0.141263
  16 Cl:    0.185787
  17 Cl:    0.174077
  18 Cl:    0.171627
  19 Cl:    0.173359
  20 H :    0.140609
  21 H :    0.143111

  Mayer bond orders larger than 0.100000
B(  0-C ,  1-C ) :   1.3107 B(  0-C ,  5-C ) :   1.3180 B(  0-C , 20-H ) :   0.9804
B(  1-C ,  2-C ) :   1.3976 B(  1-C , 10-C ) :   0.9568 B(  2-C ,  3-C ) :   1.3924
B(  2-C ,  9-Cl) :   1.1198 B(  3-C ,  4-C ) :   1.4150 B(  3-C ,  8-Cl) :   1.1214
B(  4-C ,  5-C ) :   1.3926 B(  4-C ,  7-Cl) :   1.1214 B(  5-C ,  6-Cl) :   1.0369
B( 10-C , 11-C ) :   1.4031 B( 10-C , 15-C ) :   1.4373 B( 11-C , 12-C ) :   1.2939
B( 11-C , 19-Cl) :   1.0401 B( 12-C , 13-C ) :   1.3178 B( 12-C , 21-H ) :   0.9836
B( 13-C , 14-C ) :   1.3929 B( 13-C , 18-Cl) :   1.0412 B( 14-C , 15-C ) :   1.3822
B( 14-C , 17-Cl) :   1.1201 B( 15-C , 16-Cl) :   1.1199

Dispersion correction           -0.054221724
FINAL SINGLE POINT ENERGY     -4136.515769359314

DIPOLE MOMENT
-------------

Method             : SCF
Type of density    : Electron Density
Multiplicity       :   1
Irrep              :   0
Energy             : -4136.5274502282809408 Eh
Relativity type    :
Basis              : AO
                                X                 Y                 Z
Electronic contribution:     -3.581857272      -4.303139982       0.443452179
Nuclear contribution   :      3.900814140       4.588973295      -0.502667834
                        -----------------------------------------
Total Dipole Moment    :      0.318956868       0.285833313      -0.059215655
                        -----------------------------------------
Magnitude (a.u.)       :      0.432366349
Magnitude (Debye)      :      1.098987921

Rotational constants in cm-1:             0.010437             0.003509             0.003156
Rotational constants in MHz :           312.882749           105.194866            94.625102

                             ****ORCA TERMINATED NORMALLY****
TOTAL RUN TIME: 0 days 0 hours 0 minutes 25 seconds 840 msec
