                         Program Version 6.0.1  -  RELEASE   -
|  1> ! pbe def2-sv(p) def2/J RI DEFGRID1 loosescf d4 GCP(DFT/SV(P)) printgap
|  2> %output
|  3>     printlevel normal
|  4> end
|  5> * xyz 0 1
|  6> C -3.0482504155 -0.0838341337 -0.3124964554
|  7> C -2.0019011005 0.2470439422 0.7499366214
|  8> H -2.5249705207 0.4079066279 1.7003812611
|  9> C -1.213233741 1.515394253 0.4161975327
| 10> C -0.30979479 1.3294793543 -0.7985838891
| 11> C 0.6648010804 0.1527291634 -0.6362461152
| 12> H 1.1516846465 -0.0370128636 -1.6000370463
| 13> C -0.1512870436 -1.0792044978 -0.2915100826
| 14> O -0.1229248693 -2.0843108692 -0.9578061678
| 15> C -1.0316378652 -0.9303737787 0.9259182197
| 16> C 1.7793380715 0.3926589869 0.4040180347
| 17> C 2.5867901673 -0.8897938394 0.6040906481
| 18> C 2.7145610268 1.5175814917 -0.0357181849
| 19> H -3.6680536648 -0.9142693042 0.0178580348
| 20> H -3.6934751428 0.7731796237 -0.4936190565
| 21> H -2.5780885356 -0.3719266393 -1.249069291
| 22> H -1.9098960663 2.3339687668 0.2219397062
| 23> H -0.6109427378 1.8003090975 1.28145099
| 24> H -0.9260160465 1.1442152241 -1.6805308853
| 25> H 0.2478611694 2.2479735999 -0.9857035639
| 26> H -1.5842109067 -1.8585422402 1.082508568
| 27> H -0.3985974341 -0.7511513082 1.7969498033
| 28> H 1.3289945387 0.6742754541 1.3606148677
| 29> H 3.0321036744 -1.2050954441 -0.3368792463
| 30> H 1.9584068203 -1.7003577517 0.9661565006
| 31> H 3.3853024036 -0.7267828356 1.324967869
| 32> H 3.1387199397 1.2995339861 -1.0134181714
| 33> H 3.5313923751 1.6184725461 0.6755851431
| 34> H 2.1975870875 2.4720338178 -0.0869485397
| 35> *
| 36>
| 37>                          ****END OF INPUT****

CARTESIAN COORDINATES (ANGSTROEM)
---------------------------------
  C     -3.048250   -0.083834   -0.312496
  C     -2.001901    0.247044    0.749937
  H     -2.524971    0.407907    1.700381
  C     -1.213234    1.515394    0.416198
  C     -0.309795    1.329479   -0.798584
  C      0.664801    0.152729   -0.636246
  H      1.151685   -0.037013   -1.600037
  C     -0.151287   -1.079204   -0.291510
  O     -0.122925   -2.084311   -0.957806
  C     -1.031638   -0.930374    0.925918
  C      1.779338    0.392659    0.404018
  C      2.586790   -0.889794    0.604091
  C      2.714561    1.517581   -0.035718
  H     -3.668054   -0.914269    0.017858
  H     -3.693475    0.773180   -0.493619
  H     -2.578089   -0.371927   -1.249069
  H     -1.909896    2.333969    0.221940
  H     -0.610943    1.800309    1.281451
  H     -0.926016    1.144215   -1.680531
  H      0.247861    2.247974   -0.985704
  H     -1.584211   -1.858542    1.082509
  H     -0.398597   -0.751151    1.796950
  H      1.328995    0.674275    1.360615
  H      3.032104   -1.205095   -0.336879
  H      1.958407   -1.700358    0.966157
  H      3.385302   -0.726783    1.324968
  H      3.138720    1.299534   -1.013418
  H      3.531392    1.618473    0.675585
  H      2.197587    2.472034   -0.086949

 Total Charge           Charge          ....    0
 Multiplicity           Mult            ....    1
 Number of Electrons    NEL             ....   86
 Basis Dimension        Dim             ....  190

ORBITAL ENERGIES
----------------

  NO   OCC          E(Eh)            E(eV)
   0   2.0000     -18.730883      -509.6932
   1   2.0000      -9.965613      -271.1781
   2   2.0000      -9.906864      -269.5795
   3   2.0000      -9.905821      -269.5511
   4   2.0000      -9.895567      -269.2721
   5   2.0000      -9.893024      -269.2029
   6   2.0000      -9.890744      -269.1408
   7   2.0000      -9.888049      -269.0675
   8   2.0000      -9.879126      -268.8247
   9   2.0000      -9.877533      -268.7813
  10   2.0000      -9.874812      -268.7073
  11   2.0000      -0.933580       -25.4040
  12   2.0000      -0.770112       -20.9558
  13   2.0000      -0.731086       -19.8939
  14   2.0000      -0.678451       -18.4616
  15   2.0000      -0.652011       -17.7421
  16   2.0000      -0.616156       -16.7665
  17   2.0000      -0.614304       -16.7161
  18   2.0000      -0.555370       -15.1124
  19   2.0000      -0.517058       -14.0699
  20   2.0000      -0.512622       -13.9491
  21   2.0000      -0.463610       -12.6155
  22   2.0000      -0.430612       -11.7175
  23   2.0000      -0.422768       -11.5041
  24   2.0000      -0.410755       -11.1772
  25   2.0000      -0.404812       -11.0155
  26   2.0000      -0.389632       -10.6024
  27   2.0000      -0.385910       -10.5011
  28   2.0000      -0.368012       -10.0141
  29   2.0000      -0.353016        -9.6061
  30   2.0000      -0.350051        -9.5254
  31   2.0000      -0.344721        -9.3803
  32   2.0000      -0.341685        -9.2977
  33   2.0000      -0.332848        -9.0572
  34   2.0000      -0.323203        -8.7948
  35   2.0000      -0.311984        -8.4895
  36   2.0000      -0.304372        -8.2824
  37   2.0000      -0.300273        -8.1708
  38   2.0000      -0.293583        -7.9888
  39   2.0000      -0.282330        -7.6826
  40   2.0000      -0.273861        -7.4521
  41   2.0000      -0.269215        -7.3257
  42   2.0000      -0.183968        -5.0060
  43   0.0000      -0.045576        -1.2402
  44   0.0000       0.022476         0.6116
  45   0.0000       0.043639         1.1875
  46   0.0000       0.049195         1.3387
  47   0.0000       0.065513         1.7827

MULLIKEN ATOMIC CHARGES
-----------------------
   0 C :   -0.260007
   1 C :   -0.190738
   2 H :    0.073868
   3 C :   -0.136397
   4 C :   -0.125429
   5 C :   -0.061832
   6 H :    0.054951
   7 C :   -0.029673
   8 O :   -0.148522
   9 C :   -0.060368
  10 C :   -0.233122
  11 C :   -0.226553
  12 C :   -0.234300
  13 H :    0.105242
  14 H :    0.101520
  15 H :    0.123511
  16 H :    0.086658
  17 H :    0.088379
  18 H :    0.092267
  19 H :    0.090224
  20 H :    0.081632
  21 H :    0.100690
  22 H :    0.082952
  23 H :    0.101311
  24 H :    0.118515
  25 H :    0.099907
  26 H :    0.096474
  27 H :    0.101975
  28 H :    0.106865
Sum of atomic charges:   -0.0000000

LOEWDIN ATOMIC CHARGES
----------------------
   0 C :   -0.332576
   1 C :   -0.143341
   2 H :    0.117772
   3 C :   -0.219470
   4 C :   -0.213410
   5 C :   -0.153935
   6 H :    0.123340
   7 C :    0.047102
   8 O :   -0.120492
   9 C :   -0.235690
  10 C :   -0.148226
  11 C :   -0.328492
  12 C :   -0.327404
  13 H :    0.123779
  14 H :    0.119494
  15 H :    0.121799
  16 H :    0.120029
  17 H :    0.115326
  18 H :    0.121702
  19 H :    0.119737
  20 H :    0.126302
  21 H :    0.132835
  22 H :    0.112468
  23 H :    0.123383
  24 H :    0.121311
  25 H :    0.118432
  26 H :    0.120154
  27 H :    0.121046
  28 H :    0.117025

  Mayer bond orders larger than 0.100000
B(  0-C ,  1-C ) :   1.0999 B(  0-C , 13-H ) :   0.9465 B(  0-C , 14-H ) :   0.9488
B(  0-C , 15-H ) :   0.9367 B(  1-C ,  2-H ) :   0.8962 B(  1-C ,  3-C ) :   1.0842
B(  1-C ,  9-C ) :   1.0641 B(  3-C ,  4-C ) :   1.1196 B(  3-C , 16-H ) :   0.9111
B(  3-C , 17-H ) :   0.9128 B(  4-C ,  5-C ) :   1.0685 B(  4-C , 18-H ) :   0.9090
B(  4-C , 19-H ) :   0.9028 B(  5-C ,  6-H ) :   0.8543 B(  5-C ,  7-C ) :   0.9604
B(  5-C , 10-C ) :   1.0169 B(  7-C ,  8-O ) :   2.1967 B(  7-C ,  9-C ) :   1.0185
B(  9-C , 20-H ) :   0.8890 B(  9-C , 21-H ) :   0.8836 B( 10-C , 11-C ) :   1.1200
B( 10-C , 12-C ) :   1.1170 B( 10-C , 22-H ) :   0.8852 B( 11-C , 23-H ) :   0.9456
B( 11-C , 24-H ) :   0.9308 B( 11-C , 25-H ) :   0.9480 B( 12-C , 26-H ) :   0.9459
B( 12-C , 27-H ) :   0.9471 B( 12-C , 28-H ) :   0.9415

Dispersion correction           -0.031371271
FINAL SINGLE POINT ENERGY      -466.033509201622

DIPOLE MOMENT
-------------

Method             : SCF
Type of density    : Electron Density
Multiplicity       :   1
Irrep              :   0
Energy             :  -466.1290789317423560 Eh
Relativity type    :
Basis              : AO
                                X                 Y                 Z
Electronic contribution:     -1.988762989      -5.788704463      -2.205849413
Nuclear contribution   :      1.947498332       6.730188646       2.783596285
                        -----------------------------------------
Total Dipole Moment    :     -0.041264658       0.941484182       0.577746872
                        -----------------------------------------
Magnitude (a.u.)       :      1.105389834
Magnitude (Debye)      :      2.809677670

Rotational constants in cm-1:             0.056941             0.028725             0.023160
Rotational constants in MHz :          1707.048718           861.154196           694.321205

                             ****ORCA TERMINATED NORMALLY****
TOTAL RUN TIME: 0 days 0 hours 0 minutes 18 seconds 271 msec
