                         Program Version 6.0.1  -  RELEASE   -
|  1> ! pbe def2-sv(p) def2/J RI DEFGRID1 loosescf d4 GCP(DFT/SV(P)) printgap
|  2> %output
|  3>     printlevel normal
|  4> end
|  5> * xyz 0 1
|  6> C -1.6751710624 -1.3460064197 -0.5702147245
|  7> C -1.1357000297 -0.5031845181 0.6025336897
|  8> H -1.8887630434 -0.5008659062 1.4020478635
|  9> C -0.8865414484 0.9749524337 0.1993553771
| 10> H -1.275412005 1.1480881684 -0.8096335274
| 11> C 0.6174899219 1.2767529477 0.2026105463
| 12> H 0.9636670752 1.3855702228 1.2477639527
| 13> C 1.3744270261 0.0962899733 -0.417726467
| 14> H 0.9727098278 -0.1039169254 -1.420927544
| 15> C 1.1717244103 -1.1496921949 0.4591580308
| 16> H 1.9794611481 -1.1919372565 1.2110228099
| 17> O -0.0039915342 -1.105890877 1.216327836
| 18> O 1.2312083983 -2.2705643557 -0.3774552674
| 19> O 2.7333679697 0.4553979406 -0.5009731002
| 20> O 0.8557260802 2.4553581983 -0.5099584436
| 21> O -1.6095936727 1.8490643943 1.0240579742
| 22> O -2.7656840427 -0.7399929259 -1.2059787633
| 23> H -1.9414711988 -2.3428329363 -0.1869328117
| 24> H -0.9101141771 -1.4674424995 -1.339014655
| 25> H 1.0197037063 -3.0584597098 0.1372905964
| 26> H 3.2151099191 -0.2638468874 -0.9233771386
| 27> H 1.8050966497 2.4977729763 -0.6846740501
| 28> H -1.1480942742 1.9498141255 1.8650965669
| 29> H -3.4319778506 -0.5082970431 -0.5486337568
| 30> *
| 31>
| 32>                          ****END OF INPUT****

CARTESIAN COORDINATES (ANGSTROEM)
---------------------------------
  C     -1.675171   -1.346006   -0.570215
  C     -1.135700   -0.503185    0.602534
  H     -1.888763   -0.500866    1.402048
  C     -0.886541    0.974952    0.199355
  H     -1.275412    1.148088   -0.809634
  C      0.617490    1.276753    0.202611
  H      0.963667    1.385570    1.247764
  C      1.374427    0.096290   -0.417726
  H      0.972710   -0.103917   -1.420928
  C      1.171724   -1.149692    0.459158
  H      1.979461   -1.191937    1.211023
  O     -0.003992   -1.105891    1.216328
  O      1.231208   -2.270564   -0.377455
  O      2.733368    0.455398   -0.500973
  O      0.855726    2.455358   -0.509958
  O     -1.609594    1.849064    1.024058
  O     -2.765684   -0.739993   -1.205979
  H     -1.941471   -2.342833   -0.186933
  H     -0.910114   -1.467442   -1.339015
  H      1.019704   -3.058460    0.137291
  H      3.215110   -0.263847   -0.923377
  H      1.805097    2.497773   -0.684674
  H     -1.148094    1.949814    1.865097
  H     -3.431978   -0.508297   -0.548634

 Total Charge           Charge          ....    0
 Multiplicity           Mult            ....    1
 Number of Electrons    NEL             ....   96
 Basis Dimension        Dim             ....  192

ORBITAL ENERGIES
----------------

  NO   OCC          E(Eh)            E(eV)
   0   2.0000     -18.778222      -510.9814
   1   2.0000     -18.770307      -510.7660
   2   2.0000     -18.770148      -510.7617
   3   2.0000     -18.752883      -510.2919
   4   2.0000     -18.744465      -510.0628
   5   2.0000     -18.744153      -510.0543
   6   2.0000      -9.991711      -271.8883
   7   2.0000      -9.948873      -270.7226
   8   2.0000      -9.945153      -270.6214
   9   2.0000      -9.943937      -270.5883
  10   2.0000      -9.937236      -270.4059
  11   2.0000      -9.931515      -270.2503
  12   2.0000      -0.989482       -26.9252
  13   2.0000      -0.951477       -25.8910
  14   2.0000      -0.936748       -25.4902
  15   2.0000      -0.929014       -25.2798
  16   2.0000      -0.919161       -25.0116
  17   2.0000      -0.914616       -24.8880
  18   2.0000      -0.704322       -19.1656
  19   2.0000      -0.694227       -18.8909
  20   2.0000      -0.622042       -16.9266
  21   2.0000      -0.587427       -15.9847
  22   2.0000      -0.574419       -15.6307
  23   2.0000      -0.528741       -14.3878
  24   2.0000      -0.511109       -13.9080
  25   2.0000      -0.491329       -13.3697
  26   2.0000      -0.475112       -12.9284
  27   2.0000      -0.454959       -12.3801
  28   2.0000      -0.451561       -12.2876
  29   2.0000      -0.428842       -11.6694
  30   2.0000      -0.417454       -11.3595
  31   2.0000      -0.403056       -10.9677
  32   2.0000      -0.386444       -10.5157
  33   2.0000      -0.380660       -10.3583
  34   2.0000      -0.363810        -9.8998
  35   2.0000      -0.345233        -9.3943
  36   2.0000      -0.339795        -9.2463
  37   2.0000      -0.317269        -8.6333
  38   2.0000      -0.305783        -8.3208
  39   2.0000      -0.301063        -8.1923
  40   2.0000      -0.284804        -7.7499
  41   2.0000      -0.264476        -7.1968
  42   2.0000      -0.254899        -6.9362
  43   2.0000      -0.247477        -6.7342
  44   2.0000      -0.236338        -6.4311
  45   2.0000      -0.230382        -6.2690
  46   2.0000      -0.218219        -5.9380
  47   2.0000      -0.199616        -5.4318
  48   0.0000       0.016447         0.4475
  49   0.0000       0.025965         0.7065
  50   0.0000       0.028125         0.7653
  51   0.0000       0.032904         0.8954
  52   0.0000       0.055398         1.5075

MULLIKEN ATOMIC CHARGES
-----------------------
   0 C :    0.018183
   1 C :   -0.017195
   2 H :    0.061756
   3 C :    0.085995
   4 H :    0.088352
   5 C :    0.064087
   6 H :    0.040469
   7 C :   -0.025666
   8 H :    0.081417
   9 C :    0.201893
  10 H :    0.061422
  11 O :   -0.306226
  12 O :   -0.398845
  13 O :   -0.420653
  14 O :   -0.403092
  15 O :   -0.413692
  16 O :   -0.418397
  17 H :    0.071810
  18 H :    0.109147
  19 H :    0.301110
  20 H :    0.313404
  21 H :    0.304726
  22 H :    0.296898
  23 H :    0.303097
Sum of atomic charges:    0.0000000

LOEWDIN ATOMIC CHARGES
----------------------
   0 C :   -0.145713
   1 C :   -0.081360
   2 H :    0.111633
   3 C :   -0.070915
   4 H :    0.126735
   5 C :   -0.068900
   6 H :    0.096841
   7 C :   -0.090618
   8 H :    0.113214
   9 C :   -0.012411
  10 H :    0.098249
  11 O :   -0.141528
  12 O :   -0.316533
  13 O :   -0.317396
  14 O :   -0.311606
  15 O :   -0.310771
  16 O :   -0.322332
  17 H :    0.095428
  18 H :    0.115165
  19 H :    0.284811
  20 H :    0.295094
  21 H :    0.283693
  22 H :    0.282351
  23 H :    0.286869

  Mayer bond orders larger than 0.100000
B(  0-C ,  1-C ) :   1.0255 B(  0-C , 16-O ) :   1.0577 B(  0-C , 17-H ) :   0.9110
B(  0-C , 18-H ) :   0.9065 B(  1-C ,  2-H ) :   0.8908 B(  1-C ,  3-C ) :   0.9514
B(  1-C , 11-O ) :   1.0107 B(  3-C ,  4-H ) :   0.8682 B(  3-C ,  5-C ) :   1.0338
B(  3-C , 15-O ) :   1.0447 B(  5-C ,  6-H ) :   0.8553 B(  5-C ,  7-C ) :   1.0195
B(  5-C , 14-O ) :   1.1163 B(  7-C ,  8-H ) :   0.8828 B(  7-C ,  9-C ) :   0.9794
B(  7-C , 13-O ) :   1.0598 B(  9-C , 10-H ) :   0.8854 B(  9-C , 11-O ) :   1.0649
B(  9-C , 12-O ) :   1.1082 B( 12-O , 19-H ) :   0.8393 B( 13-O , 20-H ) :   0.8435
B( 14-O , 21-H ) :   0.8324 B( 15-O , 22-H ) :   0.8514 B( 16-O , 23-H ) :   0.8472

Dispersion correction           -0.024649952
FINAL SINGLE POINT ENERGY      -685.688967118785

DIPOLE MOMENT
-------------

Method             : SCF
Type of density    : Electron Density
Multiplicity       :   1
Irrep              :   0
Energy             :  -685.8195090715257720 Eh
Relativity type    :
Basis              : AO
                                X                 Y                 Z
Electronic contribution:      1.272657189       1.223654114       0.748921265
Nuclear contribution   :     -0.593974208      -2.294946379      -0.052125980
                        -----------------------------------------
Total Dipole Moment    :      0.678682981      -1.071292266       0.696795285
                        -----------------------------------------
Magnitude (a.u.)       :      1.446997365
Magnitude (Debye)      :      3.677975009

Rotational constants in cm-1:             0.035911             0.029616             0.020143
Rotational constants in MHz :          1076.573434           887.853035           603.884114

                             ****ORCA TERMINATED NORMALLY****
TOTAL RUN TIME: 0 days 0 hours 0 minutes 8 seconds 244 msec
