                         Program Version 6.0.1  -  RELEASE   -
|  1> ! pbe def2-sv(p) def2/J RI DEFGRID1 loosescf d4 GCP(DFT/SV(P)) printgap
|  2> %output
|  3>     printlevel normal
|  4> end
|  5> * xyz 0 1
|  6> C -1.8566337489 -2.17333379 -5.39886e-05
|  7> C -1.3900093788 -0.7482912993 -2.19028e-05
|  8> C -2.3019487474 0.2756925743 0.000203941
|  9> C -1.8993601632 1.6187660963 0.0001160241
| 10> C -0.5723676483 1.9374639376 -0.0001354835
| 11> C 0.405085776 0.9206343578 -0.0001654356
| 12> C -0.0020578014 -0.4408710421 -0.0001558603
| 13> C 0.9995550878 -1.4358810613 -0.0001132327
| 14> C 2.3259668081 -1.1043963387 0.00013186
| 15> C 2.7236885621 0.2401865128 0.0001850124
| 16> C 1.78152648 1.2290476964 -6.15705e-05
| 17> H -1.4915396267 -2.6986789549 0.8818720473
| 18> H -2.9431411223 -2.2160447636 0.0008854947
| 19> H -1.4928913609 -2.6981695454 -0.8828171989
| 20> H -3.3590912297 0.0490567921 0.0004326708
| 21> H -2.6506666964 2.3951493783 0.0003385221
| 22> H -0.2500154238 2.9689578926 -0.000233935
| 23> H 0.7130234461 -2.4761708478 -0.000130804
| 24> H 3.0786003489 -1.8797661733 0.0003214777
| 25> H 3.7759828351 0.4847737361 0.0003344829
| 26> H 2.0761426317 2.2692048978 -0.0001609919
| 27> *
| 28>
| 29>                          ****END OF INPUT****

CARTESIAN COORDINATES (ANGSTROEM)
---------------------------------
  C     -1.856634   -2.173334   -0.000054
  C     -1.390009   -0.748291   -0.000022
  C     -2.301949    0.275693    0.000204
  C     -1.899360    1.618766    0.000116
  C     -0.572368    1.937464   -0.000135
  C      0.405086    0.920634   -0.000165
  C     -0.002058   -0.440871   -0.000156
  C      0.999555   -1.435881   -0.000113
  C      2.325967   -1.104396    0.000132
  C      2.723689    0.240187    0.000185
  C      1.781526    1.229048   -0.000062
  H     -1.491540   -2.698679    0.881872
  H     -2.943141   -2.216045    0.000885
  H     -1.492891   -2.698170   -0.882817
  H     -3.359091    0.049057    0.000433
  H     -2.650667    2.395149    0.000339
  H     -0.250015    2.968958   -0.000234
  H      0.713023   -2.476171   -0.000131
  H      3.078600   -1.879766    0.000321
  H      3.775983    0.484774    0.000334
  H      2.076143    2.269205   -0.000161

 Total Charge           Charge          ....    0
 Multiplicity           Mult            ....    1
 Number of Electrons    NEL             ....   76
 Basis Dimension        Dim             ....  174

ORBITAL ENERGIES
----------------

  NO   OCC          E(Eh)            E(eV)
   0   2.0000      -9.903874      -269.4981
   1   2.0000      -9.901550      -269.4349
   2   2.0000      -9.901434      -269.4317
   3   2.0000      -9.892103      -269.1778
   4   2.0000      -9.891963      -269.1740
   5   2.0000      -9.891248      -269.1545
   6   2.0000      -9.890710      -269.1399
   7   2.0000      -9.889939      -269.1189
   8   2.0000      -9.889225      -269.0995
   9   2.0000      -9.888494      -269.0796
  10   2.0000      -9.884908      -268.9820
  11   2.0000      -0.794872       -21.6296
  12   2.0000      -0.744811       -20.2673
  13   2.0000      -0.709146       -19.2968
  14   2.0000      -0.664829       -18.0909
  15   2.0000      -0.658759       -17.9257
  16   2.0000      -0.612506       -16.6671
  17   2.0000      -0.557652       -15.1745
  18   2.0000      -0.548842       -14.9347
  19   2.0000      -0.517792       -14.0898
  20   2.0000      -0.461455       -12.5568
  21   2.0000      -0.449512       -12.2318
  22   2.0000      -0.444058       -12.0834
  23   2.0000      -0.402737       -10.9590
  24   2.0000      -0.386681       -10.5221
  25   2.0000      -0.383531       -10.4364
  26   2.0000      -0.373037       -10.1509
  27   2.0000      -0.364605        -9.9214
  28   2.0000      -0.352428        -9.5901
  29   2.0000      -0.343894        -9.3578
  30   2.0000      -0.338323        -9.2062
  31   2.0000      -0.323338        -8.7985
  32   2.0000      -0.294041        -8.0012
  33   2.0000      -0.292218        -7.9517
  34   2.0000      -0.284989        -7.7549
  35   2.0000      -0.251173        -6.8348
  36   2.0000      -0.223852        -6.0913
  37   2.0000      -0.193637        -5.2691
  38   0.0000      -0.067309        -1.8316
  39   0.0000      -0.038125        -1.0374
  40   0.0000      -0.001024        -0.0279
  41   0.0000       0.042381         1.1532
  42   0.0000       0.055365         1.5065

MULLIKEN ATOMIC CHARGES
-----------------------
   0 C :   -0.212212
   1 C :   -0.017183
   2 C :   -0.150785
   3 C :   -0.030211
   4 C :   -0.124044
   5 C :    0.134213
   6 C :    0.126228
   7 C :   -0.163178
   8 C :   -0.032337
   9 C :   -0.039051
  10 C :   -0.126701
  11 H :    0.117228
  12 H :    0.102673
  13 H :    0.117233
  14 H :    0.035404
  15 H :    0.048776
  16 H :    0.036237
  17 H :    0.037745
  18 H :    0.049838
  19 H :    0.051488
  20 H :    0.038638
Sum of atomic charges:   -0.0000000

LOEWDIN ATOMIC CHARGES
----------------------
   0 C :   -0.323614
   1 C :   -0.036275
   2 C :   -0.128118
   3 C :   -0.124034
   4 C :   -0.116685
   5 C :   -0.023421
   6 C :   -0.024325
   7 C :   -0.117160
   8 C :   -0.122655
   9 C :   -0.125838
  10 C :   -0.109465
  11 H :    0.132000
  12 H :    0.125603
  13 H :    0.132020
  14 H :    0.120942
  15 H :    0.123767
  16 H :    0.122678
  17 H :    0.123785
  18 H :    0.123566
  19 H :    0.123901
  20 H :    0.123327

  Mayer bond orders larger than 0.100000
B(  0-C ,  1-C ) :   1.1450 B(  0-C , 11-H ) :   0.9187 B(  0-C , 12-H ) :   0.9378
B(  0-C , 13-H ) :   0.9187 B(  1-C ,  2-C ) :   1.4947 B(  1-C ,  6-C ) :   1.2532
B(  2-C ,  3-C ) :   1.2400 B(  2-C , 14-H ) :   0.9548 B(  3-C ,  4-C ) :   1.4500
B(  3-C , 15-H ) :   0.9617 B(  4-C ,  5-C ) :   1.2368 B(  4-C , 16-H ) :   0.9669
B(  5-C ,  6-C ) :   1.2485 B(  5-C , 10-C ) :   1.2432 B(  6-C ,  7-C ) :   1.2665
B(  7-C ,  8-C ) :   1.4594 B(  7-C , 17-H ) :   0.9469 B(  8-C ,  9-C ) :   1.2625
B(  8-C , 18-H ) :   0.9598 B(  9-C , 10-C ) :   1.4548 B(  9-C , 19-H ) :   0.9627
B( 10-C , 20-H ) :   0.9643

Dispersion correction           -0.025822230
FINAL SINGLE POINT ENERGY      -424.269377190526

DIPOLE MOMENT
-------------

Method             : SCF
Type of density    : Electron Density
Multiplicity       :   1
Irrep              :   0
Energy             :  -424.3204407569259047 Eh
Relativity type    :
Basis              : AO
                                X                 Y                 Z
Electronic contribution:      2.338858580       3.435435777      -0.000696763
Nuclear contribution   :     -2.386325184      -3.566628556       0.000789719
                        -----------------------------------------
Total Dipole Moment    :     -0.047466604      -0.131192779       0.000092956
                        -----------------------------------------
Magnitude (a.u.)       :      0.139515706
Magnitude (Debye)      :      0.354620743

Rotational constants in cm-1:             0.064162             0.037986             0.023966
Rotational constants in MHz :          1923.537162          1138.781712           718.496242

                             ****ORCA TERMINATED NORMALLY****
TOTAL RUN TIME: 0 days 0 hours 0 minutes 16 seconds 255 msec
