                         Program Version 6.0.0  -   RELEASE  -
|  1> ! r2SCAN-3c DEF2-TZVP FREQ
|  2> * xyzfile 0 1 censo.xyz
|  3>
|  4>                          ****END OF INPUT****

CARTESIAN COORDINATES (ANGSTROEM)
---------------------------------
  C      4.468538   -0.276245   -0.002143
  C      4.259004    1.099701   -0.000894
  C      2.961977    1.609167    0.000549
  C      1.884255    0.738189    0.000832
  C      2.093467   -0.638634   -0.000069
  C      3.382196   -1.148773   -0.001728
  O      1.039709   -1.542807    0.000822
  C     -0.230609   -0.991850    0.000977
  C     -1.312937   -1.856299    0.000861
  C     -2.612581   -1.356072    0.000698
  C     -2.795824    0.019364    0.000557
  C     -1.724795    0.905573    0.000860
  C     -0.439049    0.386765    0.001271
  O      0.608159    1.289193    0.002067
  Cl    -4.429276    0.670636   -0.000025
  H      5.475745   -0.678292   -0.003445
  H      5.100760    1.783498   -0.001042
  H      2.772366    2.677525    0.001494
  H      3.519049   -2.225175   -0.002629
  H     -1.133112   -2.926054    0.000923
  H     -3.458409   -2.032653    0.000661
  H     -1.865798    1.980191    0.000811

 Total Charge           Charge          ....    0
 Multiplicity           Mult            ....    1
 Number of Electrons    NEL             ....  112
 Basis Dimension        Dim             ....  513

ORBITAL ENERGIES
----------------

  NO   OCC          E(Eh)            E(eV)
   0   2.0000    -101.193249     -2753.6083
   1   2.0000     -19.022794      -517.6365
   2   2.0000     -19.021187      -517.5928
   3   2.0000     -10.121593      -275.4225
   4   2.0000     -10.117083      -275.2998
   5   2.0000     -10.115295      -275.2512
   6   2.0000     -10.114867      -275.2395
   7   2.0000     -10.107767      -275.0463
   8   2.0000     -10.058745      -273.7124
   9   2.0000     -10.057987      -273.6918
  10   2.0000     -10.055647      -273.6281
  11   2.0000     -10.051402      -273.5126
  12   2.0000     -10.051231      -273.5079
  13   2.0000     -10.048292      -273.4279
  14   2.0000     -10.047831      -273.4154
  15   2.0000      -9.369079      -254.9456
  16   2.0000      -7.114020      -193.5823
  17   2.0000      -7.103985      -193.3093
  18   2.0000      -7.103637      -193.2998
  19   2.0000      -1.083096       -29.4726
  20   2.0000      -1.050197       -28.5773
  21   2.0000      -0.867218       -23.5982
  22   2.0000      -0.840001       -22.8576
  23   2.0000      -0.805525       -21.9195
  24   2.0000      -0.756156       -20.5760
  25   2.0000      -0.737400       -20.0657
  26   2.0000      -0.721069       -19.6213
  27   2.0000      -0.695471       -18.9247
  28   2.0000      -0.635649       -17.2969
  29   2.0000      -0.618932       -16.8420
  30   2.0000      -0.588778       -16.0215
  31   2.0000      -0.566320       -15.4104
  32   2.0000      -0.547740       -14.9048
  33   2.0000      -0.498425       -13.5628
  34   2.0000      -0.486266       -13.2320
  35   2.0000      -0.460034       -12.5182
  36   2.0000      -0.454274       -12.3614
  37   2.0000      -0.454173       -12.3587
  38   2.0000      -0.430257       -11.7079
  39   2.0000      -0.424402       -11.5486
  40   2.0000      -0.418658       -11.3923
  41   2.0000      -0.393123       -10.6974
  42   2.0000      -0.390120       -10.6157
  43   2.0000      -0.380904       -10.3649
  44   2.0000      -0.378791       -10.3074
  45   2.0000      -0.375511       -10.2182
  46   2.0000      -0.350367        -9.5340
  47   2.0000      -0.348209        -9.4753
  48   2.0000      -0.343291        -9.3414
  49   2.0000      -0.314746        -8.5647
  50   2.0000      -0.300086        -8.1657
  51   2.0000      -0.289168        -7.8687
  52   2.0000      -0.260696        -7.0939
  53   2.0000      -0.248021        -6.7490
  54   2.0000      -0.232119        -6.3163
  55   2.0000      -0.191661        -5.2154
  56   0.0000      -0.055170        -1.5012
  57   0.0000      -0.052343        -1.4243
  58   0.0000      -0.045552        -1.2395
  59   0.0000      -0.013587        -0.3697
  60   0.0000      -0.007721        -0.2101

MULLIKEN ATOMIC CHARGES
-----------------------
   0 C :   -0.088317
   1 C :   -0.089298
   2 C :   -0.244983
   3 C :    0.232169
   4 C :    0.238901
   5 C :   -0.246954
   6 O :   -0.247148
   7 C :    0.219717
   8 C :   -0.232462
   9 C :   -0.159866
  10 C :    0.237552
  11 C :   -0.362922
  12 C :    0.279372
  13 O :   -0.244939
  14 Cl:   -0.119848
  15 H :    0.114684
  16 H :    0.114758
  17 H :    0.115587
  18 H :    0.114798
  19 H :    0.118072
  20 H :    0.126461
  21 H :    0.124664
Sum of atomic charges:   -0.0000000

LOEWDIN ATOMIC CHARGES
----------------------
   0 C :   -0.143718
   1 C :   -0.144016
   2 C :   -0.108916
   3 C :   -0.196369
   4 C :   -0.197663
   5 C :   -0.109204
   6 O :    0.321620
   7 C :   -0.201374
   8 C :   -0.102744
   9 C :   -0.148829
  10 C :   -0.417175
  11 C :   -0.112154
  12 C :   -0.196964
  13 O :    0.324184
  14 Cl:    0.372091
  15 H :    0.145592
  16 H :    0.145595
  17 H :    0.153076
  18 H :    0.152874
  19 H :    0.155587
  20 H :    0.150665
  21 H :    0.157841

  Mayer bond orders larger than 0.100000
B(  0-C ,  1-C ) :   1.3946 B(  0-C ,  5-C ) :   1.3680 B(  0-C , 15-H ) :   0.9726
B(  1-C ,  2-C ) :   1.3687 B(  1-C , 16-H ) :   0.9728 B(  2-C ,  3-C ) :   1.3582
B(  2-C , 17-H ) :   0.9826 B(  3-C ,  4-C ) :   1.3697 B(  3-C , 13-O ) :   0.9777
B(  4-C ,  5-C ) :   1.3562 B(  4-C ,  6-O ) :   0.9788 B(  5-C , 18-H ) :   0.9833
B(  6-O ,  7-C ) :   0.9887 B(  7-C ,  8-C ) :   1.3541 B(  7-C , 12-C ) :   1.3579
B(  8-C ,  9-C ) :   1.3405 B(  8-C , 19-H ) :   0.9843 B(  9-C , 10-C ) :   1.3604
B(  9-C , 20-H ) :   0.9753 B( 10-C , 11-C ) :   1.3266 B( 10-C , 14-Cl) :   0.9383
B( 11-C , 12-C ) :   1.3249 B( 11-C , 21-H ) :   0.9921 B( 12-C , 13-O ) :   0.9909

Dispersion correction           -0.009926332
FINAL SINGLE POINT ENERGY     -1072.031216402982

DIPOLE MOMENT
-------------

Method             : SCF
Type of density    : Electron Density
Multiplicity       :   1
Irrep              :   0
Energy             : -1072.0288815390081254 Eh
Relativity type    :
Basis              : AO
                                X                 Y                 Z
Electronic contribution:    -14.982431167       2.004839705       0.004035312
Nuclear contribution   :     15.757027755      -2.240845542      -0.004473485
                        -----------------------------------------
Total Dipole Moment    :      0.774596588      -0.236005837      -0.000438173
                        -----------------------------------------
Magnitude (a.u.)       :      0.809752320
Magnitude (Debye)      :      2.058226829

VIBRATIONAL FREQUENCIES
-----------------------

Scaling factor for frequencies =  1.000000000  (already applied!)

     0:       0.00 cm**-1
     1:       0.00 cm**-1
     2:       0.00 cm**-1
     3:       0.00 cm**-1
     4:       0.00 cm**-1
     5:       0.00 cm**-1
     6:      43.91 cm**-1
     7:     107.71 cm**-1
     8:     168.53 cm**-1
     9:     171.60 cm**-1
    10:     246.45 cm**-1
    11:     288.15 cm**-1
    12:     290.34 cm**-1
    13:     341.69 cm**-1
    14:     351.73 cm**-1
    15:     455.62 cm**-1
    16:     455.76 cm**-1
    17:     461.09 cm**-1
    18:     480.37 cm**-1
    19:     557.90 cm**-1
    20:     564.71 cm**-1
    21:     585.22 cm**-1
    22:     590.68 cm**-1
    23:     649.52 cm**-1
    24:     675.82 cm**-1
    25:     706.86 cm**-1
    26:     726.31 cm**-1
    27:     741.88 cm**-1
    28:     753.91 cm**-1
    29:     808.92 cm**-1
    30:     844.98 cm**-1
    31:     851.21 cm**-1
    32:     861.21 cm**-1
    33:     870.30 cm**-1
    34:     918.39 cm**-1
    35:     920.33 cm**-1
    36:     925.68 cm**-1
    37:     937.17 cm**-1
    38:    1050.06 cm**-1
    39:    1080.68 cm**-1
    40:    1114.06 cm**-1
    41:    1141.08 cm**-1
    42:    1175.69 cm**-1
    43:    1182.68 cm**-1
    44:    1199.37 cm**-1
    45:    1229.25 cm**-1
    46:    1266.25 cm**-1
    47:    1289.54 cm**-1
    48:    1300.32 cm**-1
    49:    1345.35 cm**-1
    50:    1368.14 cm**-1
    51:    1434.69 cm**-1
    52:    1488.83 cm**-1
    53:    1504.35 cm**-1
    54:    1520.63 cm**-1
    55:    1608.61 cm**-1
    56:    1617.96 cm**-1
    57:    1651.93 cm**-1
    58:    1657.60 cm**-1
    59:    3170.18 cm**-1
    60:    3178.06 cm**-1
    61:    3184.08 cm**-1
    62:    3185.36 cm**-1
    63:    3193.62 cm**-1
    64:    3199.28 cm**-1
    65:    3203.64 cm**-1

IR SPECTRUM
-----------

 Mode   freq       eps      Int      T**2         TX        TY        TZ
       cm**-1   L/(mol*cm) km/mol    a.u.
----------------------------------------------------------------------------
  6:     43.91   0.000081    0.41  0.000576  (-0.000158  0.000207  0.024006)
  7:    107.71   0.000100    0.51  0.000290  ( 0.000100 -0.000051  0.017042)
  8:    168.53   0.000037    0.19  0.000068  (-0.005974  0.005711  0.000053)
  9:    171.60   0.000020    0.10  0.000036  (-0.000083 -0.000035  0.005985)
 10:    246.45   0.000002    0.01  0.000003  ( 0.000044  0.000014  0.001756)
 11:    288.15   0.000196    0.99  0.000213  (-0.009514 -0.011053  0.000083)
 12:    290.34   0.000053    0.27  0.000057  ( 0.000073  0.000052 -0.007541)
 13:    341.69   0.000697    3.52  0.000636  (-0.018437  0.017219  0.000012)
 14:    351.73   0.000021    0.11  0.000019  ( 0.000008 -0.000172 -0.004353)
 15:    455.62   0.000531    2.68  0.000363  ( 0.017703 -0.007072  0.000037)
 16:    455.76   0.000110    0.55  0.000075  (-0.000047 -0.000065  0.008665)
 17:    461.09   0.001386    7.00  0.000938  ( 0.000049 -0.000106 -0.030628)
 18:    480.37   0.000389    1.96  0.000253  (-0.015351  0.004113 -0.000089)
 19:    557.90   0.000005    0.03  0.000003  ( 0.000008 -0.000048  0.001734)
 20:    564.71   0.000421    2.13  0.000232  (-0.013755  0.006574 -0.000059)
 21:    585.22   0.000951    4.80  0.000507  ( 0.021750 -0.005820 -0.000152)
 22:    590.68   0.001007    5.09  0.000532  ( 0.000116 -0.000025  0.023067)
 23:    649.52   0.000370    1.87  0.000178  ( 0.011167 -0.007269  0.000023)
 24:    675.82   0.000010    0.05  0.000005  (-0.000029 -0.000068 -0.002143)
 25:    706.86   0.000003    0.01  0.000001  (-0.000196  0.000103  0.001058)
 26:    726.31   0.002287   11.56  0.000983  ( 0.026396 -0.016913 -0.000019)
 27:    741.88   0.000095    0.48  0.000040  (-0.002522 -0.005797 -0.000133)
 28:    753.91   0.014858   75.09  0.006150  (-0.000088  0.000203  0.078422)
 29:    808.92   0.005322   26.89  0.002053  (-0.000006 -0.000014  0.045310)
 30:    844.98   0.000132    0.66  0.000049  ( 0.000076 -0.000013 -0.006969)
 31:    851.21   0.012142   61.36  0.004451  ( 0.066523 -0.005112  0.000055)
 32:    861.21   0.004741   23.96  0.001718  (-0.000163 -0.000052  0.041448)
 33:    870.30   0.006767   34.20  0.002426  ( 0.040103  0.028602  0.000058)
 34:    918.39   0.000128    0.65  0.000044  (-0.000031 -0.000043  0.006605)
 35:    920.33   0.000988    5.00  0.000335  (-0.000092 -0.000098 -0.018307)
 36:    925.68   0.012185   61.58  0.004108  ( 0.063864 -0.005396 -0.000001)
 37:    937.17   0.000000    0.00  0.000000  ( 0.000069 -0.000050  0.000254)
 38:   1050.06   0.001797    9.08  0.000534  (-0.022869 -0.003322  0.000021)
 39:   1080.68   0.006708   33.90  0.001937  ( 0.042632 -0.010934  0.000006)
 40:   1114.06   0.000461    2.33  0.000129  (-0.009998 -0.005388 -0.000011)
 41:   1141.08   0.005671   28.66  0.001551  ( 0.014711 -0.036533 -0.000015)
 42:   1175.69   0.000603    3.05  0.000160  (-0.012530 -0.001744  0.000009)
 43:   1182.68   0.000368    1.86  0.000097  ( 0.009683 -0.001799 -0.000018)
 44:   1199.37   0.005879   29.71  0.001530  (-0.032109  0.022331  0.000009)
 45:   1229.25   0.002087   10.55  0.000530  ( 0.023002 -0.000821 -0.000039)
 46:   1266.25   0.005995   30.30  0.001477  ( 0.037990  0.005846 -0.000017)
 47:   1289.54   0.114996  581.14  0.027828  (-0.165013 -0.024477  0.000056)
 48:   1300.32   0.018813   95.07  0.004515  (-0.064818 -0.017709  0.000006)
 49:   1345.35   0.007560   38.20  0.001753  ( 0.041844  0.001611 -0.000007)
 50:   1368.14   0.000385    1.94  0.000088  ( 0.009098 -0.002231  0.000005)
 51:   1434.69   0.002012   10.17  0.000438  ( 0.017313  0.011741  0.000003)
 52:   1488.83   0.001751    8.85  0.000367  ( 0.012737  0.014310 -0.000004)
 53:   1504.35   0.131159  662.82  0.027208  (-0.164677 -0.009454  0.000025)
 54:   1520.63   0.004220   21.33  0.000866  ( 0.026856  0.012036 -0.000049)
 55:   1608.61   0.000867    4.38  0.000168  (-0.012601  0.003052 -0.000026)
 56:   1617.96   0.009589   48.46  0.001849  (-0.039704 -0.016523  0.000013)
 57:   1651.93   0.000769    3.88  0.000145  ( 0.010840 -0.005262 -0.000006)
 58:   1657.60   0.001397    7.06  0.000263  (-0.013311 -0.009267 -0.000008)
 59:   3170.18   0.000142    0.72  0.000014  ( 0.001247 -0.003521 -0.000005)
 60:   3178.06   0.001310    6.62  0.000129  ( 0.011202  0.001770 -0.000009)
 61:   3184.08   0.000201    1.01  0.000020  (-0.003469  0.002761 -0.000001)
 62:   3185.36   0.001035    5.23  0.000101  (-0.001605  0.009941  0.000009)
 63:   3193.62   0.001742    8.80  0.000170  (-0.012907 -0.001891  0.000008)
 64:   3199.28   0.000194    0.98  0.000019  ( 0.003038 -0.003111  0.000001)
 65:   3203.64   0.000055    0.28  0.000005  (-0.000824 -0.002159  0.000001)

--------------------------
THERMOCHEMISTRY AT 298.15K
--------------------------

Temperature         ...   298.15 K
Pressure            ...     1.00 atm
Total Mass          ...   218.64 AMU
Quasi RRHO          ...     True
Cut-Off Frequency   ...     1.00 cm^-1

Throughout the following assumptions are being made:
  (1) The electronic state is orbitally nondegenerate
  (2) There are no thermally accessible electronically excited states
  (3) Hindered rotations indicated by low frequency modes are not
      treated as such but are treated as vibrations and this may
      cause some error
  (4) All equations used are the standard statistical mechanics
      equations for an ideal gas
  (5) All vibrations are strictly harmonic

freq.      43.91  E(vib)   ...       0.53
freq.     107.71  E(vib)   ...       0.45
freq.     168.53  E(vib)   ...       0.38
freq.     171.60  E(vib)   ...       0.38
freq.     246.45  E(vib)   ...       0.31
freq.     288.15  E(vib)   ...       0.27
freq.     290.34  E(vib)   ...       0.27
freq.     341.69  E(vib)   ...       0.23
freq.     351.73  E(vib)   ...       0.23
freq.     455.62  E(vib)   ...       0.16
freq.     455.76  E(vib)   ...       0.16
freq.     461.09  E(vib)   ...       0.16
freq.     480.37  E(vib)   ...       0.15
freq.     557.90  E(vib)   ...       0.12
freq.     564.71  E(vib)   ...       0.11
freq.     585.22  E(vib)   ...       0.11
freq.     590.68  E(vib)   ...       0.10
freq.     649.52  E(vib)   ...       0.08
freq.     675.82  E(vib)   ...       0.08
freq.     706.86  E(vib)   ...       0.07
freq.     726.31  E(vib)   ...       0.06
freq.     741.88  E(vib)   ...       0.06
freq.     753.91  E(vib)   ...       0.06
freq.     808.92  E(vib)   ...       0.05
freq.     844.98  E(vib)   ...       0.04
freq.     851.21  E(vib)   ...       0.04
freq.     861.21  E(vib)   ...       0.04
freq.     870.30  E(vib)   ...       0.04
freq.     918.39  E(vib)   ...       0.03
freq.     920.33  E(vib)   ...       0.03
freq.     925.68  E(vib)   ...       0.03
freq.     937.17  E(vib)   ...       0.03
freq.    1050.06  E(vib)   ...       0.02
freq.    1080.68  E(vib)   ...       0.02
freq.    1114.06  E(vib)   ...       0.01
freq.    1141.08  E(vib)   ...       0.01
freq.    1175.69  E(vib)   ...       0.01
freq.    1182.68  E(vib)   ...       0.01
freq.    1199.37  E(vib)   ...       0.01
freq.    1229.25  E(vib)   ...       0.01
freq.    1266.25  E(vib)   ...       0.01
freq.    1289.54  E(vib)   ...       0.01
freq.    1300.32  E(vib)   ...       0.01
freq.    1345.35  E(vib)   ...       0.01
freq.    1368.14  E(vib)   ...       0.01
freq.    1434.69  E(vib)   ...       0.00
freq.    1488.83  E(vib)   ...       0.00
freq.    1504.35  E(vib)   ...       0.00
freq.    1520.63  E(vib)   ...       0.00
freq.    1608.61  E(vib)   ...       0.00
freq.    1617.96  E(vib)   ...       0.00
freq.    1651.93  E(vib)   ...       0.00
freq.    1657.60  E(vib)   ...       0.00
freq.    3170.18  E(vib)   ...       0.00
freq.    3178.06  E(vib)   ...       0.00
freq.    3184.08  E(vib)   ...       0.00
freq.    3185.36  E(vib)   ...       0.00
freq.    3193.62  E(vib)   ...       0.00
freq.    3199.28  E(vib)   ...       0.00
freq.    3203.64  E(vib)   ...       0.00

------------
INNER ENERGY
------------

The inner energy is: U= E(el) + E(ZPE) + E(vib) + E(rot) + E(trans)
    E(el)   - is the total energy from the electronic structure calculation
              = E(kin-el) + E(nuc-el) + E(el-el) + E(nuc-nuc)
    E(ZPE)  - the the zero temperature vibrational energy from the frequency calculation
    E(vib)  - the the finite temperature correction to E(ZPE) due to population
              of excited vibrational states
    E(rot)  - is the rotational thermal energy
    E(trans)- is the translational thermal energy

Summary of contributions to the inner energy U:
Electronic energy                ...  -1072.03121640 Eh
Zero point energy                ...      0.15695493 Eh      98.49 kcal/mol
Thermal vibrational correction   ...      0.00802715 Eh       5.04 kcal/mol
Thermal rotational correction    ...      0.00141627 Eh       0.89 kcal/mol
Thermal translational correction ...      0.00141627 Eh       0.89 kcal/mol
-----------------------------------------------------------------------
Total thermal energy                  -1071.86340178 Eh

Summary of corrections to the electronic energy:
(perhaps to be used in another calculation)
Total thermal correction                  0.01085969 Eh       6.81 kcal/mol
Non-thermal (ZPE) correction              0.15695493 Eh      98.49 kcal/mol
-----------------------------------------------------------------------
Total correction                          0.16781462 Eh     105.31 kcal/mol

--------
ENTHALPY
--------

The enthalpy is H = U + kB*T
                kB is Boltzmann's constant
Total thermal energy              ...  -1071.86340178 Eh
Thermal Enthalpy correction       ...      0.00094421 Eh       0.59 kcal/mol
-----------------------------------------------------------------------
Total Enthalpy                    ...  -1071.86245757 Eh

Note: Only C1 symmetry has been detected, increase convergence thresholds
      if your molecule has a higher symmetry. Symmetry factor of 1.0 is
      used for the rotational entropy correction.

Note: Rotational entropy computed according to Herzberg
Infrared and Raman Spectra, Chapter V,1, Van Nostrand Reinhold, 1945
Point Group:  C1, Symmetry Number:   1
Rotational constants in cm-1:     0.061517     0.009145     0.007962

Vibrational entropy computed according to the QRRHO of S. Grimme
Chem.Eur.J. 2012 18 9955 using a reference frequency of 100.0 cm-1

-------
ENTROPY
-------

The entropy contributions are T*S = T*(S(el)+S(vib)+S(rot)+S(trans))
     S(el)   - electronic entropy
     S(vib)  - vibrational entropy
     S(rot)  - rotational entropy
     S(trans)- translational entropy
The entropies will be listed as multiplied by the temperature to get
units of energy

Electronic entropy                ...      0.00000000 Eh      0.00 kcal/mol
Vibrational entropy               ...      0.01309666 Eh      8.22 kcal/mol
Rotational entropy                ...      0.01532510 Eh      9.62 kcal/mol
Translational entropy             ...      0.01997912 Eh     12.54 kcal/mol
-----------------------------------------------------------------------
Final entropy term                ...      0.04840089 Eh     30.37 kcal/mol

In case the symmetry of your molecule has not been determined correctly
or in case you have a reason to use a different symmetry number we print
out the resulting rotational entropy values for sn=1,12:

 non-linear molecules -----------------------------------

                             ****ORCA TERMINATED NORMALLY****
TOTAL RUN TIME: 0 days 0 hours 32 minutes 9 seconds 356 msec
