                         Program Version 6.0.0  -   RELEASE  -
|  1> ! r2SCAN-3c DEF2-TZVP FREQ
|  2> * xyzfile 0 1 vacuum_censo.xyz
|  3>
|  4>                          ****END OF INPUT****

CARTESIAN COORDINATES (ANGSTROEM)
---------------------------------
  C      4.463902   -0.276324    0.002232
  C      4.254385    1.098380    0.002071
  C      2.957826    1.606409    0.000590
  C      1.878459    0.737536   -0.000819
  C      2.087893   -0.640718   -0.000552
  C      3.377890   -1.147804    0.000981
  O      1.039737   -1.539248   -0.001974
  C     -0.224733   -0.991906   -0.000973
  C     -1.309285   -1.853787    0.000276
  C     -2.608436   -1.353372    0.000899
  C     -2.796604    0.021821    0.000351
  C     -1.721077    0.903381   -0.000737
  C     -0.433962    0.387766   -0.001415
  O      0.609042    1.284731   -0.002696
  Cl    -4.423315    0.672338    0.001083
  H      5.471081   -0.677673    0.003349
  H      5.096029    1.781814    0.003117
  H      2.764103    2.673536    0.000420
  H      3.510951   -2.224181    0.001089
  H     -1.124660   -2.922333    0.000668
  H     -3.457699   -2.024958    0.001823
  H     -1.864352    1.976996   -0.001146

 Total Charge           Charge          ....    0
 Multiplicity           Mult            ....    1
 Number of Electrons    NEL             ....  112
 Basis Dimension        Dim             ....  513

ORBITAL ENERGIES
----------------

  NO   OCC          E(Eh)            E(eV)
   0   2.0000    -101.193866     -2753.6251
   1   2.0000     -19.023268      -517.6494
   2   2.0000     -19.021853      -517.6109
   3   2.0000     -10.121276      -275.4139
   4   2.0000     -10.116753      -275.2908
   5   2.0000     -10.114823      -275.2383
   6   2.0000     -10.114401      -275.2269
   7   2.0000     -10.107097      -275.0281
   8   2.0000     -10.058024      -273.6927
   9   2.0000     -10.057459      -273.6774
  10   2.0000     -10.055107      -273.6134
  11   2.0000     -10.050659      -273.4923
  12   2.0000     -10.050507      -273.4882
  13   2.0000     -10.047623      -273.4097
  14   2.0000     -10.047156      -273.3970
  15   2.0000      -9.369765      -254.9643
  16   2.0000      -7.114697      -193.6007
  17   2.0000      -7.104667      -193.3278
  18   2.0000      -7.104313      -193.3182
  19   2.0000      -1.087777       -29.5999
  20   2.0000      -1.054692       -28.6996
  21   2.0000      -0.867547       -23.6072
  22   2.0000      -0.840365       -22.8675
  23   2.0000      -0.806173       -21.9371
  24   2.0000      -0.756661       -20.5898
  25   2.0000      -0.737897       -20.0792
  26   2.0000      -0.720660       -19.6102
  27   2.0000      -0.695289       -18.9198
  28   2.0000      -0.637180       -17.3386
  29   2.0000      -0.619616       -16.8606
  30   2.0000      -0.588669       -16.0185
  31   2.0000      -0.568048       -15.4574
  32   2.0000      -0.547698       -14.9036
  33   2.0000      -0.498588       -13.5673
  34   2.0000      -0.487389       -13.2625
  35   2.0000      -0.459818       -12.5123
  36   2.0000      -0.456685       -12.4270
  37   2.0000      -0.454522       -12.3682
  38   2.0000      -0.429625       -11.6907
  39   2.0000      -0.425010       -11.5651
  40   2.0000      -0.417977       -11.3737
  41   2.0000      -0.394873       -10.7451
  42   2.0000      -0.392924       -10.6920
  43   2.0000      -0.380885       -10.3644
  44   2.0000      -0.378853       -10.3091
  45   2.0000      -0.375643       -10.2218
  46   2.0000      -0.349942        -9.5224
  47   2.0000      -0.348192        -9.4748
  48   2.0000      -0.343723        -9.3532
  49   2.0000      -0.313929        -8.5424
  50   2.0000      -0.300419        -8.1748
  51   2.0000      -0.289611        -7.8807
  52   2.0000      -0.260372        -7.0851
  53   2.0000      -0.247768        -6.7421
  54   2.0000      -0.231687        -6.3045
  55   2.0000      -0.190847        -5.1932
  56   0.0000      -0.055123        -1.5000
  57   0.0000      -0.051896        -1.4122
  58   0.0000      -0.044971        -1.2237
  59   0.0000      -0.012831        -0.3492
  60   0.0000      -0.005928        -0.1613

MULLIKEN ATOMIC CHARGES
-----------------------
   0 C :   -0.088866
   1 C :   -0.089508
   2 C :   -0.244361
   3 C :    0.233190
   4 C :    0.238824
   5 C :   -0.245834
   6 O :   -0.247416
   7 C :    0.223790
   8 C :   -0.235051
   9 C :   -0.158608
  10 C :    0.234703
  11 C :   -0.361062
  12 C :    0.277299
  13 O :   -0.245139
  14 Cl:   -0.115923
  15 H :    0.114341
  16 H :    0.114411
  17 H :    0.114865
  18 H :    0.114073
  19 H :    0.117310
  20 H :    0.125442
  21 H :    0.123521
Sum of atomic charges:   -0.0000000

LOEWDIN ATOMIC CHARGES
----------------------
   0 C :   -0.144280
   1 C :   -0.144576
   2 C :   -0.109102
   3 C :   -0.200523
   4 C :   -0.202039
   5 C :   -0.109387
   6 O :    0.330990
   7 C :   -0.204919
   8 C :   -0.103024
   9 C :   -0.149027
  10 C :   -0.423617
  11 C :   -0.112329
  12 C :   -0.200581
  13 O :    0.333268
  14 Cl:    0.379467
  15 H :    0.145609
  16 H :    0.145607
  17 H :    0.152863
  18 H :    0.152632
  19 H :    0.155400
  20 H :    0.150293
  21 H :    0.157274

  Mayer bond orders larger than 0.100000
B(  0-C ,  1-C ) :   1.3949 B(  0-C ,  5-C ) :   1.3674 B(  0-C , 15-H ) :   0.9730
B(  1-C ,  2-C ) :   1.3682 B(  1-C , 16-H ) :   0.9733 B(  2-C ,  3-C ) :   1.3594
B(  2-C , 17-H ) :   0.9828 B(  3-C ,  4-C ) :   1.3673 B(  3-C , 13-O ) :   0.9776
B(  4-C ,  5-C ) :   1.3572 B(  4-C ,  6-O ) :   0.9786 B(  5-C , 18-H ) :   0.9835
B(  6-O ,  7-C ) :   0.9876 B(  7-C ,  8-C ) :   1.3538 B(  7-C , 12-C ) :   1.3560
B(  8-C ,  9-C ) :   1.3401 B(  8-C , 19-H ) :   0.9850 B(  9-C , 10-C ) :   1.3605
B(  9-C , 20-H ) :   0.9758 B( 10-C , 11-C ) :   1.3255 B( 10-C , 14-Cl) :   0.9430
B( 11-C , 12-C ) :   1.3271 B( 11-C , 21-H ) :   0.9922 B( 12-C , 13-O ) :   0.9899

Dispersion correction           -0.009941447
FINAL SINGLE POINT ENERGY     -1072.031659299091

DIPOLE MOMENT
-------------

Method             : SCF
Type of density    : Electron Density
Multiplicity       :   1
Irrep              :   0
Energy             : -1072.0293393540905527 Eh
Relativity type    :
Basis              : AO
                                X                 Y                 Z
Electronic contribution:    -14.976391498       2.008882949      -0.006117581
Nuclear contribution   :     15.731897025      -2.240583834       0.007028918
                        -----------------------------------------
Total Dipole Moment    :      0.755505527      -0.231700885       0.000911337
                        -----------------------------------------
Magnitude (a.u.)       :      0.790237136
Magnitude (Debye)      :      2.008623173

VIBRATIONAL FREQUENCIES
-----------------------

Scaling factor for frequencies =  1.000000000  (already applied!)

     0:       0.00 cm**-1
     1:       0.00 cm**-1
     2:       0.00 cm**-1
     3:       0.00 cm**-1
     4:       0.00 cm**-1
     5:       0.00 cm**-1
     6:      34.79 cm**-1
     7:     103.14 cm**-1
     8:     167.30 cm**-1
     9:     167.98 cm**-1
    10:     240.88 cm**-1
    11:     284.95 cm**-1
    12:     289.17 cm**-1
    13:     343.17 cm**-1
    14:     348.71 cm**-1
    15:     452.80 cm**-1
    16:     456.97 cm**-1
    17:     458.23 cm**-1
    18:     481.76 cm**-1
    19:     556.77 cm**-1
    20:     565.43 cm**-1
    21:     586.20 cm**-1
    22:     589.50 cm**-1
    23:     650.84 cm**-1
    24:     674.94 cm**-1
    25:     705.93 cm**-1
    26:     728.78 cm**-1
    27:     745.56 cm**-1
    28:     752.38 cm**-1
    29:     808.32 cm**-1
    30:     843.63 cm**-1
    31:     855.10 cm**-1
    32:     859.78 cm**-1
    33:     876.06 cm**-1
    34:     916.78 cm**-1
    35:     918.58 cm**-1
    36:     932.85 cm**-1
    37:     935.91 cm**-1
    38:    1052.17 cm**-1
    39:    1084.08 cm**-1
    40:    1119.44 cm**-1
    41:    1142.66 cm**-1
    42:    1176.19 cm**-1
    43:    1196.09 cm**-1
    44:    1211.03 cm**-1
    45:    1239.61 cm**-1
    46:    1269.37 cm**-1
    47:    1299.57 cm**-1
    48:    1308.93 cm**-1
    49:    1344.54 cm**-1
    50:    1368.86 cm**-1
    51:    1436.81 cm**-1
    52:    1490.47 cm**-1
    53:    1509.85 cm**-1
    54:    1525.70 cm**-1
    55:    1610.99 cm**-1
    56:    1616.92 cm**-1
    57:    1651.91 cm**-1
    58:    1661.47 cm**-1
    59:    3173.10 cm**-1
    60:    3181.68 cm**-1
    61:    3187.38 cm**-1
    62:    3189.07 cm**-1
    63:    3196.73 cm**-1
    64:    3204.82 cm**-1
    65:    3207.01 cm**-1

IR SPECTRUM
-----------

 Mode   freq       eps      Int      T**2         TX        TY        TZ
       cm**-1   L/(mol*cm) km/mol    a.u.
----------------------------------------------------------------------------
  6:     34.79   0.000079    0.40  0.000707  (-0.000034  0.000207 -0.026585)
  7:    103.14   0.000089    0.45  0.000269  ( 0.000006 -0.000078 -0.016392)
  8:    167.30   0.000014    0.07  0.000025  (-0.000779  0.000530 -0.004936)
  9:    167.98   0.000033    0.17  0.000062  (-0.005773  0.005334  0.000512)
 10:    240.88   0.000004    0.02  0.000005  ( 0.000140  0.000056 -0.002302)
 11:    284.95   0.000071    0.36  0.000078  ( 0.000232  0.000054  0.008833)
 12:    289.17   0.000181    0.92  0.000196  ( 0.008628  0.011012  0.000052)
 13:    343.17   0.000646    3.27  0.000588  (-0.017824  0.016429 -0.000041)
 14:    348.71   0.000012    0.06  0.000011  (-0.000014 -0.000021  0.003263)
 15:    452.80   0.000160    0.81  0.000110  (-0.000110  0.000112 -0.010493)
 16:    456.97   0.001368    6.91  0.000934  ( 0.001054 -0.000465  0.030541)
 17:    458.23   0.000479    2.42  0.000326  (-0.016705  0.006590  0.001998)
 18:    481.76   0.000356    1.80  0.000231  (-0.014694  0.003858  0.000104)
 19:    556.77   0.000004    0.02  0.000002  ( 0.000003  0.000019 -0.001558)
 20:    565.43   0.000362    1.83  0.000200  (-0.012697  0.006193  0.000068)
 21:    586.20   0.000983    4.97  0.000523  ( 0.022126 -0.005799  0.000344)
 22:    589.50   0.001046    5.29  0.000554  ( 0.000288 -0.000044 -0.023531)
 23:    650.84   0.000342    1.73  0.000164  ( 0.010642 -0.007128 -0.000020)
 24:    674.94   0.000010    0.05  0.000005  (-0.000044 -0.000033  0.002191)
 25:    705.93   0.000003    0.02  0.000002  (-0.000096  0.000226 -0.001209)
 26:    728.78   0.002251   11.37  0.000964  ( 0.026090 -0.016823 -0.000033)
 27:    745.56   0.000086    0.44  0.000036  (-0.001408 -0.005830  0.000371)
 28:    752.38   0.014814   74.86  0.006144  (-0.000117 -0.000019 -0.078386)
 29:    808.32   0.005219   26.38  0.002015  ( 0.000049  0.000080 -0.044889)
 30:    843.63   0.000142    0.72  0.000053  ( 0.000021 -0.000037  0.007247)
 31:    855.10   0.010044   50.76  0.003665  ( 0.060246 -0.005985 -0.000061)
 32:    859.78   0.004750   24.00  0.001724  (-0.000116  0.000052 -0.041520)
 33:    876.06   0.006261   31.64  0.002230  ( 0.038133  0.027861 -0.000031)
 34:    916.78   0.000111    0.56  0.000038  (-0.000054 -0.000029 -0.006155)
 35:    918.58   0.001011    5.11  0.000343  ( 0.000033  0.000019 -0.018532)
 36:    932.85   0.011551   58.37  0.003864  ( 0.061941 -0.005231 -0.000021)
 37:    935.91   0.000000    0.00  0.000000  (-0.000019 -0.000105 -0.000302)
 38:   1052.17   0.001627    8.22  0.000483  (-0.021723 -0.003274 -0.000031)
 39:   1084.08   0.007205   36.41  0.002074  ( 0.044046 -0.011578 -0.000000)
 40:   1119.44   0.000324    1.64  0.000090  ( 0.006070  0.007308 -0.000002)
 41:   1142.66   0.004950   25.02  0.001352  (-0.011180  0.035027 -0.000008)
 42:   1176.19   0.000397    2.00  0.000105  (-0.010153 -0.001470 -0.000012)
 43:   1196.09   0.000438    2.21  0.000114  ( 0.010322 -0.002757 -0.000008)
 44:   1211.03   0.006351   32.09  0.001637  (-0.032176  0.024520 -0.000001)
 45:   1239.61   0.001510    7.63  0.000380  ( 0.019464 -0.001071  0.000077)
 46:   1269.37   0.001585    8.01  0.000390  ( 0.019606  0.002267  0.000030)
 47:   1299.57   0.016565   83.71  0.003978  ( 0.062984  0.003272  0.000017)
 48:   1308.93   0.111175  561.83  0.026505  ( 0.160115  0.029475  0.000028)
 49:   1344.54   0.012748   64.42  0.002959  (-0.054274 -0.003632 -0.000010)
 50:   1368.86   0.000196    0.99  0.000045  (-0.006288  0.002290  0.000001)
 51:   1436.81   0.001927    9.74  0.000419  (-0.016465 -0.012141  0.000002)
 52:   1490.47   0.001323    6.68  0.000277  ( 0.008696  0.014189 -0.000003)
 53:   1509.85   0.143903  727.23  0.029743  ( 0.172126  0.010729  0.000000)
 54:   1525.70   0.006354   32.11  0.001300  (-0.033741 -0.012690 -0.000084)
 55:   1610.99   0.001320    6.67  0.000256  (-0.015930  0.001390  0.000003)
 56:   1616.92   0.010403   52.57  0.002008  ( 0.041303  0.017376  0.000003)
 57:   1651.91   0.000720    3.64  0.000136  (-0.010020  0.005967 -0.000020)
 58:   1661.47   0.001393    7.04  0.000262  (-0.013728 -0.008557  0.000010)
 59:   3173.10   0.000162    0.82  0.000016  ( 0.001392 -0.003735  0.000000)
 60:   3181.68   0.001458    7.37  0.000143  ( 0.011821  0.001799  0.000014)
 61:   3187.38   0.000220    1.11  0.000022  (-0.003641  0.002884  0.000003)
 62:   3189.07   0.001079    5.46  0.000106  (-0.001614  0.010150 -0.000002)
 63:   3196.73   0.001605    8.11  0.000157  (-0.012372 -0.001891 -0.000010)
 64:   3204.82   0.000151    0.76  0.000015  ( 0.003116 -0.002227 -0.000001)
 65:   3207.01   0.000080    0.41  0.000008  ( 0.000773  0.002687 -0.000001)

--------------------------
THERMOCHEMISTRY AT 298.15K
--------------------------

Temperature         ...   298.15 K
Pressure            ...     1.00 atm
Total Mass          ...   218.64 AMU
Quasi RRHO          ...     True
Cut-Off Frequency   ...     1.00 cm^-1

Throughout the following assumptions are being made:
  (1) The electronic state is orbitally nondegenerate
  (2) There are no thermally accessible electronically excited states
  (3) Hindered rotations indicated by low frequency modes are not
      treated as such but are treated as vibrations and this may
      cause some error
  (4) All equations used are the standard statistical mechanics
      equations for an ideal gas
  (5) All vibrations are strictly harmonic

freq.      34.79  E(vib)   ...       0.54
freq.     103.14  E(vib)   ...       0.46
freq.     167.30  E(vib)   ...       0.39
freq.     167.98  E(vib)   ...       0.38
freq.     240.88  E(vib)   ...       0.31
freq.     284.95  E(vib)   ...       0.28
freq.     289.17  E(vib)   ...       0.27
freq.     343.17  E(vib)   ...       0.23
freq.     348.71  E(vib)   ...       0.23
freq.     452.80  E(vib)   ...       0.16
freq.     456.97  E(vib)   ...       0.16
freq.     458.23  E(vib)   ...       0.16
freq.     481.76  E(vib)   ...       0.15
freq.     556.77  E(vib)   ...       0.12
freq.     565.43  E(vib)   ...       0.11
freq.     586.20  E(vib)   ...       0.11
freq.     589.50  E(vib)   ...       0.10
freq.     650.84  E(vib)   ...       0.08
freq.     674.94  E(vib)   ...       0.08
freq.     705.93  E(vib)   ...       0.07
freq.     728.78  E(vib)   ...       0.06
freq.     745.56  E(vib)   ...       0.06
freq.     752.38  E(vib)   ...       0.06
freq.     808.32  E(vib)   ...       0.05
freq.     843.63  E(vib)   ...       0.04
freq.     855.10  E(vib)   ...       0.04
freq.     859.78  E(vib)   ...       0.04
freq.     876.06  E(vib)   ...       0.04
freq.     916.78  E(vib)   ...       0.03
freq.     918.58  E(vib)   ...       0.03
freq.     932.85  E(vib)   ...       0.03
freq.     935.91  E(vib)   ...       0.03
freq.    1052.17  E(vib)   ...       0.02
freq.    1084.08  E(vib)   ...       0.02
freq.    1119.44  E(vib)   ...       0.01
freq.    1142.66  E(vib)   ...       0.01
freq.    1176.19  E(vib)   ...       0.01
freq.    1196.09  E(vib)   ...       0.01
freq.    1211.03  E(vib)   ...       0.01
freq.    1239.61  E(vib)   ...       0.01
freq.    1269.37  E(vib)   ...       0.01
freq.    1299.57  E(vib)   ...       0.01
freq.    1308.93  E(vib)   ...       0.01
freq.    1344.54  E(vib)   ...       0.01
freq.    1368.86  E(vib)   ...       0.01
freq.    1436.81  E(vib)   ...       0.00
freq.    1490.47  E(vib)   ...       0.00
freq.    1509.85  E(vib)   ...       0.00
freq.    1525.70  E(vib)   ...       0.00
freq.    1610.99  E(vib)   ...       0.00
freq.    1616.92  E(vib)   ...       0.00
freq.    1651.91  E(vib)   ...       0.00
freq.    1661.47  E(vib)   ...       0.00
freq.    3173.10  E(vib)   ...       0.00
freq.    3181.68  E(vib)   ...       0.00
freq.    3187.38  E(vib)   ...       0.00
freq.    3189.07  E(vib)   ...       0.00
freq.    3196.73  E(vib)   ...       0.00
freq.    3204.82  E(vib)   ...       0.00
freq.    3207.01  E(vib)   ...       0.00

------------
INNER ENERGY
------------

The inner energy is: U= E(el) + E(ZPE) + E(vib) + E(rot) + E(trans)
    E(el)   - is the total energy from the electronic structure calculation
              = E(kin-el) + E(nuc-el) + E(el-el) + E(nuc-nuc)
    E(ZPE)  - the the zero temperature vibrational energy from the frequency calculation
    E(vib)  - the the finite temperature correction to E(ZPE) due to population
              of excited vibrational states
    E(rot)  - is the rotational thermal energy
    E(trans)- is the translational thermal energy

Summary of contributions to the inner energy U:
Electronic energy                ...  -1072.03165930 Eh
Zero point energy                ...      0.15717005 Eh      98.63 kcal/mol
Thermal vibrational correction   ...      0.00807327 Eh       5.07 kcal/mol
Thermal rotational correction    ...      0.00141627 Eh       0.89 kcal/mol
Thermal translational correction ...      0.00141627 Eh       0.89 kcal/mol
-----------------------------------------------------------------------
Total thermal energy                  -1071.86358344 Eh

Summary of corrections to the electronic energy:
(perhaps to be used in another calculation)
Total thermal correction                  0.01090581 Eh       6.84 kcal/mol
Non-thermal (ZPE) correction              0.15717005 Eh      98.63 kcal/mol
-----------------------------------------------------------------------
Total correction                          0.16807586 Eh     105.47 kcal/mol

--------
ENTHALPY
--------

The enthalpy is H = U + kB*T
                kB is Boltzmann's constant
Total thermal energy              ...  -1071.86358344 Eh
Thermal Enthalpy correction       ...      0.00094421 Eh       0.59 kcal/mol
-----------------------------------------------------------------------
Total Enthalpy                    ...  -1071.86263923 Eh

Note: Only C1 symmetry has been detected, increase convergence thresholds
      if your molecule has a higher symmetry. Symmetry factor of 1.0 is
      used for the rotational entropy correction.

Note: Rotational entropy computed according to Herzberg
Infrared and Raman Spectra, Chapter V,1, Van Nostrand Reinhold, 1945
Point Group:  C1, Symmetry Number:   1
Rotational constants in cm-1:     0.061688     0.009169     0.007983

Vibrational entropy computed according to the QRRHO of S. Grimme
Chem.Eur.J. 2012 18 9955 using a reference frequency of 100.0 cm-1

-------
ENTROPY
-------

The entropy contributions are T*S = T*(S(el)+S(vib)+S(rot)+S(trans))
     S(el)   - electronic entropy
     S(vib)  - vibrational entropy
     S(rot)  - rotational entropy
     S(trans)- translational entropy
The entropies will be listed as multiplied by the temperature to get
units of energy

Electronic entropy                ...      0.00000000 Eh      0.00 kcal/mol
Vibrational entropy               ...      0.01326694 Eh      8.33 kcal/mol
Rotational entropy                ...      0.01532132 Eh      9.61 kcal/mol
Translational entropy             ...      0.01997912 Eh     12.54 kcal/mol
-----------------------------------------------------------------------
Final entropy term                ...      0.04856738 Eh     30.48 kcal/mol

In case the symmetry of your molecule has not been determined correctly
or in case you have a reason to use a different symmetry number we print
out the resulting rotational entropy values for sn=1,12:

 non-linear molecules -----------------------------------

                             ****ORCA TERMINATED NORMALLY****
TOTAL RUN TIME: 0 days 0 hours 33 minutes 46 seconds 713 msec
