                         Program Version 6.0.1  -  RELEASE   -
|  1> ! r2scan-3c def2/J RI DEFGRID2 scfconv6 printgap
|  2> %output
|  3>     printlevel normal
|  4> end
|  5> * xyz 0 1
|  6> C -2.996732805 1.2199609825 -0.0092140007
|  7> C -1.7519291311 0.3832153873 0.0067892166
|  8> C -1.8313422718 -1.0002882735 0.0054629112
|  9> C -0.6856803193 -1.7769225228 0.0015626745
| 10> C 0.5617608105 -1.1784952396 -0.0013172754
| 11> C 0.6539167576 0.2222224057 -0.0001958225
| 12> C -0.4982256076 0.9870642058 0.0034804661
| 13> O 1.9439084423 0.7125232608 -0.0014578124
| 14> C 2.1223991367 2.1052166934 0.0030462604
| 15> O 1.687677737 -1.9429887226 -0.0034307282
| 16> H -3.7467130866 0.8044065114 0.6604383447
| 17> H -2.7852065401 2.2428144844 0.2925044869
| 18> H -3.4214737079 1.2417144318 -1.0132455489
| 19> H -2.7984564056 -1.4800825851 0.0083067154
| 20> H -0.739526021 -2.8536269044 0.0020609992
| 21> H -0.4382565541 2.0646040513 0.0043920075
| 22> H 1.6905897046 2.5613995373 0.8996203011
| 23> H 1.6857048582 2.5680480233 -0.8876941037
| 24> H 3.1997047998 2.26530057 0.0007147145
| 25> H 2.4478738597 -1.3458771221 -0.0040710367
| 26> *
| 27>
| 28>                          ****END OF INPUT****

CARTESIAN COORDINATES (ANGSTROEM)
---------------------------------
  C     -2.996733    1.219961   -0.009214
  C     -1.751929    0.383215    0.006789
  C     -1.831342   -1.000288    0.005463
  C     -0.685680   -1.776923    0.001563
  C      0.561761   -1.178495   -0.001317
  C      0.653917    0.222222   -0.000196
  C     -0.498226    0.987064    0.003480
  O      1.943908    0.712523   -0.001458
  C      2.122399    2.105217    0.003046
  O      1.687678   -1.942989   -0.003431
  H     -3.746713    0.804407    0.660438
  H     -2.785207    2.242814    0.292504
  H     -3.421474    1.241714   -1.013246
  H     -2.798456   -1.480083    0.008307
  H     -0.739526   -2.853627    0.002061
  H     -0.438257    2.064604    0.004392
  H      1.690590    2.561400    0.899620
  H      1.685705    2.568048   -0.887694
  H      3.199705    2.265301    0.000715
  H      2.447874   -1.345877   -0.004071

 Total Charge           Charge          ....    0
 Multiplicity           Mult            ....    1
 Number of Electrons    NEL             ....   74
 Basis Dimension        Dim             ....  250

ORBITAL ENERGIES
----------------

  NO   OCC          E(Eh)            E(eV)
   0   2.0000     -18.996276      -516.9150
   1   2.0000     -18.974830      -516.3314
   2   2.0000     -10.093844      -274.6674
   3   2.0000     -10.091968      -274.6164
   4   2.0000     -10.087038      -274.4823
   5   2.0000     -10.035270      -273.0736
   6   2.0000     -10.031090      -272.9598
   7   2.0000     -10.025710      -272.8134
   8   2.0000     -10.024651      -272.7846
   9   2.0000     -10.022691      -272.7313
  10   2.0000      -1.046778       -28.4843
  11   2.0000      -1.014557       -27.6075
  12   2.0000      -0.821754       -22.3610
  13   2.0000      -0.738485       -20.0952
  14   2.0000      -0.721851       -19.6426
  15   2.0000      -0.678253       -18.4562
  16   2.0000      -0.644632       -17.5413
  17   2.0000      -0.576748       -15.6941
  18   2.0000      -0.557580       -15.1725
  19   2.0000      -0.520957       -14.1760
  20   2.0000      -0.488400       -13.2900
  21   2.0000      -0.457359       -12.4454
  22   2.0000      -0.446111       -12.1393
  23   2.0000      -0.416928       -11.3452
  24   2.0000      -0.413490       -11.2516
  25   2.0000      -0.395341       -10.7578
  26   2.0000      -0.391758       -10.6603
  27   2.0000      -0.373046       -10.1511
  28   2.0000      -0.369243       -10.0476
  29   2.0000      -0.344140        -9.3645
  30   2.0000      -0.339198        -9.2300
  31   2.0000      -0.312221        -8.4960
  32   2.0000      -0.311754        -8.4832
  33   2.0000      -0.305049        -8.3008
  34   2.0000      -0.286889        -7.8066
  35   2.0000      -0.219832        -5.9819
  36   2.0000      -0.183744        -4.9999
  37   0.0000      -0.020367        -0.5542
  38   0.0000      -0.008311        -0.2261
  39   0.0000       0.039835         1.0840
  40   0.0000       0.076141         2.0719
  41   0.0000       0.099913         2.7188

MULLIKEN ATOMIC CHARGES
-----------------------
   0 C :   -0.537461
   1 C :    0.213749
   2 C :   -0.211752
   3 C :   -0.298288
   4 C :    0.208307
   5 C :    0.191651
   6 C :   -0.330838
   7 O :   -0.211693
   8 C :   -0.331771
   9 O :   -0.388746
  10 H :    0.152875
  11 H :    0.146069
  12 H :    0.166028
  13 H :    0.147016
  14 H :    0.156866
  15 H :    0.145827
  16 H :    0.154336
  17 H :    0.154045
  18 H :    0.153108
  19 H :    0.320672
Sum of atomic charges:    0.0000000

LOEWDIN ATOMIC CHARGES
----------------------
   0 C :   -0.389732
   1 C :   -0.110387
   2 C :   -0.172095
   3 C :   -0.135167
   4 C :    0.200655
   5 C :    0.192298
   6 C :   -0.164814
   7 O :   -0.710020
   8 C :   -0.050125
   9 O :   -0.472400
  10 H :    0.161667
  11 H :    0.156726
  12 H :    0.163264
  13 H :    0.168920
  14 H :    0.180086
  15 H :    0.175946
  16 H :    0.166035
  17 H :    0.165956
  18 H :    0.179917
  19 H :    0.293270

  Mayer bond orders larger than 0.100000
B(  0-C ,  1-C ) :   0.7596 B(  0-C , 10-H ) :   0.9867 B(  0-C , 11-H ) :   0.9969
B(  0-C , 12-H ) :   0.9708 B(  1-C ,  2-C ) :   1.4210 B(  1-C ,  6-C ) :   1.3909
B(  2-C ,  3-C ) :   1.3861 B(  2-C , 13-H ) :   0.9406 B(  3-C ,  4-C ) :   1.3794
B(  3-C , 14-H ) :   0.9519 B(  4-C ,  5-C ) :   1.4246 B(  4-C ,  9-O ) :   0.9831
B(  5-C ,  6-C ) :   1.3498 B(  5-C ,  7-O ) :   1.0511 B(  6-C , 15-H ) :   0.9005
B(  7-O ,  8-C ) :   0.8622 B(  8-C , 16-H ) :   0.9604 B(  8-C , 17-H ) :   0.9606
B(  8-C , 18-H ) :   0.9680 B(  9-O , 19-H ) :   0.8521

Dispersion correction           -0.006573983
FINAL SINGLE POINT ENERGY      -461.205207835937

DIPOLE MOMENT
-------------

Method             : SCF
Type of density    : Electron Density
Multiplicity       :   1
Irrep              :   0
Energy             :  -461.2090422911060159 Eh
Relativity type    :
Basis              : AO
                                X                 Y                 Z
Electronic contribution:      4.695887180      -6.512100260       0.022714830
Nuclear contribution   :     -4.548626511       7.551578780      -0.034759488
                        -----------------------------------------
Total Dipole Moment    :      0.147260668       1.039478519      -0.012044659
                        -----------------------------------------
Magnitude (a.u.)       :      1.049926840
Magnitude (Debye)      :      2.668701943

Rotational constants in cm-1:             0.063438             0.039169             0.024439
Rotational constants in MHz :          1901.818587          1174.250064           732.675167

                             ****ORCA TERMINATED NORMALLY****
TOTAL RUN TIME: 0 days 0 hours 0 minutes 23 seconds 488 msec
