                         Program Version 6.0.1  -  RELEASE   -
|  1> ! pbe def2-sv(p) def2/J RI DEFGRID1 loosescf d4 GCP(DFT/SV(P)) printgap
|  2> %output
|  3>     printlevel normal
|  4> end
|  5> * xyz 0 1
|  6> C -2.0712455579 -1.3770217073 -0.1253151814
|  7> C -1.0080746071 -0.5154201984 0.5753955535
|  8> H -1.4438541281 -0.1394501144 1.5099891539
|  9> C -0.6248415979 0.6901088979 -0.2929525005
| 10> H -0.4883242936 0.3779473647 -1.3409153419
| 11> C 0.7125712669 1.2392281545 0.2090708025
| 12> H 0.6425548947 1.4084123123 1.2982745138
| 13> C 1.8074062279 0.1963932049 -0.0657394945
| 14> H 2.1504945671 0.3002744884 -1.1002598823
| 15> C 1.2288353682 -1.2296151868 0.0931107575
| 16> H 1.9857438265 -1.8635945062 0.5846427589
| 17> O 0.1332896488 -1.2734683566 0.9659208425
| 18> O 0.9239640601 -1.710197318 -1.1787635748
| 19> O 2.9362067276 0.4115107074 0.7395079043
| 20> O 0.9618740348 2.4595904143 -0.4466121407
| 21> O -1.6504595437 1.6476807941 -0.2096528886
| 22> O -3.3151986634 -0.7350218132 -0.1420150548
| 23> H -2.2026510247 -2.3111742008 0.4279089895
| 24> H -1.7386800085 -1.6116131933 -1.1486648387
| 25> H 0.5839574009 -2.6107849162 -1.1057413365
| 26> H 2.7053188512 0.2379155939 1.6605311627
| 27> H 1.8832651318 2.7004199923 -0.29724789
| 28> H -1.2754996988 2.4874583391 -0.5066228659
| 29> H -3.1705473518 0.1965777959 -0.3603971415
| 30> *
| 31>
| 32>                          ****END OF INPUT****

CARTESIAN COORDINATES (ANGSTROEM)
---------------------------------
  C     -2.071246   -1.377022   -0.125315
  C     -1.008075   -0.515420    0.575396
  H     -1.443854   -0.139450    1.509989
  C     -0.624842    0.690109   -0.292953
  H     -0.488324    0.377947   -1.340915
  C      0.712571    1.239228    0.209071
  H      0.642555    1.408412    1.298275
  C      1.807406    0.196393   -0.065739
  H      2.150495    0.300274   -1.100260
  C      1.228835   -1.229615    0.093111
  H      1.985744   -1.863595    0.584643
  O      0.133290   -1.273468    0.965921
  O      0.923964   -1.710197   -1.178764
  O      2.936207    0.411511    0.739508
  O      0.961874    2.459590   -0.446612
  O     -1.650460    1.647681   -0.209653
  O     -3.315199   -0.735022   -0.142015
  H     -2.202651   -2.311174    0.427909
  H     -1.738680   -1.611613   -1.148665
  H      0.583957   -2.610785   -1.105741
  H      2.705319    0.237916    1.660531
  H      1.883265    2.700420   -0.297248
  H     -1.275500    2.487458   -0.506623
  H     -3.170547    0.196578   -0.360397

 Total Charge           Charge          ....    0
 Multiplicity           Mult            ....    1
 Number of Electrons    NEL             ....   96
 Basis Dimension        Dim             ....  192

ORBITAL ENERGIES
----------------

  NO   OCC          E(Eh)            E(eV)
   0   2.0000     -18.780014      -511.0302
   1   2.0000     -18.774383      -510.8769
   2   2.0000     -18.769293      -510.7384
   3   2.0000     -18.768166      -510.7078
   4   2.0000     -18.765271      -510.6290
   5   2.0000     -18.733302      -509.7591
   6   2.0000      -9.995520      -271.9919
   7   2.0000      -9.952299      -270.8158
   8   2.0000      -9.951187      -270.7856
   9   2.0000      -9.948895      -270.7232
  10   2.0000      -9.945733      -270.6372
  11   2.0000      -9.924423      -270.0573
  12   2.0000      -0.993736       -27.0409
  13   2.0000      -0.960094       -26.1255
  14   2.0000      -0.946368       -25.7520
  15   2.0000      -0.931848       -25.3569
  16   2.0000      -0.923321       -25.1248
  17   2.0000      -0.911469       -24.8023
  18   2.0000      -0.713426       -19.4133
  19   2.0000      -0.697362       -18.9762
  20   2.0000      -0.620075       -16.8731
  21   2.0000      -0.592274       -16.1166
  22   2.0000      -0.576211       -15.6795
  23   2.0000      -0.533634       -14.5209
  24   2.0000      -0.511983       -13.9318
  25   2.0000      -0.502663       -13.6782
  26   2.0000      -0.471060       -12.8182
  27   2.0000      -0.469481       -12.7752
  28   2.0000      -0.450049       -12.2465
  29   2.0000      -0.432182       -11.7603
  30   2.0000      -0.425285       -11.5726
  31   2.0000      -0.398984       -10.8569
  32   2.0000      -0.392428       -10.6785
  33   2.0000      -0.378913       -10.3108
  34   2.0000      -0.364969        -9.9313
  35   2.0000      -0.357557        -9.7296
  36   2.0000      -0.335420        -9.1272
  37   2.0000      -0.327608        -8.9147
  38   2.0000      -0.322466        -8.7747
  39   2.0000      -0.309505        -8.4221
  40   2.0000      -0.285783        -7.7765
  41   2.0000      -0.272492        -7.4149
  42   2.0000      -0.260488        -7.0882
  43   2.0000      -0.251481        -6.8432
  44   2.0000      -0.241062        -6.5596
  45   2.0000      -0.227006        -6.1772
  46   2.0000      -0.222759        -6.0616
  47   2.0000      -0.202882        -5.5207
  48   0.0000       0.009954         0.2709
  49   0.0000       0.020315         0.5528
  50   0.0000       0.023631         0.6430
  51   0.0000       0.054605         1.4859
  52   0.0000       0.056597         1.5401

MULLIKEN ATOMIC CHARGES
-----------------------
   0 C :    0.084671
   1 C :    0.020717
   2 H :    0.081735
   3 C :    0.010114
   4 H :    0.079546
   5 C :    0.058129
   6 H :    0.045072
   7 C :    0.063165
   8 H :    0.086367
   9 C :    0.134716
  10 H :    0.066476
  11 O :   -0.312446
  12 O :   -0.389360
  13 O :   -0.417772
  14 O :   -0.425754
  15 O :   -0.425485
  16 O :   -0.443621
  17 H :    0.081486
  18 H :    0.057665
  19 H :    0.308155
  20 H :    0.301736
  21 H :    0.313201
  22 H :    0.317170
  23 H :    0.304316
Sum of atomic charges:    0.0000000

LOEWDIN ATOMIC CHARGES
----------------------
   0 C :   -0.131041
   1 C :   -0.068923
   2 H :    0.120783
   3 C :   -0.078816
   4 H :    0.110590
   5 C :   -0.076986
   6 H :    0.101124
   7 C :   -0.088241
   8 H :    0.127694
   9 C :   -0.012279
  10 H :    0.098178
  11 O :   -0.144111
  12 O :   -0.303931
  13 O :   -0.310334
  14 O :   -0.323402
  15 O :   -0.313825
  16 O :   -0.338036
  17 H :    0.108682
  18 H :    0.090199
  19 H :    0.287281
  20 H :    0.285348
  21 H :    0.293804
  22 H :    0.291133
  23 H :    0.275106

  Mayer bond orders larger than 0.100000
B(  0-C ,  1-C ) :   1.0690 B(  0-C , 16-O ) :   1.0861 B(  0-C , 17-H ) :   0.9199
B(  0-C , 18-H ) :   0.8991 B(  1-C ,  2-H ) :   0.8811 B(  1-C ,  3-C ) :   0.9786
B(  1-C , 11-O ) :   0.9574 B(  3-C ,  4-H ) :   0.8776 B(  3-C ,  5-C ) :   1.0398
B(  3-C , 15-O ) :   1.0409 B(  5-C ,  6-H ) :   0.8586 B(  5-C ,  7-C ) :   1.0269
B(  5-C , 14-O ) :   1.0761 B(  7-C ,  8-H ) :   0.8630 B(  7-C ,  9-C ) :   0.9917
B(  7-C , 13-O ) :   1.0337 B(  9-C , 10-H ) :   0.8980 B(  9-C , 11-O ) :   1.0865
B(  9-C , 12-O ) :   1.1004 B( 12-O , 19-H ) :   0.8308 B( 13-O , 20-H ) :   0.8480
B( 14-O , 21-H ) :   0.8378 B( 15-O , 22-H ) :   0.8240 B( 16-O , 23-H ) :   0.8224

Dispersion correction           -0.024745494
FINAL SINGLE POINT ENERGY      -685.694652085293

DIPOLE MOMENT
-------------

Method             : SCF
Type of density    : Electron Density
Multiplicity       :   1
Irrep              :   0
Energy             :  -685.8271341570101640 Eh
Relativity type    :
Basis              : AO
                                X                 Y                 Z
Electronic contribution:      1.376308782       0.904118883       0.575245618
Nuclear contribution   :     -0.345607662      -0.764586959      -0.359123776
                        -----------------------------------------
Total Dipole Moment    :      1.030701121       0.139531923       0.216121842
                        -----------------------------------------
Magnitude (a.u.)       :      1.062319447
Magnitude (Debye)      :      2.700201447

Rotational constants in cm-1:             0.044441             0.026131             0.018944
Rotational constants in MHz :          1332.308463           783.399541           567.924511

                             ****ORCA TERMINATED NORMALLY****
TOTAL RUN TIME: 0 days 0 hours 0 minutes 18 seconds 71 msec
