                         Program Version 6.0.1  -  RELEASE   -
|  1> ! r2scan-3c def2/J RI DEFGRID2 scfconv6 printgap
|  2> %output
|  3>     printlevel normal
|  4> end
|  5> * xyz 0 1
|  6> C -2.7726206656 0.40310857 0.0002637468
|  7> O -1.7901732751 -0.6026413444 -0.0002646629
|  8> C -0.4777224313 -0.2326311979 -8.72576e-05
|  9> C -0.0194831099 1.0795830183 -0.0001270399
| 10> C 1.3431029485 1.3324266599 -2.86456e-05
| 11> C 2.256119679 0.295444616 5.33564e-05
| 12> C 1.7993239176 -1.0138997282 7.21117e-05
| 13> C 0.4462704512 -1.278835248 5.92375e-05
| 14> H -2.7057480781 1.0324761161 -0.8933853125
| 15> H -2.704728328 1.0326202177 0.8937806158
| 16> H -3.7285984467 -0.1184744932 0.0009127488
| 17> H -0.7081592994 1.9100566304 -0.0002029038
| 18> H 1.6873866213 2.3565638184 0.0001312612
| 19> H 3.3154066871 0.5027741963 0.0001280434
| 20> H 2.503462423 -1.8327598936 0.0002359289
| 21> H 0.0723842395 -2.2906358149 0.0001518519
| 22> *
| 23>
| 24>                          ****END OF INPUT****

CARTESIAN COORDINATES (ANGSTROEM)
---------------------------------
  C     -2.772621    0.403109    0.000264
  O     -1.790173   -0.602641   -0.000265
  C     -0.477722   -0.232631   -0.000087
  C     -0.019483    1.079583   -0.000127
  C      1.343103    1.332427   -0.000029
  C      2.256120    0.295445    0.000053
  C      1.799324   -1.013900    0.000072
  C      0.446270   -1.278835    0.000059
  H     -2.705748    1.032476   -0.893385
  H     -2.704728    1.032620    0.893781
  H     -3.728598   -0.118474    0.000913
  H     -0.708159    1.910057   -0.000203
  H      1.687387    2.356564    0.000131
  H      3.315407    0.502774    0.000128
  H      2.503462   -1.832760    0.000236
  H      0.072384   -2.290636    0.000152

 Total Charge           Charge          ....    0
 Multiplicity           Mult            ....    1
 Number of Electrons    NEL             ....   58
 Basis Dimension        Dim             ....  197

ORBITAL ENERGIES
----------------

  NO   OCC          E(Eh)            E(eV)
   0   2.0000     -18.985876      -516.6320
   1   2.0000     -10.094245      -274.6784
   2   2.0000     -10.086541      -274.4687
   3   2.0000     -10.035301      -273.0744
   4   2.0000     -10.034027      -273.0397
   5   2.0000     -10.032571      -273.0001
   6   2.0000     -10.028551      -272.8908
   7   2.0000     -10.025930      -272.8194
   8   2.0000      -1.035508       -28.1776
   9   2.0000      -0.822258       -22.3748
  10   2.0000      -0.726724       -19.7752
  11   2.0000      -0.716397       -19.4941
  12   2.0000      -0.663556       -18.0563
  13   2.0000      -0.578951       -15.7540
  14   2.0000      -0.560499       -15.2520
  15   2.0000      -0.508179       -13.8283
  16   2.0000      -0.455598       -12.3975
  17   2.0000      -0.448396       -12.2015
  18   2.0000      -0.438612       -11.9353
  19   2.0000      -0.414694       -11.2844
  20   2.0000      -0.392415       -10.6781
  21   2.0000      -0.383315       -10.4305
  22   2.0000      -0.353584        -9.6215
  23   2.0000      -0.334785        -9.1100
  24   2.0000      -0.324946        -8.8422
  25   2.0000      -0.295038        -8.0284
  26   2.0000      -0.294826        -8.0226
  27   2.0000      -0.237004        -6.4492
  28   2.0000      -0.202794        -5.5183
  29   0.0000      -0.030813        -0.8385
  30   0.0000      -0.015349        -0.4177
  31   0.0000       0.068526         1.8647
  32   0.0000       0.087678         2.3858
  33   0.0000       0.104628         2.8471

MULLIKEN ATOMIC CHARGES
-----------------------
   0 C :   -0.338324
   1 O :   -0.184583
   2 C :    0.337868
   3 C :   -0.273291
   4 C :   -0.151960
   5 C :   -0.179290
   6 C :   -0.116464
   7 C :   -0.297120
   8 H :    0.151664
   9 H :    0.151639
  10 H :    0.153436
  11 H :    0.148524
  12 H :    0.145535
  13 H :    0.146527
  14 H :    0.148159
  15 H :    0.157678
Sum of atomic charges:    0.0000000

LOEWDIN ATOMIC CHARGES
----------------------
   0 C :   -0.056964
   1 O :   -0.683275
   2 C :    0.188508
   3 C :   -0.176274
   4 C :   -0.154909
   5 C :   -0.191437
   6 C :   -0.155693
   7 C :   -0.134327
   8 H :    0.164023
   9 H :    0.164033
  10 H :    0.179821
  11 H :    0.174450
  12 H :    0.167393
  13 H :    0.166252
  14 H :    0.168021
  15 H :    0.180377

  Mayer bond orders larger than 0.100000
B(  0-C ,  1-O ) :   0.8646 B(  0-C ,  8-H ) :   0.9635 B(  0-C ,  9-H ) :   0.9635
B(  0-C , 10-H ) :   0.9679 B(  1-O ,  2-C ) :   1.0273 B(  2-C ,  3-C ) :   1.3867
B(  2-C ,  7-C ) :   1.4103 B(  3-C ,  4-C ) :   1.3967 B(  3-C , 11-H ) :   0.9256
B(  4-C ,  5-C ) :   1.4515 B(  4-C , 12-H ) :   0.9500 B(  5-C ,  6-C ) :   1.3949
B(  5-C , 13-H ) :   0.9470 B(  6-C ,  7-C ) :   1.4064 B(  6-C , 14-H ) :   0.9469
B(  7-C , 15-H ) :   0.9436

Dispersion correction           -0.004830175
FINAL SINGLE POINT ENERGY      -346.681001617627

DIPOLE MOMENT
-------------

Method             : SCF
Type of density    : Electron Density
Multiplicity       :   1
Irrep              :   0
Energy             :  -346.6830099134381840 Eh
Relativity type    :
Basis              : AO
                                X                 Y                 Z
Electronic contribution:      1.829501139      -2.021200807      -0.001285440
Nuclear contribution   :     -2.154850985       2.423388234       0.001639971
                        -----------------------------------------
Total Dipole Moment    :     -0.325349847       0.402187427       0.000354530
                        -----------------------------------------
Magnitude (a.u.)       :      0.517307815
Magnitude (Debye)      :      1.314891968

Rotational constants in cm-1:             0.170707             0.052420             0.040414
Rotational constants in MHz :          5117.672878          1571.505766          1211.587836

                             ****ORCA TERMINATED NORMALLY****
TOTAL RUN TIME: 0 days 0 hours 0 minutes 29 seconds 101 msec
