                         Program Version 6.0.0  -   RELEASE  -
|  1> ! r2SCAN-3c DEF2-TZVP FREQ
|  2> * xyzfile 0 1 censo.xyz
|  3>
|  4>                          ****END OF INPUT****

CARTESIAN COORDINATES (ANGSTROEM)
---------------------------------
  C      1.341542    0.532166    0.514573
  C     -0.000412   -0.000133   -0.000351
  C      0.074007   -1.524929   -0.136333
  C     -0.305582    0.621329   -1.367850
  C     -1.110349    0.371425    0.989239
  H      1.314872    1.622748    0.621570
  H      1.582797    0.101527    1.493289
  H      2.154243    0.279142   -0.176168
  H      0.293762   -1.993348    0.830043
  H      0.861612   -1.816899   -0.840635
  H     -0.875384   -1.932978   -0.502123
  H     -1.263052    0.258118   -1.759174
  H     -0.361709    1.713840   -1.297567
  H      0.474569    0.368837   -2.095334
  H     -2.082717    0.000933    0.644500
  H     -1.183816    1.459043    1.104541
  H     -0.914303   -0.060789    1.977365

 Total Charge           Charge          ....    0
 Multiplicity           Mult            ....    1
 Number of Electrons    NEL             ....   42
 Basis Dimension        Dim             ....  227

ORBITAL ENERGIES
----------------

  NO   OCC          E(Eh)            E(eV)
   0   2.0000     -10.044317      -273.3198
   1   2.0000     -10.014773      -272.5158
   2   2.0000     -10.014750      -272.5152
   3   2.0000     -10.014748      -272.5152
   4   2.0000     -10.014740      -272.5149
   5   2.0000      -0.785741       -21.3811
   6   2.0000      -0.648185       -17.6380
   7   2.0000      -0.648158       -17.6373
   8   2.0000      -0.648105       -17.6358
   9   2.0000      -0.499041       -13.5796
  10   2.0000      -0.415377       -11.3030
  11   2.0000      -0.415334       -11.3018
  12   2.0000      -0.415245       -11.2994
  13   2.0000      -0.367156        -9.9908
  14   2.0000      -0.367109        -9.9895
  15   2.0000      -0.329832        -8.9752
  16   2.0000      -0.329803        -8.9744
  17   2.0000      -0.329797        -8.9742
  18   2.0000      -0.290455        -7.9037
  19   2.0000      -0.290423        -7.9028
  20   2.0000      -0.290368        -7.9013
  21   0.0000       0.032597         0.8870
  22   0.0000       0.093730         2.5505
  23   0.0000       0.093783         2.5520
  24   0.0000       0.093854         2.5539
  25   0.0000       0.104272         2.8374

MULLIKEN ATOMIC CHARGES
-----------------------
   0 C :   -0.330866
   1 C :    0.098051
   2 C :   -0.330916
   3 C :   -0.331388
   4 C :   -0.330749
   5 H :    0.102099
   6 H :    0.102135
   7 H :    0.102154
   8 H :    0.102105
   9 H :    0.102118
  10 H :    0.102164
  11 H :    0.102298
  12 H :    0.102203
  13 H :    0.102172
  14 H :    0.102162
  15 H :    0.102137
  16 H :    0.102121
Sum of atomic charges:   -0.0000000

LOEWDIN ATOMIC CHARGES
----------------------
   0 C :   -0.264287
   1 C :   -0.397830
   2 C :   -0.264323
   3 C :   -0.264364
   4 C :   -0.264308
   5 H :    0.121241
   6 H :    0.121279
   7 H :    0.121253
   8 H :    0.121282
   9 H :    0.121268
  10 H :    0.121232
  11 H :    0.121252
  12 H :    0.121274
  13 H :    0.121260
  14 H :    0.121237
  15 H :    0.121267
  16 H :    0.121268

  Mayer bond orders larger than 0.100000
B(  0-C ,  1-C ) :   0.9606 B(  0-C ,  5-H ) :   0.9727 B(  0-C ,  6-H ) :   0.9726
B(  0-C ,  7-H ) :   0.9728 B(  1-C ,  2-C ) :   0.9604 B(  1-C ,  3-C ) :   0.9606
B(  1-C ,  4-C ) :   0.9605 B(  2-C ,  8-H ) :   0.9727 B(  2-C ,  9-H ) :   0.9728
B(  2-C , 10-H ) :   0.9726 B(  3-C , 11-H ) :   0.9726 B(  3-C , 12-H ) :   0.9726
B(  3-C , 13-H ) :   0.9727 B(  4-C , 14-H ) :   0.9727 B(  4-C , 15-H ) :   0.9726
B(  4-C , 16-H ) :   0.9727

Dispersion correction           -0.004086888
FINAL SINGLE POINT ENERGY      -197.708996806186

DIPOLE MOMENT
-------------

Method             : SCF
Type of density    : Electron Density
Multiplicity       :   1
Irrep              :   0
Energy             :  -197.7132061290489560 Eh
Relativity type    :
Basis              : AO
                                X                 Y                 Z
Electronic contribution:     -0.002142269      -0.000413992      -0.001735547
Nuclear contribution   :      0.002170395       0.000401178       0.001594346
                        -----------------------------------------
Total Dipole Moment    :      0.000028126      -0.000012814      -0.000141201
                        -----------------------------------------
Magnitude (a.u.)       :      0.000144545
Magnitude (Debye)      :      0.000367403

VIBRATIONAL FREQUENCIES
-----------------------

Scaling factor for frequencies =  1.000000000  (already applied!)

     0:       0.00 cm**-1
     1:       0.00 cm**-1
     2:       0.00 cm**-1
     3:       0.00 cm**-1
     4:       0.00 cm**-1
     5:       0.00 cm**-1
     6:     221.17 cm**-1
     7:     299.13 cm**-1
     8:     299.88 cm**-1
     9:     300.54 cm**-1
    10:     336.33 cm**-1
    11:     336.43 cm**-1
    12:     422.37 cm**-1
    13:     422.52 cm**-1
    14:     422.69 cm**-1
    15:     736.16 cm**-1
    16:     931.64 cm**-1
    17:     932.02 cm**-1
    18:     932.06 cm**-1
    19:     956.46 cm**-1
    20:     956.74 cm**-1
    21:     957.18 cm**-1
    22:    1089.06 cm**-1
    23:    1089.09 cm**-1
    24:    1269.97 cm**-1
    25:    1270.45 cm**-1
    26:    1270.57 cm**-1
    27:    1387.49 cm**-1
    28:    1387.82 cm**-1
    29:    1387.92 cm**-1
    30:    1429.90 cm**-1
    31:    1473.18 cm**-1
    32:    1473.27 cm**-1
    33:    1473.40 cm**-1
    34:    1482.64 cm**-1
    35:    1482.74 cm**-1
    36:    1511.96 cm**-1
    37:    1512.04 cm**-1
    38:    1512.19 cm**-1
    39:    2989.32 cm**-1
    40:    2989.52 cm**-1
    41:    2989.60 cm**-1
    42:    2998.71 cm**-1
    43:    3066.69 cm**-1
    44:    3067.20 cm**-1
    45:    3067.37 cm**-1
    46:    3068.47 cm**-1
    47:    3068.96 cm**-1
    48:    3073.61 cm**-1
    49:    3073.88 cm**-1
    50:    3074.38 cm**-1

IR SPECTRUM
-----------

 Mode   freq       eps      Int      T**2         TX        TY        TZ
       cm**-1   L/(mol*cm) km/mol    a.u.
----------------------------------------------------------------------------
  6:    221.17   0.000000    0.00  0.000000  ( 0.000327 -0.000496  0.000217)
  7:    299.13   0.000000    0.00  0.000000  ( 0.000070  0.000124 -0.000041)
  8:    299.88   0.000001    0.00  0.000001  ( 0.000232 -0.000354 -0.000642)
  9:    300.54   0.000000    0.00  0.000000  ( 0.000138  0.000033 -0.000465)
 10:    336.33   0.000000    0.00  0.000000  ( 0.000279  0.000030 -0.000198)
 11:    336.43   0.000000    0.00  0.000000  ( 0.000014 -0.000098 -0.000016)
 12:    422.37   0.000018    0.09  0.000013  ( 0.002833 -0.001376 -0.001748)
 13:    422.52   0.000014    0.07  0.000010  (-0.001767 -0.002680 -0.000400)
 14:    422.69   0.000014    0.07  0.000010  ( 0.001391 -0.000983  0.002712)
 15:    736.16   0.000000    0.00  0.000000  (-0.000058  0.000192  0.000041)
 16:    931.64   0.000060    0.30  0.000020  ( 0.003853  0.002095  0.000853)
 17:    932.02   0.000062    0.32  0.000021  (-0.001054  0.003920 -0.002100)
 18:    932.06   0.000059    0.30  0.000020  (-0.001733  0.001375  0.003839)
 19:    956.46   0.000000    0.00  0.000000  ( 0.000309  0.000192 -0.000088)
 20:    956.74   0.000000    0.00  0.000000  (-0.000008 -0.000074 -0.000287)
 21:    957.18   0.000000    0.00  0.000000  ( 0.000052  0.000305 -0.000237)
 22:   1089.06   0.000000    0.00  0.000000  (-0.000149  0.000040 -0.000039)
 23:   1089.09   0.000000    0.00  0.000000  ( 0.000128  0.000037  0.000008)
 24:   1269.97   0.001057    5.34  0.000260  ( 0.014831  0.005344  0.003359)
 25:   1270.45   0.001056    5.34  0.000259  ( 0.005591 -0.015066 -0.001117)
 26:   1270.57   0.001085    5.48  0.000266  (-0.002631 -0.002402  0.015930)
 27:   1387.49   0.001997   10.09  0.000449  ( 0.018876  0.006844  0.006788)
 28:   1387.82   0.001932    9.76  0.000434  (-0.009532  0.015595  0.010017)
 29:   1387.92   0.001975    9.98  0.000444  (-0.002159 -0.011995  0.017194)
 30:   1429.90   0.000000    0.00  0.000000  (-0.000118  0.000228  0.000136)
 31:   1473.18   0.000001    0.00  0.000000  (-0.000281  0.000216  0.000207)
 32:   1473.27   0.000000    0.00  0.000000  ( 0.000088  0.000091 -0.000025)
 33:   1473.40   0.000001    0.01  0.000000  (-0.000294 -0.000136 -0.000380)
 34:   1482.64   0.000000    0.00  0.000000  ( 0.000145  0.000047 -0.000097)
 35:   1482.74   0.000000    0.00  0.000000  (-0.000134  0.000012 -0.000209)
 36:   1511.96   0.002473   12.50  0.000510  (-0.017735 -0.012775 -0.005719)
 37:   1512.04   0.002487   12.57  0.000513  (-0.013431  0.011923  0.013809)
 38:   1512.19   0.002483   12.55  0.000512  ( 0.005120 -0.013728  0.017254)
 39:   2989.32   0.008986   45.41  0.000938  ( 0.000778 -0.020498  0.022744)
 40:   2989.52   0.008906   45.01  0.000930  (-0.000828 -0.022752 -0.020281)
 41:   2989.60   0.008900   44.98  0.000929  (-0.030449  0.000173  0.001343)
 42:   2998.71   0.000001    0.01  0.000000  (-0.000299 -0.000036 -0.000173)
 43:   3066.69   0.000009    0.05  0.000001  ( 0.000024  0.000662  0.000705)
 44:   3067.20   0.000006    0.03  0.000001  (-0.000212 -0.000775  0.000026)
 45:   3067.37   0.000037    0.19  0.000004  ( 0.001302  0.001146  0.000872)
 46:   3068.47   0.000049    0.25  0.000005  (-0.000070  0.001107 -0.001950)
 47:   3068.96   0.000027    0.14  0.000003  ( 0.000153 -0.001647 -0.000108)
 48:   3073.61   0.018359   92.78  0.001864  ( 0.012598 -0.038416 -0.015148)
 49:   3073.88   0.018377   92.87  0.001866  ( 0.028218  0.019583 -0.026191)
 50:   3074.38   0.018185   91.90  0.001846  ( 0.029920 -0.002287  0.030747)

--------------------------
THERMOCHEMISTRY AT 298.15K
--------------------------

Temperature         ...   298.15 K
Pressure            ...     1.00 atm
Total Mass          ...    72.15 AMU
Quasi RRHO          ...     True
Cut-Off Frequency   ...     1.00 cm^-1

Throughout the following assumptions are being made:
  (1) The electronic state is orbitally nondegenerate
  (2) There are no thermally accessible electronically excited states
  (3) Hindered rotations indicated by low frequency modes are not
      treated as such but are treated as vibrations and this may
      cause some error
  (4) All equations used are the standard statistical mechanics
      equations for an ideal gas
  (5) All vibrations are strictly harmonic

freq.     221.17  E(vib)   ...       0.33
freq.     299.13  E(vib)   ...       0.26
freq.     299.88  E(vib)   ...       0.26
freq.     300.54  E(vib)   ...       0.26
freq.     336.33  E(vib)   ...       0.24
freq.     336.43  E(vib)   ...       0.24
freq.     422.37  E(vib)   ...       0.18
freq.     422.52  E(vib)   ...       0.18
freq.     422.69  E(vib)   ...       0.18
freq.     736.16  E(vib)   ...       0.06
freq.     931.64  E(vib)   ...       0.03
freq.     932.02  E(vib)   ...       0.03
freq.     932.06  E(vib)   ...       0.03
freq.     956.46  E(vib)   ...       0.03
freq.     956.74  E(vib)   ...       0.03
freq.     957.18  E(vib)   ...       0.03
freq.    1089.06  E(vib)   ...       0.02
freq.    1089.09  E(vib)   ...       0.02
freq.    1269.97  E(vib)   ...       0.01
freq.    1270.45  E(vib)   ...       0.01
freq.    1270.57  E(vib)   ...       0.01
freq.    1387.49  E(vib)   ...       0.00
freq.    1387.82  E(vib)   ...       0.00
freq.    1387.92  E(vib)   ...       0.00
freq.    1429.90  E(vib)   ...       0.00
freq.    1473.18  E(vib)   ...       0.00
freq.    1473.27  E(vib)   ...       0.00
freq.    1473.40  E(vib)   ...       0.00
freq.    1482.64  E(vib)   ...       0.00
freq.    1482.74  E(vib)   ...       0.00
freq.    1511.96  E(vib)   ...       0.00
freq.    1512.04  E(vib)   ...       0.00
freq.    1512.19  E(vib)   ...       0.00
freq.    2989.32  E(vib)   ...       0.00
freq.    2989.52  E(vib)   ...       0.00
freq.    2989.60  E(vib)   ...       0.00
freq.    2998.71  E(vib)   ...       0.00
freq.    3066.69  E(vib)   ...       0.00
freq.    3067.20  E(vib)   ...       0.00
freq.    3067.37  E(vib)   ...       0.00
freq.    3068.47  E(vib)   ...       0.00
freq.    3068.96  E(vib)   ...       0.00
freq.    3073.61  E(vib)   ...       0.00
freq.    3073.88  E(vib)   ...       0.00
freq.    3074.38  E(vib)   ...       0.00

------------
INNER ENERGY
------------

The inner energy is: U= E(el) + E(ZPE) + E(vib) + E(rot) + E(trans)
    E(el)   - is the total energy from the electronic structure calculation
              = E(kin-el) + E(nuc-el) + E(el-el) + E(nuc-nuc)
    E(ZPE)  - the the zero temperature vibrational energy from the frequency calculation
    E(vib)  - the the finite temperature correction to E(ZPE) due to population
              of excited vibrational states
    E(rot)  - is the rotational thermal energy
    E(trans)- is the translational thermal energy

Summary of contributions to the inner energy U:
Electronic energy                ...   -197.70899681 Eh
Zero point energy                ...      0.15832058 Eh      99.35 kcal/mol
Thermal vibrational correction   ...      0.00394108 Eh       2.47 kcal/mol
Thermal rotational correction    ...      0.00141627 Eh       0.89 kcal/mol
Thermal translational correction ...      0.00141627 Eh       0.89 kcal/mol
-----------------------------------------------------------------------
Total thermal energy                   -197.54390260 Eh

Summary of corrections to the electronic energy:
(perhaps to be used in another calculation)
Total thermal correction                  0.00677362 Eh       4.25 kcal/mol
Non-thermal (ZPE) correction              0.15832058 Eh      99.35 kcal/mol
-----------------------------------------------------------------------
Total correction                          0.16509420 Eh     103.60 kcal/mol

--------
ENTHALPY
--------

The enthalpy is H = U + kB*T
                kB is Boltzmann's constant
Total thermal energy              ...   -197.54390260 Eh
Thermal Enthalpy correction       ...      0.00094421 Eh       0.59 kcal/mol
-----------------------------------------------------------------------
Total Enthalpy                    ...   -197.54295839 Eh

Note: Only C1 symmetry has been detected, increase convergence thresholds
      if your molecule has a higher symmetry. Symmetry factor of 1.0 is
      used for the rotational entropy correction.

Note: Rotational entropy computed according to Herzberg
Infrared and Raman Spectra, Chapter V,1, Van Nostrand Reinhold, 1945
Point Group:  C1, Symmetry Number:   1
Rotational constants in cm-1:     0.148486     0.148461     0.148408

Vibrational entropy computed according to the QRRHO of S. Grimme
Chem.Eur.J. 2012 18 9955 using a reference frequency of 100.0 cm-1

-------
ENTROPY
-------

The entropy contributions are T*S = T*(S(el)+S(vib)+S(rot)+S(trans))
     S(el)   - electronic entropy
     S(vib)  - vibrational entropy
     S(rot)  - rotational entropy
     S(trans)- translational entropy
The entropies will be listed as multiplied by the temperature to get
units of energy

Electronic entropy                ...      0.00000000 Eh      0.00 kcal/mol
Vibrational entropy               ...      0.00603637 Eh      3.79 kcal/mol
Rotational entropy                ...      0.01221234 Eh      7.66 kcal/mol
Translational entropy             ...      0.01840896 Eh     11.55 kcal/mol
-----------------------------------------------------------------------
Final entropy term                ...      0.03665767 Eh     23.00 kcal/mol

In case the symmetry of your molecule has not been determined correctly
or in case you have a reason to use a different symmetry number we print
out the resulting rotational entropy values for sn=1,12:

 non-linear molecules -----------------------------------
|  sn= 1 | S(rot)=       0.01221234 Eh      7.66 kcal/mol|
|  sn= 2 | S(rot)=       0.01155789 Eh      7.25 kcal/mol|
|  sn= 3 | S(rot)=       0.01117505 Eh      7.01 kcal/mol|
|  sn= 4 | S(rot)=       0.01090343 Eh      6.84 kcal/mol|
|  sn= 5 | S(rot)=       0.01069274 Eh      6.71 kcal/mol|
|  sn= 6 | S(rot)=       0.01052060 Eh      6.60 kcal/mol|
|  sn= 7 | S(rot)=       0.01037505 Eh      6.51 kcal/mol|
|  sn= 8 | S(rot)=       0.01024897 Eh      6.43 kcal/mol|
|  sn= 9 | S(rot)=       0.01013776 Eh      6.36 kcal/mol|
|  sn=10 | S(rot)=       0.01003828 Eh      6.30 kcal/mol|
|  sn=11 | S(rot)=       0.00994829 Eh      6.24 kcal/mol|
|  sn=12 | S(rot)=       0.00986614 Eh      6.19 kcal/mol|
 linear molecules ---------------------------------------
|  Dinfh | S(rot)=       0.00712711 Eh      4.47 kcal/mol|
|  Cinfv | S(rot)=       0.00778156 Eh      4.88 kcal/mol|

                             ****ORCA TERMINATED NORMALLY****
TOTAL RUN TIME: 0 days 0 hours 9 minutes 3 seconds 418 msec
