                         Program Version 6.0.0  -   RELEASE  -
|  1> ! r2SCAN-3c DEF2-TZVP FREQ
|  2> * xyzfile 0 1 vacuum_censo.xyz
|  3>
|  4>                          ****END OF INPUT****

CARTESIAN COORDINATES (ANGSTROEM)
---------------------------------
  C      0.514544    1.334540    0.553383
  C     -0.000400   -0.000049    0.000380
  C      1.037199   -0.587731   -0.964391
  C     -1.319246    0.230793   -0.747663
  C     -0.232859   -0.977789    1.158932
  H      0.691985    2.052330   -0.255239
  H     -0.209938    1.778080    1.245422
  H      1.456960    1.195910    1.094692
  H      1.991604   -0.762526   -0.455499
  H      1.220895    0.093426   -1.802631
  H      0.693176   -1.543436   -1.375157
  H     -1.178505    0.925712   -1.582974
  H     -1.709590   -0.709290   -1.153006
  H     -2.079752    0.653015   -0.081498
  H     -0.601433   -1.941550    0.790544
  H     -0.971133   -0.581413    1.864869
  H      0.696532   -1.160006    1.709826

 Total Charge           Charge          ....    0
 Multiplicity           Mult            ....    1
 Number of Electrons    NEL             ....   42
 Basis Dimension        Dim             ....  227

ORBITAL ENERGIES
----------------

  NO   OCC          E(Eh)            E(eV)
   0   2.0000     -10.044673      -273.3294
   1   2.0000     -10.014654      -272.5126
   2   2.0000     -10.014652      -272.5125
   3   2.0000     -10.014645      -272.5123
   4   2.0000     -10.014640      -272.5122
   5   2.0000      -0.785323       -21.3697
   6   2.0000      -0.648262       -17.6401
   7   2.0000      -0.648176       -17.6378
   8   2.0000      -0.648132       -17.6366
   9   2.0000      -0.499216       -13.5843
  10   2.0000      -0.415246       -11.2994
  11   2.0000      -0.415193       -11.2980
  12   2.0000      -0.415120       -11.2960
  13   2.0000      -0.367176        -9.9914
  14   2.0000      -0.367054        -9.9880
  15   2.0000      -0.329937        -8.9780
  16   2.0000      -0.329925        -8.9777
  17   2.0000      -0.329885        -8.9766
  18   2.0000      -0.290436        -7.9032
  19   2.0000      -0.290412        -7.9025
  20   2.0000      -0.290342        -7.9006
  21   0.0000       0.032771         0.8917
  22   0.0000       0.093946         2.5564
  23   0.0000       0.093978         2.5573
  24   0.0000       0.094031         2.5587
  25   0.0000       0.104274         2.8375

MULLIKEN ATOMIC CHARGES
-----------------------
   0 C :   -0.331735
   1 C :    0.098862
   2 C :   -0.331526
   3 C :   -0.331571
   4 C :   -0.331585
   5 H :    0.102296
   6 H :    0.102356
   7 H :    0.102308
   8 H :    0.102238
   9 H :    0.102263
  10 H :    0.102364
  11 H :    0.102305
  12 H :    0.102297
  13 H :    0.102272
  14 H :    0.102207
  15 H :    0.102333
  16 H :    0.102315
Sum of atomic charges:   -0.0000000

LOEWDIN ATOMIC CHARGES
----------------------
   0 C :   -0.264393
   1 C :   -0.395818
   2 C :   -0.264319
   3 C :   -0.264363
   4 C :   -0.264363
   5 H :    0.121095
   6 H :    0.121101
   7 H :    0.121140
   8 H :    0.121057
   9 H :    0.121128
  10 H :    0.121102
  11 H :    0.121158
  12 H :    0.121103
  13 H :    0.121063
  14 H :    0.121085
  15 H :    0.121098
  16 H :    0.121127

  Mayer bond orders larger than 0.100000
B(  0-C ,  1-C ) :   0.9607 B(  0-C ,  5-H ) :   0.9727 B(  0-C ,  6-H ) :   0.9727
B(  0-C ,  7-H ) :   0.9728 B(  1-C ,  2-C ) :   0.9606 B(  1-C ,  3-C ) :   0.9606
B(  1-C ,  4-C ) :   0.9606 B(  2-C ,  8-H ) :   0.9727 B(  2-C ,  9-H ) :   0.9728
B(  2-C , 10-H ) :   0.9727 B(  3-C , 11-H ) :   0.9728 B(  3-C , 12-H ) :   0.9727
B(  3-C , 13-H ) :   0.9727 B(  4-C , 14-H ) :   0.9727 B(  4-C , 15-H ) :   0.9727
B(  4-C , 16-H ) :   0.9727

Dispersion correction           -0.004085486
FINAL SINGLE POINT ENERGY      -197.708998196467

DIPOLE MOMENT
-------------

Method             : SCF
Type of density    : Electron Density
Multiplicity       :   1
Irrep              :   0
Energy             :  -197.7132098095046615 Eh
Relativity type    :
Basis              : AO
                                X                 Y                 Z
Electronic contribution:     -0.002069677      -0.000594525       0.001783621
Nuclear contribution   :      0.002051059       0.000637641      -0.001708676
                        -----------------------------------------
Total Dipole Moment    :     -0.000018618       0.000043115       0.000074946
                        -----------------------------------------
Magnitude (a.u.)       :      0.000088445
Magnitude (Debye)      :      0.000224808

VIBRATIONAL FREQUENCIES
-----------------------

Scaling factor for frequencies =  1.000000000  (already applied!)

     0:       0.00 cm**-1
     1:       0.00 cm**-1
     2:       0.00 cm**-1
     3:       0.00 cm**-1
     4:       0.00 cm**-1
     5:       0.00 cm**-1
     6:     209.71 cm**-1
     7:     290.75 cm**-1
     8:     291.50 cm**-1
     9:     291.64 cm**-1
    10:     335.35 cm**-1
    11:     335.41 cm**-1
    12:     420.96 cm**-1
    13:     421.15 cm**-1
    14:     421.60 cm**-1
    15:     734.08 cm**-1
    16:     928.72 cm**-1
    17:     929.09 cm**-1
    18:     929.31 cm**-1
    19:     953.79 cm**-1
    20:     953.99 cm**-1
    21:     954.75 cm**-1
    22:    1086.91 cm**-1
    23:    1086.96 cm**-1
    24:    1268.13 cm**-1
    25:    1268.49 cm**-1
    26:    1268.79 cm**-1
    27:    1386.26 cm**-1
    28:    1386.37 cm**-1
    29:    1386.59 cm**-1
    30:    1428.66 cm**-1
    31:    1472.54 cm**-1
    32:    1472.76 cm**-1
    33:    1472.99 cm**-1
    34:    1482.11 cm**-1
    35:    1482.22 cm**-1
    36:    1511.28 cm**-1
    37:    1511.49 cm**-1
    38:    1511.56 cm**-1
    39:    2994.11 cm**-1
    40:    2994.29 cm**-1
    41:    2994.40 cm**-1
    42:    3003.39 cm**-1
    43:    3071.83 cm**-1
    44:    3071.93 cm**-1
    45:    3072.27 cm**-1
    46:    3073.58 cm**-1
    47:    3073.70 cm**-1
    48:    3078.60 cm**-1
    49:    3078.74 cm**-1
    50:    3079.23 cm**-1

IR SPECTRUM
-----------

 Mode   freq       eps      Int      T**2         TX        TY        TZ
       cm**-1   L/(mol*cm) km/mol    a.u.
----------------------------------------------------------------------------
  6:    209.71   0.000000    0.00  0.000000  ( 0.000063 -0.000225 -0.000380)
  7:    290.75   0.000000    0.00  0.000000  (-0.000480  0.000152 -0.000476)
  8:    291.50   0.000000    0.00  0.000000  (-0.000229  0.000123  0.000027)
  9:    291.64   0.000001    0.00  0.000001  ( 0.000400  0.000763  0.000424)
 10:    335.35   0.000000    0.00  0.000000  (-0.000119 -0.000218 -0.000226)
 11:    335.41   0.000000    0.00  0.000000  (-0.000012  0.000122 -0.000117)
 12:    420.96   0.000016    0.08  0.000012  (-0.003041  0.001087  0.001098)
 13:    421.15   0.000015    0.07  0.000011  (-0.000372 -0.002284  0.002368)
 14:    421.60   0.000014    0.07  0.000010  (-0.001054 -0.002180 -0.002035)
 15:    734.08   0.000000    0.00  0.000000  ( 0.000000 -0.000188  0.000028)
 16:    928.72   0.000055    0.28  0.000019  ( 0.002536 -0.002525 -0.002405)
 17:    929.09   0.000057    0.29  0.000019  (-0.002752 -0.003320  0.000621)
 18:    929.31   0.000062    0.31  0.000021  (-0.002367  0.001215 -0.003707)
 19:    953.79   0.000000    0.00  0.000000  ( 0.000066 -0.000023  0.000115)
 20:    953.99   0.000000    0.00  0.000000  ( 0.000104 -0.000037 -0.000061)
 21:    954.75   0.000000    0.00  0.000000  ( 0.000119  0.000226 -0.000062)
 22:   1086.91   0.000000    0.00  0.000000  ( 0.000007 -0.000171 -0.000101)
 23:   1086.96   0.000000    0.00  0.000000  (-0.000030 -0.000174  0.000047)
 24:   1268.13   0.001076    5.44  0.000265  (-0.010599  0.010254  0.006872)
 25:   1268.49   0.001100    5.56  0.000271  (-0.009969 -0.012691  0.003186)
 26:   1268.79   0.001122    5.67  0.000276  ( 0.007703 -0.002126  0.014564)
 27:   1386.26   0.001964    9.93  0.000442  ( 0.002145 -0.014608 -0.014972)
 28:   1386.37   0.001941    9.81  0.000437  (-0.020359  0.001517 -0.004498)
 29:   1386.59   0.001959    9.90  0.000441  (-0.004249 -0.015059  0.014003)
 30:   1428.66   0.000000    0.00  0.000000  (-0.000055  0.000185 -0.000091)
 31:   1472.54   0.000000    0.00  0.000000  ( 0.000068 -0.000106 -0.000011)
 32:   1472.76   0.000000    0.00  0.000000  ( 0.000172 -0.000064 -0.000052)
 33:   1472.99   0.000000    0.00  0.000000  (-0.000118  0.000000 -0.000143)
 34:   1482.11   0.000000    0.00  0.000000  (-0.000212  0.000025 -0.000224)
 35:   1482.22   0.000001    0.00  0.000000  ( 0.000316 -0.000032  0.000231)
 36:   1511.28   0.002442   12.34  0.000504  ( 0.013487 -0.014290 -0.010869)
 37:   1511.49   0.002498   12.62  0.000516  ( 0.018061  0.011777  0.007125)
 38:   1511.56   0.002417   12.22  0.000499  ( 0.001285 -0.012927  0.018175)
 39:   2994.11   0.008850   44.73  0.000922  (-0.002989 -0.028132 -0.011050)
 40:   2994.29   0.008967   45.31  0.000934  ( 0.015481  0.008225 -0.025044)
 41:   2994.40   0.008921   45.08  0.000930  ( 0.026030 -0.008078  0.013672)
 42:   3003.39   0.000001    0.01  0.000000  ( 0.000369  0.000005 -0.000022)
 43:   3071.83   0.000012    0.06  0.000001  ( 0.000656 -0.000903  0.000111)
 44:   3071.93   0.000031    0.16  0.000003  (-0.001094  0.000044  0.001413)
 45:   3072.27   0.000012    0.06  0.000001  (-0.000045 -0.000852  0.000684)
 46:   3073.58   0.000017    0.08  0.000002  ( 0.000783 -0.000879 -0.000560)
 47:   3073.70   0.000011    0.06  0.000001  (-0.001017  0.000269 -0.000213)
 48:   3078.60   0.018248   92.22  0.001850  ( 0.039193 -0.006182 -0.016596)
 49:   3078.74   0.018188   91.91  0.001844  (-0.012307  0.019229 -0.036363)
 50:   3079.23   0.018158   91.76  0.001840  ( 0.012751  0.037776  0.015829)

--------------------------
THERMOCHEMISTRY AT 298.15K
--------------------------

Temperature         ...   298.15 K
Pressure            ...     1.00 atm
Total Mass          ...    72.15 AMU
Quasi RRHO          ...     True
Cut-Off Frequency   ...     1.00 cm^-1

Throughout the following assumptions are being made:
  (1) The electronic state is orbitally nondegenerate
  (2) There are no thermally accessible electronically excited states
  (3) Hindered rotations indicated by low frequency modes are not
      treated as such but are treated as vibrations and this may
      cause some error
  (4) All equations used are the standard statistical mechanics
      equations for an ideal gas
  (5) All vibrations are strictly harmonic

freq.     209.71  E(vib)   ...       0.34
freq.     290.75  E(vib)   ...       0.27
freq.     291.50  E(vib)   ...       0.27
freq.     291.64  E(vib)   ...       0.27
freq.     335.35  E(vib)   ...       0.24
freq.     335.41  E(vib)   ...       0.24
freq.     420.96  E(vib)   ...       0.18
freq.     421.15  E(vib)   ...       0.18
freq.     421.60  E(vib)   ...       0.18
freq.     734.08  E(vib)   ...       0.06
freq.     928.72  E(vib)   ...       0.03
freq.     929.09  E(vib)   ...       0.03
freq.     929.31  E(vib)   ...       0.03
freq.     953.79  E(vib)   ...       0.03
freq.     953.99  E(vib)   ...       0.03
freq.     954.75  E(vib)   ...       0.03
freq.    1086.91  E(vib)   ...       0.02
freq.    1086.96  E(vib)   ...       0.02
freq.    1268.13  E(vib)   ...       0.01
freq.    1268.49  E(vib)   ...       0.01
freq.    1268.79  E(vib)   ...       0.01
freq.    1386.26  E(vib)   ...       0.00
freq.    1386.37  E(vib)   ...       0.00
freq.    1386.59  E(vib)   ...       0.00
freq.    1428.66  E(vib)   ...       0.00
freq.    1472.54  E(vib)   ...       0.00
freq.    1472.76  E(vib)   ...       0.00
freq.    1472.99  E(vib)   ...       0.00
freq.    1482.11  E(vib)   ...       0.00
freq.    1482.22  E(vib)   ...       0.00
freq.    1511.28  E(vib)   ...       0.00
freq.    1511.49  E(vib)   ...       0.00
freq.    1511.56  E(vib)   ...       0.00
freq.    2994.11  E(vib)   ...       0.00
freq.    2994.29  E(vib)   ...       0.00
freq.    2994.40  E(vib)   ...       0.00
freq.    3003.39  E(vib)   ...       0.00
freq.    3071.83  E(vib)   ...       0.00
freq.    3071.93  E(vib)   ...       0.00
freq.    3072.27  E(vib)   ...       0.00
freq.    3073.58  E(vib)   ...       0.00
freq.    3073.70  E(vib)   ...       0.00
freq.    3078.60  E(vib)   ...       0.00
freq.    3078.74  E(vib)   ...       0.00
freq.    3079.23  E(vib)   ...       0.00

------------
INNER ENERGY
------------

The inner energy is: U= E(el) + E(ZPE) + E(vib) + E(rot) + E(trans)
    E(el)   - is the total energy from the electronic structure calculation
              = E(kin-el) + E(nuc-el) + E(el-el) + E(nuc-nuc)
    E(ZPE)  - the the zero temperature vibrational energy from the frequency calculation
    E(vib)  - the the finite temperature correction to E(ZPE) due to population
              of excited vibrational states
    E(rot)  - is the rotational thermal energy
    E(trans)- is the translational thermal energy

Summary of contributions to the inner energy U:
Electronic energy                ...   -197.70899820 Eh
Zero point energy                ...      0.15826880 Eh      99.31 kcal/mol
Thermal vibrational correction   ...      0.00400132 Eh       2.51 kcal/mol
Thermal rotational correction    ...      0.00141627 Eh       0.89 kcal/mol
Thermal translational correction ...      0.00141627 Eh       0.89 kcal/mol
-----------------------------------------------------------------------
Total thermal energy                   -197.54389553 Eh

Summary of corrections to the electronic energy:
(perhaps to be used in another calculation)
Total thermal correction                  0.00683387 Eh       4.29 kcal/mol
Non-thermal (ZPE) correction              0.15826880 Eh      99.31 kcal/mol
-----------------------------------------------------------------------
Total correction                          0.16510267 Eh     103.60 kcal/mol

--------
ENTHALPY
--------

The enthalpy is H = U + kB*T
                kB is Boltzmann's constant
Total thermal energy              ...   -197.54389553 Eh
Thermal Enthalpy correction       ...      0.00094421 Eh       0.59 kcal/mol
-----------------------------------------------------------------------
Total Enthalpy                    ...   -197.54295132 Eh

Note: Only C1 symmetry has been detected, increase convergence thresholds
      if your molecule has a higher symmetry. Symmetry factor of 1.0 is
      used for the rotational entropy correction.

Note: Rotational entropy computed according to Herzberg
Infrared and Raman Spectra, Chapter V,1, Van Nostrand Reinhold, 1945
Point Group:  C1, Symmetry Number:   1
Rotational constants in cm-1:     0.148336     0.148271     0.148241

Vibrational entropy computed according to the QRRHO of S. Grimme
Chem.Eur.J. 2012 18 9955 using a reference frequency of 100.0 cm-1

-------
ENTROPY
-------

The entropy contributions are T*S = T*(S(el)+S(vib)+S(rot)+S(trans))
     S(el)   - electronic entropy
     S(vib)  - vibrational entropy
     S(rot)  - rotational entropy
     S(trans)- translational entropy
The entropies will be listed as multiplied by the temperature to get
units of energy

Electronic entropy                ...      0.00000000 Eh      0.00 kcal/mol
Vibrational entropy               ...      0.00616818 Eh      3.87 kcal/mol
Rotational entropy                ...      0.01221395 Eh      7.66 kcal/mol
Translational entropy             ...      0.01840896 Eh     11.55 kcal/mol
-----------------------------------------------------------------------
Final entropy term                ...      0.03679109 Eh     23.09 kcal/mol

In case the symmetry of your molecule has not been determined correctly
or in case you have a reason to use a different symmetry number we print
out the resulting rotational entropy values for sn=1,12:

 non-linear molecules -----------------------------------
|  sn= 1 | S(rot)=       0.01221395 Eh      7.66 kcal/mol|
|  sn= 2 | S(rot)=       0.01155950 Eh      7.25 kcal/mol|
|  sn= 3 | S(rot)=       0.01117667 Eh      7.01 kcal/mol|
|  sn= 4 | S(rot)=       0.01090504 Eh      6.84 kcal/mol|
|  sn= 5 | S(rot)=       0.01069435 Eh      6.71 kcal/mol|
|  sn= 6 | S(rot)=       0.01052221 Eh      6.60 kcal/mol|
|  sn= 7 | S(rot)=       0.01037666 Eh      6.51 kcal/mol|
|  sn= 8 | S(rot)=       0.01025059 Eh      6.43 kcal/mol|
|  sn= 9 | S(rot)=       0.01013938 Eh      6.36 kcal/mol|
|  sn=10 | S(rot)=       0.01003990 Eh      6.30 kcal/mol|
|  sn=11 | S(rot)=       0.00994991 Eh      6.24 kcal/mol|
|  sn=12 | S(rot)=       0.00986775 Eh      6.19 kcal/mol|
 linear molecules ---------------------------------------
|  Dinfh | S(rot)=       0.00712817 Eh      4.47 kcal/mol|
|  Cinfv | S(rot)=       0.00778263 Eh      4.88 kcal/mol|

                             ****ORCA TERMINATED NORMALLY****
TOTAL RUN TIME: 0 days 0 hours 9 minutes 21 seconds 275 msec
