                         Program Version 6.0.1  -  RELEASE   -
|  1> ! r2scan-3c def2/J RI DEFGRID2 scfconv6 printgap
|  2> %output
|  3>     printlevel normal
|  4> end
|  5> * xyz 0 1
|  6> C 2.3934928445 -0.0543475384 -0.0001686443
|  7> C 0.900797479 -0.0196106597 -0.0001127325
|  8> C 0.1286008604 -1.184065994 0.000226486
|  9> N -1.1913656309 -1.1519420634 -3.9514e-06
| 10> C -1.7683689904 0.0422570873 -0.0002104147
| 11> C -1.0120830705 1.2044957362 0.0001532076
| 12> N 0.3118382451 1.170545791 3.48765e-05
| 13> H 2.7580002937 -0.5895776866 -0.8753369651
| 14> H 2.7801168864 0.9604845011 -0.0104109042
| 15> H 2.757890495 -0.5707535957 0.8863843375
| 16> H 0.5841596832 -2.1656758147 0.0004336275
| 17> H -2.8491721821 0.05416169 -0.0006852837
| 18> H -1.4641334566 2.187145783 0.0005212788
| 19> *
| 20>
| 21>                          ****END OF INPUT****

CARTESIAN COORDINATES (ANGSTROEM)
---------------------------------
  C      2.393493   -0.054348   -0.000169
  C      0.900797   -0.019611   -0.000113
  C      0.128601   -1.184066    0.000226
  N     -1.191366   -1.151942   -0.000004
  C     -1.768369    0.042257   -0.000210
  C     -1.012083    1.204496    0.000153
  N      0.311838    1.170546    0.000035
  H      2.758000   -0.589578   -0.875337
  H      2.780117    0.960485   -0.010411
  H      2.757890   -0.570754    0.886384
  H      0.584160   -2.165676    0.000434
  H     -2.849172    0.054162   -0.000685
  H     -1.464133    2.187146    0.000521

 Total Charge           Charge          ....    0
 Multiplicity           Mult            ....    1
 Number of Electrons    NEL             ....   50
 Basis Dimension        Dim             ....  173

ORBITAL ENERGIES
----------------

  NO   OCC          E(Eh)            E(eV)
   0   2.0000     -14.173882      -385.6909
   1   2.0000     -14.170976      -385.6119
   2   2.0000     -10.087310      -274.4897
   3   2.0000     -10.077126      -274.2125
   4   2.0000     -10.075649      -274.1724
   5   2.0000     -10.074624      -274.1445
   6   2.0000     -10.036000      -273.0934
   7   2.0000      -0.955857       -26.0102
   8   2.0000      -0.881126       -23.9767
   9   2.0000      -0.768375       -20.9086
  10   2.0000      -0.690134       -18.7795
  11   2.0000      -0.630934       -17.1686
  12   2.0000      -0.598640       -16.2898
  13   2.0000      -0.496150       -13.5009
  14   2.0000      -0.488215       -13.2850
  15   2.0000      -0.445622       -12.1260
  16   2.0000      -0.423224       -11.5165
  17   2.0000      -0.397372       -10.8130
  18   2.0000      -0.378286       -10.2937
  19   2.0000      -0.372693       -10.1415
  20   2.0000      -0.352925        -9.6036
  21   2.0000      -0.310666        -8.4537
  22   2.0000      -0.275144        -7.4870
  23   2.0000      -0.251338        -6.8393
  24   2.0000      -0.216027        -5.8784
  25   0.0000      -0.076459        -2.0806
  26   0.0000      -0.051402        -1.3987
  27   0.0000       0.077041         2.0964
  28   0.0000       0.089485         2.4350
  29   0.0000       0.108728         2.9586

MULLIKEN ATOMIC CHARGES
-----------------------
   0 C :   -0.576288
   1 C :    0.321179
   2 C :   -0.187124
   3 N :   -0.150741
   4 C :   -0.072976
   5 C :   -0.059866
   6 N :   -0.187290
   7 H :    0.159504
   8 H :    0.181577
   9 H :    0.160014
  10 H :    0.138374
  11 H :    0.135869
  12 H :    0.137770
Sum of atomic charges:   -0.0000000

LOEWDIN ATOMIC CHARGES
----------------------
   0 C :   -0.360004
   1 C :    0.141567
   2 C :    0.101919
   3 N :   -0.570117
   4 C :    0.085772
   5 C :    0.099644
   6 N :   -0.576867
   7 H :    0.169126
   8 H :    0.177693
   9 H :    0.169374
  10 H :    0.188162
  11 H :    0.186885
  12 H :    0.186847

  Mayer bond orders larger than 0.100000
B(  0-C ,  1-C ) :   0.8383 B(  0-C ,  7-H ) :   0.9645 B(  0-C ,  8-H ) :   0.9960
B(  0-C ,  9-H ) :   0.9635 B(  1-C ,  2-C ) :   1.2944 B(  1-C ,  6-N ) :   1.3208
B(  2-C ,  3-N ) :   1.4887 B(  2-C ,  5-C ) :   0.1108 B(  2-C , 10-H ) :   0.9686
B(  3-N ,  4-C ) :   1.4214 B(  4-C ,  5-C ) :   1.3122 B(  4-C , 11-H ) :   0.9711
B(  5-C ,  6-N ) :   1.4392 B(  5-C , 12-H ) :   0.9662

Dispersion correction           -0.003729584
FINAL SINGLE POINT ENERGY      -303.552284930725

DIPOLE MOMENT
-------------

Method             : SCF
Type of density    : Electron Density
Multiplicity       :   1
Irrep              :   0
Energy             :  -303.5571040111615275 Eh
Relativity type    :
Basis              : AO
                                X                 Y                 Z
Electronic contribution:     -4.006686666       0.127830705      -0.000323986
Nuclear contribution   :      4.279667154      -0.116432845       0.000850237
                        -----------------------------------------
Total Dipole Moment    :      0.272980488       0.011397861       0.000526252
                        -----------------------------------------
Magnitude (a.u.)       :      0.273218840
Magnitude (Debye)      :      0.694467102

Rotational constants in cm-1:             0.198720             0.091006             0.063152
Rotational constants in MHz :          5957.462884          2728.293490          1893.239812

                             ****ORCA TERMINATED NORMALLY****
TOTAL RUN TIME: 0 days 0 hours 0 minutes 21 seconds 40 msec
