                         Program Version 6.0.1  -  RELEASE   -
|  1> ! pbe def2-sv(p) def2/J RI DEFGRID1 loosescf d4 GCP(DFT/SV(P)) printgap
|  2> %output
|  3>     printlevel normal
|  4> end
|  5> * xyz 0 1
|  6> C -2.3289604064 1.1062984634 0.5632371364
|  7> N -1.6017562156 0.0256416143 -0.0561758221
|  8> C -2.3482242083 -1.1265612006 -0.4906335519
|  9> C -0.2277517797 0.0055682627 -0.0228965705
| 10> C 0.5011802756 1.169041231 0.2605405381
| 11> C 1.8811384445 1.1566771621 0.2764734152
| 12> C 2.584660473 -0.0054328306 0.0098720327
| 13> C 1.8781211953 -1.1614320714 -0.2725403512
| 14> C 0.4974860104 -1.1638071413 -0.2874618321
| 15> H -3.3561013304 0.7958536171 0.7447035307
| 16> H -2.347915718 1.9968531332 -0.0756398706
| 17> H -1.8837351767 1.3774713441 1.524304973
| 18> H -1.91984512 -1.5268194833 -1.4109579295
| 19> H -3.3738761634 -0.8293026095 -0.7033445254
| 20> H -2.3672798365 -1.9243447702 0.2637850119
| 21> H -0.0117651016 2.0971421801 0.4554569412
| 22> H 2.4138121817 2.0714510561 0.4955166086
| 23> H 3.6639499581 -0.0097781075 0.022326067
| 24> H 2.4080434512 -2.080939893 -0.4781104962
| 25> H -0.0149442704 -2.089781897 -0.4934172452
| 26> *
| 27>
| 28>                          ****END OF INPUT****

CARTESIAN COORDINATES (ANGSTROEM)
---------------------------------
  C     -2.328960    1.106298    0.563237
  N     -1.601756    0.025642   -0.056176
  C     -2.348224   -1.126561   -0.490634
  C     -0.227752    0.005568   -0.022897
  C      0.501180    1.169041    0.260541
  C      1.881138    1.156677    0.276473
  C      2.584660   -0.005433    0.009872
  C      1.878121   -1.161432   -0.272540
  C      0.497486   -1.163807   -0.287462
  H     -3.356101    0.795854    0.744704
  H     -2.347916    1.996853   -0.075640
  H     -1.883735    1.377471    1.524305
  H     -1.919845   -1.526819   -1.410958
  H     -3.373876   -0.829303   -0.703345
  H     -2.367280   -1.924345    0.263785
  H     -0.011765    2.097142    0.455457
  H      2.413812    2.071451    0.495517
  H      3.663950   -0.009778    0.022326
  H      2.408043   -2.080940   -0.478110
  H     -0.014944   -2.089782   -0.493417

 Total Charge           Charge          ....    0
 Multiplicity           Mult            ....    1
 Number of Electrons    NEL             ....   66
 Basis Dimension        Dim             ....  148

ORBITAL ENERGIES
----------------

  NO   OCC          E(Eh)            E(eV)
   0   2.0000     -14.007370      -381.1599
   1   2.0000      -9.921965      -269.9904
   2   2.0000      -9.916663      -269.8461
   3   2.0000      -9.916563      -269.8434
   4   2.0000      -9.879162      -268.8257
   5   2.0000      -9.879147      -268.8252
   6   2.0000      -9.875145      -268.7163
   7   2.0000      -9.874982      -268.7119
   8   2.0000      -9.869816      -268.5713
   9   2.0000      -0.861641       -23.4464
  10   2.0000      -0.755287       -20.5524
  11   2.0000      -0.668157       -18.1815
  12   2.0000      -0.665588       -18.1116
  13   2.0000      -0.644730       -17.5440
  14   2.0000      -0.587379       -15.9834
  15   2.0000      -0.529512       -14.4087
  16   2.0000      -0.508299       -13.8315
  17   2.0000      -0.475998       -12.9526
  18   2.0000      -0.430775       -11.7220
  19   2.0000      -0.418823       -11.3968
  20   2.0000      -0.417970       -11.3735
  21   2.0000      -0.390323       -10.6212
  22   2.0000      -0.370912       -10.0930
  23   2.0000      -0.365921        -9.9572
  24   2.0000      -0.363152        -9.8819
  25   2.0000      -0.351559        -9.5664
  26   2.0000      -0.336819        -9.1653
  27   2.0000      -0.321036        -8.7358
  28   2.0000      -0.303581        -8.2609
  29   2.0000      -0.285236        -7.7617
  30   2.0000      -0.246171        -6.6987
  31   2.0000      -0.215937        -5.8759
  32   2.0000      -0.158353        -4.3090
  33   0.0000      -0.021088        -0.5738
  34   0.0000      -0.004430        -0.1205
  35   0.0000       0.035521         0.9666
  36   0.0000       0.059623         1.6224
  37   0.0000       0.069215         1.8834

MULLIKEN ATOMIC CHARGES
-----------------------
   0 C :   -0.173779
   1 N :   -0.252179
   2 C :   -0.174651
   3 C :    0.252080
   4 C :   -0.167448
   5 C :   -0.056584
   6 C :   -0.052790
   7 C :   -0.057098
   8 C :   -0.175151
   9 H :    0.111560
  10 H :    0.110342
  11 H :    0.115583
  12 H :    0.120182
  13 H :    0.112929
  14 H :    0.103656
  15 H :    0.027901
  16 H :    0.044171
  17 H :    0.039797
  18 H :    0.044140
  19 H :    0.027339
Sum of atomic charges:    0.0000000

LOEWDIN ATOMIC CHARGES
----------------------
   0 C :   -0.249236
   1 N :   -0.070199
   2 C :   -0.249728
   3 C :    0.005758
   4 C :   -0.168069
   5 C :   -0.118066
   6 C :   -0.161781
   7 C :   -0.117938
   8 C :   -0.170443
   9 H :    0.120695
  10 H :    0.111732
  11 H :    0.117780
  12 H :    0.120620
  13 H :    0.119935
  14 H :    0.107220
  15 H :    0.121584
  16 H :    0.120180
  17 H :    0.118332
  18 H :    0.120148
  19 H :    0.121475

  Mayer bond orders larger than 0.100000
B(  0-C ,  1-N ) :   1.0412 B(  0-C ,  9-H ) :   0.9489 B(  0-C , 10-H ) :   0.9444
B(  0-C , 11-H ) :   0.9389 B(  1-N ,  2-C ) :   1.0488 B(  1-N ,  3-C ) :   1.1530
B(  2-C , 12-H ) :   0.9404 B(  2-C , 13-H ) :   0.9490 B(  2-C , 14-H ) :   0.9404
B(  3-C ,  4-C ) :   1.3043 B(  3-C ,  8-C ) :   1.3037 B(  4-C ,  5-C ) :   1.3919
B(  4-C , 15-H ) :   0.9555 B(  5-C ,  6-C ) :   1.3622 B(  5-C , 16-H ) :   0.9606
B(  6-C ,  7-C ) :   1.3661 B(  6-C , 17-H ) :   0.9680 B(  7-C ,  8-C ) :   1.3887
B(  7-C , 18-H ) :   0.9603 B(  8-C , 19-H ) :   0.9564

Dispersion correction           -0.020399619
FINAL SINGLE POINT ENERGY      -365.379498449414

DIPOLE MOMENT
-------------

Method             : SCF
Type of density    : Electron Density
Multiplicity       :   1
Irrep              :   0
Energy             :  -365.4405050720177996 Eh
Relativity type    :
Basis              : AO
                                X                 Y                 Z
Electronic contribution:      5.492761993       0.101504152      -0.285141396
Nuclear contribution   :     -6.378617712      -0.114499285       0.323006391
                        -----------------------------------------
Total Dipole Moment    :     -0.885855719      -0.012995133       0.037864996
                        -----------------------------------------
Magnitude (a.u.)       :      0.886759825
Magnitude (Debye)      :      2.253964349

Rotational constants in cm-1:             0.118246             0.041086             0.031017
Rotational constants in MHz :          3544.922239          1231.716067           929.877023

                             ****ORCA TERMINATED NORMALLY****
TOTAL RUN TIME: 0 days 0 hours 0 minutes 8 seconds 848 msec
