                         Program Version 6.0.0  -   RELEASE  -
|  1> ! r2SCAN-3c DEF2-TZVP FREQ
|  2> * xyzfile 0 1 censo.xyz
|  3>
|  4>                          ****END OF INPUT****

CARTESIAN COORDINATES (ANGSTROEM)
---------------------------------
  C      0.605562   -0.000018   -0.000099
  O     -0.608081    0.000039    0.000032
  H      1.185143   -0.941997    0.000075
  H      1.185242    0.941900    0.000076

 Total Charge           Charge          ....    0
 Multiplicity           Mult            ....    1
 Number of Electrons    NEL             ....   16
 Basis Dimension        Dim             ....   74

ORBITAL ENERGIES
----------------

  NO   OCC          E(Eh)            E(eV)
   0   2.0000     -18.971366      -516.2371
   1   2.0000     -10.135010      -275.7876
   2   2.0000      -1.023378       -27.8475
   3   2.0000      -0.608084       -16.5468
   4   2.0000      -0.463918       -12.6239
   5   2.0000      -0.418096       -11.3770
   6   2.0000      -0.376110       -10.2345
   7   2.0000      -0.239201        -6.5090
   8   0.0000      -0.086260        -2.3473
   9   0.0000       0.065118         1.7719
  10   0.0000       0.122895         3.3441
  11   0.0000       0.132978         3.6185
  12   0.0000       0.229039         6.2325

MULLIKEN ATOMIC CHARGES
-----------------------
   0 C :    0.117228
   1 O :   -0.278320
   2 H :    0.080546
   3 H :    0.080546
Sum of atomic charges:    0.0000000

LOEWDIN ATOMIC CHARGES
----------------------
   0 C :   -0.261529
   1 O :    0.089143
   2 H :    0.086193
   3 H :    0.086193

  Mayer bond orders larger than 0.100000
B(  0-C ,  1-O ) :   2.0664 B(  0-C ,  2-H ) :   0.9203 B(  0-C ,  3-H ) :   0.9203

Dispersion correction           -0.000287898
FINAL SINGLE POINT ENERGY      -114.484586034405

DIPOLE MOMENT
-------------

Method             : SCF
Type of density    : Electron Density
Multiplicity       :   1
Irrep              :   0
Energy             :  -114.4864622883410163 Eh
Relativity type    :
Basis              : AO
                                X                 Y                 Z
Electronic contribution:     -1.299350129       0.000066416      -0.000198336
Nuclear contribution   :      2.218999530      -0.000109990       0.000176088
                        -----------------------------------------
Total Dipole Moment    :      0.919649401      -0.000043574      -0.000022248
                        -----------------------------------------
Magnitude (a.u.)       :      0.919649402
Magnitude (Debye)      :      2.337563010

VIBRATIONAL FREQUENCIES
-----------------------

Scaling factor for frequencies =  1.000000000  (already applied!)

     0:       0.00 cm**-1
     1:       0.00 cm**-1
     2:       0.00 cm**-1
     3:       0.00 cm**-1
     4:       0.00 cm**-1
     5:       0.00 cm**-1
     6:    1169.09 cm**-1
     7:    1249.74 cm**-1
     8:    1513.07 cm**-1
     9:    1737.61 cm**-1
    10:    2901.59 cm**-1
    11:    2965.90 cm**-1

IR SPECTRUM
-----------

 Mode   freq       eps      Int      T**2         TX        TY        TZ
       cm**-1   L/(mol*cm) km/mol    a.u.
----------------------------------------------------------------------------
  6:   1169.09   0.000918    4.64  0.000245  ( 0.000002 -0.000000  0.015654)
  7:   1249.74   0.001920    9.70  0.000479  (-0.000008 -0.021895 -0.000000)
  8:   1513.07   0.002615   13.21  0.000539  (-0.023222  0.000002 -0.000001)
  9:   1737.61   0.019798  100.05  0.003556  (-0.059629  0.000003 -0.000003)
 10:   2901.59   0.013413   67.78  0.001443  ( 0.037981 -0.000007 -0.000002)
 11:   2965.90   0.027915  141.07  0.002937  (-0.000009 -0.054196 -0.000000)

--------------------------
THERMOCHEMISTRY AT 298.15K
--------------------------

Temperature         ...   298.15 K
Pressure            ...     1.00 atm
Total Mass          ...    30.03 AMU
Quasi RRHO          ...     True
Cut-Off Frequency   ...     1.00 cm^-1

Throughout the following assumptions are being made:
  (1) The electronic state is orbitally nondegenerate
  (2) There are no thermally accessible electronically excited states
  (3) Hindered rotations indicated by low frequency modes are not
      treated as such but are treated as vibrations and this may
      cause some error
  (4) All equations used are the standard statistical mechanics
      equations for an ideal gas
  (5) All vibrations are strictly harmonic

freq.    1169.09  E(vib)   ...       0.01
freq.    1249.74  E(vib)   ...       0.01
freq.    1513.07  E(vib)   ...       0.00
freq.    1737.61  E(vib)   ...       0.00
freq.    2901.59  E(vib)   ...       0.00
freq.    2965.90  E(vib)   ...       0.00

------------
INNER ENERGY
------------

The inner energy is: U= E(el) + E(ZPE) + E(vib) + E(rot) + E(trans)
    E(el)   - is the total energy from the electronic structure calculation
              = E(kin-el) + E(nuc-el) + E(el-el) + E(nuc-nuc)
    E(ZPE)  - the the zero temperature vibrational energy from the frequency calculation
    E(vib)  - the the finite temperature correction to E(ZPE) due to population
              of excited vibrational states
    E(rot)  - is the rotational thermal energy
    E(trans)- is the translational thermal energy

Summary of contributions to the inner energy U:
Electronic energy                ...   -114.48458603 Eh
Zero point energy                ...      0.02628322 Eh      16.49 kcal/mol
Thermal vibrational correction   ...      0.00003917 Eh       0.02 kcal/mol
Thermal rotational correction    ...      0.00141627 Eh       0.89 kcal/mol
Thermal translational correction ...      0.00141627 Eh       0.89 kcal/mol
-----------------------------------------------------------------------
Total thermal energy                   -114.45543111 Eh

Summary of corrections to the electronic energy:
(perhaps to be used in another calculation)
Total thermal correction                  0.00287171 Eh       1.80 kcal/mol
Non-thermal (ZPE) correction              0.02628322 Eh      16.49 kcal/mol
-----------------------------------------------------------------------
Total correction                          0.02915493 Eh      18.29 kcal/mol

--------
ENTHALPY
--------

The enthalpy is H = U + kB*T
                kB is Boltzmann's constant
Total thermal energy              ...   -114.45543111 Eh
Thermal Enthalpy correction       ...      0.00094421 Eh       0.59 kcal/mol
-----------------------------------------------------------------------
Total Enthalpy                    ...   -114.45448690 Eh

Note: Rotational entropy computed according to Herzberg
Infrared and Raman Spectra, Chapter V,1, Van Nostrand Reinhold, 1945
Point Group:  Cs, Symmetry Number:   1
Rotational constants in cm-1:     9.424365     1.281753     1.128300

Vibrational entropy computed according to the QRRHO of S. Grimme
Chem.Eur.J. 2012 18 9955 using a reference frequency of 100.0 cm-1

-------
ENTROPY
-------

The entropy contributions are T*S = T*(S(el)+S(vib)+S(rot)+S(trans))
     S(el)   - electronic entropy
     S(vib)  - vibrational entropy
     S(rot)  - rotational entropy
     S(trans)- translational entropy
The entropies will be listed as multiplied by the temperature to get
units of energy

Electronic entropy                ...      0.00000000 Eh      0.00 kcal/mol
Vibrational entropy               ...      0.00004566 Eh      0.03 kcal/mol
Rotational entropy                ...      0.00827760 Eh      5.19 kcal/mol
Translational entropy             ...      0.01716732 Eh     10.77 kcal/mol
-----------------------------------------------------------------------
Final entropy term                ...      0.02549058 Eh     16.00 kcal/mol

In case the symmetry of your molecule has not been determined correctly
or in case you have a reason to use a different symmetry number we print
out the resulting rotational entropy values for sn=1,12:

 non-linear molecules -----------------------------------
|  sn= 1 | S(rot)=       0.00827760 Eh      5.19 kcal/mol|
|  sn= 2 | S(rot)=       0.00762314 Eh      4.78 kcal/mol|
|  sn= 3 | S(rot)=       0.00724031 Eh      4.54 kcal/mol|
|  sn= 4 | S(rot)=       0.00696868 Eh      4.37 kcal/mol|
|  sn= 5 | S(rot)=       0.00675800 Eh      4.24 kcal/mol|
|  sn= 6 | S(rot)=       0.00658585 Eh      4.13 kcal/mol|
|  sn= 7 | S(rot)=       0.00644031 Eh      4.04 kcal/mol|
|  sn= 8 | S(rot)=       0.00631423 Eh      3.96 kcal/mol|
|  sn= 9 | S(rot)=       0.00620302 Eh      3.89 kcal/mol|
|  sn=10 | S(rot)=       0.00610354 Eh      3.83 kcal/mol|
|  sn=11 | S(rot)=       0.00601355 Eh      3.77 kcal/mol|
|  sn=12 | S(rot)=       0.00593140 Eh      3.72 kcal/mol|
 linear molecules ---------------------------------------
|  Dinfh | S(rot)=       0.00521183 Eh      3.27 kcal/mol|
|  Cinfv | S(rot)=       0.00586629 Eh      3.68 kcal/mol|
 --------------------------------------------------------

-------------------
GIBBS FREE ENERGY
-------------------

The Gibbs free energy is G = H - T*S

Total enthalpy                    ...   -114.45448690 Eh
Total entropy correction          ...     -0.02549058 Eh    -16.00 kcal/mol
-----------------------------------------------------------------------
Final Gibbs free energy         ...   -114.47997748 Eh

For completeness - the Gibbs free energy minus the electronic energy
G-E(el)                           ...      0.00460856 Eh      2.89 kcal/mol

                             ****ORCA TERMINATED NORMALLY****
TOTAL RUN TIME: 0 days 0 hours 0 minutes 20 seconds 872 msec
