                         Program Version 6.0.0  -   RELEASE  -
|  1> ! r2SCAN-3c DEF2-TZVP FREQ
|  2> * xyzfile 0 1 vacuum_censo.xyz
|  3>
|  4>                          ****END OF INPUT****

CARTESIAN COORDINATES (ANGSTROEM)
---------------------------------
  C      0.601833   -0.000031    0.000094
  O     -0.601196    0.000051   -0.000031
  H      1.191555    0.942949   -0.000082
  H      1.191425   -0.943092   -0.000082

 Total Charge           Charge          ....    0
 Multiplicity           Mult            ....    1
 Number of Electrons    NEL             ....   16
 Basis Dimension        Dim             ....   74

ORBITAL ENERGIES
----------------

  NO   OCC          E(Eh)            E(eV)
   0   2.0000     -18.971343      -516.2365
   1   2.0000     -10.133962      -275.7591
   2   2.0000      -1.029138       -28.0043
   3   2.0000      -0.605464       -16.4755
   4   2.0000      -0.463263       -12.6060
   5   2.0000      -0.419947       -11.4274
   6   2.0000      -0.379498       -10.3267
   7   2.0000      -0.239030        -6.5043
   8   0.0000      -0.083295        -2.2666
   9   0.0000       0.063851         1.7375
  10   0.0000       0.123446         3.3591
  11   0.0000       0.132726         3.6117
  12   0.0000       0.229806         6.2533

MULLIKEN ATOMIC CHARGES
-----------------------
   0 C :    0.113776
   1 O :   -0.267205
   2 H :    0.076715
   3 H :    0.076715
Sum of atomic charges:    0.0000000

LOEWDIN ATOMIC CHARGES
----------------------
   0 C :   -0.272959
   1 O :    0.101347
   2 H :    0.085806
   3 H :    0.085806

  Mayer bond orders larger than 0.100000
B(  0-C ,  1-O ) :   2.0755 B(  0-C ,  2-H ) :   0.9180 B(  0-C ,  3-H ) :   0.9180

Dispersion correction           -0.000287983
FINAL SINGLE POINT ENERGY      -114.484884095746

DIPOLE MOMENT
-------------

Method             : SCF
Type of density    : Electron Density
Multiplicity       :   1
Irrep              :   0
Energy             :  -114.4867564070070216 Eh
Relativity type    :
Basis              : AO
                                X                 Y                 Z
Electronic contribution:     -1.328872545       0.000091412       0.000203652
Nuclear contribution   :      2.226001107      -0.000152561      -0.000184128
                        -----------------------------------------
Total Dipole Moment    :      0.897128562      -0.000061150       0.000019524
                        -----------------------------------------
Magnitude (a.u.)       :      0.897128564
Magnitude (Debye)      :      2.280319590

VIBRATIONAL FREQUENCIES
-----------------------

Scaling factor for frequencies =  1.000000000  (already applied!)

     0:       0.00 cm**-1
     1:       0.00 cm**-1
     2:       0.00 cm**-1
     3:       0.00 cm**-1
     4:       0.00 cm**-1
     5:       0.00 cm**-1
     6:    1184.44 cm**-1
     7:    1261.55 cm**-1
     8:    1527.64 cm**-1
     9:    1795.86 cm**-1
    10:    2850.63 cm**-1
    11:    2902.10 cm**-1

IR SPECTRUM
-----------

 Mode   freq       eps      Int      T**2         TX        TY        TZ
       cm**-1   L/(mol*cm) km/mol    a.u.
----------------------------------------------------------------------------
  6:   1184.44   0.000781    3.95  0.000206  ( 0.000001 -0.000000 -0.014344)
  7:   1261.55   0.002109   10.66  0.000522  ( 0.000011  0.022841  0.000000)
  8:   1527.64   0.001999   10.10  0.000408  (-0.020209  0.000002  0.000000)
  9:   1795.86   0.021787  110.10  0.003786  (-0.061530  0.000004  0.000003)
 10:   2850.63   0.014738   74.48  0.001613  ( 0.040167 -0.000014  0.000002)
 11:   2902.10   0.031592  159.65  0.003397  (-0.000016 -0.058285 -0.000000)

--------------------------
THERMOCHEMISTRY AT 298.15K
--------------------------

Temperature         ...   298.15 K
Pressure            ...     1.00 atm
Total Mass          ...    30.03 AMU
Quasi RRHO          ...     True
Cut-Off Frequency   ...     1.00 cm^-1

Throughout the following assumptions are being made:
  (1) The electronic state is orbitally nondegenerate
  (2) There are no thermally accessible electronically excited states
  (3) Hindered rotations indicated by low frequency modes are not
      treated as such but are treated as vibrations and this may
      cause some error
  (4) All equations used are the standard statistical mechanics
      equations for an ideal gas
  (5) All vibrations are strictly harmonic

freq.    1184.44  E(vib)   ...       0.01
freq.    1261.55  E(vib)   ...       0.01
freq.    1527.64  E(vib)   ...       0.00
freq.    1795.86  E(vib)   ...       0.00
freq.    2850.63  E(vib)   ...       0.00
freq.    2902.10  E(vib)   ...       0.00

------------
INNER ENERGY
------------

The inner energy is: U= E(el) + E(ZPE) + E(vib) + E(rot) + E(trans)
    E(el)   - is the total energy from the electronic structure calculation
              = E(kin-el) + E(nuc-el) + E(el-el) + E(nuc-nuc)
    E(ZPE)  - the the zero temperature vibrational energy from the frequency calculation
    E(vib)  - the the finite temperature correction to E(ZPE) due to population
              of excited vibrational states
    E(rot)  - is the rotational thermal energy
    E(trans)- is the translational thermal energy

Summary of contributions to the inner energy U:
Electronic energy                ...   -114.48488410 Eh
Zero point energy                ...      0.02624956 Eh      16.47 kcal/mol
Thermal vibrational correction   ...      0.00003673 Eh       0.02 kcal/mol
Thermal rotational correction    ...      0.00141627 Eh       0.89 kcal/mol
Thermal translational correction ...      0.00141627 Eh       0.89 kcal/mol
-----------------------------------------------------------------------
Total thermal energy                   -114.45576526 Eh

Summary of corrections to the electronic energy:
(perhaps to be used in another calculation)
Total thermal correction                  0.00286928 Eh       1.80 kcal/mol
Non-thermal (ZPE) correction              0.02624956 Eh      16.47 kcal/mol
-----------------------------------------------------------------------
Total correction                          0.02911884 Eh      18.27 kcal/mol

--------
ENTHALPY
--------

The enthalpy is H = U + kB*T
                kB is Boltzmann's constant
Total thermal energy              ...   -114.45576526 Eh
Thermal Enthalpy correction       ...      0.00094421 Eh       0.59 kcal/mol
-----------------------------------------------------------------------
Total Enthalpy                    ...   -114.45482105 Eh

Note: Rotational entropy computed according to Herzberg
Infrared and Raman Spectra, Chapter V,1, Van Nostrand Reinhold, 1945
Point Group:  Cs, Symmetry Number:   1
Rotational constants in cm-1:     9.402952     1.297236     1.139965

Vibrational entropy computed according to the QRRHO of S. Grimme
Chem.Eur.J. 2012 18 9955 using a reference frequency of 100.0 cm-1

-------
ENTROPY
-------

The entropy contributions are T*S = T*(S(el)+S(vib)+S(rot)+S(trans))
     S(el)   - electronic entropy
     S(vib)  - vibrational entropy
     S(rot)  - rotational entropy
     S(trans)- translational entropy
The entropies will be listed as multiplied by the temperature to get
units of energy

Electronic entropy                ...      0.00000000 Eh      0.00 kcal/mol
Vibrational entropy               ...      0.00004277 Eh      0.03 kcal/mol
Rotational entropy                ...      0.00826815 Eh      5.19 kcal/mol
Translational entropy             ...      0.01716732 Eh     10.77 kcal/mol
-----------------------------------------------------------------------
Final entropy term                ...      0.02547823 Eh     15.99 kcal/mol

In case the symmetry of your molecule has not been determined correctly
or in case you have a reason to use a different symmetry number we print
out the resulting rotational entropy values for sn=1,12:

 non-linear molecules -----------------------------------
|  sn= 1 | S(rot)=       0.00826815 Eh      5.19 kcal/mol|
|  sn= 2 | S(rot)=       0.00761369 Eh      4.78 kcal/mol|
|  sn= 3 | S(rot)=       0.00723086 Eh      4.54 kcal/mol|
|  sn= 4 | S(rot)=       0.00695923 Eh      4.37 kcal/mol|
|  sn= 5 | S(rot)=       0.00674855 Eh      4.23 kcal/mol|
|  sn= 6 | S(rot)=       0.00657640 Eh      4.13 kcal/mol|
|  sn= 7 | S(rot)=       0.00643086 Eh      4.04 kcal/mol|
|  sn= 8 | S(rot)=       0.00630478 Eh      3.96 kcal/mol|
|  sn= 9 | S(rot)=       0.00619357 Eh      3.89 kcal/mol|
|  sn=10 | S(rot)=       0.00609409 Eh      3.82 kcal/mol|
|  sn=11 | S(rot)=       0.00600410 Eh      3.77 kcal/mol|
|  sn=12 | S(rot)=       0.00592195 Eh      3.72 kcal/mol|
 linear molecules ---------------------------------------
|  Dinfh | S(rot)=       0.00520212 Eh      3.26 kcal/mol|
|  Cinfv | S(rot)=       0.00585658 Eh      3.68 kcal/mol|
 --------------------------------------------------------

-------------------
GIBBS FREE ENERGY
-------------------

The Gibbs free energy is G = H - T*S

Total enthalpy                    ...   -114.45482105 Eh
Total entropy correction          ...     -0.02547823 Eh    -15.99 kcal/mol
-----------------------------------------------------------------------
Final Gibbs free energy         ...   -114.48029928 Eh

For completeness - the Gibbs free energy minus the electronic energy
G-E(el)                           ...      0.00458482 Eh      2.88 kcal/mol

                             ****ORCA TERMINATED NORMALLY****
TOTAL RUN TIME: 0 days 0 hours 0 minutes 20 seconds 342 msec
