                         Program Version 6.0.1  -  RELEASE   -
|  1> ! pbe def2-sv(p) def2/J RI DEFGRID1 loosescf d4 GCP(DFT/SV(P)) printgap
|  2> %output
|  3>     printlevel normal
|  4> end
|  5> * xyz 0 1
|  6> C -1.9829019921 -0.6150246737 -0.7354644359
|  7> C -1.2166068725 -0.102444581 0.5103274874
|  8> H -1.9216161199 -0.0907570808 1.3533991182
|  9> C -0.656723991 1.3155758911 0.3096560014
| 10> H -1.4096946609 1.9103031041 -0.237762336
| 11> C 0.6591785655 1.3149152093 -0.4994883663
| 12> H 1.1131131072 2.309306991 -0.3820969221
| 13> C 1.6504956902 0.2854620634 0.0777785656
| 14> H 2.4915320062 0.1807344044 -0.6170342646
| 15> C 0.9659462138 -1.0908502149 0.2035499718
| 16> H 1.597453767 -1.7573036592 0.8038895007
| 17> O -0.2240546653 -1.0100265128 0.9537058746
| 18> O 0.7836259603 -1.7001876919 -1.0343328468
| 19> O 2.1852211038 0.7168024631 1.2920359292
| 20> O 0.4482010574 1.0131083941 -1.8617970675
| 21> O -0.3539041672 1.9333823928 1.5418780532
| 22> O -2.2196276371 -1.987980334 -0.6629633155
| 23> H -1.4363209611 -0.3606739763 -1.6537571935
| 24> H -2.9617490735 -0.1289034374 -0.7709386935
| 25> H 0.6124446445 -1.0204656701 -1.703013389
| 26> H 1.4538585802 0.9931812788 1.8649183756
| 27> H 0.0209237717 1.7591105313 -2.2965373298
| 28> H -1.1107121222 1.8573798649 2.1346343232
| 29> H -1.363489695 -2.4234061699 -0.5307538307
| 30> *
| 31>
| 32>                          ****END OF INPUT****

CARTESIAN COORDINATES (ANGSTROEM)
---------------------------------
  C     -1.982902   -0.615025   -0.735464
  C     -1.216607   -0.102445    0.510327
  H     -1.921616   -0.090757    1.353399
  C     -0.656724    1.315576    0.309656
  H     -1.409695    1.910303   -0.237762
  C      0.659179    1.314915   -0.499488
  H      1.113113    2.309307   -0.382097
  C      1.650496    0.285462    0.077779
  H      2.491532    0.180734   -0.617034
  C      0.965946   -1.090850    0.203550
  H      1.597454   -1.757304    0.803890
  O     -0.224055   -1.010027    0.953706
  O      0.783626   -1.700188   -1.034333
  O      2.185221    0.716802    1.292036
  O      0.448201    1.013108   -1.861797
  O     -0.353904    1.933382    1.541878
  O     -2.219628   -1.987980   -0.662963
  H     -1.436321   -0.360674   -1.653757
  H     -2.961749   -0.128903   -0.770939
  H      0.612445   -1.020466   -1.703013
  H      1.453859    0.993181    1.864918
  H      0.020924    1.759111   -2.296537
  H     -1.110712    1.857380    2.134634
  H     -1.363490   -2.423406   -0.530754

 Total Charge           Charge          ....    0
 Multiplicity           Mult            ....    1
 Number of Electrons    NEL             ....   96
 Basis Dimension        Dim             ....  192

ORBITAL ENERGIES
----------------

  NO   OCC          E(Eh)            E(eV)
   0   2.0000     -18.793802      -511.4054
   1   2.0000     -18.784550      -511.1536
   2   2.0000     -18.769149      -510.7345
   3   2.0000     -18.762816      -510.5622
   4   2.0000     -18.745852      -510.1006
   5   2.0000     -18.732024      -509.7243
   6   2.0000      -9.981905      -271.6215
   7   2.0000      -9.966227      -271.1948
   8   2.0000      -9.964807      -271.1562
   9   2.0000      -9.952859      -270.8311
  10   2.0000      -9.947053      -270.6731
  11   2.0000      -9.931216      -270.2421
  12   2.0000      -0.989201       -26.9175
  13   2.0000      -0.965421       -26.2704
  14   2.0000      -0.958761       -26.0892
  15   2.0000      -0.926965       -25.2240
  16   2.0000      -0.920198       -25.0399
  17   2.0000      -0.907320       -24.6894
  18   2.0000      -0.717667       -19.5287
  19   2.0000      -0.692770       -18.8512
  20   2.0000      -0.623311       -16.9612
  21   2.0000      -0.605601       -16.4792
  22   2.0000      -0.572701       -15.5840
  23   2.0000      -0.533607       -14.5202
  24   2.0000      -0.517739       -14.0884
  25   2.0000      -0.498100       -13.5540
  26   2.0000      -0.480583       -13.0773
  27   2.0000      -0.463015       -12.5993
  28   2.0000      -0.451001       -12.2724
  29   2.0000      -0.438039       -11.9197
  30   2.0000      -0.428882       -11.6705
  31   2.0000      -0.410640       -11.1741
  32   2.0000      -0.393280       -10.7017
  33   2.0000      -0.383116       -10.4251
  34   2.0000      -0.376755       -10.2520
  35   2.0000      -0.352142        -9.5823
  36   2.0000      -0.346895        -9.4395
  37   2.0000      -0.334888        -9.1128
  38   2.0000      -0.308247        -8.3878
  39   2.0000      -0.295338        -8.0366
  40   2.0000      -0.287196        -7.8150
  41   2.0000      -0.274016        -7.4564
  42   2.0000      -0.270143        -7.3510
  43   2.0000      -0.249903        -6.8002
  44   2.0000      -0.248093        -6.7510
  45   2.0000      -0.233434        -6.3521
  46   2.0000      -0.211358        -5.7513
  47   2.0000      -0.202692        -5.5155
  48   0.0000      -0.009024        -0.2456
  49   0.0000       0.001711         0.0466
  50   0.0000       0.053073         1.4442
  51   0.0000       0.058990         1.6052
  52   0.0000       0.061972         1.6863

MULLIKEN ATOMIC CHARGES
-----------------------
   0 C :    0.019576
   1 C :    0.023085
   2 H :    0.063573
   3 C :    0.048398
   4 H :    0.059516
   5 C :    0.006905
   6 H :    0.092499
   7 C :    0.033741
   8 H :    0.090277
   9 C :    0.193732
  10 H :    0.079190
  11 O :   -0.309509
  12 O :   -0.411754
  13 O :   -0.417875
  14 O :   -0.410859
  15 O :   -0.417333
  16 O :   -0.435841
  17 H :    0.060694
  18 H :    0.077718
  19 H :    0.322675
  20 H :    0.300807
  21 H :    0.317134
  22 H :    0.311514
  23 H :    0.302135
Sum of atomic charges:   -0.0000000

LOEWDIN ATOMIC CHARGES
----------------------
   0 C :   -0.151991
   1 C :   -0.079984
   2 H :    0.112565
   3 C :   -0.078128
   4 H :    0.099794
   5 C :   -0.071763
   6 H :    0.114894
   7 C :   -0.082359
   8 H :    0.122967
   9 C :   -0.009830
  10 H :    0.113369
  11 O :   -0.141558
  12 O :   -0.303851
  13 O :   -0.309390
  14 O :   -0.305899
  15 O :   -0.306686
  16 O :   -0.332938
  17 H :    0.086996
  18 H :    0.112503
  19 H :    0.278692
  20 H :    0.272177
  21 H :    0.296595
  22 H :    0.291481
  23 H :    0.272342

  Mayer bond orders larger than 0.100000
B(  0-C ,  1-C ) :   1.0226 B(  0-C , 16-O ) :   1.1001 B(  0-C , 17-H ) :   0.8968
B(  0-C , 18-H ) :   0.9108 B(  1-C ,  2-H ) :   0.8926 B(  1-C ,  3-C ) :   0.9751
B(  1-C , 11-O ) :   1.0426 B(  3-C ,  4-H ) :   0.8940 B(  3-C ,  5-C ) :   0.9725
B(  3-C , 15-O ) :   1.0123 B(  5-C ,  6-H ) :   0.9030 B(  5-C ,  7-C ) :   0.9921
B(  5-C , 14-O ) :   1.0367 B(  7-C ,  8-H ) :   0.8938 B(  7-C ,  9-C ) :   0.9901
B(  7-C , 13-O ) :   1.0759 B(  9-C , 10-H ) :   0.9062 B(  9-C , 11-O ) :   1.0250
B(  9-C , 12-O ) :   1.0987 B( 12-O , 19-H ) :   0.8025 B( 13-O , 20-H ) :   0.8128
B( 14-O , 21-H ) :   0.8343 B( 15-O , 22-H ) :   0.8393 B( 16-O , 23-H ) :   0.8218

Dispersion correction           -0.026466672
FINAL SINGLE POINT ENERGY      -685.698293837500

DIPOLE MOMENT
-------------

Method             : SCF
Type of density    : Electron Density
Multiplicity       :   1
Irrep              :   0
Energy             :  -685.8330842515214272 Eh
Relativity type    :
Basis              : AO
                                X                 Y                 Z
Electronic contribution:      2.101971548      -1.410095953       1.646536948
Nuclear contribution   :     -2.724891595       3.013556488      -1.905840071
                        -----------------------------------------
Total Dipole Moment    :     -0.622920048       1.603460535      -0.259303123
                        -----------------------------------------
Magnitude (a.u.)       :      1.739641682
Magnitude (Debye)      :      4.421817748

Rotational constants in cm-1:             0.042471             0.028913             0.025719
Rotational constants in MHz :          1273.240456           866.782637           771.042695

                             ****ORCA TERMINATED NORMALLY****
TOTAL RUN TIME: 0 days 0 hours 1 minutes 17 seconds 383 msec
