                         Program Version 6.0.0  -   RELEASE  -
|  1> ! r2SCAN-3c DEF2-TZVP FREQ
|  2> * xyzfile 0 1 censo.xyz
|  3>
|  4>                          ****END OF INPUT****

CARTESIAN COORDINATES (ANGSTROEM)
---------------------------------
  C     -2.403751    0.036374   -0.000039
  C     -0.905092    0.011297    0.000078
  C     -0.181463    1.209247    0.000023
  C      1.204201    1.170668   -0.000192
  C      1.839529   -0.068756   -0.000286
  C      1.048352   -1.207034   -0.000108
  N     -0.295045   -1.186527    0.000026
  H     -2.780290    0.565312   -0.882246
  H     -2.811999   -0.975393    0.003527
  H     -2.780554    0.571868    0.878052
  H     -0.711824    2.156657    0.000113
  H      1.781340    2.090123   -0.000309
  H      2.920868   -0.151364   -0.000419
  H      1.510377   -2.192204   -0.000235

 Total Charge           Charge          ....    0
 Multiplicity           Mult            ....    1
 Number of Electrons    NEL             ....   50
 Basis Dimension        Dim             ....  259

ORBITAL ENERGIES
----------------

  NO   OCC          E(Eh)            E(eV)
   0   2.0000     -14.153728      -385.1425
   1   2.0000     -10.079271      -274.2709
   2   2.0000     -10.065917      -273.9075
   3   2.0000     -10.053467      -273.5687
   4   2.0000     -10.042477      -273.2697
   5   2.0000     -10.041324      -273.2383
   6   2.0000     -10.027833      -272.8712
   7   2.0000      -0.904928       -24.6244
   8   2.0000      -0.769936       -20.9510
   9   2.0000      -0.750106       -20.4114
  10   2.0000      -0.669097       -18.2070
  11   2.0000      -0.598102       -16.2752
  12   2.0000      -0.571440       -15.5497
  13   2.0000      -0.483054       -13.1446
  14   2.0000      -0.455619       -12.3980
  15   2.0000      -0.429937       -11.6992
  16   2.0000      -0.403185       -10.9712
  17   2.0000      -0.388209       -10.5637
  18   2.0000      -0.375854       -10.2275
  19   2.0000      -0.351982        -9.5779
  20   2.0000      -0.348039        -9.4706
  21   2.0000      -0.329308        -8.9609
  22   2.0000      -0.268833        -7.3153
  23   2.0000      -0.238109        -6.4793
  24   2.0000      -0.224122        -6.0987
  25   0.0000      -0.054161        -1.4738
  26   0.0000      -0.040857        -1.1118
  27   0.0000       0.056022         1.5244
  28   0.0000       0.072671         1.9775
  29   0.0000       0.094388         2.5684

MULLIKEN ATOMIC CHARGES
-----------------------
   0 C :   -0.345568
   1 C :    0.198849
   2 C :   -0.176566
   3 C :   -0.093448
   4 C :   -0.101190
   5 C :   -0.018335
   6 N :   -0.271619
   7 H :    0.115719
   8 H :    0.129963
   9 H :    0.115669
  10 H :    0.107502
  11 H :    0.116401
  12 H :    0.113548
  13 H :    0.109074
Sum of atomic charges:   -0.0000000

LOEWDIN ATOMIC CHARGES
----------------------
   0 C :   -0.256566
   1 C :   -0.240589
   2 C :   -0.125451
   3 C :   -0.123326
   4 C :   -0.158123
   5 C :   -0.201048
   6 N :    0.140682
   7 H :    0.131259
   8 H :    0.130819
   9 H :    0.131191
  10 H :    0.146575
  11 H :    0.145112
  12 H :    0.143894
  13 H :    0.135571

  Mayer bond orders larger than 0.100000
B(  0-C ,  1-C ) :   0.9274 B(  0-C ,  7-H ) :   0.9634 B(  0-C ,  8-H ) :   0.9855
B(  0-C ,  9-H ) :   0.9637 B(  1-C ,  2-C ) :   1.3430 B(  1-C ,  6-N ) :   1.4423
B(  2-C ,  3-C ) :   1.4396 B(  2-C , 10-H ) :   0.9698 B(  3-C ,  4-C ) :   1.3835
B(  3-C , 11-H ) :   0.9668 B(  4-C ,  5-C ) :   1.3958 B(  4-C , 12-H ) :   0.9633
B(  5-C ,  6-N ) :   1.4500 B(  5-C , 13-H ) :   0.9842

Dispersion correction           -0.004050785
FINAL SINGLE POINT ENERGY      -287.542718292574

DIPOLE MOMENT
-------------

Method             : SCF
Type of density    : Electron Density
Multiplicity       :   1
Irrep              :   0
Energy             :  -287.5445525292959132 Eh
Relativity type    :
Basis              : AO
                                X                 Y                 Z
Electronic contribution:      2.953192989      -1.261879104       0.000605148
Nuclear contribution   :     -2.710272301       1.980481411      -0.000896330
                        -----------------------------------------
Total Dipole Moment    :      0.242920688       0.718602306      -0.000291181
                        -----------------------------------------
Magnitude (a.u.)       :      0.758551132
Magnitude (Debye)      :      1.928083751

VIBRATIONAL FREQUENCIES
-----------------------

Scaling factor for frequencies =  1.000000000  (already applied!)

     0:       0.00 cm**-1
     1:       0.00 cm**-1
     2:       0.00 cm**-1
     3:       0.00 cm**-1
     4:       0.00 cm**-1
     5:       0.00 cm**-1
     6:     -27.64 cm**-1 ***imaginary mode***
     7:     196.00 cm**-1
     8:     359.04 cm**-1
     9:     411.75 cm**-1
    10:     474.79 cm**-1
    11:     556.73 cm**-1
    12:     641.84 cm**-1
    13:     753.15 cm**-1
    14:     759.27 cm**-1
    15:     821.59 cm**-1
    16:     890.28 cm**-1
    17:     966.19 cm**-1
    18:     984.74 cm**-1
    19:     995.35 cm**-1
    20:    1010.61 cm**-1
    21:    1054.60 cm**-1
    22:    1069.27 cm**-1
    23:    1123.19 cm**-1
    24:    1173.81 cm**-1
    25:    1257.09 cm**-1
    26:    1283.09 cm**-1
    27:    1316.75 cm**-1
    28:    1397.08 cm**-1
    29:    1447.99 cm**-1
    30:    1472.93 cm**-1
    31:    1477.90 cm**-1
    32:    1503.58 cm**-1
    33:    1598.06 cm**-1
    34:    1622.95 cm**-1
    35:    3013.47 cm**-1
    36:    3074.24 cm**-1
    37:    3125.12 cm**-1
    38:    3137.06 cm**-1
    39:    3156.12 cm**-1
    40:    3170.62 cm**-1
    41:    3184.73 cm**-1

IR SPECTRUM
-----------

 Mode   freq       eps      Int      T**2         TX        TY        TZ
       cm**-1   L/(mol*cm) km/mol    a.u.
----------------------------------------------------------------------------
  7:    196.00   0.000550    2.78  0.000875  (-0.000033 -0.000071  0.029579)
  8:    359.04   0.000690    3.48  0.000599  ( 0.008731 -0.022872 -0.000016)
  9:    411.75   0.000920    4.65  0.000697  (-0.000006  0.000066  0.026402)
 10:    474.79   0.000961    4.86  0.000632  ( 0.000000  0.000056 -0.025138)
 11:    556.73   0.000292    1.48  0.000164  ( 0.012276  0.003639  0.000033)
 12:    641.84   0.000361    1.82  0.000175  ( 0.005566  0.012020 -0.000006)
 13:    753.15   0.008267   41.78  0.003425  (-0.000017 -0.000012  0.058526)
 14:    759.27   0.001265    6.39  0.000520  ( 0.000019 -0.000052 -0.022799)
 15:    821.59   0.000162    0.82  0.000062  ( 0.007742  0.001317  0.000050)
 16:    890.28   0.000005    0.03  0.000002  (-0.000002 -0.000021  0.001320)
 17:    966.19   0.000004    0.02  0.000001  (-0.000007  0.000021 -0.001066)
 18:    984.74   0.001448    7.32  0.000459  ( 0.020490  0.006242  0.000015)
 19:    995.35   0.000005    0.02  0.000001  ( 0.000002  0.000024 -0.001203)
 20:   1010.61   0.000721    3.64  0.000223  ( 0.000803  0.014898 -0.000034)
 21:   1054.60   0.000830    4.19  0.000245  ( 0.000137 -0.000004  0.015666)
 22:   1069.27   0.001134    5.73  0.000331  ( 0.008975  0.015825 -0.000014)
 23:   1123.19   0.000207    1.05  0.000058  ( 0.001449 -0.007452  0.000005)
 24:   1173.81   0.000716    3.62  0.000190  ( 0.010133 -0.009365 -0.000000)
 25:   1257.09   0.000895    4.52  0.000222  ( 0.014906  0.000241  0.000027)
 26:   1283.09   0.000976    4.93  0.000237  (-0.015360 -0.001178 -0.000008)
 27:   1316.75   0.000339    1.71  0.000080  ( 0.006119  0.006550 -0.000002)
 28:   1397.08   0.000769    3.89  0.000172  ( 0.012781 -0.002921  0.000023)
 29:   1447.99   0.001417    7.16  0.000305  (-0.017475 -0.000315 -0.000010)
 30:   1472.93   0.007734   39.08  0.001638  ( 0.030061 -0.027107  0.000243)
 31:   1477.90   0.001573    7.95  0.000332  ( 0.000445 -0.000334 -0.018218)
 32:   1503.58   0.004662   23.56  0.000968  (-0.031082 -0.001196 -0.000005)
 33:   1598.06   0.003690   18.65  0.000721  (-0.017059  0.020728  0.000002)
 34:   1622.95   0.009500   48.01  0.001827  ( 0.039147  0.017149 -0.000002)
 35:   3013.47   0.003177   16.05  0.000329  ( 0.017448 -0.004951  0.000051)
 36:   3074.24   0.002435   12.31  0.000247  (-0.000061  0.000055  0.015722)
 37:   3125.12   0.001562    7.89  0.000156  (-0.005857 -0.011031  0.000010)
 38:   3137.06   0.004103   20.74  0.000408  (-0.011753  0.016433 -0.000001)
 39:   3156.12   0.000644    3.25  0.000064  (-0.007920 -0.000951  0.000002)
 40:   3170.62   0.004096   20.70  0.000403  ( 0.008622 -0.018132 -0.000002)
 41:   3184.73   0.002909   14.70  0.000285  ( 0.016485  0.003647 -0.000002)

--------------------------
THERMOCHEMISTRY AT 298.15K
--------------------------

Temperature         ...   298.15 K
Pressure            ...     1.00 atm
Total Mass          ...    93.13 AMU
Quasi RRHO          ...     True
Cut-Off Frequency   ...     1.00 cm^-1

Throughout the following assumptions are being made:
  (1) The electronic state is orbitally nondegenerate
  (2) There are no thermally accessible electronically excited states
  (3) Hindered rotations indicated by low frequency modes are not
      treated as such but are treated as vibrations and this may
      cause some error
  (4) All equations used are the standard statistical mechanics
      equations for an ideal gas
  (5) All vibrations are strictly harmonic

freq.     196.00  E(vib)   ...       0.36
freq.     359.04  E(vib)   ...       0.22
freq.     411.75  E(vib)   ...       0.19
freq.     474.79  E(vib)   ...       0.15
freq.     556.73  E(vib)   ...       0.12
freq.     641.84  E(vib)   ...       0.09
freq.     753.15  E(vib)   ...       0.06
freq.     759.27  E(vib)   ...       0.06
freq.     821.59  E(vib)   ...       0.05
freq.     890.28  E(vib)   ...       0.04
freq.     966.19  E(vib)   ...       0.03
freq.     984.74  E(vib)   ...       0.02
freq.     995.35  E(vib)   ...       0.02
freq.    1010.61  E(vib)   ...       0.02
freq.    1054.60  E(vib)   ...       0.02
freq.    1069.27  E(vib)   ...       0.02
freq.    1123.19  E(vib)   ...       0.01
freq.    1173.81  E(vib)   ...       0.01
freq.    1257.09  E(vib)   ...       0.01
freq.    1283.09  E(vib)   ...       0.01
freq.    1316.75  E(vib)   ...       0.01
freq.    1397.08  E(vib)   ...       0.00
freq.    1447.99  E(vib)   ...       0.00
freq.    1472.93  E(vib)   ...       0.00
freq.    1477.90  E(vib)   ...       0.00
freq.    1503.58  E(vib)   ...       0.00
freq.    1598.06  E(vib)   ...       0.00
freq.    1622.95  E(vib)   ...       0.00
freq.    3013.47  E(vib)   ...       0.00
freq.    3074.24  E(vib)   ...       0.00
freq.    3125.12  E(vib)   ...       0.00
freq.    3137.06  E(vib)   ...       0.00
freq.    3156.12  E(vib)   ...       0.00
freq.    3170.62  E(vib)   ...       0.00
freq.    3184.73  E(vib)   ...       0.00

------------
INNER ENERGY
------------

The inner energy is: U= E(el) + E(ZPE) + E(vib) + E(rot) + E(trans)
    E(el)   - is the total energy from the electronic structure calculation
              = E(kin-el) + E(nuc-el) + E(el-el) + E(nuc-nuc)
    E(ZPE)  - the the zero temperature vibrational energy from the frequency calculation
    E(vib)  - the the finite temperature correction to E(ZPE) due to population
              of excited vibrational states
    E(rot)  - is the rotational thermal energy
    E(trans)- is the translational thermal energy

Summary of contributions to the inner energy U:
Electronic energy                ...   -287.54271829 Eh
Zero point energy                ...      0.11500414 Eh      72.17 kcal/mol
Thermal vibrational correction   ...      0.00242088 Eh       1.52 kcal/mol
Thermal rotational correction    ...      0.00141627 Eh       0.89 kcal/mol
Thermal translational correction ...      0.00141627 Eh       0.89 kcal/mol
-----------------------------------------------------------------------
Total thermal energy                   -287.42246073 Eh

Summary of corrections to the electronic energy:
(perhaps to be used in another calculation)
Total thermal correction                  0.00525342 Eh       3.30 kcal/mol
Non-thermal (ZPE) correction              0.11500414 Eh      72.17 kcal/mol
-----------------------------------------------------------------------
Total correction                          0.12025756 Eh      75.46 kcal/mol

--------
ENTHALPY
--------

The enthalpy is H = U + kB*T
                kB is Boltzmann's constant
Total thermal energy              ...   -287.42246073 Eh
Thermal Enthalpy correction       ...      0.00094421 Eh       0.59 kcal/mol
-----------------------------------------------------------------------
Total Enthalpy                    ...   -287.42151652 Eh

Note: Only C1 symmetry has been detected, increase convergence thresholds
      if your molecule has a higher symmetry. Symmetry factor of 1.0 is
      used for the rotational entropy correction.

Note: Rotational entropy computed according to Herzberg
Infrared and Raman Spectra, Chapter V,1, Van Nostrand Reinhold, 1945
Point Group:  C1, Symmetry Number:   1
Rotational constants in cm-1:     0.190613     0.087871     0.060823

Vibrational entropy computed according to the QRRHO of S. Grimme
Chem.Eur.J. 2012 18 9955 using a reference frequency of 100.0 cm-1

-------
ENTROPY
-------

The entropy contributions are T*S = T*(S(el)+S(vib)+S(rot)+S(trans))
     S(el)   - electronic entropy
     S(vib)  - vibrational entropy
     S(rot)  - rotational entropy
     S(trans)- translational entropy
The entropies will be listed as multiplied by the temperature to get
units of energy

Electronic entropy                ...      0.00000000 Eh      0.00 kcal/mol
Vibrational entropy               ...      0.00356548 Eh      2.24 kcal/mol
Rotational entropy                ...      0.01276313 Eh      8.01 kcal/mol
Translational entropy             ...      0.01877043 Eh     11.78 kcal/mol
-----------------------------------------------------------------------
Final entropy term                ...      0.03509903 Eh     22.02 kcal/mol

In case the symmetry of your molecule has not been determined correctly
or in case you have a reason to use a different symmetry number we print
out the resulting rotational entropy values for sn=1,12:

 non-linear molecules -----------------------------------
|  sn= 1 | S(rot)=       0.01276313 Eh      8.01 kcal/mol|
|  sn= 2 | S(rot)=       0.01210867 Eh      7.60 kcal/mol|
|  sn= 3 | S(rot)=       0.01172584 Eh      7.36 kcal/mol|
|  sn= 4 | S(rot)=       0.01145422 Eh      7.19 kcal/mol|
|  sn= 5 | S(rot)=       0.01124353 Eh      7.06 kcal/mol|
|  sn= 6 | S(rot)=       0.01107139 Eh      6.95 kcal/mol|
|  sn= 7 | S(rot)=       0.01092584 Eh      6.86 kcal/mol|
|  sn= 8 | S(rot)=       0.01079976 Eh      6.78 kcal/mol|
|  sn= 9 | S(rot)=       0.01068855 Eh      6.71 kcal/mol|
|  sn=10 | S(rot)=       0.01058907 Eh      6.64 kcal/mol|
|  sn=11 | S(rot)=       0.01049908 Eh      6.59 kcal/mol|
|  sn=12 | S(rot)=       0.01041693 Eh      6.54 kcal/mol|
 linear molecules ---------------------------------------
|  Dinfh | S(rot)=       0.00796932 Eh      5.00 kcal/mol|
|  Cinfv | S(rot)=       0.00862378 Eh      5.41 kcal/mol|
 --------------------------------------------------------

-------------------
GIBBS FREE ENERGY
-------------------

The Gibbs free energy is G = H - T*S

Total enthalpy                    ...   -287.42151652 Eh

                             ****ORCA TERMINATED NORMALLY****
TOTAL RUN TIME: 0 days 0 hours 8 minutes 5 seconds 357 msec
