                         Program Version 6.0.0  -   RELEASE  -
|  1> ! r2SCAN-3c DEF2-TZVP FREQ
|  2> * xyzfile 0 1 vacuum_censo.xyz
|  3>
|  4>                          ****END OF INPUT****

CARTESIAN COORDINATES (ANGSTROEM)
---------------------------------
  C      2.404979    0.027334   -0.002075
  C      0.903393    0.033088    0.003007
  C      0.173087    1.224604    0.002633
  C     -1.214938    1.170187   -0.000030
  C     -1.836904   -0.072052   -0.001756
  C     -1.030281   -1.205803   -0.001032
  N      0.304114   -1.167888    0.001528
  H      2.775441   -0.427216   -0.926777
  H      2.814171    1.036739    0.081011
  H      2.781281   -0.580733    0.825752
  H      0.689460    2.179389    0.004576
  H     -1.801180    2.084123    0.000156
  H     -2.917732   -0.163718   -0.002740
  H     -1.479673   -2.198256   -0.001174

 Total Charge           Charge          ....    0
 Multiplicity           Mult            ....    1
 Number of Electrons    NEL             ....   50
 Basis Dimension        Dim             ....  259

ORBITAL ENERGIES
----------------

  NO   OCC          E(Eh)            E(eV)
   0   2.0000     -14.152544      -385.1103
   1   2.0000     -10.078935      -274.2618
   2   2.0000     -10.066700      -273.9288
   3   2.0000     -10.053274      -273.5635
   4   2.0000     -10.042785      -273.2781
   5   2.0000     -10.041459      -273.2420
   6   2.0000     -10.027835      -272.8713
   7   2.0000      -0.907263       -24.6879
   8   2.0000      -0.770396       -20.9635
   9   2.0000      -0.749487       -20.3946
  10   2.0000      -0.668410       -18.1884
  11   2.0000      -0.598486       -16.2856
  12   2.0000      -0.572032       -15.5658
  13   2.0000      -0.483003       -13.1432
  14   2.0000      -0.456165       -12.4129
  15   2.0000      -0.429937       -11.6992
  16   2.0000      -0.402556       -10.9541
  17   2.0000      -0.388263       -10.5652
  18   2.0000      -0.375271       -10.2116
  19   2.0000      -0.351165        -9.5557
  20   2.0000      -0.350530        -9.5384
  21   2.0000      -0.329274        -8.9600
  22   2.0000      -0.268789        -7.3141
  23   2.0000      -0.238744        -6.4966
  24   2.0000      -0.223861        -6.0916
  25   0.0000      -0.056244        -1.5305
  26   0.0000      -0.038227        -1.0402
  27   0.0000       0.056404         1.5348
  28   0.0000       0.074459         2.0261
  29   0.0000       0.093489         2.5440

MULLIKEN ATOMIC CHARGES
-----------------------
   0 C :   -0.322125
   1 C :    0.213082
   2 C :   -0.184458
   3 C :   -0.082338
   4 C :   -0.107119
   5 C :   -0.024529
   6 N :   -0.276835
   7 H :    0.119225
   8 H :    0.100991
   9 H :    0.120915
  10 H :    0.105571
  11 H :    0.117104
  12 H :    0.112187
  13 H :    0.108330
Sum of atomic charges:    0.0000000

LOEWDIN ATOMIC CHARGES
----------------------
   0 C :   -0.253968
   1 C :   -0.240765
   2 C :   -0.128383
   3 C :   -0.123148
   4 C :   -0.157189
   5 C :   -0.202419
   6 N :    0.145771
   7 H :    0.133936
   8 H :    0.122610
   9 H :    0.133530
  10 H :    0.145339
  11 H :    0.145285
  12 H :    0.143739
  13 H :    0.135663

  Mayer bond orders larger than 0.100000
B(  0-C ,  1-C ) :   0.9473 B(  0-C ,  7-H ) :   0.9572 B(  0-C ,  8-H ) :   0.9870
B(  0-C ,  9-H ) :   0.9637 B(  1-C ,  2-C ) :   1.3993 B(  1-C ,  6-N ) :   1.3599
B(  2-C ,  3-C ) :   1.4208 B(  2-C , 10-H ) :   0.9622 B(  3-C ,  4-C ) :   1.4125
B(  3-C , 11-H ) :   0.9666 B(  4-C ,  5-C ) :   1.3819 B(  4-C , 12-H ) :   0.9650
B(  5-C ,  6-N ) :   1.4917 B(  5-C , 13-H ) :   0.9821

Dispersion correction           -0.004050524
FINAL SINGLE POINT ENERGY      -287.543268830754

DIPOLE MOMENT
-------------

Method             : SCF
Type of density    : Electron Density
Multiplicity       :   1
Irrep              :   0
Energy             :  -287.5451266020575645 Eh
Relativity type    :
Basis              : AO
                                X                 Y                 Z
Electronic contribution:     -2.951105090      -1.152776767       0.013834035
Nuclear contribution   :      2.691471550       1.823724386      -0.018779408
                        -----------------------------------------
Total Dipole Moment    :     -0.259633540       0.670947618      -0.004945372
                        -----------------------------------------
Magnitude (a.u.)       :      0.719447523
Magnitude (Debye)      :      1.828690275

VIBRATIONAL FREQUENCIES
-----------------------

Scaling factor for frequencies =  1.000000000  (already applied!)

     0:       0.00 cm**-1
     1:       0.00 cm**-1
     2:       0.00 cm**-1
     3:       0.00 cm**-1
     4:       0.00 cm**-1
     5:       0.00 cm**-1
     6:      97.65 cm**-1
     7:     196.81 cm**-1
     8:     363.53 cm**-1
     9:     408.88 cm**-1
    10:     477.01 cm**-1
    11:     554.70 cm**-1
    12:     641.61 cm**-1
    13:     750.48 cm**-1
    14:     760.11 cm**-1
    15:     820.57 cm**-1
    16:     891.01 cm**-1
    17:     968.68 cm**-1
    18:     991.76 cm**-1
    19:     997.65 cm**-1
    20:    1020.77 cm**-1
    21:    1055.00 cm**-1
    22:    1069.91 cm**-1
    23:    1123.49 cm**-1
    24:    1174.73 cm**-1
    25:    1253.56 cm**-1
    26:    1297.08 cm**-1
    27:    1320.58 cm**-1
    28:    1397.80 cm**-1
    29:    1449.47 cm**-1
    30:    1468.60 cm**-1
    31:    1486.04 cm**-1
    32:    1500.36 cm**-1
    33:    1604.35 cm**-1
    34:    1621.42 cm**-1
    35:    3018.06 cm**-1
    36:    3087.17 cm**-1
    37:    3112.94 cm**-1
    38:    3124.40 cm**-1
    39:    3156.81 cm**-1
    40:    3171.18 cm**-1
    41:    3182.93 cm**-1

IR SPECTRUM
-----------

 Mode   freq       eps      Int      T**2         TX        TY        TZ
       cm**-1   L/(mol*cm) km/mol    a.u.
----------------------------------------------------------------------------
  6:     97.65   0.000163    0.82  0.000520  (-0.001234 -0.002754  0.022595)
  7:    196.81   0.000560    2.83  0.000889  (-0.000458 -0.000279 -0.029806)
  8:    363.53   0.000611    3.09  0.000524  ( 0.003828  0.022574  0.000468)
  9:    408.88   0.000734    3.71  0.000560  (-0.000086  0.000279 -0.023661)
 10:    477.01   0.000890    4.50  0.000582  (-0.000254 -0.000025  0.024132)
 11:    554.70   0.000255    1.29  0.000144  (-0.011616  0.002823  0.000812)
 12:    641.61   0.000381    1.93  0.000185  (-0.005557  0.012433 -0.000097)
 13:    750.48   0.007762   39.23  0.003228  (-0.000739 -0.000243 -0.056808)
 14:    760.11   0.001830    9.25  0.000751  (-0.000505  0.000107  0.027403)
 15:    820.57   0.000195    0.99  0.000074  ( 0.008246 -0.002247 -0.001084)
 16:    891.01   0.000000    0.00  0.000000  ( 0.000170 -0.000093 -0.000305)
 17:    968.68   0.000006    0.03  0.000002  ( 0.000722  0.000392 -0.001059)
 18:    991.76   0.000376    1.90  0.000118  ( 0.002034  0.010690  0.000134)
 19:    997.65   0.000007    0.04  0.000002  ( 0.000070  0.000408  0.001454)
 20:   1020.77   0.000508    2.57  0.000155  (-0.007250  0.010093 -0.001014)
 21:   1055.00   0.001174    5.93  0.000347  ( 0.004437 -0.000325 -0.018093)
 22:   1069.91   0.001184    5.98  0.000345  ( 0.008583 -0.016478  0.000085)
 23:   1123.49   0.000319    1.61  0.000089  (-0.006453  0.006854 -0.000114)
 24:   1174.73   0.000764    3.86  0.000203  (-0.010913 -0.009153 -0.000046)
 25:   1253.56   0.001844    9.32  0.000459  (-0.021136  0.003459  0.000608)
 26:   1297.08   0.000019    0.10  0.000005  (-0.002154  0.000006 -0.000036)
 27:   1320.58   0.001463    7.40  0.000346  (-0.016965  0.007617 -0.000059)
 28:   1397.80   0.001234    6.24  0.000276  ( 0.016262 -0.003263 -0.000647)
 29:   1449.47   0.002889   14.60  0.000622  (-0.024940  0.000231 -0.000116)
 30:   1468.60   0.001455    7.35  0.000309  ( 0.003169  0.002444 -0.017120)
 31:   1486.04   0.006484   32.77  0.001362  (-0.023757 -0.028202 -0.001350)
 32:   1500.36   0.004352   21.99  0.000905  (-0.030066  0.001093 -0.000066)
 33:   1604.35   0.003325   16.80  0.000647  ( 0.011937  0.022457  0.000040)
 34:   1621.42   0.010871   54.94  0.002092  (-0.043257  0.014869  0.000023)
 35:   3018.06   0.003140   15.87  0.000325  (-0.017938 -0.001223  0.001197)
 36:   3087.17   0.001850    9.35  0.000187  (-0.002187 -0.001686 -0.013394)
 37:   3112.94   0.003060   15.46  0.000307  (-0.005465 -0.016631  0.000536)
 38:   3124.40   0.004371   22.09  0.000437  ( 0.012124  0.017016  0.000009)
 39:   3156.81   0.000664    3.35  0.000066  ( 0.007208 -0.003697  0.000014)
 40:   3171.18   0.004277   21.61  0.000421  (-0.011077 -0.017266 -0.000050)
 41:   3182.93   0.002634   13.31  0.000258  (-0.015195  0.005235 -0.000017)

--------------------------
THERMOCHEMISTRY AT 298.15K
--------------------------

Temperature         ...   298.15 K
Pressure            ...     1.00 atm
Total Mass          ...    93.13 AMU
Quasi RRHO          ...     True
Cut-Off Frequency   ...     1.00 cm^-1

Throughout the following assumptions are being made:
  (1) The electronic state is orbitally nondegenerate
  (2) There are no thermally accessible electronically excited states
  (3) Hindered rotations indicated by low frequency modes are not
      treated as such but are treated as vibrations and this may
      cause some error
  (4) All equations used are the standard statistical mechanics
      equations for an ideal gas
  (5) All vibrations are strictly harmonic

freq.      97.65  E(vib)   ...       0.46
freq.     196.81  E(vib)   ...       0.36
freq.     363.53  E(vib)   ...       0.22
freq.     408.88  E(vib)   ...       0.19
freq.     477.01  E(vib)   ...       0.15
freq.     554.70  E(vib)   ...       0.12
freq.     641.61  E(vib)   ...       0.09
freq.     750.48  E(vib)   ...       0.06
freq.     760.11  E(vib)   ...       0.06
freq.     820.57  E(vib)   ...       0.05
freq.     891.01  E(vib)   ...       0.04
freq.     968.68  E(vib)   ...       0.03
freq.     991.76  E(vib)   ...       0.02
freq.     997.65  E(vib)   ...       0.02
freq.    1020.77  E(vib)   ...       0.02
freq.    1055.00  E(vib)   ...       0.02
freq.    1069.91  E(vib)   ...       0.02
freq.    1123.49  E(vib)   ...       0.01
freq.    1174.73  E(vib)   ...       0.01
freq.    1253.56  E(vib)   ...       0.01
freq.    1297.08  E(vib)   ...       0.01
freq.    1320.58  E(vib)   ...       0.01
freq.    1397.80  E(vib)   ...       0.00
freq.    1449.47  E(vib)   ...       0.00
freq.    1468.60  E(vib)   ...       0.00
freq.    1486.04  E(vib)   ...       0.00
freq.    1500.36  E(vib)   ...       0.00
freq.    1604.35  E(vib)   ...       0.00
freq.    1621.42  E(vib)   ...       0.00
freq.    3018.06  E(vib)   ...       0.00
freq.    3087.17  E(vib)   ...       0.00
freq.    3112.94  E(vib)   ...       0.00
freq.    3124.40  E(vib)   ...       0.00
freq.    3156.81  E(vib)   ...       0.00
freq.    3171.18  E(vib)   ...       0.00
freq.    3182.93  E(vib)   ...       0.00

------------
INNER ENERGY
------------

The inner energy is: U= E(el) + E(ZPE) + E(vib) + E(rot) + E(trans)
    E(el)   - is the total energy from the electronic structure calculation
              = E(kin-el) + E(nuc-el) + E(el-el) + E(nuc-nuc)
    E(ZPE)  - the the zero temperature vibrational energy from the frequency calculation
    E(vib)  - the the finite temperature correction to E(ZPE) due to population
              of excited vibrational states
    E(rot)  - is the rotational thermal energy
    E(trans)- is the translational thermal energy

Summary of contributions to the inner energy U:
Electronic energy                ...   -287.54326883 Eh
Zero point energy                ...      0.11531425 Eh      72.36 kcal/mol
Thermal vibrational correction   ...      0.00315290 Eh       1.98 kcal/mol
Thermal rotational correction    ...      0.00141627 Eh       0.89 kcal/mol
Thermal translational correction ...      0.00141627 Eh       0.89 kcal/mol
-----------------------------------------------------------------------
Total thermal energy                   -287.42196914 Eh

Summary of corrections to the electronic energy:
(perhaps to be used in another calculation)
Total thermal correction                  0.00598544 Eh       3.76 kcal/mol
Non-thermal (ZPE) correction              0.11531425 Eh      72.36 kcal/mol
-----------------------------------------------------------------------
Total correction                          0.12129969 Eh      76.12 kcal/mol

--------
ENTHALPY
--------

The enthalpy is H = U + kB*T
                kB is Boltzmann's constant
Total thermal energy              ...   -287.42196914 Eh
Thermal Enthalpy correction       ...      0.00094421 Eh       0.59 kcal/mol
-----------------------------------------------------------------------
Total Enthalpy                    ...   -287.42102493 Eh

Note: Only C1 symmetry has been detected, increase convergence thresholds
      if your molecule has a higher symmetry. Symmetry factor of 1.0 is
      used for the rotational entropy correction.

Note: Rotational entropy computed according to Herzberg
Infrared and Raman Spectra, Chapter V,1, Van Nostrand Reinhold, 1945
Point Group:  C1, Symmetry Number:   1
Rotational constants in cm-1:     0.190821     0.087994     0.060902

Vibrational entropy computed according to the QRRHO of S. Grimme
Chem.Eur.J. 2012 18 9955 using a reference frequency of 100.0 cm-1

-------
ENTROPY
-------

The entropy contributions are T*S = T*(S(el)+S(vib)+S(rot)+S(trans))
     S(el)   - electronic entropy
     S(vib)  - vibrational entropy
     S(rot)  - rotational entropy
     S(trans)- translational entropy
The entropies will be listed as multiplied by the temperature to get
units of energy

Electronic entropy                ...      0.00000000 Eh      0.00 kcal/mol
Vibrational entropy               ...      0.00506104 Eh      3.18 kcal/mol
Rotational entropy                ...      0.01276134 Eh      8.01 kcal/mol
Translational entropy             ...      0.01877043 Eh     11.78 kcal/mol
-----------------------------------------------------------------------
Final entropy term                ...      0.03659280 Eh     22.96 kcal/mol

In case the symmetry of your molecule has not been determined correctly
or in case you have a reason to use a different symmetry number we print
out the resulting rotational entropy values for sn=1,12:

 non-linear molecules -----------------------------------
|  sn= 1 | S(rot)=       0.01276134 Eh      8.01 kcal/mol|
|  sn= 2 | S(rot)=       0.01210689 Eh      7.60 kcal/mol|
|  sn= 3 | S(rot)=       0.01172405 Eh      7.36 kcal/mol|
|  sn= 4 | S(rot)=       0.01145243 Eh      7.19 kcal/mol|
|  sn= 5 | S(rot)=       0.01124174 Eh      7.05 kcal/mol|
|  sn= 6 | S(rot)=       0.01106960 Eh      6.95 kcal/mol|
|  sn= 7 | S(rot)=       0.01092405 Eh      6.85 kcal/mol|
|  sn= 8 | S(rot)=       0.01079797 Eh      6.78 kcal/mol|
|  sn= 9 | S(rot)=       0.01068676 Eh      6.71 kcal/mol|
|  sn=10 | S(rot)=       0.01058729 Eh      6.64 kcal/mol|
|  sn=11 | S(rot)=       0.01049730 Eh      6.59 kcal/mol|
|  sn=12 | S(rot)=       0.01041514 Eh      6.54 kcal/mol|
 linear molecules ---------------------------------------
|  Dinfh | S(rot)=       0.00796809 Eh      5.00 kcal/mol|
|  Cinfv | S(rot)=       0.00862255 Eh      5.41 kcal/mol|
 --------------------------------------------------------

-------------------
GIBBS FREE ENERGY
-------------------

The Gibbs free energy is G = H - T*S

                             ****ORCA TERMINATED NORMALLY****
TOTAL RUN TIME: 0 days 0 hours 8 minutes 18 seconds 547 msec
