                         Program Version 6.0.1  -  RELEASE   -
|  1> ! r2scan-3c def2/J RI DEFGRID2 scfconv6 printgap
|  2> %output
|  3>     printlevel normal
|  4> end
|  5> * xyz 0 1
|  6> C -2.3153179292 0.1179711774 -0.2713620951
|  7> C -0.9484072966 0.4157215501 0.3381992946
|  8> C 0.0014454251 -0.7273587718 0.1454306076
|  9> C 1.3061846228 -0.6230773454 -0.0542527202
| 10> C 2.0690808199 0.6648485654 -0.1233262029
| 11> H -2.2220271094 -0.0609125786 -1.340485357
| 12> H -2.99210369 0.9562541527 -0.1204116416
| 13> H -2.7553684284 -0.7652751291 0.1870037473
| 14> H -0.5394843058 1.3226365193 -0.1095034962
| 15> H -1.0689895609 0.6009127617 1.411352129
| 16> H -0.4517197777 -1.7092747923 0.1871184295
| 17> H 1.8910717368 -1.5229494654 -0.1893382683
| 18> H 1.7644960392 1.3434750477 0.6709803559
| 19> H 1.8910995442 1.1628849357 -1.0774448965
| 20> H 3.1365918333 0.4823574226 -0.0326534654
| 21> *
| 22>
| 23>                          ****END OF INPUT****

CARTESIAN COORDINATES (ANGSTROEM)
---------------------------------
  C     -2.315318    0.117971   -0.271362
  C     -0.948407    0.415722    0.338199
  C      0.001445   -0.727359    0.145431
  C      1.306185   -0.623077   -0.054253
  C      2.069081    0.664849   -0.123326
  H     -2.222027   -0.060913   -1.340485
  H     -2.992104    0.956254   -0.120412
  H     -2.755368   -0.765275    0.187004
  H     -0.539484    1.322637   -0.109503
  H     -1.068990    0.600913    1.411352
  H     -0.451720   -1.709275    0.187118
  H      1.891072   -1.522949   -0.189338
  H      1.764496    1.343475    0.670980
  H      1.891100    1.162885   -1.077445
  H      3.136592    0.482357   -0.032653

 Total Charge           Charge          ....    0
 Multiplicity           Mult            ....    1
 Number of Electrons    NEL             ....   40
 Basis Dimension        Dim             ....  145

ORBITAL ENERGIES
----------------

  NO   OCC          E(Eh)            E(eV)
   0   2.0000     -10.028121      -272.8790
   1   2.0000     -10.022130      -272.7160
   2   2.0000     -10.021493      -272.6987
   3   2.0000     -10.018910      -272.6284
   4   2.0000     -10.018085      -272.6060
   5   2.0000      -0.772294       -21.0152
   6   2.0000      -0.718025       -19.5384
   7   2.0000      -0.646411       -17.5897
   8   2.0000      -0.581791       -15.8313
   9   2.0000      -0.494771       -13.4634
  10   2.0000      -0.443430       -12.0664
  11   2.0000      -0.409863       -11.1529
  12   2.0000      -0.397338       -10.8121
  13   2.0000      -0.379851       -10.3363
  14   2.0000      -0.348720        -9.4892
  15   2.0000      -0.338282        -9.2051
  16   2.0000      -0.327822        -8.9205
  17   2.0000      -0.312367        -8.4999
  18   2.0000      -0.290483        -7.9044
  19   2.0000      -0.217000        -5.9049
  20   0.0000      -0.004571        -0.1244
  21   0.0000       0.094052         2.5593
  22   0.0000       0.115715         3.1488
  23   0.0000       0.131600         3.5810
  24   0.0000       0.144526         3.9328

MULLIKEN ATOMIC CHARGES
-----------------------
   0 C :   -0.461774
   1 C :   -0.248714
   2 C :   -0.152509
   3 C :   -0.140066
   4 C :   -0.494661
   5 H :    0.149506
   6 H :    0.144401
   7 H :    0.139617
   8 H :    0.144098
   9 H :    0.153505
  10 H :    0.147758
  11 H :    0.151934
  12 H :    0.158483
  13 H :    0.163446
  14 H :    0.144975
Sum of atomic charges:   -0.0000000

LOEWDIN ATOMIC CHARGES
----------------------
   0 C :   -0.418840
   1 C :   -0.306997
   2 C :   -0.211105
   3 C :   -0.215652
   4 C :   -0.421450
   5 H :    0.152714
   6 H :    0.149691
   7 H :    0.149990
   8 H :    0.158433
   9 H :    0.162431
  10 H :    0.163023
  11 H :    0.159991
  12 H :    0.159358
  13 H :    0.162703
  14 H :    0.155710

  Mayer bond orders larger than 0.100000
B(  0-C ,  1-C ) :   0.8921 B(  0-C ,  5-H ) :   0.9825 B(  0-C ,  6-H ) :   0.9746
B(  0-C ,  7-H ) :   0.9749 B(  1-C ,  2-C ) :   0.9219 B(  1-C ,  8-H ) :   0.9834
B(  1-C ,  9-H ) :   0.9662 B(  2-C ,  3-C ) :   1.9486 B(  2-C , 10-H ) :   0.9429
B(  3-C ,  4-C ) :   0.8939 B(  3-C , 11-H ) :   0.9485 B(  4-C , 12-H ) :   0.9847
B(  4-C , 13-H ) :   0.9702 B(  4-C , 14-H ) :   0.9737

Dispersion correction           -0.003242519
FINAL SINGLE POINT ENERGY      -196.458982724679

DIPOLE MOMENT
-------------

Method             : SCF
Type of density    : Electron Density
Multiplicity       :   1
Irrep              :   0
Energy             :  -196.4618680369902393 Eh
Relativity type    :
Basis              : AO
                                X                 Y                 Z
Electronic contribution:      1.250969770      -1.551063627       0.396734019
Nuclear contribution   :     -1.263174350       1.698177244      -0.387820148
                        -----------------------------------------
Total Dipole Moment    :     -0.012204580       0.147113616       0.008913870
                        -----------------------------------------
Magnitude (a.u.)       :      0.147887880
Magnitude (Debye)      :      0.375901116

Rotational constants in cm-1:             0.429858             0.084722             0.076075
Rotational constants in MHz :         12886.819598          2539.890207          2280.657383

                             ****ORCA TERMINATED NORMALLY****
TOTAL RUN TIME: 0 days 0 hours 0 minutes 9 seconds 707 msec
