                         Program Version 6.0.0  -   RELEASE  -
|  1> ! r2SCAN-3c DEF2-TZVP FREQ
|  2> * xyzfile 0 1 censo.xyz
|  3>
|  4>                          ****END OF INPUT****

CARTESIAN COORDINATES (ANGSTROEM)
---------------------------------
  C      3.513062   -0.000004   -0.000006
  C      2.825429   -1.209337   -0.000005
  C      1.423398   -1.233938    0.000001
  C      0.680637   -2.457751    0.000006
  C     -0.680640   -2.457750    0.000008
  C     -1.423399   -1.233936    0.000004
  C     -2.825430   -1.209332   -0.000002
  C     -3.513061    0.000002   -0.000009
  C     -2.825428    1.209336   -0.000007
  C     -1.423397    1.233937   -0.000000
  C     -0.709928    0.000000    0.000003
  C      0.709929   -0.000001    0.000003
  C      1.423400    1.233935    0.000004
  C      2.825431    1.209331   -0.000001
  C      0.680641    2.457749    0.000006
  C     -0.680636    2.457750    0.000004
  H      4.598558   -0.000004   -0.000013
  H      3.369835   -2.149219   -0.000009
  H      1.232309   -3.393610    0.000007
  H     -1.232313   -3.393608    0.000011
  H     -3.369838   -2.149214   -0.000001
  H     -4.598557    0.000003   -0.000015
  H     -3.369836    2.149217   -0.000012
  H      3.369840    2.149212   -0.000001
  H      1.232314    3.393607    0.000010
  H     -1.232307    3.393609    0.000005

 Total Charge           Charge          ....    0
 Multiplicity           Mult            ....    1
 Number of Electrons    NEL             ....  106
 Basis Dimension        Dim             ....  556

ORBITAL ENERGIES
----------------

  NO   OCC          E(Eh)            E(eV)
   0   2.0000     -10.050425      -273.4860
   1   2.0000     -10.050419      -273.4858
   2   2.0000     -10.050383      -273.4848
   3   2.0000     -10.050377      -273.4847
   4   2.0000     -10.049468      -273.4599
   5   2.0000     -10.049145      -273.4511
   6   2.0000     -10.043033      -273.2848
   7   2.0000     -10.043026      -273.2846
   8   2.0000     -10.042455      -273.2691
   9   2.0000     -10.042453      -273.2690
  10   2.0000     -10.041128      -273.2330
  11   2.0000     -10.041119      -273.2327
  12   2.0000     -10.040590      -273.2183
  13   2.0000     -10.040587      -273.2183
  14   2.0000     -10.040404      -273.2133
  15   2.0000     -10.040401      -273.2132
  16   2.0000      -0.861916       -23.4539
  17   2.0000      -0.819857       -22.3095
  18   2.0000      -0.800359       -21.7789
  19   2.0000      -0.766111       -20.8469
  20   2.0000      -0.736695       -20.0465
  21   2.0000      -0.718138       -19.5415
  22   2.0000      -0.700525       -19.0623
  23   2.0000      -0.679676       -18.4949
  24   2.0000      -0.599038       -16.3006
  25   2.0000      -0.598357       -16.2821
  26   2.0000      -0.594499       -16.1771
  27   2.0000      -0.579029       -15.7562
  28   2.0000      -0.515647       -14.0315
  29   2.0000      -0.495087       -13.4720
  30   2.0000      -0.487840       -13.2748
  31   2.0000      -0.473790       -12.8925
  32   2.0000      -0.462670       -12.5899
  33   2.0000      -0.441194       -12.0055
  34   2.0000      -0.411202       -11.1894
  35   2.0000      -0.405233       -11.0270
  36   2.0000      -0.403694       -10.9851
  37   2.0000      -0.391255       -10.6466
  38   2.0000      -0.387070       -10.5327
  39   2.0000      -0.371328       -10.1043
  40   2.0000      -0.367433        -9.9984
  41   2.0000      -0.361203        -9.8288
  42   2.0000      -0.343782        -9.3548
  43   2.0000      -0.337313        -9.1788
  44   2.0000      -0.336374        -9.1532
  45   2.0000      -0.324881        -8.8405
  46   2.0000      -0.300046        -8.1647
  47   2.0000      -0.292078        -7.9479
  48   2.0000      -0.282552        -7.6886
  49   2.0000      -0.261061        -7.1038
  50   2.0000      -0.242561        -6.6004
  51   2.0000      -0.221395        -6.0245
  52   2.0000      -0.190252        -5.1770
  53   0.0000      -0.085445        -2.3251
  54   0.0000      -0.055382        -1.5070
  55   0.0000      -0.040161        -1.0928
  56   0.0000      -0.017167        -0.4671
  57   0.0000       0.021768         0.5923

MULLIKEN ATOMIC CHARGES
-----------------------
   0 C :   -0.094618
   1 C :   -0.171419
   2 C :    0.149014
   3 C :   -0.207004
   4 C :   -0.206915
   5 C :    0.148993
   6 C :   -0.171412
   7 C :   -0.094627
   8 C :   -0.171398
   9 C :    0.148919
  10 C :    0.043404
  11 C :    0.043170
  12 C :    0.149140
  13 C :   -0.171416
  14 C :   -0.207018
  15 C :   -0.206789
  16 H :    0.108356
  17 H :    0.102458
  18 H :    0.098350
  19 H :    0.098371
  20 H :    0.102452
  21 H :    0.108356
  22 H :    0.102447
  23 H :    0.102453
  24 H :    0.098363
  25 H :    0.098369
Sum of atomic charges:    0.0000000

LOEWDIN ATOMIC CHARGES
----------------------
   0 C :   -0.140155
   1 C :   -0.100852
   2 C :   -0.094818
   3 C :   -0.098028
   4 C :   -0.098028
   5 C :   -0.094818
   6 C :   -0.100852
   7 C :   -0.140155
   8 C :   -0.100852
   9 C :   -0.094818
  10 C :   -0.004244
  11 C :   -0.004244
  12 C :   -0.094818
  13 C :   -0.100852
  14 C :   -0.098028
  15 C :   -0.098028
  16 H :    0.144414
  17 H :    0.146128
  18 H :    0.147562
  19 H :    0.147562
  20 H :    0.146128
  21 H :    0.144414
  22 H :    0.146128
  23 H :    0.146128
  24 H :    0.147562
  25 H :    0.147562

  Mayer bond orders larger than 0.100000
B(  0-C ,  1-C ) :   1.3860 B(  0-C , 13-C ) :   1.3860 B(  0-C , 16-H ) :   0.9721
B(  1-C ,  2-C ) :   1.2971 B(  1-C , 17-H ) :   0.9827 B(  2-C ,  3-C ) :   1.1129
B(  2-C , 11-C ) :   1.2151 B(  3-C ,  4-C ) :   1.6064 B(  3-C , 18-H ) :   0.9906
B(  4-C ,  5-C ) :   1.1130 B(  4-C , 19-H ) :   0.9905 B(  5-C ,  6-C ) :   1.2971
B(  5-C , 10-C ) :   1.2150 B(  6-C ,  7-C ) :   1.3860 B(  6-C , 20-H ) :   0.9828
B(  7-C ,  8-C ) :   1.3860 B(  7-C , 21-H ) :   0.9721 B(  8-C ,  9-C ) :   1.2971
B(  8-C , 22-H ) :   0.9827 B(  9-C , 10-C ) :   1.2148 B(  9-C , 15-C ) :   1.1130
B( 10-C , 11-C ) :   1.1385 B( 11-C , 12-C ) :   1.2150 B( 12-C , 13-C ) :   1.2971
B( 12-C , 14-C ) :   1.1130 B( 13-C , 23-H ) :   0.9827 B( 14-C , 15-C ) :   1.6065
B( 14-C , 24-H ) :   0.9905 B( 15-C , 25-H ) :   0.9905

Dispersion correction           -0.013083097
FINAL SINGLE POINT ENERGY      -615.665459285417

DIPOLE MOMENT
-------------

Method             : SCF
Type of density    : Electron Density
Multiplicity       :   1
Irrep              :   0
Energy             :  -615.6571840181788957 Eh
Relativity type    :
Basis              : AO
                                X                 Y                 Z
Electronic contribution:     -0.000001097       0.000000602       0.000018813
Nuclear contribution   :      0.000000993      -0.000000766      -0.000021684
                        -----------------------------------------
Total Dipole Moment    :     -0.000000104      -0.000000165      -0.000002871
                        -----------------------------------------
Magnitude (a.u.)       :      0.000002877
Magnitude (Debye)      :      0.000007313

VIBRATIONAL FREQUENCIES
-----------------------

Scaling factor for frequencies =  1.000000000  (already applied!)

     0:       0.00 cm**-1
     1:       0.00 cm**-1
     2:       0.00 cm**-1
     3:       0.00 cm**-1
     4:       0.00 cm**-1
     5:       0.00 cm**-1
     6:     101.33 cm**-1
     7:     154.25 cm**-1
     8:     211.63 cm**-1
     9:     250.77 cm**-1
    10:     262.69 cm**-1
    11:     361.71 cm**-1
    12:     402.74 cm**-1
    13:     414.45 cm**-1
    14:     465.91 cm**-1
    15:     499.75 cm**-1
    16:     509.33 cm**-1
    17:     511.00 cm**-1
    18:     511.14 cm**-1
    19:     536.79 cm**-1
    20:     556.15 cm**-1
    21:     592.44 cm**-1
    22:     596.54 cm**-1
    23:     693.41 cm**-1
    24:     709.54 cm**-1
    25:     732.94 cm**-1
    26:     744.80 cm**-1
    27:     754.95 cm**-1
    28:     776.48 cm**-1
    29:     808.13 cm**-1
    30:     822.14 cm**-1
    31:     840.64 cm**-1
    32:     856.98 cm**-1
    33:     878.78 cm**-1
    34:     885.53 cm**-1
    35:     900.20 cm**-1
    36:     947.28 cm**-1
    37:     952.84 cm**-1
    38:     953.62 cm**-1
    39:     961.25 cm**-1
    40:     985.02 cm**-1
    41:    1021.52 cm**-1
    42:    1088.32 cm**-1
    43:    1111.77 cm**-1
    44:    1131.69 cm**-1
    45:    1163.46 cm**-1
    46:    1164.10 cm**-1
    47:    1197.59 cm**-1
    48:    1202.55 cm**-1
    49:    1230.70 cm**-1
    50:    1261.03 cm**-1
    51:    1261.53 cm**-1
    52:    1265.10 cm**-1
    53:    1353.20 cm**-1
    54:    1358.09 cm**-1
    55:    1404.66 cm**-1
    56:    1425.42 cm**-1
    57:    1432.33 cm**-1
    58:    1450.85 cm**-1
    59:    1459.09 cm**-1
    60:    1488.37 cm**-1
    61:    1501.78 cm**-1
    62:    1528.17 cm**-1
    63:    1583.33 cm**-1
    64:    1619.46 cm**-1
    65:    1624.79 cm**-1
    66:    1631.07 cm**-1
    67:    1656.37 cm**-1
    68:    3150.51 cm**-1
    69:    3150.56 cm**-1
    70:    3153.44 cm**-1
    71:    3153.63 cm**-1
    72:    3160.94 cm**-1
    73:    3161.40 cm**-1
    74:    3167.83 cm**-1
    75:    3168.22 cm**-1
    76:    3176.67 cm**-1
    77:    3176.97 cm**-1

IR SPECTRUM
-----------

 Mode   freq       eps      Int      T**2         TX        TY        TZ
       cm**-1   L/(mol*cm) km/mol    a.u.
----------------------------------------------------------------------------
  6:    101.33   0.000117    0.59  0.000362  (-0.000022 -0.000013  0.019022)
  7:    154.25   0.000000    0.00  0.000000  ( 0.000007  0.000003 -0.000001)
  8:    211.63   0.001945    9.83  0.002868  ( 0.000027  0.000016 -0.053558)
  9:    250.77   0.000000    0.00  0.000000  ( 0.000005  0.000004 -0.000000)
 10:    262.69   0.000000    0.00  0.000000  (-0.000029  0.000025  0.000000)
 11:    361.71   0.000368    1.86  0.000317  (-0.000000 -0.017815  0.000001)
 12:    402.74   0.000000    0.00  0.000000  (-0.000003 -0.000003  0.000001)
 13:    414.45   0.000000    0.00  0.000000  (-0.000000  0.000000 -0.000000)
 14:    465.91   0.000000    0.00  0.000000  ( 0.000000  0.000000 -0.000000)
 15:    499.75   0.000421    2.13  0.000263  ( 0.000000  0.000005 -0.016215)
 16:    509.33   0.000671    3.39  0.000411  ( 0.020272 -0.000000  0.000001)
 17:    511.00   0.000000    0.00  0.000000  ( 0.000018 -0.000015  0.000001)
 18:    511.14   0.000000    0.00  0.000000  (-0.000000 -0.000000  0.000000)
 19:    536.79   0.000000    0.00  0.000000  ( 0.000022 -0.000005 -0.000002)
 20:    556.15   0.000448    2.26  0.000251  ( 0.000000  0.015850  0.000001)
 21:    592.44   0.000000    0.00  0.000000  ( 0.000014 -0.000009 -0.000001)
 22:    596.54   0.000000    0.00  0.000000  (-0.000000  0.000000  0.000000)
 23:    693.41   0.000000    0.00  0.000000  (-0.000000  0.000000  0.000000)
 24:    709.54   0.000000    0.00  0.000000  (-0.000266 -0.000000  0.000002)
 25:    732.94   0.010240   51.75  0.004360  (-0.000003  0.000001  0.066031)
 26:    744.80   0.002889   14.60  0.001210  (-0.000001 -0.000001  0.034790)
 27:    754.95   0.000000    0.00  0.000000  (-0.000000  0.000000 -0.000000)
 28:    776.48   0.000000    0.00  0.000000  (-0.000007  0.000005 -0.000001)
 29:    808.13   0.000000    0.00  0.000000  (-0.000005  0.000001 -0.000004)
 30:    822.14   0.000000    0.00  0.000000  (-0.000000  0.000000  0.000000)
 31:    840.64   0.000717    3.62  0.000266  (-0.016314  0.000000 -0.000002)
 32:    856.98   0.017550   88.69  0.006391  ( 0.000008  0.000003  0.079943)
 33:    878.78   0.000000    0.00  0.000000  ( 0.000010 -0.000007  0.000022)
 34:    885.53   0.000000    0.00  0.000000  ( 0.000000  0.000001 -0.000002)
 35:    900.20   0.000000    0.00  0.000000  ( 0.000003  0.000000 -0.000004)
 36:    947.28   0.000000    0.00  0.000000  ( 0.000000 -0.000000 -0.000008)
 37:    952.84   0.000000    0.00  0.000000  (-0.000001 -0.000001  0.000022)
 38:    953.62   0.000099    0.50  0.000032  (-0.000001 -0.000001  0.005687)
 39:    961.25   0.000000    0.00  0.000000  (-0.000002  0.000001  0.000013)
 40:    985.02   0.000001    0.01  0.000000  (-0.000000  0.000622 -0.000000)
 41:   1021.52   0.000365    1.85  0.000112  (-0.010564  0.000000  0.000000)
 42:   1088.32   0.000000    0.00  0.000000  ( 0.000000 -0.000000 -0.000000)
 43:   1111.77   0.001558    7.88  0.000437  (-0.020915  0.000000  0.000000)
 44:   1131.69   0.000000    0.00  0.000000  ( 0.000000 -0.000000  0.000000)
 45:   1163.46   0.000000    0.00  0.000000  (-0.000000  0.000001 -0.000000)
 46:   1164.10   0.000167    0.84  0.000045  ( 0.000000  0.006690  0.000000)
 47:   1197.59   0.000000    0.00  0.000000  ( 0.000000  0.000000 -0.000000)
 48:   1202.55   0.003155   15.94  0.000819  (-0.000000 -0.028614 -0.000000)
 49:   1230.70   0.000016    0.08  0.000004  (-0.000000  0.001985  0.000000)
 50:   1261.03   0.000000    0.00  0.000000  (-0.000000  0.000000 -0.000000)
 51:   1261.53   0.000000    0.00  0.000000  (-0.000000  0.000000 -0.000000)
 52:   1265.10   0.000444    2.24  0.000109  ( 0.010461  0.000000  0.000000)
 53:   1353.20   0.001106    5.59  0.000255  (-0.000000 -0.015969 -0.000000)
 54:   1358.09   0.000000    0.00  0.000000  (-0.000000  0.000000 -0.000000)
 55:   1404.66   0.000000    0.00  0.000000  (-0.000000 -0.000000 -0.000000)
 56:   1425.42   0.000000    0.00  0.000000  (-0.000000 -0.000000  0.000000)
 57:   1432.33   0.000000    0.00  0.000000  (-0.000000  0.000000  0.000000)
 58:   1450.85   0.000541    2.74  0.000116  (-0.000000 -0.010790 -0.000000)
 59:   1459.09   0.001255    6.34  0.000268  ( 0.016385 -0.000000  0.000000)
 60:   1488.37   0.000632    3.20  0.000133  (-0.011515 -0.000000 -0.000000)
 61:   1501.78   0.000598    3.02  0.000124  ( 0.000000 -0.011147 -0.000000)
 62:   1528.17   0.000000    0.00  0.000000  ( 0.000000 -0.000000 -0.000000)
 63:   1583.33   0.000000    0.00  0.000000  ( 0.000000 -0.000000 -0.000000)
 64:   1619.46   0.000000    0.00  0.000000  (-0.000000 -0.000000  0.000000)
 65:   1624.79   0.002395   12.10  0.000460  ( 0.021447 -0.000000  0.000000)
 66:   1631.07   0.000548    2.77  0.000105  (-0.000000 -0.010240 -0.000000)
 67:   1656.37   0.000000    0.00  0.000000  (-0.000000 -0.000000 -0.000000)
 68:   3150.51   0.000000    0.00  0.000000  ( 0.000010  0.000001  0.000000)
 69:   3150.56   0.000600    3.03  0.000059  ( 0.007709  0.000000 -0.000000)
 70:   3153.44   0.000000    0.00  0.000000  (-0.000002 -0.000000  0.000000)
 71:   3153.63   0.000014    0.07  0.000001  ( 0.001188 -0.000000  0.000000)
 72:   3160.94   0.003687   18.63  0.000364  (-0.000000 -0.019078  0.000000)
 73:   3161.40   0.000000    0.00  0.000000  (-0.000000 -0.000020  0.000000)
 74:   3167.83   0.011042   55.80  0.001088  (-0.000000 -0.032981 -0.000000)
 75:   3168.22   0.000000    0.00  0.000000  ( 0.000000  0.000004 -0.000000)
 76:   3176.67   0.010268   51.89  0.001009  ( 0.031760 -0.000000 -0.000000)
 77:   3176.97   0.000000    0.00  0.000000  ( 0.000038  0.000000  0.000000)

--------------------------
THERMOCHEMISTRY AT 298.15K
--------------------------

Temperature         ...   298.15 K
Pressure            ...     1.00 atm
Total Mass          ...   202.26 AMU
Quasi RRHO          ...     True
Cut-Off Frequency   ...     1.00 cm^-1

Throughout the following assumptions are being made:
  (1) The electronic state is orbitally nondegenerate
  (2) There are no thermally accessible electronically excited states
  (3) Hindered rotations indicated by low frequency modes are not
      treated as such but are treated as vibrations and this may
      cause some error
  (4) All equations used are the standard statistical mechanics
      equations for an ideal gas
  (5) All vibrations are strictly harmonic

freq.     101.33  E(vib)   ...       0.46
freq.     154.25  E(vib)   ...       0.40
freq.     211.63  E(vib)   ...       0.34
freq.     250.77  E(vib)   ...       0.30
freq.     262.69  E(vib)   ...       0.29
freq.     361.71  E(vib)   ...       0.22
freq.     402.74  E(vib)   ...       0.19
freq.     414.45  E(vib)   ...       0.19
freq.     465.91  E(vib)   ...       0.16
freq.     499.75  E(vib)   ...       0.14
freq.     509.33  E(vib)   ...       0.14
freq.     511.00  E(vib)   ...       0.14
freq.     511.14  E(vib)   ...       0.14
freq.     536.79  E(vib)   ...       0.12
freq.     556.15  E(vib)   ...       0.12
freq.     592.44  E(vib)   ...       0.10
freq.     596.54  E(vib)   ...       0.10
freq.     693.41  E(vib)   ...       0.07
freq.     709.54  E(vib)   ...       0.07
freq.     732.94  E(vib)   ...       0.06
freq.     744.80  E(vib)   ...       0.06
freq.     754.95  E(vib)   ...       0.06
freq.     776.48  E(vib)   ...       0.05
freq.     808.13  E(vib)   ...       0.05
freq.     822.14  E(vib)   ...       0.05
freq.     840.64  E(vib)   ...       0.04
freq.     856.98  E(vib)   ...       0.04
freq.     878.78  E(vib)   ...       0.04
freq.     885.53  E(vib)   ...       0.04
freq.     900.20  E(vib)   ...       0.03
freq.     947.28  E(vib)   ...       0.03
freq.     952.84  E(vib)   ...       0.03
freq.     953.62  E(vib)   ...       0.03
freq.     961.25  E(vib)   ...       0.03
freq.     985.02  E(vib)   ...       0.02
freq.    1021.52  E(vib)   ...       0.02
freq.    1088.32  E(vib)   ...       0.02
freq.    1111.77  E(vib)   ...       0.01
freq.    1131.69  E(vib)   ...       0.01
freq.    1163.46  E(vib)   ...       0.01
freq.    1164.10  E(vib)   ...       0.01
freq.    1197.59  E(vib)   ...       0.01
freq.    1202.55  E(vib)   ...       0.01
freq.    1230.70  E(vib)   ...       0.01
freq.    1261.03  E(vib)   ...       0.01
freq.    1261.53  E(vib)   ...       0.01
freq.    1265.10  E(vib)   ...       0.01
freq.    1353.20  E(vib)   ...       0.01
freq.    1358.09  E(vib)   ...       0.01
freq.    1404.66  E(vib)   ...       0.00
freq.    1425.42  E(vib)   ...       0.00
freq.    1432.33  E(vib)   ...       0.00
freq.    1450.85  E(vib)   ...       0.00
freq.    1459.09  E(vib)   ...       0.00
freq.    1488.37  E(vib)   ...       0.00
freq.    1501.78  E(vib)   ...       0.00
freq.    1528.17  E(vib)   ...       0.00
freq.    1583.33  E(vib)   ...       0.00
freq.    1619.46  E(vib)   ...       0.00
freq.    1624.79  E(vib)   ...       0.00
freq.    1631.07  E(vib)   ...       0.00
freq.    1656.37  E(vib)   ...       0.00
freq.    3150.51  E(vib)   ...       0.00
freq.    3150.56  E(vib)   ...       0.00
freq.    3153.44  E(vib)   ...       0.00
freq.    3153.63  E(vib)   ...       0.00
freq.    3160.94  E(vib)   ...       0.00
freq.    3161.40  E(vib)   ...       0.00
freq.    3167.83  E(vib)   ...       0.00
freq.    3168.22  E(vib)   ...       0.00
freq.    3176.67  E(vib)   ...       0.00
freq.    3176.97  E(vib)   ...       0.00

------------
INNER ENERGY
------------

The inner energy is: U= E(el) + E(ZPE) + E(vib) + E(rot) + E(trans)
    E(el)   - is the total energy from the electronic structure calculation
              = E(kin-el) + E(nuc-el) + E(el-el) + E(nuc-nuc)
    E(ZPE)  - the the zero temperature vibrational energy from the frequency calculation
    E(vib)  - the the finite temperature correction to E(ZPE) due to population
              of excited vibrational states
    E(rot)  - is the rotational thermal energy
    E(trans)- is the translational thermal energy

Summary of contributions to the inner energy U:
Electronic energy                ...   -615.66545929 Eh
Zero point energy                ...      0.20590006 Eh     129.20 kcal/mol
Thermal vibrational correction   ...      0.00722394 Eh       4.53 kcal/mol
Thermal rotational correction    ...      0.00141627 Eh       0.89 kcal/mol
Thermal translational correction ...      0.00141627 Eh       0.89 kcal/mol
-----------------------------------------------------------------------
Total thermal energy                   -615.44950274 Eh

Summary of corrections to the electronic energy:
(perhaps to be used in another calculation)
Total thermal correction                  0.01005649 Eh       6.31 kcal/mol
Non-thermal (ZPE) correction              0.20590006 Eh     129.20 kcal/mol
-----------------------------------------------------------------------
Total correction                          0.21595654 Eh     135.51 kcal/mol

--------
ENTHALPY
--------

The enthalpy is H = U + kB*T
                kB is Boltzmann's constant
Total thermal energy              ...   -615.44950274 Eh
Thermal Enthalpy correction       ...      0.00094421 Eh       0.59 kcal/mol
-----------------------------------------------------------------------
Total Enthalpy                    ...   -615.44855853 Eh

Note: Rotational entropy computed according to Herzberg
Infrared and Raman Spectra, Chapter V,1, Van Nostrand Reinhold, 1945
Point Group:  D2h, Symmetry Number:   4
Rotational constants in cm-1:     0.033804     0.018601     0.011999

Vibrational entropy computed according to the QRRHO of S. Grimme
Chem.Eur.J. 2012 18 9955 using a reference frequency of 100.0 cm-1

-------
ENTROPY
-------

The entropy contributions are T*S = T*(S(el)+S(vib)+S(rot)+S(trans))
     S(el)   - electronic entropy
     S(vib)  - vibrational entropy
     S(rot)  - rotational entropy
     S(trans)- translational entropy
The entropies will be listed as multiplied by the temperature to get
units of energy

Electronic entropy                ...      0.00000000 Eh      0.00 kcal/mol
Vibrational entropy               ...      0.01119802 Eh      7.03 kcal/mol
Rotational entropy                ...      0.01377003 Eh      8.64 kcal/mol
Translational entropy             ...      0.01986881 Eh     12.47 kcal/mol
-----------------------------------------------------------------------

                             ****ORCA TERMINATED NORMALLY****
TOTAL RUN TIME: 0 days 0 hours 50 minutes 27 seconds 903 msec
