                         Program Version 6.0.0  -   RELEASE  -
|  1> ! r2SCAN-3c DEF2-TZVP FREQ
|  2> * xyzfile 0 1 vacuum_censo.xyz
|  3>
|  4>                          ****END OF INPUT****

CARTESIAN COORDINATES (ANGSTROEM)
---------------------------------
  C      3.512298   -0.000004   -0.000006
  C      2.824150   -1.207482   -0.000005
  C      1.423215   -1.232923    0.000002
  C      0.679987   -2.455001    0.000006
  C     -0.679990   -2.454999    0.000008
  C     -1.423217   -1.232921    0.000004
  C     -2.824150   -1.207477   -0.000002
  C     -3.512296    0.000002   -0.000008
  C     -2.824148    1.207480   -0.000007
  C     -1.423216    1.232922    0.000000
  C     -0.709591    0.000000    0.000003
  C      0.709587   -0.000001    0.000004
  C      1.423218    1.232920    0.000004
  C      2.824151    1.207476   -0.000001
  C      0.679991    2.454998    0.000006
  C     -0.679986    2.454999    0.000004
  H      4.597617   -0.000004   -0.000013
  H      3.369614   -2.146796   -0.000009
  H      1.229765   -3.391994    0.000007
  H     -1.229769   -3.391991    0.000011
  H     -3.369616   -2.146789   -0.000002
  H     -4.597613    0.000003   -0.000015
  H     -3.369613    2.146792   -0.000012
  H      3.369619    2.146789   -0.000001
  H      1.229771    3.391991    0.000010
  H     -1.229763    3.391992    0.000005

 Total Charge           Charge          ....    0
 Multiplicity           Mult            ....    1
 Number of Electrons    NEL             ....  106
 Basis Dimension        Dim             ....  556

ORBITAL ENERGIES
----------------

  NO   OCC          E(Eh)            E(eV)
   0   2.0000     -10.050028      -273.4752
   1   2.0000     -10.050023      -273.4750
   2   2.0000     -10.049985      -273.4740
   3   2.0000     -10.049979      -273.4738
   4   2.0000     -10.049092      -273.4497
   5   2.0000     -10.048768      -273.4409
   6   2.0000     -10.042616      -273.2735
   7   2.0000     -10.042608      -273.2733
   8   2.0000     -10.042031      -273.2575
   9   2.0000     -10.042029      -273.2575
  10   2.0000     -10.040760      -273.2230
  11   2.0000     -10.040752      -273.2227
  12   2.0000     -10.040222      -273.2083
  13   2.0000     -10.040220      -273.2083
  14   2.0000     -10.040031      -273.2031
  15   2.0000     -10.040029      -273.2031
  16   2.0000      -0.862414       -23.4675
  17   2.0000      -0.820368       -22.3234
  18   2.0000      -0.800753       -21.7896
  19   2.0000      -0.766626       -20.8609
  20   2.0000      -0.736896       -20.0520
  21   2.0000      -0.718275       -19.5452
  22   2.0000      -0.700921       -19.0730
  23   2.0000      -0.679867       -18.5001
  24   2.0000      -0.599193       -16.3049
  25   2.0000      -0.598658       -16.2903
  26   2.0000      -0.594527       -16.1779
  27   2.0000      -0.579229       -15.7616
  28   2.0000      -0.515729       -14.0337
  29   2.0000      -0.495346       -13.4791
  30   2.0000      -0.487660       -13.2699
  31   2.0000      -0.474095       -12.9008
  32   2.0000      -0.462697       -12.5906
  33   2.0000      -0.441285       -12.0080
  34   2.0000      -0.411236       -11.1903
  35   2.0000      -0.405263       -11.0278
  36   2.0000      -0.404060       -10.9950
  37   2.0000      -0.391622       -10.6566
  38   2.0000      -0.387254       -10.5377
  39   2.0000      -0.371068       -10.0973
  40   2.0000      -0.367338        -9.9958
  41   2.0000      -0.360914        -9.8210
  42   2.0000      -0.344134        -9.3644
  43   2.0000      -0.337621        -9.1871
  44   2.0000      -0.336125        -9.1464
  45   2.0000      -0.325140        -8.8475
  46   2.0000      -0.300186        -8.1685
  47   2.0000      -0.291768        -7.9394
  48   2.0000      -0.282848        -7.6967
  49   2.0000      -0.261179        -7.1070
  50   2.0000      -0.242592        -6.6013
  51   2.0000      -0.221568        -6.0292
  52   2.0000      -0.190247        -5.1769
  53   0.0000      -0.085262        -2.3201
  54   0.0000      -0.055263        -1.5038
  55   0.0000      -0.039833        -1.0839
  56   0.0000      -0.016818        -0.4577
  57   0.0000       0.022143         0.6025

MULLIKEN ATOMIC CHARGES
-----------------------
   0 C :   -0.094384
   1 C :   -0.171401
   2 C :    0.149731
   3 C :   -0.206983
   4 C :   -0.207003
   5 C :    0.149779
   6 C :   -0.171382
   7 C :   -0.094421
   8 C :   -0.171394
   9 C :    0.149540
  10 C :    0.043022
  11 C :    0.042816
  12 C :    0.149726
  13 C :   -0.171437
  14 C :   -0.206970
  15 C :   -0.206890
  16 H :    0.108384
  17 H :    0.102122
  18 H :    0.098092
  19 H :    0.098087
  20 H :    0.102125
  21 H :    0.108388
  22 H :    0.102112
  23 H :    0.102113
  24 H :    0.098105
  25 H :    0.098121
Sum of atomic charges:    0.0000000

LOEWDIN ATOMIC CHARGES
----------------------
   0 C :   -0.140346
   1 C :   -0.100826
   2 C :   -0.095149
   3 C :   -0.098111
   4 C :   -0.098111
   5 C :   -0.095149
   6 C :   -0.100825
   7 C :   -0.140345
   8 C :   -0.100825
   9 C :   -0.095150
  10 C :   -0.004010
  11 C :   -0.004009
  12 C :   -0.095149
  13 C :   -0.100826
  14 C :   -0.098111
  15 C :   -0.098111
  16 H :    0.144552
  17 H :    0.146266
  18 H :    0.147721
  19 H :    0.147721
  20 H :    0.146266
  21 H :    0.144552
  22 H :    0.146266
  23 H :    0.146266
  24 H :    0.147721
  25 H :    0.147721

  Mayer bond orders larger than 0.100000
B(  0-C ,  1-C ) :   1.3866 B(  0-C , 13-C ) :   1.3866 B(  0-C , 16-H ) :   0.9722
B(  1-C ,  2-C ) :   1.2971 B(  1-C , 17-H ) :   0.9829 B(  2-C ,  3-C ) :   1.1127
B(  2-C , 11-C ) :   1.2152 B(  3-C ,  4-C ) :   1.6078 B(  3-C , 18-H ) :   0.9907
B(  4-C ,  5-C ) :   1.1126 B(  4-C , 19-H ) :   0.9907 B(  5-C ,  6-C ) :   1.2971
B(  5-C , 10-C ) :   1.2150 B(  6-C ,  7-C ) :   1.3867 B(  6-C , 20-H ) :   0.9829
B(  7-C ,  8-C ) :   1.3866 B(  7-C , 21-H ) :   0.9722 B(  8-C ,  9-C ) :   1.2970
B(  8-C , 22-H ) :   0.9829 B(  9-C , 10-C ) :   1.2151 B(  9-C , 15-C ) :   1.1128
B( 10-C , 11-C ) :   1.1394 B( 11-C , 12-C ) :   1.2151 B( 12-C , 13-C ) :   1.2971
B( 12-C , 14-C ) :   1.1127 B( 13-C , 23-H ) :   0.9829 B( 14-C , 15-C ) :   1.6080
B( 14-C , 24-H ) :   0.9907 B( 15-C , 25-H ) :   0.9906

Dispersion correction           -0.013092401
FINAL SINGLE POINT ENERGY      -615.665528251440

DIPOLE MOMENT
-------------

Method             : SCF
Type of density    : Electron Density
Multiplicity       :   1
Irrep              :   0
Energy             :  -615.6572530543677431 Eh
Relativity type    :
Basis              : AO
                                X                 Y                 Z
Electronic contribution:     -0.000009449       0.000000724       0.000018916
Nuclear contribution   :      0.000008549      -0.000000822      -0.000021703
                        -----------------------------------------
Total Dipole Moment    :     -0.000000900      -0.000000098      -0.000002786
                        -----------------------------------------
Magnitude (a.u.)       :      0.000002930
Magnitude (Debye)      :      0.000007447

VIBRATIONAL FREQUENCIES
-----------------------

Scaling factor for frequencies =  1.000000000  (already applied!)

     0:       0.00 cm**-1
     1:       0.00 cm**-1
     2:       0.00 cm**-1
     3:       0.00 cm**-1
     4:       0.00 cm**-1
     5:       0.00 cm**-1
     6:      99.46 cm**-1
     7:     150.26 cm**-1
     8:     209.62 cm**-1
     9:     248.52 cm**-1
    10:     260.90 cm**-1
    11:     361.24 cm**-1
    12:     400.96 cm**-1
    13:     414.92 cm**-1
    14:     465.91 cm**-1
    15:     498.46 cm**-1
    16:     509.52 cm**-1
    17:     509.66 cm**-1
    18:     511.11 cm**-1
    19:     535.78 cm**-1
    20:     556.42 cm**-1
    21:     591.33 cm**-1
    22:     598.07 cm**-1
    23:     692.66 cm**-1
    24:     710.40 cm**-1
    25:     732.54 cm**-1
    26:     745.05 cm**-1
    27:     755.46 cm**-1
    28:     776.60 cm**-1
    29:     808.53 cm**-1
    30:     822.60 cm**-1
    31:     841.12 cm**-1
    32:     857.06 cm**-1
    33:     878.52 cm**-1
    34:     886.55 cm**-1
    35:     901.08 cm**-1
    36:     947.90 cm**-1
    37:     953.85 cm**-1
    38:     953.89 cm**-1
    39:     961.90 cm**-1
    40:     987.11 cm**-1
    41:    1023.09 cm**-1
    42:    1091.38 cm**-1
    43:    1114.39 cm**-1
    44:    1133.25 cm**-1
    45:    1165.32 cm**-1
    46:    1166.54 cm**-1
    47:    1199.03 cm**-1
    48:    1204.09 cm**-1
    49:    1233.24 cm**-1
    50:    1263.03 cm**-1
    51:    1264.41 cm**-1
    52:    1267.14 cm**-1
    53:    1358.05 cm**-1
    54:    1360.33 cm**-1
    55:    1409.59 cm**-1
    56:    1429.16 cm**-1
    57:    1434.17 cm**-1
    58:    1453.63 cm**-1
    59:    1461.09 cm**-1
    60:    1491.57 cm**-1
    61:    1505.94 cm**-1
    62:    1531.40 cm**-1
    63:    1587.69 cm**-1
    64:    1623.58 cm**-1
    65:    1629.36 cm**-1
    66:    1635.78 cm**-1
    67:    1661.08 cm**-1
    68:    3150.01 cm**-1
    69:    3150.09 cm**-1
    70:    3153.51 cm**-1
    71:    3153.69 cm**-1
    72:    3160.24 cm**-1
    73:    3160.71 cm**-1
    74:    3167.46 cm**-1
    75:    3167.90 cm**-1
    76:    3177.54 cm**-1
    77:    3177.81 cm**-1

IR SPECTRUM
-----------

 Mode   freq       eps      Int      T**2         TX        TY        TZ
       cm**-1   L/(mol*cm) km/mol    a.u.
----------------------------------------------------------------------------
  6:     99.46   0.000117    0.59  0.000367  (-0.000017  0.000008  0.019148)
  7:    150.26   0.000000    0.00  0.000000  (-0.000003  0.000010  0.000001)
  8:    209.62   0.001928    9.74  0.002870  ( 0.000029 -0.000011 -0.053575)
  9:    248.52   0.000000    0.00  0.000000  (-0.000000  0.000003 -0.000000)
 10:    260.90   0.000000    0.00  0.000000  ( 0.000007  0.000017 -0.000001)
 11:    361.24   0.000372    1.88  0.000322  ( 0.000000 -0.017932 -0.000000)
 12:    400.96   0.000000    0.00  0.000000  ( 0.000006 -0.000004 -0.000000)
 13:    414.92   0.000000    0.00  0.000000  (-0.000000 -0.000000 -0.000000)
 14:    465.91   0.000000    0.00  0.000000  ( 0.000000 -0.000000 -0.000000)
 15:    498.46   0.000412    2.08  0.000258  ( 0.000007 -0.000001 -0.016056)
 16:    509.52   0.000676    3.42  0.000414  ( 0.020348 -0.000000  0.000001)
 17:    509.66   0.000000    0.00  0.000000  ( 0.000026 -0.000015 -0.000000)
 18:    511.11   0.000000    0.00  0.000000  ( 0.000001 -0.000000  0.000001)
 19:    535.78   0.000000    0.00  0.000000  ( 0.000018  0.000002 -0.000001)
 20:    556.42   0.000451    2.28  0.000253  (-0.000000  0.015905 -0.000000)
 21:    591.33   0.000000    0.00  0.000000  (-0.000002 -0.000009  0.000001)
 22:    598.07   0.000000    0.00  0.000000  (-0.000000  0.000000  0.000000)
 23:    692.66   0.000000    0.00  0.000000  ( 0.000001 -0.000001  0.000000)
 24:    710.40   0.000000    0.00  0.000000  (-0.000149  0.000000  0.000002)
 25:    732.54   0.010292   52.01  0.004384  (-0.000002  0.000000  0.066215)
 26:    745.05   0.002741   13.85  0.001148  ( 0.000001 -0.000000  0.033882)
 27:    755.46   0.000000    0.00  0.000000  (-0.000000 -0.000000  0.000001)
 28:    776.60   0.000000    0.00  0.000000  ( 0.000003  0.000006 -0.000003)
 29:    808.53   0.000000    0.00  0.000000  ( 0.000005  0.000000 -0.000003)
 30:    822.60   0.000000    0.00  0.000000  ( 0.000000  0.000000  0.000000)
 31:    841.12   0.000718    3.63  0.000266  (-0.016319 -0.000000 -0.000002)
 32:    857.06   0.017575   88.82  0.006399  ( 0.000006 -0.000003  0.079996)
 33:    878.52   0.000000    0.00  0.000000  ( 0.000002 -0.000009 -0.000002)
 34:    886.55   0.000000    0.00  0.000000  ( 0.000001  0.000003 -0.000004)
 35:    901.08   0.000000    0.00  0.000000  ( 0.000004  0.000001 -0.000003)
 36:    947.90   0.000000    0.00  0.000000  ( 0.000002  0.000000 -0.000001)
 37:    953.85   0.000000    0.00  0.000000  ( 0.000001 -0.000001  0.000144)
 38:    953.89   0.000111    0.56  0.000036  ( 0.000003 -0.000000 -0.006030)
 39:    961.90   0.000000    0.00  0.000000  (-0.000001  0.000001  0.000001)
 40:    987.11   0.000001    0.01  0.000000  ( 0.000000  0.000576  0.000000)
 41:   1023.09   0.000360    1.82  0.000110  (-0.010473 -0.000000  0.000000)
 42:   1091.38   0.000000    0.00  0.000000  ( 0.000000 -0.000000 -0.000000)
 43:   1114.39   0.001569    7.93  0.000439  (-0.020964  0.000000  0.000000)
 44:   1133.25   0.000000    0.00  0.000000  ( 0.000000  0.000000 -0.000000)
 45:   1165.32   0.000000    0.00  0.000000  (-0.000000 -0.000000 -0.000000)
 46:   1166.54   0.000150    0.76  0.000040  (-0.000000  0.006337  0.000000)
 47:   1199.03   0.000000    0.00  0.000000  ( 0.000000  0.000001 -0.000000)
 48:   1204.09   0.003137   15.85  0.000813  (-0.000000 -0.028511  0.000000)
 49:   1233.24   0.000018    0.09  0.000004  (-0.000000  0.002106  0.000000)
 50:   1263.03   0.000000    0.00  0.000000  (-0.000000  0.000000 -0.000000)
 51:   1264.41   0.000000    0.00  0.000000  (-0.000001  0.000000 -0.000000)
 52:   1267.14   0.000445    2.25  0.000109  ( 0.010463 -0.000000  0.000000)
 53:   1358.05   0.001114    5.63  0.000256  (-0.000000 -0.015999 -0.000000)
 54:   1360.33   0.000000    0.00  0.000000  ( 0.000000  0.000001 -0.000000)
 55:   1409.59   0.000000    0.00  0.000000  (-0.000000 -0.000001 -0.000000)
 56:   1429.16   0.000000    0.00  0.000000  (-0.000000 -0.000000  0.000000)
 57:   1434.17   0.000000    0.00  0.000000  (-0.000000 -0.000000  0.000000)
 58:   1453.63   0.000577    2.92  0.000124  (-0.000000 -0.011129  0.000000)
 59:   1461.09   0.001242    6.28  0.000265  ( 0.016288 -0.000000 -0.000000)
 60:   1491.57   0.000622    3.14  0.000130  (-0.011411  0.000000 -0.000000)
 61:   1505.94   0.000583    2.95  0.000121  (-0.000000 -0.010992  0.000000)
 62:   1531.40   0.000000    0.00  0.000000  (-0.000000  0.000000 -0.000000)
 63:   1587.69   0.000000    0.00  0.000000  ( 0.000001 -0.000000 -0.000000)
 64:   1623.58   0.000000    0.00  0.000000  (-0.000000  0.000001  0.000000)
 65:   1629.36   0.002364   11.95  0.000453  ( 0.021280 -0.000000  0.000000)
 66:   1635.78   0.000527    2.66  0.000101  (-0.000000 -0.010028  0.000000)
 67:   1661.08   0.000000    0.00  0.000000  (-0.000001 -0.000000 -0.000000)
 68:   3150.01   0.000000    0.00  0.000000  (-0.000016  0.000003  0.000000)
 69:   3150.09   0.000557    2.81  0.000055  ( 0.007427 -0.000000 -0.000000)
 70:   3153.51   0.000000    0.00  0.000000  ( 0.000011 -0.000000  0.000000)
 71:   3153.69   0.000001    0.00  0.000000  (-0.000287 -0.000000  0.000000)
 72:   3160.24   0.003861   19.51  0.000381  (-0.000000 -0.019525 -0.000000)
 73:   3160.71   0.000000    0.00  0.000000  (-0.000000 -0.000209  0.000000)
 74:   3167.46   0.011125   56.22  0.001096  (-0.000000 -0.033106  0.000000)
 75:   3167.90   0.000000    0.00  0.000000  ( 0.000003 -0.000012 -0.000000)
 76:   3177.54   0.010338   52.25  0.001015  ( 0.031864 -0.000000 -0.000000)
 77:   3177.81   0.000004    0.02  0.000000  ( 0.000664 -0.000000  0.000000)

--------------------------
THERMOCHEMISTRY AT 298.15K
--------------------------

Temperature         ...   298.15 K
Pressure            ...     1.00 atm
Total Mass          ...   202.26 AMU
Quasi RRHO          ...     True
Cut-Off Frequency   ...     1.00 cm^-1

Throughout the following assumptions are being made:
  (1) The electronic state is orbitally nondegenerate
  (2) There are no thermally accessible electronically excited states
  (3) Hindered rotations indicated by low frequency modes are not
      treated as such but are treated as vibrations and this may
      cause some error
  (4) All equations used are the standard statistical mechanics
      equations for an ideal gas
  (5) All vibrations are strictly harmonic

freq.      99.46  E(vib)   ...       0.46
freq.     150.26  E(vib)   ...       0.40
freq.     209.62  E(vib)   ...       0.34
freq.     248.52  E(vib)   ...       0.31
freq.     260.90  E(vib)   ...       0.30
freq.     361.24  E(vib)   ...       0.22
freq.     400.96  E(vib)   ...       0.19
freq.     414.92  E(vib)   ...       0.19
freq.     465.91  E(vib)   ...       0.16
freq.     498.46  E(vib)   ...       0.14
freq.     509.52  E(vib)   ...       0.14
freq.     509.66  E(vib)   ...       0.14
freq.     511.11  E(vib)   ...       0.14
freq.     535.78  E(vib)   ...       0.12
freq.     556.42  E(vib)   ...       0.12
freq.     591.33  E(vib)   ...       0.10
freq.     598.07  E(vib)   ...       0.10
freq.     692.66  E(vib)   ...       0.07
freq.     710.40  E(vib)   ...       0.07
freq.     732.54  E(vib)   ...       0.06
freq.     745.05  E(vib)   ...       0.06
freq.     755.46  E(vib)   ...       0.06
freq.     776.60  E(vib)   ...       0.05
freq.     808.53  E(vib)   ...       0.05
freq.     822.60  E(vib)   ...       0.05
freq.     841.12  E(vib)   ...       0.04
freq.     857.06  E(vib)   ...       0.04
freq.     878.52  E(vib)   ...       0.04
freq.     886.55  E(vib)   ...       0.04
freq.     901.08  E(vib)   ...       0.03
freq.     947.90  E(vib)   ...       0.03
freq.     953.85  E(vib)   ...       0.03
freq.     953.89  E(vib)   ...       0.03
freq.     961.90  E(vib)   ...       0.03
freq.     987.11  E(vib)   ...       0.02
freq.    1023.09  E(vib)   ...       0.02
freq.    1091.38  E(vib)   ...       0.02
freq.    1114.39  E(vib)   ...       0.01
freq.    1133.25  E(vib)   ...       0.01
freq.    1165.32  E(vib)   ...       0.01
freq.    1166.54  E(vib)   ...       0.01
freq.    1199.03  E(vib)   ...       0.01
freq.    1204.09  E(vib)   ...       0.01
freq.    1233.24  E(vib)   ...       0.01
freq.    1263.03  E(vib)   ...       0.01
freq.    1264.41  E(vib)   ...       0.01
freq.    1267.14  E(vib)   ...       0.01
freq.    1358.05  E(vib)   ...       0.01
freq.    1360.33  E(vib)   ...       0.01
freq.    1409.59  E(vib)   ...       0.00
freq.    1429.16  E(vib)   ...       0.00
freq.    1434.17  E(vib)   ...       0.00
freq.    1453.63  E(vib)   ...       0.00
freq.    1461.09  E(vib)   ...       0.00
freq.    1491.57  E(vib)   ...       0.00
freq.    1505.94  E(vib)   ...       0.00
freq.    1531.40  E(vib)   ...       0.00
freq.    1587.69  E(vib)   ...       0.00
freq.    1623.58  E(vib)   ...       0.00
freq.    1629.36  E(vib)   ...       0.00
freq.    1635.78  E(vib)   ...       0.00
freq.    1661.08  E(vib)   ...       0.00
freq.    3150.01  E(vib)   ...       0.00
freq.    3150.09  E(vib)   ...       0.00
freq.    3153.51  E(vib)   ...       0.00
freq.    3153.69  E(vib)   ...       0.00
freq.    3160.24  E(vib)   ...       0.00
freq.    3160.71  E(vib)   ...       0.00
freq.    3167.46  E(vib)   ...       0.00
freq.    3167.90  E(vib)   ...       0.00
freq.    3177.54  E(vib)   ...       0.00
freq.    3177.81  E(vib)   ...       0.00

------------
INNER ENERGY
------------

The inner energy is: U= E(el) + E(ZPE) + E(vib) + E(rot) + E(trans)
    E(el)   - is the total energy from the electronic structure calculation
              = E(kin-el) + E(nuc-el) + E(el-el) + E(nuc-nuc)
    E(ZPE)  - the the zero temperature vibrational energy from the frequency calculation
    E(vib)  - the the finite temperature correction to E(ZPE) due to population
              of excited vibrational states
    E(rot)  - is the rotational thermal energy
    E(trans)- is the translational thermal energy

Summary of contributions to the inner energy U:
Electronic energy                ...   -615.66552825 Eh
Zero point energy                ...      0.20606297 Eh     129.31 kcal/mol
Thermal vibrational correction   ...      0.00724229 Eh       4.54 kcal/mol
Thermal rotational correction    ...      0.00141627 Eh       0.89 kcal/mol
Thermal translational correction ...      0.00141627 Eh       0.89 kcal/mol
-----------------------------------------------------------------------
Total thermal energy                   -615.44939044 Eh

Summary of corrections to the electronic energy:
(perhaps to be used in another calculation)
Total thermal correction                  0.01007483 Eh       6.32 kcal/mol
Non-thermal (ZPE) correction              0.20606297 Eh     129.31 kcal/mol
-----------------------------------------------------------------------
Total correction                          0.21613781 Eh     135.63 kcal/mol

--------
ENTHALPY
--------

The enthalpy is H = U + kB*T
                kB is Boltzmann's constant
Total thermal energy              ...   -615.44939044 Eh
Thermal Enthalpy correction       ...      0.00094421 Eh       0.59 kcal/mol
-----------------------------------------------------------------------
Total Enthalpy                    ...   -615.44844624 Eh

Note: Rotational entropy computed according to Herzberg
Infrared and Raman Spectra, Chapter V,1, Van Nostrand Reinhold, 1945
Point Group:  D2h, Symmetry Number:   4
Rotational constants in cm-1:     0.033877     0.018614     0.012013

Vibrational entropy computed according to the QRRHO of S. Grimme
Chem.Eur.J. 2012 18 9955 using a reference frequency of 100.0 cm-1

-------
ENTROPY
-------

The entropy contributions are T*S = T*(S(el)+S(vib)+S(rot)+S(trans))
     S(el)   - electronic entropy
     S(vib)  - vibrational entropy
     S(rot)  - rotational entropy
     S(trans)- translational entropy
The entropies will be listed as multiplied by the temperature to get
units of energy

Electronic entropy                ...      0.00000000 Eh      0.00 kcal/mol
Vibrational entropy               ...      0.01124861 Eh      7.06 kcal/mol
Rotational entropy                ...      0.01376814 Eh      8.64 kcal/mol
Translational entropy             ...      0.01986881 Eh     12.47 kcal/mol
-----------------------------------------------------------------------

                             ****ORCA TERMINATED NORMALLY****
TOTAL RUN TIME: 0 days 0 hours 50 minutes 0 seconds 644 msec
