                         Program Version 6.0.1  -  RELEASE   -
|  1> ! r2scan-3c def2/J RI DEFGRID2 scfconv6 printgap
|  2> %output
|  3>     printlevel normal
|  4> end
|  5> * xyz 0 1
|  6> C -2.9982986745 -0.2541868404 3.19095e-05
|  7> C -1.6375322821 0.4337269604 -4.09665e-05
|  8> C -0.5064495653 -0.5930485525 -0.0006450051
|  9> C 0.9245035926 -0.0252190763 -1.486e-07
| 10> C 1.1794338668 0.82155567 -1.2490073168
| 11> C 1.17901509 0.8198270307 1.2502629625
| 12> C 1.8988162604 -1.2088459612 -0.000638794
| 13> H -3.109767863 -0.8820846424 -0.8816020818
| 14> H -3.1096052371 -0.8821216233 0.8816556355
| 15> H -3.7997511322 0.4813301766 0.0001167111
| 16> H -1.5636201363 1.0704270428 -0.8827784365
| 17> H -1.5632403131 1.0699020296 0.8830428716
| 18> H -0.6215709446 -1.2306137641 -0.881385636
| 19> H -0.6218575994 -1.2319496833 0.8790858908
| 20> H 2.2246044342 1.1208399283 -1.2919974576
| 21> H 0.9489133129 0.2557075327 -2.1490926961
| 22> H 0.5724063162 1.7229955967 -1.2418402442
| 23> H 0.5724857235 1.721608356 1.2438487064
| 24> H 2.2243176741 1.1184851444 1.2943043978
| 25> H 0.9476121347 0.2529571672 2.1494712576
| 26> H 1.7499182172 -1.8280754942 -0.8826530233
| 27> H 2.92821229 -0.8570036377 -0.0007919118
| 28> H 1.7503668479 -1.8286296174 0.8810612189
| 29> *
| 30>
| 31>                          ****END OF INPUT****

CARTESIAN COORDINATES (ANGSTROEM)
---------------------------------
  C     -2.998299   -0.254187    0.000032
  C     -1.637532    0.433727   -0.000041
  C     -0.506450   -0.593049   -0.000645
  C      0.924504   -0.025219   -0.000000
  C      1.179434    0.821556   -1.249007
  C      1.179015    0.819827    1.250263
  C      1.898816   -1.208846   -0.000639
  H     -3.109768   -0.882085   -0.881602
  H     -3.109605   -0.882122    0.881656
  H     -3.799751    0.481330    0.000117
  H     -1.563620    1.070427   -0.882778
  H     -1.563240    1.069902    0.883043
  H     -0.621571   -1.230614   -0.881386
  H     -0.621858   -1.231950    0.879086
  H      2.224604    1.120840   -1.291997
  H      0.948913    0.255708   -2.149093
  H      0.572406    1.722996   -1.241840
  H      0.572486    1.721608    1.243849
  H      2.224318    1.118485    1.294304
  H      0.947612    0.252957    2.149471
  H      1.749918   -1.828075   -0.882653
  H      2.928212   -0.857004   -0.000792
  H      1.750367   -1.828630    0.881061

 Total Charge           Charge          ....    0
 Multiplicity           Mult            ....    1
 Number of Electrons    NEL             ....   58
 Basis Dimension        Dim             ....  213

ORBITAL ENERGIES
----------------

  NO   OCC          E(Eh)            E(eV)
   0   2.0000     -10.038056      -273.1494
   1   2.0000     -10.020851      -272.6812
   2   2.0000     -10.017991      -272.6034
   3   2.0000     -10.013992      -272.4946
   4   2.0000     -10.011364      -272.4231
   5   2.0000     -10.011362      -272.4230
   6   2.0000     -10.010968      -272.4123
   7   2.0000      -0.792406       -21.5625
   8   2.0000      -0.733674       -19.9643
   9   2.0000      -0.649074       -17.6622
  10   2.0000      -0.648728       -17.6528
  11   2.0000      -0.639691       -17.4069
  12   2.0000      -0.556319       -15.1382
  13   2.0000      -0.494458       -13.4549
  14   2.0000      -0.435982       -11.8637
  15   2.0000      -0.425695       -11.5838
  16   2.0000      -0.406062       -11.0495
  17   2.0000      -0.403055       -10.9677
  18   2.0000      -0.374255       -10.1840
  19   2.0000      -0.360144        -9.8000
  20   2.0000      -0.356154        -9.6914
  21   2.0000      -0.331730        -9.0268
  22   2.0000      -0.331499        -9.0205
  23   2.0000      -0.328633        -8.9426
  24   2.0000      -0.312734        -8.5099
  25   2.0000      -0.299533        -8.1507
  26   2.0000      -0.283386        -7.7113
  27   2.0000      -0.279374        -7.6022
  28   2.0000      -0.272079        -7.4037
  29   0.0000       0.077757         2.1159
  30   0.0000       0.101812         2.7705
  31   0.0000       0.118360         3.2207
  32   0.0000       0.128681         3.5016
  33   0.0000       0.131069         3.5666

MULLIKEN ATOMIC CHARGES
-----------------------
   0 C :   -0.478508
   1 C :   -0.258503
   2 C :   -0.307165
   3 C :    0.171213
   4 C :   -0.518539
   5 C :   -0.518591
   6 C :   -0.487725
   7 H :    0.142338
   8 H :    0.142360
   9 H :    0.145770
  10 H :    0.145481
  11 H :    0.145482
  12 H :    0.147095
  13 H :    0.147088
  14 H :    0.151474
  15 H :    0.153720
  16 H :    0.157098
  17 H :    0.157082
  18 H :    0.151474
  19 H :    0.153743
  20 H :    0.151601
  21 H :    0.154414
  22 H :    0.151599
Sum of atomic charges:    0.0000000

LOEWDIN ATOMIC CHARGES
----------------------
   0 C :   -0.423580
   1 C :   -0.313439
   2 C :   -0.298957
   3 C :   -0.215092
   4 C :   -0.408853
   5 C :   -0.408862
   6 C :   -0.409055
   7 H :    0.149515
   8 H :    0.149511
   9 H :    0.149245
  10 H :    0.152930
  11 H :    0.152939
  12 H :    0.159751
  13 H :    0.159751
  14 H :    0.156576
  15 H :    0.157030
  16 H :    0.155246
  17 H :    0.155242
  18 H :    0.156581
  19 H :    0.157030
  20 H :    0.156024
  21 H :    0.154440
  22 H :    0.156027

  Mayer bond orders larger than 0.100000
B(  0-C ,  1-C ) :   0.9048 B(  0-C ,  7-H ) :   0.9849 B(  0-C ,  8-H ) :   0.9849
B(  0-C ,  9-H ) :   0.9746 B(  1-C ,  2-C ) :   0.9045 B(  1-C , 10-H ) :   0.9717
B(  1-C , 11-H ) :   0.9717 B(  2-C ,  3-C ) :   0.8908 B(  2-C , 12-H ) :   0.9840
B(  2-C , 13-H ) :   0.9841 B(  3-C ,  4-C ) :   0.9156 B(  3-C ,  5-C ) :   0.9156
B(  3-C ,  6-C ) :   0.9341 B(  4-C , 14-H ) :   0.9725 B(  4-C , 15-H ) :   0.9752
B(  4-C , 16-H ) :   0.9769 B(  5-C , 17-H ) :   0.9769 B(  5-C , 18-H ) :   0.9725
B(  5-C , 19-H ) :   0.9753 B(  6-C , 20-H ) :   0.9787 B(  6-C , 21-H ) :   0.9798
B(  6-C , 22-H ) :   0.9787

Dispersion correction           -0.006450851
FINAL SINGLE POINT ENERGY      -276.290205329463

DIPOLE MOMENT
-------------

Method             : SCF
Type of density    : Electron Density
Multiplicity       :   1
Irrep              :   0
Energy             :  -276.2949541808341110 Eh
Relativity type    :
Basis              : AO
                                X                 Y                 Z
Electronic contribution:      0.426558970      -0.053526024      -0.000426286
Nuclear contribution   :     -0.441476514       0.069212402       0.000417672
                        -----------------------------------------
Total Dipole Moment    :     -0.014917544       0.015686378      -0.000008615
                        -----------------------------------------
Magnitude (a.u.)       :      0.021647071
Magnitude (Debye)      :      0.055022481

Rotational constants in cm-1:             0.136100             0.047241             0.046626
Rotational constants in MHz :          4080.161599          1416.254911          1397.824632

                             ****ORCA TERMINATED NORMALLY****
TOTAL RUN TIME: 0 days 0 hours 0 minutes 26 seconds 339 msec
