                         Program Version 6.0.1  -  RELEASE   -
|  1> ! r2scan-3c def2/J RI DEFGRID2 scfconv6 printgap
|  2> %output
|  3>     printlevel normal
|  4> end
|  5> * xyz 0 1
|  6> C -2.1681242606 -0.0693096655 0.0090665242
|  7> O -0.9948726287 0.1742305022 0.7538836359
|  8> S 0.4015755259 0.1065568765 -0.0426246274
|  9> O 1.3540509035 0.8174395789 0.7382564776
| 10> O 0.1833980641 0.4857221789 -1.405090257
| 11> C 0.7796715071 -1.6546547558 0.0239722451
| 12> H -2.9536607859 0.5731144025 0.4061137039
| 13> H -2.4668037107 -1.1164539959 0.1080918497
| 14> H -1.9852335618 0.1711687377 -1.0400982162
| 15> H 0.0369539751 -2.1829670886 -0.5573013408
| 16> H 1.7648458968 -1.7921840623 -0.3999123646
| 17> H 0.7634366174 -1.9499957029 1.0633935214
| 18> *
| 19>
| 20>                          ****END OF INPUT****

CARTESIAN COORDINATES (ANGSTROEM)
---------------------------------
  C     -2.168124   -0.069310    0.009067
  O     -0.994873    0.174231    0.753884
  S      0.401576    0.106557   -0.042625
  O      1.354051    0.817440    0.738256
  O      0.183398    0.485722   -1.405090
  C      0.779672   -1.654655    0.023972
  H     -2.953661    0.573114    0.406114
  H     -2.466804   -1.116454    0.108092
  H     -1.985234    0.171169   -1.040098
  H      0.036954   -2.182967   -0.557301
  H      1.764846   -1.792184   -0.399912
  H      0.763437   -1.949996    1.063394

 Total Charge           Charge          ....    0
 Multiplicity           Mult            ....    1
 Number of Electrons    NEL             ....   58
 Basis Dimension        Dim             ....  167

ORBITAL ENERGIES
----------------

  NO   OCC          E(Eh)            E(eV)
   0   2.0000     -88.791022     -2416.1265
   1   2.0000     -19.013127      -517.3735
   2   2.0000     -18.954527      -515.7789
   3   2.0000     -18.953402      -515.7483
   4   2.0000     -10.100819      -274.8573
   5   2.0000     -10.079552      -274.2786
   6   2.0000      -8.058657      -219.2872
   7   2.0000      -6.006072      -163.4335
   8   2.0000      -6.002726      -163.3425
   9   2.0000      -6.002004      -163.3228
  10   2.0000      -1.126017       -30.6405
  11   2.0000      -1.025448       -27.9039
  12   2.0000      -0.992328       -27.0026
  13   2.0000      -0.755383       -20.5550
  14   2.0000      -0.702580       -19.1182
  15   2.0000      -0.580609       -15.7992
  16   2.0000      -0.517028       -14.0690
  17   2.0000      -0.479849       -13.0574
  18   2.0000      -0.471871       -12.8403
  19   2.0000      -0.442260       -12.0345
  20   2.0000      -0.431458       -11.7406
  21   2.0000      -0.421042       -11.4571
  22   2.0000      -0.407586       -11.0910
  23   2.0000      -0.355902        -9.6846
  24   2.0000      -0.331172        -9.0116
  25   2.0000      -0.301455        -8.2030
  26   2.0000      -0.295236        -8.0338
  27   2.0000      -0.294137        -8.0039
  28   2.0000      -0.282601        -7.6900
  29   0.0000       0.022081         0.6009
  30   0.0000       0.052279         1.4226
  31   0.0000       0.058207         1.5839
  32   0.0000       0.074116         2.0168
  33   0.0000       0.086477         2.3532

MULLIKEN ATOMIC CHARGES
-----------------------
   0 C :   -0.286742
   1 O :   -0.232506
   2 S :    0.987857
   3 O :   -0.505221
   4 O :   -0.544020
   5 C :   -0.459561
   6 H :    0.158127
   7 H :    0.143604
   8 H :    0.189352
   9 H :    0.173205
  10 H :    0.188682
  11 H :    0.187223
Sum of atomic charges:    0.0000000

LOEWDIN ATOMIC CHARGES
----------------------
   0 C :   -0.054921
   1 O :   -0.608249
   2 S :    0.811792
   3 O :   -0.414602
   4 O :   -0.462931
   5 C :   -0.350073
   6 H :    0.180258
   7 H :    0.161951
   8 H :    0.193418
   9 H :    0.176617
  10 H :    0.184662
  11 H :    0.182079

  Mayer bond orders larger than 0.100000
B(  0-C ,  1-O ) :   0.8101 B(  0-C ,  6-H ) :   0.9651 B(  0-C ,  7-H ) :   0.9638
B(  0-C ,  8-H ) :   0.9612 B(  1-O ,  2-S ) :   0.8766 B(  2-S ,  3-O ) :   1.7954
B(  2-S ,  4-O ) :   1.6618 B(  2-S ,  5-C ) :   0.9146 B(  5-C ,  9-H ) :   0.9317
B(  5-C , 10-H ) :   0.9320 B(  5-C , 11-H ) :   0.9330

Dispersion correction           -0.003122388
FINAL SINGLE POINT ENERGY      -703.551697235140

DIPOLE MOMENT
-------------

Method             : SCF
Type of density    : Electron Density
Multiplicity       :   1
Irrep              :   0
Energy             :  -703.5681942541372109 Eh
Relativity type    :
Basis              : AO
                                X                 Y                 Z
Electronic contribution:      3.660507416       4.444008978       0.422976329
Nuclear contribution   :     -4.544771948      -5.889167545      -0.391239401
                        -----------------------------------------
Total Dipole Moment    :     -0.884264532      -1.445158566       0.031736928
                        -----------------------------------------
Magnitude (a.u.)       :      1.694524794
Magnitude (Debye)      :      4.307139732

Rotational constants in cm-1:             0.147749             0.088904             0.084705
Rotational constants in MHz :          4429.411131          2665.278783          2539.385630

                             ****ORCA TERMINATED NORMALLY****
TOTAL RUN TIME: 0 days 0 hours 0 minutes 11 seconds 337 msec
