                         Program Version 6.0.1  -  RELEASE   -
|  1> ! pbe def2-sv(p) def2/J RI DEFGRID1 loosescf d4 GCP(DFT/SV(P)) printgap
|  2> %output
|  3>     printlevel normal
|  4> end
|  5> * xyz 0 1
|  6> C -2.5476235425 -0.9206189596 0.2871825928
|  7> C -1.1259767861 -0.4497447215 0.6360375368
|  8> H -1.0055518585 -0.4037654528 1.7329955341
|  9> C -0.8461028703 0.9416649166 0.0435345809
| 10> H -1.1024549337 0.9333954119 -1.0217404721
| 11> C 0.6380320165 1.2885438054 0.2142371292
| 12> H 0.8528516628 1.4065566595 1.2935219987
| 13> C 1.5295148379 0.1662785081 -0.328251827
| 14> H 1.3565852616 0.0796581352 -1.415672895
| 15> C 1.1291531069 -1.1639515091 0.3380357528
| 16> H 1.3214953618 -1.1019219384 1.4201212784
| 17> O -0.2452195363 -1.4102778453 0.094197201
| 18> O 1.8424074171 -2.2433557056 -0.1148585187
| 19> O 2.8785446827 0.4205771656 -0.0616399729
| 20> O 0.9663258856 2.480376109 -0.4603793661
| 21> O -1.6497309308 1.9449328264 0.6136801934
| 22> O -2.6792593291 -1.1657107778 -1.0824987747
| 23> H -3.2635481008 -0.1354845125 0.5384418629
| 24> H -2.7728390054 -1.8238229837 0.8704619834
| 25> H 1.7650873898 -2.3011795198 -1.0755686366
| 26> H 3.0576691374 1.3304417705 -0.3328115674
| 27> H 0.2107577581 3.0777297709 -0.3856648909
| 28> H -1.5424314542 1.9342517205 1.5730609263
| 29> H -1.9721060895 -1.7747069634 -1.3309151483
| 30> *
| 31>
| 32>                          ****END OF INPUT****

CARTESIAN COORDINATES (ANGSTROEM)
---------------------------------
  C     -2.547624   -0.920619    0.287183
  C     -1.125977   -0.449745    0.636038
  H     -1.005552   -0.403765    1.732996
  C     -0.846103    0.941665    0.043535
  H     -1.102455    0.933395   -1.021740
  C      0.638032    1.288544    0.214237
  H      0.852852    1.406557    1.293522
  C      1.529515    0.166279   -0.328252
  H      1.356585    0.079658   -1.415673
  C      1.129153   -1.163952    0.338036
  H      1.321495   -1.101922    1.420121
  O     -0.245220   -1.410278    0.094197
  O      1.842407   -2.243356   -0.114859
  O      2.878545    0.420577   -0.061640
  O      0.966326    2.480376   -0.460379
  O     -1.649731    1.944933    0.613680
  O     -2.679259   -1.165711   -1.082499
  H     -3.263548   -0.135485    0.538442
  H     -2.772839   -1.823823    0.870462
  H      1.765087   -2.301180   -1.075569
  H      3.057669    1.330442   -0.332812
  H      0.210758    3.077730   -0.385665
  H     -1.542431    1.934252    1.573061
  H     -1.972106   -1.774707   -1.330915

 Total Charge           Charge          ....    0
 Multiplicity           Mult            ....    1
 Number of Electrons    NEL             ....   96
 Basis Dimension        Dim             ....  192

ORBITAL ENERGIES
----------------

  NO   OCC          E(Eh)            E(eV)
   0   2.0000     -18.784025      -511.1393
   1   2.0000     -18.775875      -510.9175
   2   2.0000     -18.764200      -510.5998
   3   2.0000     -18.761131      -510.5163
   4   2.0000     -18.752344      -510.2772
   5   2.0000     -18.751044      -510.2419
   6   2.0000      -9.993918      -271.9483
   7   2.0000      -9.955611      -270.9059
   8   2.0000      -9.950922      -270.7784
   9   2.0000      -9.949495      -270.7395
  10   2.0000      -9.946645      -270.6620
  11   2.0000      -9.936651      -270.3900
  12   2.0000      -0.993282       -27.0286
  13   2.0000      -0.960849       -26.1460
  14   2.0000      -0.944757       -25.7081
  15   2.0000      -0.934966       -25.4417
  16   2.0000      -0.923165       -25.1206
  17   2.0000      -0.918099       -24.9827
  18   2.0000      -0.709866       -19.3164
  19   2.0000      -0.697017       -18.9668
  20   2.0000      -0.623498       -16.9662
  21   2.0000      -0.594522       -16.1778
  22   2.0000      -0.566929       -15.4269
  23   2.0000      -0.553353       -15.0575
  24   2.0000      -0.511077       -13.9071
  25   2.0000      -0.493113       -13.4183
  26   2.0000      -0.479150       -13.0383
  27   2.0000      -0.463595       -12.6151
  28   2.0000      -0.454072       -12.3559
  29   2.0000      -0.439235       -11.9522
  30   2.0000      -0.425607       -11.5813
  31   2.0000      -0.418863       -11.3978
  32   2.0000      -0.386396       -10.5144
  33   2.0000      -0.380666       -10.3584
  34   2.0000      -0.371711       -10.1148
  35   2.0000      -0.357619        -9.7313
  36   2.0000      -0.333269        -9.0687
  37   2.0000      -0.320969        -8.7340
  38   2.0000      -0.310639        -8.4529
  39   2.0000      -0.302559        -8.2330
  40   2.0000      -0.291938        -7.9440
  41   2.0000      -0.283803        -7.7227
  42   2.0000      -0.263507        -7.1704
  43   2.0000      -0.245480        -6.6799
  44   2.0000      -0.242582        -6.6010
  45   2.0000      -0.226574        -6.1654
  46   2.0000      -0.222488        -6.0542
  47   2.0000      -0.213484        -5.8092
  48   0.0000       0.002643         0.0719
  49   0.0000       0.020074         0.5462
  50   0.0000       0.031005         0.8437
  51   0.0000       0.044733         1.2173
  52   0.0000       0.053141         1.4460

MULLIKEN ATOMIC CHARGES
-----------------------
   0 C :    0.111807
   1 C :   -0.035473
   2 H :    0.040165
   3 C :    0.032486
   4 H :    0.070617
   5 C :    0.056503
   6 H :    0.036955
   7 C :    0.045258
   8 H :    0.041942
   9 C :    0.201159
  10 H :    0.056904
  11 O :   -0.317241
  12 O :   -0.355690
  13 O :   -0.403813
  14 O :   -0.420984
  15 O :   -0.413603
  16 O :   -0.434655
  17 H :    0.083943
  18 H :    0.082728
  19 H :    0.302696
  20 H :    0.311903
  21 H :    0.307865
  22 H :    0.300345
  23 H :    0.298183
Sum of atomic charges:    0.0000000

LOEWDIN ATOMIC CHARGES
----------------------
   0 C :   -0.122658
   1 C :   -0.082479
   2 H :    0.097364
   3 C :   -0.087195
   4 H :    0.122037
   5 C :   -0.087313
   6 H :    0.094443
   7 C :   -0.090630
   8 H :    0.099269
   9 C :    0.007932
  10 H :    0.102275
  11 O :   -0.157720
  12 O :   -0.270799
  13 O :   -0.313018
  14 O :   -0.328448
  15 O :   -0.304499
  16 O :   -0.327440
  17 H :    0.118173
  18 H :    0.101392
  19 H :    0.288968
  20 H :    0.290366
  21 H :    0.286775
  22 H :    0.285020
  23 H :    0.278186

  Mayer bond orders larger than 0.100000
B(  0-C ,  1-C ) :   1.0359 B(  0-C , 16-O ) :   1.0728 B(  0-C , 17-H ) :   0.9133
B(  0-C , 18-H ) :   0.9146 B(  1-C ,  2-H ) :   0.8672 B(  1-C ,  3-C ) :   0.9945
B(  1-C , 11-O ) :   0.9938 B(  3-C ,  4-H ) :   0.8552 B(  3-C ,  5-C ) :   1.0129
B(  3-C , 15-O ) :   0.9999 B(  5-C ,  6-H ) :   0.8666 B(  5-C ,  7-C ) :   1.0130
B(  5-C , 14-O ) :   1.0903 B(  7-C ,  8-H ) :   0.8573 B(  7-C ,  9-C ) :   0.9894
B(  7-C , 13-O ) :   1.0935 B(  9-C , 10-H ) :   0.8811 B(  9-C , 11-O ) :   0.9751
B(  9-C , 12-O ) :   1.1812 B( 12-O , 19-H ) :   0.8436 B( 13-O , 20-H ) :   0.8375
B( 14-O , 21-H ) :   0.8298 B( 15-O , 22-H ) :   0.8455 B( 16-O , 23-H ) :   0.8374

Dispersion correction           -0.024025396
FINAL SINGLE POINT ENERGY      -685.700605536151

DIPOLE MOMENT
-------------

Method             : SCF
Type of density    : Electron Density
Multiplicity       :   1
Irrep              :   0
Energy             :  -685.8313954734707067 Eh
Relativity type    :
Basis              : AO
                                X                 Y                 Z
Electronic contribution:      2.686446336      -0.665675455      -1.342710377
Nuclear contribution   :     -2.886663697       1.146041610       1.735856348
                        -----------------------------------------
Total Dipole Moment    :     -0.200217361       0.480366155       0.393145970
                        -----------------------------------------
Magnitude (a.u.)       :      0.652228786
Magnitude (Debye)      :      1.657833823

Rotational constants in cm-1:             0.038498             0.027558             0.017872
Rotational constants in MHz :          1154.128130           826.170363           535.779902

                             ****ORCA TERMINATED NORMALLY****
TOTAL RUN TIME: 0 days 0 hours 0 minutes 43 seconds 712 msec
