                         Program Version 6.0.1  -  RELEASE   -
|  1> ! pbe def2-sv(p) def2/J RI DEFGRID1 loosescf d4 GCP(DFT/SV(P)) printgap
|  2> %output
|  3>     printlevel normal
|  4> end
|  5> * xyz 0 1
|  6> C -2.201091554 -1.2432815073 0.1520430316
|  7> C -1.1311322165 -0.3561635481 0.8215296566
|  8> H -1.5348868758 -0.0311269678 1.7892631568
|  9> C -0.8180984542 0.9037107992 -0.0104112009
| 10> H -0.9431984325 0.6964653089 -1.082651486
| 11> C 0.6401341221 1.294331753 0.242164646
| 12> H 0.7948282175 1.3995676227 1.3274199727
| 13> C 1.5435349752 0.1776239451 -0.2893298906
| 14> H 1.4893140845 0.1901037492 -1.3906169284
| 15> C 1.052931199 -1.2041738741 0.2134532241
| 16> H 1.8813462837 -1.6756497908 0.7534697474
| 17> O 0.0295640831 -1.0849409296 1.1743270415
| 18> O 0.7211404007 -2.0599865051 -0.8238879838
| 19> O 2.8684961105 0.3563428752 0.1304385375
| 20> O 0.9791040605 2.4882393591 -0.4174963269
| 21> O -1.6258909471 1.9996080364 0.3664912981
| 22> O -1.9450779962 -1.3720269761 -1.2364392922
| 23> H -3.1901873127 -0.7895986112 0.3026870137
| 24> H -2.1785021239 -2.2199911403 0.6458999809
| 25> H -0.124794634 -1.7755468823 -1.2148168884
| 26> H 3.1212745795 1.2614052301 -0.0926902906
| 27> H 0.2795055324 3.1251611275 -0.2256969738
| 28> H -2.5385137619 1.8185676448 0.1210312443
| 29> H -2.4754145488 -2.0940499739 -1.5893496192
| 30> *
| 31>
| 32>                          ****END OF INPUT****

CARTESIAN COORDINATES (ANGSTROEM)
---------------------------------
  C     -2.201092   -1.243282    0.152043
  C     -1.131132   -0.356164    0.821530
  H     -1.534887   -0.031127    1.789263
  C     -0.818098    0.903711   -0.010411
  H     -0.943198    0.696465   -1.082651
  C      0.640134    1.294332    0.242165
  H      0.794828    1.399568    1.327420
  C      1.543535    0.177624   -0.289330
  H      1.489314    0.190104   -1.390617
  C      1.052931   -1.204174    0.213453
  H      1.881346   -1.675650    0.753470
  O      0.029564   -1.084941    1.174327
  O      0.721140   -2.059987   -0.823888
  O      2.868496    0.356343    0.130439
  O      0.979104    2.488239   -0.417496
  O     -1.625891    1.999608    0.366491
  O     -1.945078   -1.372027   -1.236439
  H     -3.190187   -0.789599    0.302687
  H     -2.178502   -2.219991    0.645900
  H     -0.124795   -1.775547   -1.214817
  H      3.121275    1.261405   -0.092690
  H      0.279506    3.125161   -0.225697
  H     -2.538514    1.818568    0.121031
  H     -2.475415   -2.094050   -1.589350

 Total Charge           Charge          ....    0
 Multiplicity           Mult            ....    1
 Number of Electrons    NEL             ....   96
 Basis Dimension        Dim             ....  192

ORBITAL ENERGIES
----------------

  NO   OCC          E(Eh)            E(eV)
   0   2.0000     -18.795289      -511.4458
   1   2.0000     -18.771023      -510.7855
   2   2.0000     -18.761848      -510.5358
   3   2.0000     -18.748450      -510.1713
   4   2.0000     -18.738524      -509.9012
   5   2.0000     -18.731514      -509.7104
   6   2.0000      -9.969835      -271.2930
   7   2.0000      -9.957267      -270.9510
   8   2.0000      -9.954306      -270.8704
   9   2.0000      -9.947693      -270.6905
  10   2.0000      -9.935122      -270.3484
  11   2.0000      -9.928000      -270.1546
  12   2.0000      -0.976889       -26.5825
  13   2.0000      -0.959166       -26.1002
  14   2.0000      -0.950570       -25.8663
  15   2.0000      -0.929247       -25.2861
  16   2.0000      -0.910364       -24.7723
  17   2.0000      -0.895854       -24.3774
  18   2.0000      -0.711050       -19.3487
  19   2.0000      -0.689541       -18.7634
  20   2.0000      -0.630599       -17.1595
  21   2.0000      -0.581390       -15.8204
  22   2.0000      -0.562507       -15.3066
  23   2.0000      -0.525627       -14.3030
  24   2.0000      -0.506079       -13.7711
  25   2.0000      -0.486011       -13.2250
  26   2.0000      -0.479902       -13.0588
  27   2.0000      -0.468451       -12.7472
  28   2.0000      -0.442804       -12.0493
  29   2.0000      -0.434638       -11.8271
  30   2.0000      -0.408437       -11.1141
  31   2.0000      -0.403555       -10.9813
  32   2.0000      -0.396510       -10.7896
  33   2.0000      -0.385863       -10.4999
  34   2.0000      -0.364635        -9.9222
  35   2.0000      -0.348958        -9.4956
  36   2.0000      -0.332909        -9.0589
  37   2.0000      -0.314460        -8.5569
  38   2.0000      -0.304041        -8.2734
  39   2.0000      -0.294186        -8.0052
  40   2.0000      -0.283941        -7.7264
  41   2.0000      -0.274576        -7.4716
  42   2.0000      -0.266500        -7.2518
  43   2.0000      -0.242430        -6.5969
  44   2.0000      -0.225991        -6.1495
  45   2.0000      -0.217875        -5.9287
  46   2.0000      -0.208129        -5.6635
  47   2.0000      -0.203603        -5.5403
  48   0.0000      -0.006327        -0.1722
  49   0.0000       0.010824         0.2945
  50   0.0000       0.039975         1.0878
  51   0.0000       0.052418         1.4264
  52   0.0000       0.064574         1.7571

MULLIKEN ATOMIC CHARGES
-----------------------
   0 C :    0.032201
   1 C :    0.030183
   2 H :    0.079427
   3 C :   -0.028147
   4 H :    0.077813
   5 C :    0.064595
   6 H :    0.060010
   7 C :    0.056106
   8 H :    0.057577
   9 C :    0.205042
  10 H :    0.076299
  11 O :   -0.301902
  12 O :   -0.422410
  13 O :   -0.413964
  14 O :   -0.426218
  15 O :   -0.418453
  16 O :   -0.435813
  17 H :    0.072796
  18 H :    0.103891
  19 H :    0.289358
  20 H :    0.305822
  21 H :    0.306390
  22 H :    0.306985
  23 H :    0.322408
Sum of atomic charges:    0.0000000

LOEWDIN ATOMIC CHARGES
----------------------
   0 C :   -0.138447
   1 C :   -0.074326
   2 H :    0.124505
   3 C :   -0.086196
   4 H :    0.106896
   5 C :   -0.078780
   6 H :    0.107228
   7 C :   -0.079595
   8 H :    0.103461
   9 C :    0.005882
  10 H :    0.117099
  11 O :   -0.140118
  12 O :   -0.323297
  13 O :   -0.315084
  14 O :   -0.325040
  15 O :   -0.319655
  16 O :   -0.323112
  17 H :    0.101185
  18 H :    0.116675
  19 H :    0.258579
  20 H :    0.287174
  21 H :    0.285145
  22 H :    0.290027
  23 H :    0.299795

  Mayer bond orders larger than 0.100000
B(  0-C ,  1-C ) :   1.0628 B(  0-C , 16-O ) :   1.0220 B(  0-C , 17-H ) :   0.9112
B(  0-C , 18-H ) :   0.9100 B(  1-C ,  2-H ) :   0.8822 B(  1-C ,  3-C ) :   0.9822
B(  1-C , 11-O ) :   1.0367 B(  3-C ,  4-H ) :   0.8795 B(  3-C ,  5-C ) :   1.0218
B(  3-C , 15-O ) :   1.0576 B(  5-C ,  6-H ) :   0.8622 B(  5-C ,  7-C ) :   1.0408
B(  5-C , 14-O ) :   1.0817 B(  7-C ,  8-H ) :   0.8856 B(  7-C ,  9-C ) :   0.9774
B(  7-C , 13-O ) :   1.0837 B(  9-C , 10-H ) :   0.8885 B(  9-C , 11-O ) :   1.0371
B(  9-C , 12-O ) :   1.1268 B( 12-O , 19-H ) :   0.7861 B( 13-O , 20-H ) :   0.8423
B( 14-O , 21-H ) :   0.8331 B( 15-O , 22-H ) :   0.8473 B( 16-O , 19-H ) :   0.1332
B( 16-O , 23-H ) :   0.8367

Dispersion correction           -0.025009961
FINAL SINGLE POINT ENERGY      -685.692993118421

DIPOLE MOMENT
-------------

Method             : SCF
Type of density    : Electron Density
Multiplicity       :   1
Irrep              :   0
Energy             :  -685.8258533679885431 Eh
Relativity type    :
Basis              : AO
                                X                 Y                 Z
Electronic contribution:      2.886200646       0.318121364       0.310430097
Nuclear contribution   :     -5.068939247      -0.083990013      -0.627436386
                        -----------------------------------------
Total Dipole Moment    :     -2.182738601       0.234131352      -0.317006289
                        -----------------------------------------
Magnitude (a.u.)       :      2.218030270
Magnitude (Debye)      :      5.637784904

Rotational constants in cm-1:             0.039225             0.030215             0.020574
Rotational constants in MHz :          1175.946021           905.823047           616.806878

                             ****ORCA TERMINATED NORMALLY****
TOTAL RUN TIME: 0 days 0 hours 0 minutes 8 seconds 84 msec
