                         Program Version 6.0.1  -  RELEASE   -
|  1> ! pbe def2-sv(p) def2/J RI DEFGRID1 loosescf d4 GCP(DFT/SV(P)) printgap
|  2> %output
|  3>     printlevel normal
|  4> end
|  5> * xyz 0 1
|  6> C -0.6116176039 0.0191175648 0.4635046524
|  7> C 0.6115577351 -0.0027187582 -0.463866837
|  8> O 1.8234579915 0.0496991708 0.2431322854
|  9> O -1.8237207722 0.0243181549 -0.2452328465
| 10> H -0.6065618908 0.9345679695 1.0589685688
| 11> H -0.5646286363 -0.8431332664 1.1498167265
| 12> H 0.6007112549 0.8782095206 -1.1092453422
| 13> H 0.5701520966 -0.9020358703 -1.1012711915
| 14> H 1.8623483342 -0.6897843775 0.8604553325
| 15> H -1.8571363311 -0.7481968967 -0.8210636949
| 16> *
| 17>
| 18>                          ****END OF INPUT****

CARTESIAN COORDINATES (ANGSTROEM)
---------------------------------
  C     -0.611618    0.019118    0.463505
  C      0.611558   -0.002719   -0.463867
  O      1.823458    0.049699    0.243132
  O     -1.823721    0.024318   -0.245233
  H     -0.606562    0.934568    1.058969
  H     -0.564629   -0.843133    1.149817
  H      0.600711    0.878210   -1.109245
  H      0.570152   -0.902036   -1.101271
  H      1.862348   -0.689784    0.860455
  H     -1.857136   -0.748197   -0.821064

 Total Charge           Charge          ....    0
 Multiplicity           Mult            ....    1
 Number of Electrons    NEL             ....   34
 Basis Dimension        Dim             ....   68

ORBITAL ENERGIES
----------------

  NO   OCC          E(Eh)            E(eV)
   0   2.0000     -18.749759      -510.2069
   1   2.0000     -18.749714      -510.2057
   2   2.0000      -9.932815      -270.2856
   3   2.0000      -9.932728      -270.2833
   4   2.0000      -0.933276       -25.3957
   5   2.0000      -0.921950       -25.0875
   6   2.0000      -0.655468       -17.8362
   7   2.0000      -0.569878       -15.5072
   8   2.0000      -0.478398       -13.0179
   9   2.0000      -0.448595       -12.2069
  10   2.0000      -0.415167       -11.2973
  11   2.0000      -0.363447        -9.8899
  12   2.0000      -0.363004        -9.8778
  13   2.0000      -0.299096        -8.1388
  14   2.0000      -0.276874        -7.5341
  15   2.0000      -0.235569        -6.4102
  16   2.0000      -0.208652        -5.6777
  17   0.0000       0.021636         0.5887
  18   0.0000       0.022519         0.6128
  19   0.0000       0.079025         2.1504
  20   0.0000       0.081015         2.2045
  21   0.0000       0.110725         3.0130

MULLIKEN ATOMIC CHARGES
-----------------------
   0 C :   -0.024641
   1 C :   -0.024827
   2 O :   -0.430047
   3 O :   -0.430107
   4 H :    0.100282
   5 H :    0.060669
   6 H :    0.100265
   7 H :    0.060731
   8 H :    0.293843
   9 H :    0.293830
Sum of atomic charges:    0.0000000

LOEWDIN ATOMIC CHARGES
----------------------
   0 C :   -0.150835
   1 C :   -0.150871
   2 O :   -0.333462
   3 O :   -0.333511
   4 H :    0.117202
   5 H :    0.085787
   6 H :    0.117204
   7 H :    0.085787
   8 H :    0.281357
   9 H :    0.281340

  Mayer bond orders larger than 0.100000
B(  0-C ,  1-C ) :   1.0754 B(  0-C ,  3-O ) :   1.0581 B(  0-C ,  4-H ) :   0.9231
B(  0-C ,  5-H ) :   0.9225 B(  1-C ,  2-O ) :   1.0582 B(  1-C ,  6-H ) :   0.9231
B(  1-C ,  7-H ) :   0.9224 B(  2-O ,  8-H ) :   0.8537 B(  3-O ,  9-H ) :   0.8537

Dispersion correction           -0.004707143
FINAL SINGLE POINT ENERGY      -229.722861713823

DIPOLE MOMENT
-------------

Method             : SCF
Type of density    : Electron Density
Multiplicity       :   1
Irrep              :   0
Energy             :  -229.7736706700539457 Eh
Relativity type    :
Basis              : AO
                                X                 Y                 Z
Electronic contribution:     -0.001187659       0.398032416      -0.010896376
Nuclear contribution   :      0.004578890      -1.284541699       0.035300613
                        -----------------------------------------
Total Dipole Moment    :      0.003391231      -0.886509283       0.024404237
                        -----------------------------------------
Magnitude (a.u.)       :      0.886851609
Magnitude (Debye)      :      2.254197646

Rotational constants in cm-1:             0.983609             0.131076             0.122883
Rotational constants in MHz :         29487.852594          3929.550342          3683.946296

                             ****ORCA TERMINATED NORMALLY****
TOTAL RUN TIME: 0 days 0 hours 0 minutes 6 seconds 102 msec
