                         Program Version 6.0.1  -  RELEASE   -
|  1> ! pbe def2-sv(p) def2/J RI DEFGRID1 loosescf d4 GCP(DFT/SV(P)) printgap
|  2> %output
|  3>     printlevel normal
|  4> end
|  5> * xyz 0 1
|  6> C -3.6818444668 0.2702846812 -0.1210506713
|  7> C -2.1990468284 0.2892611625 0.2381181453
|  8> H -2.0987686359 0.5575673516 1.2959435163
|  9> C -1.4357475732 1.3140908795 -0.5982495498
| 10> C 0.0425627576 1.3184302704 -0.2261396454
| 11> C 0.6747601463 -0.0578941376 -0.4770544129
| 12> H 0.5142674003 -0.3089770204 -1.5335728044
| 13> C -0.0965128238 -1.0894109866 0.3262396187
| 14> O 0.4106469781 -1.8415633707 1.1198297157
| 15> C -1.5799885776 -1.0988126746 0.0337915975
| 16> C 2.188417155 -0.1290942374 -0.2027486619
| 17> C 2.9830933455 0.5582944274 -1.3110303532
| 18> C 2.5724834887 0.442029549 1.1602231995
| 19> H -3.8168521745 0.0132699072 -1.1697750967
| 20> H -4.2132256173 -0.4613383257 0.4828571322
| 21> H -4.127483818 1.2470587532 0.0527147183
| 22> H -1.5508709789 1.0773349924 -1.6590810907
| 23> H -1.8568459012 2.307982338 -0.4315137976
| 24> H 0.5696644328 2.0718538181 -0.8134387216
| 25> H 0.142678537 1.5785859242 0.8286086615
| 26> H -1.7233932354 -1.4039572607 -1.0060135401
| 27> H -2.0647963192 -1.8337724341 0.6789137452
| 28> H 2.4509428957 -1.1932517499 -0.201049026
| 29> H 2.7729342664 1.625320916 -1.3363675709
| 30> H 2.741547848 0.1352389165 -2.284079716
| 31> H 4.0491862142 0.4297841519 -1.1397785211
| 32> H 3.6203911197 0.2331734219 1.3632789699
| 33> H 1.977636181 -0.0181017821 1.9442336073
| 34> H 2.4320425699 1.520135434 1.188822141
| 35> *
| 36>
| 37>                          ****END OF INPUT****

CARTESIAN COORDINATES (ANGSTROEM)
---------------------------------
  C     -3.681844    0.270285   -0.121051
  C     -2.199047    0.289261    0.238118
  H     -2.098769    0.557567    1.295944
  C     -1.435748    1.314091   -0.598250
  C      0.042563    1.318430   -0.226140
  C      0.674760   -0.057894   -0.477054
  H      0.514267   -0.308977   -1.533573
  C     -0.096513   -1.089411    0.326240
  O      0.410647   -1.841563    1.119830
  C     -1.579989   -1.098813    0.033792
  C      2.188417   -0.129094   -0.202749
  C      2.983093    0.558294   -1.311030
  C      2.572483    0.442030    1.160223
  H     -3.816852    0.013270   -1.169775
  H     -4.213226   -0.461338    0.482857
  H     -4.127484    1.247059    0.052715
  H     -1.550871    1.077335   -1.659081
  H     -1.856846    2.307982   -0.431514
  H      0.569664    2.071854   -0.813439
  H      0.142679    1.578586    0.828609
  H     -1.723393   -1.403957   -1.006014
  H     -2.064796   -1.833772    0.678914
  H      2.450943   -1.193252   -0.201049
  H      2.772934    1.625321   -1.336368
  H      2.741548    0.135239   -2.284080
  H      4.049186    0.429784   -1.139779
  H      3.620391    0.233173    1.363279
  H      1.977636   -0.018102    1.944234
  H      2.432043    1.520135    1.188822

 Total Charge           Charge          ....    0
 Multiplicity           Mult            ....    1
 Number of Electrons    NEL             ....   86
 Basis Dimension        Dim             ....  190

ORBITAL ENERGIES
----------------

  NO   OCC          E(Eh)            E(eV)
   0   2.0000     -18.741915      -509.9934
   1   2.0000      -9.968933      -271.2684
   2   2.0000      -9.906707      -269.5752
   3   2.0000      -9.898628      -269.3554
   4   2.0000      -9.895430      -269.2683
   5   2.0000      -9.893081      -269.2044
   6   2.0000      -9.891157      -269.1521
   7   2.0000      -9.890917      -269.1455
   8   2.0000      -9.883034      -268.9310
   9   2.0000      -9.873831      -268.6806
  10   2.0000      -9.866632      -268.4847
  11   2.0000      -0.941508       -25.6197
  12   2.0000      -0.769433       -20.9373
  13   2.0000      -0.728912       -19.8347
  14   2.0000      -0.677920       -18.4471
  15   2.0000      -0.656614       -17.8674
  16   2.0000      -0.613296       -16.6886
  17   2.0000      -0.607693       -16.5362
  18   2.0000      -0.555832       -15.1250
  19   2.0000      -0.519262       -14.1298
  20   2.0000      -0.504569       -13.7300
  21   2.0000      -0.468177       -12.7397
  22   2.0000      -0.433655       -11.8003
  23   2.0000      -0.419774       -11.4226
  24   2.0000      -0.413945       -11.2640
  25   2.0000      -0.400424       -10.8961
  26   2.0000      -0.389781       -10.6065
  27   2.0000      -0.380273       -10.3477
  28   2.0000      -0.369481       -10.0541
  29   2.0000      -0.361119        -9.8266
  30   2.0000      -0.352208        -9.5841
  31   2.0000      -0.343971        -9.3599
  32   2.0000      -0.335153        -9.1200
  33   2.0000      -0.331315        -9.0155
  34   2.0000      -0.323230        -8.7955
  35   2.0000      -0.310472        -8.4484
  36   2.0000      -0.306678        -8.3451
  37   2.0000      -0.294460        -8.0127
  38   2.0000      -0.288181        -7.8418
  39   2.0000      -0.284491        -7.7414
  40   2.0000      -0.273890        -7.4529
  41   2.0000      -0.267546        -7.2803
  42   2.0000      -0.191697        -5.2163
  43   0.0000      -0.049883        -1.3574
  44   0.0000       0.033719         0.9175
  45   0.0000       0.038003         1.0341
  46   0.0000       0.044941         1.2229
  47   0.0000       0.064790         1.7630

MULLIKEN ATOMIC CHARGES
-----------------------
   0 C :   -0.194679
   1 C :   -0.232189
   2 H :    0.076569
   3 C :   -0.109394
   4 C :   -0.118875
   5 C :   -0.173234
   6 H :    0.076078
   7 C :    0.015163
   8 O :   -0.151349
   9 C :   -0.051376
  10 C :   -0.102705
  11 C :   -0.237661
  12 C :   -0.264444
  13 H :    0.091679
  14 H :    0.102249
  15 H :    0.100042
  16 H :    0.071201
  17 H :    0.085132
  18 H :    0.092759
  19 H :    0.088965
  20 H :    0.085846
  21 H :    0.082793
  22 H :    0.074690
  23 H :    0.094813
  24 H :    0.092745
  25 H :    0.099397
  26 H :    0.097185
  27 H :    0.112337
  28 H :    0.096263
Sum of atomic charges:   -0.0000000

LOEWDIN ATOMIC CHARGES
----------------------
   0 C :   -0.326250
   1 C :   -0.147159
   2 H :    0.119445
   3 C :   -0.216005
   4 C :   -0.209200
   5 C :   -0.162133
   6 H :    0.130202
   7 C :    0.054988
   8 O :   -0.116177
   9 C :   -0.233948
  10 C :   -0.147033
  11 C :   -0.328607
  12 C :   -0.333180
  13 H :    0.117446
  14 H :    0.120450
  15 H :    0.119583
  16 H :    0.114504
  17 H :    0.119414
  18 H :    0.120394
  19 H :    0.121935
  20 H :    0.132442
  21 H :    0.126289
  22 H :    0.121229
  23 H :    0.113308
  24 H :    0.114515
  25 H :    0.119536
  26 H :    0.119789
  27 H :    0.121628
  28 H :    0.112592

  Mayer bond orders larger than 0.100000
B(  0-C ,  1-C ) :   1.1145 B(  0-C , 13-H ) :   0.9452 B(  0-C , 14-H ) :   0.9474
B(  0-C , 15-H ) :   0.9472 B(  1-C ,  2-H ) :   0.8940 B(  1-C ,  3-C ) :   1.0872
B(  1-C ,  9-C ) :   1.0786 B(  3-C ,  4-C ) :   1.1329 B(  3-C , 16-H ) :   0.9063
B(  3-C , 17-H ) :   0.9105 B(  4-C ,  5-C ) :   1.0740 B(  4-C , 18-H ) :   0.9089
B(  4-C , 19-H ) :   0.8946 B(  5-C ,  6-H ) :   0.8647 B(  5-C ,  7-C ) :   0.9258
B(  5-C , 10-C ) :   1.0343 B(  7-C ,  8-O ) :   2.1883 B(  7-C ,  9-C ) :   1.0487
B(  9-C , 20-H ) :   0.8788 B(  9-C , 21-H ) :   0.8901 B( 10-C , 11-C ) :   1.1119
B( 10-C , 12-C ) :   1.1084 B( 10-C , 22-H ) :   0.8902 B( 11-C , 23-H ) :   0.9410
B( 11-C , 24-H ) :   0.9486 B( 11-C , 25-H ) :   0.9501 B( 12-C , 26-H ) :   0.9476
B( 12-C , 27-H ) :   0.9448 B( 12-C , 28-H ) :   0.9407

Dispersion correction           -0.029810446
FINAL SINGLE POINT ENERGY      -466.037266886518

DIPOLE MOMENT
-------------

Method             : SCF
Type of density    : Electron Density
Multiplicity       :   1
Irrep              :   0
Energy             :  -466.1339884022432898 Eh
Relativity type    :
Basis              : AO
                                X                 Y                 Z
Electronic contribution:     -0.321047516      -6.413004279       2.893044362
Nuclear contribution   :     -0.163665372       7.082014786      -3.491469079
                        -----------------------------------------
Total Dipole Moment    :     -0.484712888       0.669010507      -0.598424718
                        -----------------------------------------
Magnitude (a.u.)       :      1.020114594
Magnitude (Debye)      :      2.592925235

Rotational constants in cm-1:             0.066225             0.023410             0.019871
Rotational constants in MHz :          1985.380760           701.801590           595.717425

                             ****ORCA TERMINATED NORMALLY****
TOTAL RUN TIME: 0 days 0 hours 0 minutes 19 seconds 242 msec
