                         Program Version 6.0.1  -  RELEASE   -
|  1> ! pbe def2-sv(p) def2/J RI DEFGRID1 loosescf d4 GCP(DFT/SV(P)) printgap
|  2> %output
|  3>     printlevel normal
|  4> end
|  5> * xyz 0 1
|  6> C -2.161852954 -0.9641506305 -0.0947948689
|  7> C -1.0762118065 -0.355371865 0.8098056864
|  8> H -1.5121653204 -0.3228380769 1.8172304949
|  9> C -0.7278908213 1.1093115922 0.4400937993
| 10> H -1.5923351512 1.5368127769 -0.0803957222
| 11> C 0.5057842638 1.2548057809 -0.4783534677
| 12> H 0.8584109928 2.2895347958 -0.377695824
| 13> C 1.6260139755 0.3171102429 0.0267504515
| 14> H 2.4842630507 0.3839928163 -0.6489492327
| 15> C 1.1114202329 -1.1260256779 0.067110234
| 16> H 1.8825293236 -1.7759101896 0.5246514251
| 17> O 0.0424762342 -1.226695877 0.973813344
| 18> O 0.8205725754 -1.5566041431 -1.2202020249
| 19> O 2.0383780216 0.6917128967 1.3258818902
| 20> O 0.2199739822 1.0818320846 -1.8288265541
| 21> O -0.5633005548 1.8752496785 1.6107047767
| 22> O -1.783598854 -0.9428402856 -1.4537858572
| 23> H -3.0792092833 -0.3867460248 0.0656665224
| 24> H -2.3368748887 -1.9997197463 0.2330569246
| 25> H 0.2462234794 -2.3303451776 -1.1765602322
| 26> H 1.6337336705 0.078344555 1.9556050967
| 27> H -0.0664951283 0.1642460806 -1.9692116389
| 28> H 0.3635491484 1.8173335978 1.8861333937
| 29> H -2.5633069962 -1.0354791532 -2.0088182275
| 30> *
| 31>
| 32>                          ****END OF INPUT****

CARTESIAN COORDINATES (ANGSTROEM)
---------------------------------
  C     -2.161853   -0.964151   -0.094795
  C     -1.076212   -0.355372    0.809806
  H     -1.512165   -0.322838    1.817230
  C     -0.727891    1.109312    0.440094
  H     -1.592335    1.536813   -0.080396
  C      0.505784    1.254806   -0.478353
  H      0.858411    2.289535   -0.377696
  C      1.626014    0.317110    0.026750
  H      2.484263    0.383993   -0.648949
  C      1.111420   -1.126026    0.067110
  H      1.882529   -1.775910    0.524651
  O      0.042476   -1.226696    0.973813
  O      0.820573   -1.556604   -1.220202
  O      2.038378    0.691713    1.325882
  O      0.219974    1.081832   -1.828827
  O     -0.563301    1.875250    1.610705
  O     -1.783599   -0.942840   -1.453786
  H     -3.079209   -0.386746    0.065667
  H     -2.336875   -1.999720    0.233057
  H      0.246223   -2.330345   -1.176560
  H      1.633734    0.078345    1.955605
  H     -0.066495    0.164246   -1.969212
  H      0.363549    1.817334    1.886133
  H     -2.563307   -1.035479   -2.008818

 Total Charge           Charge          ....    0
 Multiplicity           Mult            ....    1
 Number of Electrons    NEL             ....   96
 Basis Dimension        Dim             ....  192

ORBITAL ENERGIES
----------------

  NO   OCC          E(Eh)            E(eV)
   0   2.0000     -18.785002      -511.1659
   1   2.0000     -18.776542      -510.9357
   2   2.0000     -18.773318      -510.8480
   3   2.0000     -18.768200      -510.7087
   4   2.0000     -18.736926      -509.8577
   5   2.0000     -18.726133      -509.5640
   6   2.0000      -9.997216      -272.0381
   7   2.0000      -9.951816      -270.8027
   8   2.0000      -9.951757      -270.8011
   9   2.0000      -9.942062      -270.5373
  10   2.0000      -9.937156      -270.4038
  11   2.0000      -9.932492      -270.2768
  12   2.0000      -0.996713       -27.1219
  13   2.0000      -0.950639       -25.8682
  14   2.0000      -0.945419       -25.7262
  15   2.0000      -0.926152       -25.2019
  16   2.0000      -0.918743       -25.0003
  17   2.0000      -0.905719       -24.6459
  18   2.0000      -0.709496       -19.3064
  19   2.0000      -0.685680       -18.6583
  20   2.0000      -0.626915       -17.0592
  21   2.0000      -0.593373       -16.1465
  22   2.0000      -0.577289       -15.7088
  23   2.0000      -0.528434       -14.3794
  24   2.0000      -0.510936       -13.9033
  25   2.0000      -0.488145       -13.2831
  26   2.0000      -0.473449       -12.8832
  27   2.0000      -0.465809       -12.6753
  28   2.0000      -0.441864       -12.0237
  29   2.0000      -0.427394       -11.6300
  30   2.0000      -0.422899       -11.5077
  31   2.0000      -0.415042       -11.2939
  32   2.0000      -0.393448       -10.7063
  33   2.0000      -0.374986       -10.2039
  34   2.0000      -0.363248        -9.8845
  35   2.0000      -0.346516        -9.4292
  36   2.0000      -0.344011        -9.3610
  37   2.0000      -0.322642        -8.7795
  38   2.0000      -0.314692        -8.5632
  39   2.0000      -0.303309        -8.2534
  40   2.0000      -0.273753        -7.4492
  41   2.0000      -0.271950        -7.4001
  42   2.0000      -0.255020        -6.9394
  43   2.0000      -0.252995        -6.8843
  44   2.0000      -0.243009        -6.6126
  45   2.0000      -0.237432        -6.4608
  46   2.0000      -0.209386        -5.6977
  47   2.0000      -0.190789        -5.1916
  48   0.0000       0.000283         0.0077
  49   0.0000       0.026473         0.7204
  50   0.0000       0.037956         1.0328
  51   0.0000       0.057241         1.5576
  52   0.0000       0.060764         1.6535

MULLIKEN ATOMIC CHARGES
-----------------------
   0 C :   -0.001108
   1 C :    0.060169
   2 H :    0.083085
   3 C :    0.030761
   4 H :    0.073149
   5 C :    0.058808
   6 H :    0.080862
   7 C :    0.037865
   8 H :    0.091023
   9 C :    0.137523
  10 H :    0.073702
  11 O :   -0.324915
  12 O :   -0.385818
  13 O :   -0.420348
  14 O :   -0.428397
  15 O :   -0.426587
  16 O :   -0.436361
  17 H :    0.089685
  18 H :    0.080509
  19 H :    0.306266
  20 H :    0.302673
  21 H :    0.317504
  22 H :    0.287623
  23 H :    0.312328
Sum of atomic charges:    0.0000000

LOEWDIN ATOMIC CHARGES
----------------------
   0 C :   -0.137167
   1 C :   -0.073134
   2 H :    0.127667
   3 C :   -0.071243
   4 H :    0.118111
   5 C :   -0.076607
   6 H :    0.118350
   7 C :   -0.082275
   8 H :    0.122376
   9 C :   -0.015033
  10 H :    0.095569
  11 O :   -0.149840
  12 O :   -0.292476
  13 O :   -0.309851
  14 O :   -0.315940
  15 O :   -0.325193
  16 O :   -0.330070
  17 H :    0.110948
  18 H :    0.099621
  19 H :    0.284606
  20 H :    0.277109
  21 H :    0.264581
  22 H :    0.266750
  23 H :    0.293144

  Mayer bond orders larger than 0.100000
B(  0-C ,  1-C ) :   1.0686 B(  0-C , 16-O ) :   1.0593 B(  0-C , 17-H ) :   0.9132
B(  0-C , 18-H ) :   0.9114 B(  1-C ,  2-H ) :   0.8862 B(  1-C ,  3-C ) :   0.9561
B(  1-C , 11-O ) :   0.9684 B(  3-C ,  4-H ) :   0.8927 B(  3-C ,  5-C ) :   0.9785
B(  3-C , 15-O ) :   1.0535 B(  5-C ,  6-H ) :   0.9000 B(  5-C ,  7-C ) :   0.9565
B(  5-C , 14-O ) :   1.1005 B(  7-C ,  8-H ) :   0.8928 B(  7-C ,  9-C ) :   1.0161
B(  7-C , 13-O ) :   1.0360 B(  9-C , 10-H ) :   0.9051 B(  9-C , 11-O ) :   1.0325
B(  9-C , 12-O ) :   1.1266 B( 12-O , 19-H ) :   0.8231 B( 13-O , 20-H ) :   0.8185
B( 13-O , 22-H ) :   0.1043 B( 14-O , 21-H ) :   0.7916 B( 15-O , 22-H ) :   0.8159
B( 16-O , 23-H ) :   0.8415

Dispersion correction           -0.026710064
FINAL SINGLE POINT ENERGY      -685.693087229691

DIPOLE MOMENT
-------------

Method             : SCF
Type of density    : Electron Density
Multiplicity       :   1
Irrep              :   0
Energy             :  -685.8286608221175129 Eh
Relativity type    :
Basis              : AO
                                X                 Y                 Z
Electronic contribution:      2.460620243       0.036796301      -0.163348426
Nuclear contribution   :     -3.442565597      -1.484180528       0.198290004
                        -----------------------------------------
Total Dipole Moment    :     -0.981945354      -1.447384227       0.034941578
                        -----------------------------------------
Magnitude (a.u.)       :      1.749388091
Magnitude (Debye)      :      4.446591152

Rotational constants in cm-1:             0.040213             0.031688             0.027882
Rotational constants in MHz :          1205.540510           949.970967           835.882129

                             ****ORCA TERMINATED NORMALLY****
TOTAL RUN TIME: 0 days 0 hours 0 minutes 8 seconds 458 msec
