                         Program Version 6.0.0  -   RELEASE  -
|  1> ! r2SCAN-3c DEF2-TZVP FREQ
|  2> * xyzfile 0 1 censo.xyz
|  3>
|  4>                          ****END OF INPUT****

CARTESIAN COORDINATES (ANGSTROEM)
---------------------------------
  C      2.526739   -1.029062   -0.003730
  C      1.209772   -0.311977    0.005829
  C      0.000172   -1.005311   -0.000938
  C     -1.209476   -0.312532   -0.006855
  C     -1.144504    1.081493   -0.009496
  N     -0.000305    1.778011   -0.000163
  C      1.144349    1.081792    0.009011
  C     -2.526646   -1.029225    0.005304
  H      3.354915   -0.335935    0.163740
  H      2.557672   -1.802290    0.770119
  H      2.690275   -1.527232   -0.965843
  H      0.000430   -2.093320   -0.001905
  H     -2.065250    1.662875   -0.019840
  H      2.064847    1.663543    0.018845
  H     -3.350976   -0.343817   -0.207167
  H     -2.542146   -1.834473   -0.735382
  H     -2.710489   -1.485618    0.984501

 Total Charge           Charge          ....    0
 Multiplicity           Mult            ....    1
 Number of Electrons    NEL             ....   58
 Basis Dimension        Dim             ....  302

ORBITAL ENERGIES
----------------

  NO   OCC          E(Eh)            E(eV)
   0   2.0000     -14.152006      -385.0957
   1   2.0000     -10.058419      -273.7035
   2   2.0000     -10.058400      -273.7030
   3   2.0000     -10.052708      -273.5481
   4   2.0000     -10.052695      -273.5477
   5   2.0000     -10.045517      -273.3524
   6   2.0000     -10.037101      -273.1234
   7   2.0000     -10.037085      -273.1230
   8   2.0000      -0.899812       -24.4851
   9   2.0000      -0.785400       -21.3718
  10   2.0000      -0.760429       -20.6923
  11   2.0000      -0.670757       -18.2522
  12   2.0000      -0.663420       -18.0526
  13   2.0000      -0.589619       -16.0443
  14   2.0000      -0.557137       -15.1605
  15   2.0000      -0.479316       -13.0428
  16   2.0000      -0.464963       -12.6523
  17   2.0000      -0.408070       -11.1042
  18   2.0000      -0.407073       -11.0770
  19   2.0000      -0.392518       -10.6810
  20   2.0000      -0.377644       -10.2762
  21   2.0000      -0.377336       -10.2678
  22   2.0000      -0.360673        -9.8144
  23   2.0000      -0.358640        -9.7591
  24   2.0000      -0.347852        -9.4655
  25   2.0000      -0.323283        -8.7970
  26   2.0000      -0.256345        -6.9755
  27   2.0000      -0.230652        -6.2764
  28   2.0000      -0.219759        -5.9800
  29   0.0000      -0.056350        -1.5334
  30   0.0000      -0.032202        -0.8763
  31   0.0000       0.050126         1.3640
  32   0.0000       0.067249         1.8299
  33   0.0000       0.084818         2.3080

MULLIKEN ATOMIC CHARGES
-----------------------
   0 C :   -0.345443
   1 C :    0.166048
   2 C :   -0.283316
   3 C :    0.166029
   4 C :   -0.063121
   5 N :   -0.254458
   6 C :   -0.063001
   7 C :   -0.345666
   8 H :    0.113748
   9 H :    0.118409
  10 H :    0.122554
  11 H :    0.106388
  12 H :    0.103528
  13 H :    0.103300
  14 H :    0.114147
  15 H :    0.117792
  16 H :    0.123063
Sum of atomic charges:   -0.0000000

LOEWDIN ATOMIC CHARGES
----------------------
   0 C :   -0.252534
   1 C :   -0.183971
   2 C :   -0.075192
   3 C :   -0.183929
   4 C :   -0.188761
   5 N :    0.124210
   6 C :   -0.188916
   7 C :   -0.252508
   8 H :    0.128532
   9 H :    0.129866
  10 H :    0.131810
  11 H :    0.148835
  12 H :    0.136182
  13 H :    0.136147
  14 H :    0.128641
  15 H :    0.129571
  16 H :    0.132019

  Mayer bond orders larger than 0.100000
B(  0-C ,  1-C ) :   0.9159 B(  0-C ,  8-H ) :   0.9855 B(  0-C ,  9-H ) :   0.9723
B(  0-C , 10-H ) :   0.9588 B(  1-C ,  2-C ) :   1.3684 B(  1-C ,  6-C ) :   1.3359
B(  2-C ,  3-C ) :   1.3707 B(  2-C , 11-H ) :   0.9863 B(  3-C ,  4-C ) :   1.3336
B(  3-C ,  7-C ) :   0.9159 B(  4-C ,  5-N ) :   1.4674 B(  4-C , 12-H ) :   0.9917
B(  5-N ,  6-C ) :   1.4660 B(  6-C , 13-H ) :   0.9914 B(  7-C , 14-H ) :   0.9853
B(  7-C , 15-H ) :   0.9739 B(  7-C , 16-H ) :   0.9573

Dispersion correction           -0.005200468
FINAL SINGLE POINT ENERGY      -326.846894256827

DIPOLE MOMENT
-------------

Method             : SCF
Type of density    : Electron Density
Multiplicity       :   1
Irrep              :   0
Energy             :  -326.8497224166162596 Eh
Relativity type    :
Basis              : AO
                                X                 Y                 Z
Electronic contribution:     -0.000453600       4.683918716      -0.004897363
Nuclear contribution   :     -0.000669815      -5.744665881       0.007075805
                        -----------------------------------------
Total Dipole Moment    :     -0.001123415      -1.060747165       0.002178442
                        -----------------------------------------
Magnitude (a.u.)       :      1.060749997
Magnitude (Debye)      :      2.696212220

VIBRATIONAL FREQUENCIES
-----------------------

Scaling factor for frequencies =  1.000000000  (already applied!)

     0:       0.00 cm**-1
     1:       0.00 cm**-1
     2:       0.00 cm**-1
     3:       0.00 cm**-1
     4:       0.00 cm**-1
     5:       0.00 cm**-1
     6:      89.90 cm**-1
     7:      92.25 cm**-1
     8:     190.46 cm**-1
     9:     226.23 cm**-1
    10:     272.17 cm**-1
    11:     401.88 cm**-1
    12:     444.92 cm**-1
    13:     504.42 cm**-1
    14:     541.64 cm**-1
    15:     550.13 cm**-1
    16:     728.21 cm**-1
    17:     732.93 cm**-1
    18:     860.11 cm**-1
    19:     928.26 cm**-1
    20:     944.35 cm**-1
    21:     952.27 cm**-1
    22:     999.21 cm**-1
    23:    1034.41 cm**-1
    24:    1052.03 cm**-1
    25:    1058.00 cm**-1
    26:    1058.71 cm**-1
    27:    1175.59 cm**-1
    28:    1182.41 cm**-1
    29:    1277.45 cm**-1
    30:    1292.02 cm**-1
    31:    1344.29 cm**-1
    32:    1400.93 cm**-1
    33:    1403.01 cm**-1
    34:    1447.22 cm**-1
    35:    1450.35 cm**-1
    36:    1477.39 cm**-1
    37:    1478.57 cm**-1
    38:    1492.25 cm**-1
    39:    1499.97 cm**-1
    40:    1602.87 cm**-1
    41:    1620.25 cm**-1
    42:    3008.88 cm**-1
    43:    3009.64 cm**-1
    44:    3073.72 cm**-1
    45:    3073.89 cm**-1
    46:    3103.32 cm**-1
    47:    3103.63 cm**-1
    48:    3127.77 cm**-1
    49:    3131.58 cm**-1
    50:    3139.60 cm**-1

IR SPECTRUM
-----------

 Mode   freq       eps      Int      T**2         TX        TY        TZ
       cm**-1   L/(mol*cm) km/mol    a.u.
----------------------------------------------------------------------------
  6:     89.90   0.000035    0.18  0.000121  ( 0.008110 -0.004640 -0.005823)
  7:     92.25   0.000021    0.11  0.000071  (-0.003296 -0.006715  0.003933)
  8:    190.46   0.000368    1.86  0.000604  ( 0.000213 -0.000050  0.024566)
  9:    226.23   0.000000    0.00  0.000000  (-0.000232  0.000474 -0.000024)
 10:    272.17   0.000102    0.51  0.000117  (-0.000078  0.010805  0.000005)
 11:    401.88   0.000125    0.63  0.000097  ( 0.009838 -0.000135 -0.000078)
 12:    444.92   0.000000    0.00  0.000000  (-0.000217 -0.000034 -0.000398)
 13:    504.42   0.000002    0.01  0.000001  (-0.000053 -0.001192  0.000044)
 14:    541.64   0.000168    0.85  0.000097  (-0.000167 -0.009835  0.000018)
 15:    550.13   0.000145    0.73  0.000082  ( 0.009059 -0.000015 -0.000159)
 16:    728.21   0.001065    5.38  0.000456  (-0.000074  0.021363  0.000297)
 17:    732.93   0.003434   17.35  0.001462  (-0.000909 -0.000163  0.038226)
 18:    860.11   0.002300   11.62  0.000834  (-0.002579 -0.000238 -0.028770)
 19:    928.26   0.000014    0.07  0.000005  ( 0.001421  0.000074  0.001600)
 20:    944.35   0.000007    0.04  0.000002  ( 0.000311  0.001517 -0.000137)
 21:    952.27   0.000081    0.41  0.000027  (-0.004531  0.000206  0.002437)
 22:    999.21   0.000064    0.32  0.000020  ( 0.000611 -0.004415  0.000012)
 23:   1034.41   0.000010    0.05  0.000003  ( 0.000933  0.000032 -0.001444)
 24:   1052.03   0.000558    2.82  0.000166  (-0.001284  0.012783  0.000727)
 25:   1058.00   0.000980    4.95  0.000289  ( 0.001758 -0.016267 -0.004604)
 26:   1058.71   0.001663    8.40  0.000490  (-0.010977 -0.005133  0.018530)
 27:   1175.59   0.003525   17.82  0.000936  ( 0.000364 -0.030589  0.000013)
 28:   1182.41   0.000491    2.48  0.000130  (-0.011273 -0.000620  0.001481)
 29:   1277.45   0.000444    2.24  0.000108  (-0.010412  0.000046  0.000289)
 30:   1292.02   0.000252    1.27  0.000061  ( 0.000186 -0.007792  0.000223)
 31:   1344.29   0.001258    6.36  0.000292  (-0.017089  0.000117  0.000264)
 32:   1400.93   0.000731    3.69  0.000163  (-0.012703  0.000032  0.001220)
 33:   1403.01   0.000402    2.03  0.000089  ( 0.000134 -0.009458  0.000137)
 34:   1447.22   0.003425   17.31  0.000739  (-0.027136 -0.000136 -0.001461)
 35:   1450.35   0.000033    0.17  0.000007  (-0.001821  0.001936  0.000118)
 36:   1477.39   0.002804   14.17  0.000592  ( 0.003405  0.000350 -0.024094)
 37:   1478.57   0.000249    1.26  0.000053  ( 0.001172 -0.001699 -0.006957)
 38:   1492.25   0.004732   23.92  0.000990  ( 0.031432 -0.000262  0.001258)
 39:   1499.97   0.002946   14.89  0.000613  (-0.000175 -0.024757  0.000038)
 40:   1602.87   0.001238    6.26  0.000241  (-0.000098 -0.015523 -0.000035)
 41:   1620.25   0.000929    4.69  0.000179  (-0.013345 -0.000116  0.000876)
 42:   3008.88   0.007941   40.13  0.000824  ( 0.028401  0.002879 -0.002951)
 43:   3009.64   0.002973   15.02  0.000308  ( 0.005177 -0.016776 -0.000239)
 44:   3073.72   0.002369   11.97  0.000241  ( 0.003060 -0.001899  0.015085)
 45:   3073.89   0.003040   15.36  0.000309  ( 0.004244  0.002068  0.016922)
 46:   3103.32   0.001992   10.06  0.000200  (-0.013978  0.002193  0.000286)
 47:   3103.63   0.002926   14.78  0.000294  (-0.001919 -0.017043 -0.000001)
 48:   3127.77   0.009550   48.26  0.000953  (-0.030864  0.000400 -0.000316)
 49:   3131.58   0.002069   10.45  0.000206  (-0.000903 -0.014329 -0.000013)
 50:   3139.60   0.002119   10.71  0.000211  (-0.000042  0.014514  0.000010)

--------------------------
THERMOCHEMISTRY AT 298.15K
--------------------------

Temperature         ...   298.15 K
Pressure            ...     1.00 atm
Total Mass          ...   107.16 AMU
Quasi RRHO          ...     True
Cut-Off Frequency   ...     1.00 cm^-1

Throughout the following assumptions are being made:
  (1) The electronic state is orbitally nondegenerate
  (2) There are no thermally accessible electronically excited states
  (3) Hindered rotations indicated by low frequency modes are not
      treated as such but are treated as vibrations and this may
      cause some error
  (4) All equations used are the standard statistical mechanics
      equations for an ideal gas
  (5) All vibrations are strictly harmonic

freq.      89.90  E(vib)   ...       0.47
freq.      92.25  E(vib)   ...       0.47
freq.     190.46  E(vib)   ...       0.36
freq.     226.23  E(vib)   ...       0.33
freq.     272.17  E(vib)   ...       0.29
freq.     401.88  E(vib)   ...       0.19
freq.     444.92  E(vib)   ...       0.17
freq.     504.42  E(vib)   ...       0.14
freq.     541.64  E(vib)   ...       0.12
freq.     550.13  E(vib)   ...       0.12
freq.     728.21  E(vib)   ...       0.06
freq.     732.93  E(vib)   ...       0.06
freq.     860.11  E(vib)   ...       0.04
freq.     928.26  E(vib)   ...       0.03
freq.     944.35  E(vib)   ...       0.03
freq.     952.27  E(vib)   ...       0.03
freq.     999.21  E(vib)   ...       0.02
freq.    1034.41  E(vib)   ...       0.02
freq.    1052.03  E(vib)   ...       0.02
freq.    1058.00  E(vib)   ...       0.02
freq.    1058.71  E(vib)   ...       0.02
freq.    1175.59  E(vib)   ...       0.01
freq.    1182.41  E(vib)   ...       0.01
freq.    1277.45  E(vib)   ...       0.01
freq.    1292.02  E(vib)   ...       0.01
freq.    1344.29  E(vib)   ...       0.01
freq.    1400.93  E(vib)   ...       0.00
freq.    1403.01  E(vib)   ...       0.00
freq.    1447.22  E(vib)   ...       0.00
freq.    1450.35  E(vib)   ...       0.00
freq.    1477.39  E(vib)   ...       0.00
freq.    1478.57  E(vib)   ...       0.00
freq.    1492.25  E(vib)   ...       0.00
freq.    1499.97  E(vib)   ...       0.00
freq.    1602.87  E(vib)   ...       0.00
freq.    1620.25  E(vib)   ...       0.00
freq.    3008.88  E(vib)   ...       0.00
freq.    3009.64  E(vib)   ...       0.00
freq.    3073.72  E(vib)   ...       0.00
freq.    3073.89  E(vib)   ...       0.00
freq.    3103.32  E(vib)   ...       0.00
freq.    3103.63  E(vib)   ...       0.00
freq.    3127.77  E(vib)   ...       0.00
freq.    3131.58  E(vib)   ...       0.00
freq.    3139.60  E(vib)   ...       0.00

------------
INNER ENERGY
------------

The inner energy is: U= E(el) + E(ZPE) + E(vib) + E(rot) + E(trans)
    E(el)   - is the total energy from the electronic structure calculation
              = E(kin-el) + E(nuc-el) + E(el-el) + E(nuc-nuc)
    E(ZPE)  - the the zero temperature vibrational energy from the frequency calculation
    E(vib)  - the the finite temperature correction to E(ZPE) due to population
              of excited vibrational states
    E(rot)  - is the rotational thermal energy
    E(trans)- is the translational thermal energy

Summary of contributions to the inner energy U:
Electronic energy                ...   -326.84689426 Eh
Zero point energy                ...      0.14256560 Eh      89.46 kcal/mol
Thermal vibrational correction   ...      0.00492247 Eh       3.09 kcal/mol
Thermal rotational correction    ...      0.00141627 Eh       0.89 kcal/mol
Thermal translational correction ...      0.00141627 Eh       0.89 kcal/mol
-----------------------------------------------------------------------
Total thermal energy                   -326.69657364 Eh

Summary of corrections to the electronic energy:
(perhaps to be used in another calculation)
Total thermal correction                  0.00775501 Eh       4.87 kcal/mol
Non-thermal (ZPE) correction              0.14256560 Eh      89.46 kcal/mol
-----------------------------------------------------------------------
Total correction                          0.15032061 Eh      94.33 kcal/mol

--------
ENTHALPY
--------

The enthalpy is H = U + kB*T
                kB is Boltzmann's constant
Total thermal energy              ...   -326.69657364 Eh
Thermal Enthalpy correction       ...      0.00094421 Eh       0.59 kcal/mol
-----------------------------------------------------------------------
Total Enthalpy                    ...   -326.69562944 Eh

Note: Only C1 symmetry has been detected, increase convergence thresholds
      if your molecule has a higher symmetry. Symmetry factor of 1.0 is
      used for the rotational entropy correction.

Note: Rotational entropy computed according to Herzberg
Infrared and Raman Spectra, Chapter V,1, Van Nostrand Reinhold, 1945
Point Group:  C1, Symmetry Number:   1
Rotational constants in cm-1:     0.123129     0.059741     0.040836

Vibrational entropy computed according to the QRRHO of S. Grimme
Chem.Eur.J. 2012 18 9955 using a reference frequency of 100.0 cm-1

-------
ENTROPY
-------

The entropy contributions are T*S = T*(S(el)+S(vib)+S(rot)+S(trans))
     S(el)   - electronic entropy
     S(vib)  - vibrational entropy
     S(rot)  - rotational entropy
     S(trans)- translational entropy
The entropies will be listed as multiplied by the temperature to get
units of energy

Electronic entropy                ...      0.00000000 Eh      0.00 kcal/mol
Vibrational entropy               ...      0.00830016 Eh      5.21 kcal/mol
Rotational entropy                ...      0.01333968 Eh      8.37 kcal/mol
Translational entropy             ...      0.01896913 Eh     11.90 kcal/mol
-----------------------------------------------------------------------
Final entropy term                ...      0.04060897 Eh     25.48 kcal/mol

In case the symmetry of your molecule has not been determined correctly
or in case you have a reason to use a different symmetry number we print
out the resulting rotational entropy values for sn=1,12:

 non-linear molecules -----------------------------------
|  sn= 1 | S(rot)=       0.01333968 Eh      8.37 kcal/mol|
|  sn= 2 | S(rot)=       0.01268522 Eh      7.96 kcal/mol|
|  sn= 3 | S(rot)=       0.01230239 Eh      7.72 kcal/mol|
|  sn= 4 | S(rot)=       0.01203077 Eh      7.55 kcal/mol|
|  sn= 5 | S(rot)=       0.01182008 Eh      7.42 kcal/mol|
|  sn= 6 | S(rot)=       0.01164794 Eh      7.31 kcal/mol|
|  sn= 7 | S(rot)=       0.01150239 Eh      7.22 kcal/mol|
|  sn= 8 | S(rot)=       0.01137631 Eh      7.14 kcal/mol|
|  sn= 9 | S(rot)=       0.01126510 Eh      7.07 kcal/mol|
|  sn=10 | S(rot)=       0.01116562 Eh      7.01 kcal/mol|
|  sn=11 | S(rot)=       0.01107563 Eh      6.95 kcal/mol|
|  sn=12 | S(rot)=       0.01099348 Eh      6.90 kcal/mol|
 linear molecules ---------------------------------------
|  Dinfh | S(rot)=       0.00834549 Eh      5.24 kcal/mol|
|  Cinfv | S(rot)=       0.00899994 Eh      5.65 kcal/mol|

                             ****ORCA TERMINATED NORMALLY****
TOTAL RUN TIME: 0 days 0 hours 13 minutes 20 seconds 68 msec
