                         Program Version 6.0.0  -   RELEASE  -
|  1> ! r2SCAN-3c DEF2-TZVP FREQ
|  2> * xyzfile 0 1 vacuum_censo.xyz
|  3>
|  4>                          ****END OF INPUT****

CARTESIAN COORDINATES (ANGSTROEM)
---------------------------------
  C     -2.529862    1.028661   -0.008863
  C     -1.209060    0.313725    0.010291
  C     -0.000044    1.006054   -0.000086
  C      1.208977    0.313888   -0.010354
  C      1.140607   -1.081330   -0.015850
  N      0.000093   -1.773342    0.000050
  C     -1.140558   -1.081407    0.015896
  C      2.529833    1.028733    0.009094
  H     -2.784478    1.350385   -1.025272
  H     -3.335658    0.379877    0.344092
  H     -2.506875    1.922212    0.621655
  H     -0.000117    2.094539   -0.000213
  H      2.060335   -1.666679   -0.033642
  H     -2.060207   -1.666867    0.033690
  H      2.788689    1.342034    1.027072
  H      3.334223    0.382902   -0.352425
  H      2.504218    1.927406   -0.613949

 Total Charge           Charge          ....    0
 Multiplicity           Mult            ....    1
 Number of Electrons    NEL             ....   58
 Basis Dimension        Dim             ....  302

ORBITAL ENERGIES
----------------

  NO   OCC          E(Eh)            E(eV)
   0   2.0000     -14.151461      -385.0808
   1   2.0000     -10.058111      -273.6951
   2   2.0000     -10.058104      -273.6949
   3   2.0000     -10.052736      -273.5489
   4   2.0000     -10.052730      -273.5487
   5   2.0000     -10.045323      -273.3471
   6   2.0000     -10.037167      -273.1252
   7   2.0000     -10.037161      -273.1250
   8   2.0000      -0.902166       -24.5492
   9   2.0000      -0.785523       -21.3752
  10   2.0000      -0.759704       -20.6726
  11   2.0000      -0.670706       -18.2508
  12   2.0000      -0.663772       -18.0622
  13   2.0000      -0.588932       -16.0257
  14   2.0000      -0.557969       -15.1831
  15   2.0000      -0.479300       -13.0424
  16   2.0000      -0.465034       -12.6542
  17   2.0000      -0.407940       -11.1006
  18   2.0000      -0.406857       -11.0711
  19   2.0000      -0.392285       -10.6746
  20   2.0000      -0.377231       -10.2650
  21   2.0000      -0.376336       -10.2406
  22   2.0000      -0.361064        -9.8250
  23   2.0000      -0.358938        -9.7672
  24   2.0000      -0.348845        -9.4926
  25   2.0000      -0.322810        -8.7841
  26   2.0000      -0.257564        -7.0087
  27   2.0000      -0.230042        -6.2598
  28   2.0000      -0.219451        -5.9716
  29   0.0000      -0.054274        -1.4769
  30   0.0000      -0.033986        -0.9248
  31   0.0000       0.050612         1.3772
  32   0.0000       0.066997         1.8231
  33   0.0000       0.084632         2.3030

MULLIKEN ATOMIC CHARGES
-----------------------
   0 C :   -0.347684
   1 C :    0.166947
   2 C :   -0.283186
   3 C :    0.166998
   4 C :   -0.064444
   5 N :   -0.252354
   6 C :   -0.064401
   7 C :   -0.347741
   8 H :    0.124451
   9 H :    0.115903
  10 H :    0.116224
  11 H :    0.105357
  12 H :    0.103674
  13 H :    0.103609
  14 H :    0.124516
  15 H :    0.116023
  16 H :    0.116110
Sum of atomic charges:   -0.0000000

LOEWDIN ATOMIC CHARGES
----------------------
   0 C :   -0.252709
   1 C :   -0.182100
   2 C :   -0.077775
   3 C :   -0.182087
   4 C :   -0.190170
   5 N :    0.126913
   6 C :   -0.190221
   7 C :   -0.252705
   8 H :    0.132210
   9 H :    0.128946
  10 H :    0.128442
  11 H :    0.148558
  12 H :    0.136552
  13 H :    0.136540
  14 H :    0.132237
  15 H :    0.128980
  16 H :    0.128389

  Mayer bond orders larger than 0.100000
B(  0-C ,  1-C ) :   0.9152 B(  0-C ,  8-H ) :   0.9531 B(  0-C ,  9-H ) :   0.9842
B(  0-C , 10-H ) :   0.9787 B(  1-C ,  2-C ) :   1.3762 B(  1-C ,  6-C ) :   1.3290
B(  2-C ,  3-C ) :   1.3770 B(  2-C , 11-H ) :   0.9815 B(  3-C ,  4-C ) :   1.3283
B(  3-C ,  7-C ) :   0.9152 B(  4-C ,  5-N ) :   1.4686 B(  4-C , 12-H ) :   0.9933
B(  5-N ,  6-C ) :   1.4682 B(  6-C , 13-H ) :   0.9932 B(  7-C , 14-H ) :   0.9529
B(  7-C , 15-H ) :   0.9841 B(  7-C , 16-H ) :   0.9790

Dispersion correction           -0.005198798
FINAL SINGLE POINT ENERGY      -326.846918432012

DIPOLE MOMENT
-------------

Method             : SCF
Type of density    : Electron Density
Multiplicity       :   1
Irrep              :   0
Energy             :  -326.8497587051729170 Eh
Relativity type    :
Basis              : AO
                                X                 Y                 Z
Electronic contribution:      0.000254212      -4.668459687      -0.000479207
Nuclear contribution   :      0.000111409       5.710062418       0.000690192
                        -----------------------------------------
Total Dipole Moment    :      0.000365621       1.041602731       0.000210985
                        -----------------------------------------
Magnitude (a.u.)       :      1.041602816
Magnitude (Debye)      :      2.647543955

VIBRATIONAL FREQUENCIES
-----------------------

Scaling factor for frequencies =  1.000000000  (already applied!)

     0:       0.00 cm**-1
     1:       0.00 cm**-1
     2:       0.00 cm**-1
     3:       0.00 cm**-1
     4:       0.00 cm**-1
     5:       0.00 cm**-1
     6:      75.24 cm**-1
     7:      82.20 cm**-1
     8:     194.18 cm**-1
     9:     218.85 cm**-1
    10:     272.33 cm**-1
    11:     399.58 cm**-1
    12:     443.12 cm**-1
    13:     504.15 cm**-1
    14:     541.35 cm**-1
    15:     551.00 cm**-1
    16:     726.54 cm**-1
    17:     732.64 cm**-1
    18:     863.93 cm**-1
    19:     931.82 cm**-1
    20:     949.60 cm**-1
    21:     950.30 cm**-1
    22:     997.80 cm**-1
    23:    1030.55 cm**-1
    24:    1049.70 cm**-1
    25:    1058.18 cm**-1
    26:    1059.36 cm**-1
    27:    1183.44 cm**-1
    28:    1188.10 cm**-1
    29:    1290.36 cm**-1
    30:    1291.82 cm**-1
    31:    1348.16 cm**-1
    32:    1401.09 cm**-1
    33:    1403.22 cm**-1
    34:    1449.68 cm**-1
    35:    1451.02 cm**-1
    36:    1480.55 cm**-1
    37:    1481.58 cm**-1
    38:    1491.19 cm**-1
    39:    1502.73 cm**-1
    40:    1603.35 cm**-1
    41:    1627.36 cm**-1
    42:    3008.97 cm**-1
    43:    3009.57 cm**-1
    44:    3075.21 cm**-1
    45:    3075.24 cm**-1
    46:    3102.08 cm**-1
    47:    3102.36 cm**-1
    48:    3114.36 cm**-1
    49:    3118.44 cm**-1
    50:    3134.72 cm**-1

IR SPECTRUM
-----------

 Mode   freq       eps      Int      T**2         TX        TY        TZ
       cm**-1   L/(mol*cm) km/mol    a.u.
----------------------------------------------------------------------------
  6:     75.24   0.000058    0.29  0.000241  (-0.015517  0.000805 -0.000248)
  7:     82.20   0.000046    0.23  0.000174  (-0.000672 -0.013171 -0.000204)
  8:    194.18   0.000377    1.91  0.000606  ( 0.000357 -0.000013  0.024624)
  9:    218.85   0.000000    0.00  0.000000  ( 0.000001  0.000106  0.000001)
 10:    272.33   0.000087    0.44  0.000099  (-0.000038  0.009972  0.000002)
 11:    399.58   0.000087    0.44  0.000068  (-0.008235  0.000038  0.000052)
 12:    443.12   0.000001    0.01  0.000001  ( 0.000487 -0.000006 -0.000760)
 13:    504.15   0.000006    0.03  0.000004  ( 0.000019  0.002003  0.000001)
 14:    541.35   0.000163    0.83  0.000094  ( 0.000042  0.009704  0.000002)
 15:    551.00   0.000125    0.63  0.000071  ( 0.008422  0.000006  0.000178)
 16:    726.54   0.001076    5.44  0.000462  (-0.000023  0.021500 -0.000028)
 17:    732.64   0.003383   17.10  0.001441  (-0.001525 -0.000015 -0.037930)
 18:    863.93   0.002296   11.60  0.000829  ( 0.004286  0.000017 -0.028479)
 19:    931.82   0.000011    0.06  0.000004  (-0.001842 -0.000010  0.000657)
 20:    949.60   0.000018    0.09  0.000006  (-0.000070 -0.002432 -0.000081)
 21:    950.30   0.000072    0.36  0.000024  ( 0.002778 -0.000089  0.003990)
 22:    997.80   0.000021    0.10  0.000006  ( 0.000218 -0.002532  0.000009)
 23:   1030.55   0.000237    1.20  0.000072  ( 0.008047  0.000011  0.002628)
 24:   1049.70   0.000466    2.36  0.000139  (-0.000114  0.011774 -0.000035)
 25:   1058.18   0.002359   11.92  0.000696  ( 0.017891 -0.000396  0.019379)
 26:   1059.36   0.001333    6.74  0.000393  ( 0.000528  0.019806  0.000461)
 27:   1183.44   0.000625    3.16  0.000165  ( 0.012607 -0.000278  0.002423)
 28:   1188.10   0.003238   16.36  0.000850  (-0.000081 -0.029162 -0.000026)
 29:   1290.36   0.000181    0.91  0.000044  ( 0.000973  0.006545  0.000055)
 30:   1291.82   0.000464    2.35  0.000112  (-0.010561  0.000671 -0.000335)
 31:   1348.16   0.000955    4.83  0.000221  (-0.014864  0.000027 -0.000434)
 32:   1401.09   0.000603    3.05  0.000134  ( 0.011475 -0.000026  0.001625)
 33:   1403.22   0.000290    1.47  0.000065  (-0.000001  0.008034  0.000014)
 34:   1449.68   0.000068    0.35  0.000015  (-0.000618 -0.003788  0.000040)
 35:   1451.02   0.002633   13.31  0.000566  (-0.023717  0.000109  0.001937)
 36:   1480.55   0.002927   14.79  0.000617  ( 0.002638  0.000086  0.024696)
 37:   1481.58   0.000017    0.08  0.000003  (-0.000027 -0.001521  0.001088)
 38:   1491.19   0.005292   26.74  0.001107  (-0.033278  0.000028 -0.000164)
 39:   1502.73   0.003030   15.31  0.000629  ( 0.000020 -0.025086  0.000031)
 40:   1603.35   0.001343    6.79  0.000261  (-0.000041 -0.016170  0.000006)
 41:   1627.36   0.000792    4.00  0.000152  ( 0.012232  0.000025  0.001495)
 42:   3008.97   0.007949   40.17  0.000824  (-0.028389 -0.000297 -0.004284)
 43:   3009.57   0.002488   12.58  0.000258  (-0.000597  0.016052 -0.000062)
 44:   3075.21   0.003348   16.92  0.000340  (-0.005764  0.002950  0.017257)
 45:   3075.24   0.002295   11.60  0.000233  ( 0.004751  0.003693 -0.014022)
 46:   3102.08   0.001200    6.07  0.000121  ( 0.010948  0.000938  0.000107)
 47:   3102.36   0.003280   16.57  0.000330  (-0.000508  0.018156 -0.000005)
 48:   3114.36   0.010139   51.24  0.001016  ( 0.031868 -0.000154 -0.000609)
 49:   3118.44   0.001839    9.29  0.000184  ( 0.000352  0.013560 -0.000007)
 50:   3134.72   0.002685   13.57  0.000267  (-0.000000 -0.016348  0.000003)

--------------------------
THERMOCHEMISTRY AT 298.15K
--------------------------

Temperature         ...   298.15 K
Pressure            ...     1.00 atm
Total Mass          ...   107.16 AMU
Quasi RRHO          ...     True
Cut-Off Frequency   ...     1.00 cm^-1

Throughout the following assumptions are being made:
  (1) The electronic state is orbitally nondegenerate
  (2) There are no thermally accessible electronically excited states
  (3) Hindered rotations indicated by low frequency modes are not
      treated as such but are treated as vibrations and this may
      cause some error
  (4) All equations used are the standard statistical mechanics
      equations for an ideal gas
  (5) All vibrations are strictly harmonic

freq.      75.24  E(vib)   ...       0.49
freq.      82.20  E(vib)   ...       0.48
freq.     194.18  E(vib)   ...       0.36
freq.     218.85  E(vib)   ...       0.33
freq.     272.33  E(vib)   ...       0.29
freq.     399.58  E(vib)   ...       0.19
freq.     443.12  E(vib)   ...       0.17
freq.     504.15  E(vib)   ...       0.14
freq.     541.35  E(vib)   ...       0.12
freq.     551.00  E(vib)   ...       0.12
freq.     726.54  E(vib)   ...       0.06
freq.     732.64  E(vib)   ...       0.06
freq.     863.93  E(vib)   ...       0.04
freq.     931.82  E(vib)   ...       0.03
freq.     949.60  E(vib)   ...       0.03
freq.     950.30  E(vib)   ...       0.03
freq.     997.80  E(vib)   ...       0.02
freq.    1030.55  E(vib)   ...       0.02
freq.    1049.70  E(vib)   ...       0.02
freq.    1058.18  E(vib)   ...       0.02
freq.    1059.36  E(vib)   ...       0.02
freq.    1183.44  E(vib)   ...       0.01
freq.    1188.10  E(vib)   ...       0.01
freq.    1290.36  E(vib)   ...       0.01
freq.    1291.82  E(vib)   ...       0.01
freq.    1348.16  E(vib)   ...       0.01
freq.    1401.09  E(vib)   ...       0.00
freq.    1403.22  E(vib)   ...       0.00
freq.    1449.68  E(vib)   ...       0.00
freq.    1451.02  E(vib)   ...       0.00
freq.    1480.55  E(vib)   ...       0.00
freq.    1481.58  E(vib)   ...       0.00
freq.    1491.19  E(vib)   ...       0.00
freq.    1502.73  E(vib)   ...       0.00
freq.    1603.35  E(vib)   ...       0.00
freq.    1627.36  E(vib)   ...       0.00
freq.    3008.97  E(vib)   ...       0.00
freq.    3009.57  E(vib)   ...       0.00
freq.    3075.21  E(vib)   ...       0.00
freq.    3075.24  E(vib)   ...       0.00
freq.    3102.08  E(vib)   ...       0.00
freq.    3102.36  E(vib)   ...       0.00
freq.    3114.36  E(vib)   ...       0.00
freq.    3118.44  E(vib)   ...       0.00
freq.    3134.72  E(vib)   ...       0.00

------------
INNER ENERGY
------------

The inner energy is: U= E(el) + E(ZPE) + E(vib) + E(rot) + E(trans)
    E(el)   - is the total energy from the electronic structure calculation
              = E(kin-el) + E(nuc-el) + E(el-el) + E(nuc-nuc)
    E(ZPE)  - the the zero temperature vibrational energy from the frequency calculation
    E(vib)  - the the finite temperature correction to E(ZPE) due to population
              of excited vibrational states
    E(rot)  - is the rotational thermal energy
    E(trans)- is the translational thermal energy

Summary of contributions to the inner energy U:
Electronic energy                ...   -326.84691843 Eh
Zero point energy                ...      0.14253816 Eh      89.44 kcal/mol
Thermal vibrational correction   ...      0.00497703 Eh       3.12 kcal/mol
Thermal rotational correction    ...      0.00141627 Eh       0.89 kcal/mol
Thermal translational correction ...      0.00141627 Eh       0.89 kcal/mol
-----------------------------------------------------------------------
Total thermal energy                   -326.69657070 Eh

Summary of corrections to the electronic energy:
(perhaps to be used in another calculation)
Total thermal correction                  0.00780957 Eh       4.90 kcal/mol
Non-thermal (ZPE) correction              0.14253816 Eh      89.44 kcal/mol
-----------------------------------------------------------------------
Total correction                          0.15034773 Eh      94.34 kcal/mol

--------
ENTHALPY
--------

The enthalpy is H = U + kB*T
                kB is Boltzmann's constant
Total thermal energy              ...   -326.69657070 Eh
Thermal Enthalpy correction       ...      0.00094421 Eh       0.59 kcal/mol
-----------------------------------------------------------------------
Total Enthalpy                    ...   -326.69562649 Eh

Note: Only C1 symmetry has been detected, increase convergence thresholds
      if your molecule has a higher symmetry. Symmetry factor of 1.0 is
      used for the rotational entropy correction.

Note: Rotational entropy computed according to Herzberg
Infrared and Raman Spectra, Chapter V,1, Van Nostrand Reinhold, 1945
Point Group:  C1, Symmetry Number:   1
Rotational constants in cm-1:     0.123347     0.059663     0.040826

Vibrational entropy computed according to the QRRHO of S. Grimme
Chem.Eur.J. 2012 18 9955 using a reference frequency of 100.0 cm-1

-------
ENTROPY
-------

The entropy contributions are T*S = T*(S(el)+S(vib)+S(rot)+S(trans))
     S(el)   - electronic entropy
     S(vib)  - vibrational entropy
     S(rot)  - rotational entropy
     S(trans)- translational entropy
The entropies will be listed as multiplied by the temperature to get
units of energy

Electronic entropy                ...      0.00000000 Eh      0.00 kcal/mol
Vibrational entropy               ...      0.00840446 Eh      5.27 kcal/mol
Rotational entropy                ...      0.01333958 Eh      8.37 kcal/mol
Translational entropy             ...      0.01896913 Eh     11.90 kcal/mol
-----------------------------------------------------------------------
Final entropy term                ...      0.04071317 Eh     25.55 kcal/mol

In case the symmetry of your molecule has not been determined correctly
or in case you have a reason to use a different symmetry number we print
out the resulting rotational entropy values for sn=1,12:

 non-linear molecules -----------------------------------
|  sn= 1 | S(rot)=       0.01333958 Eh      8.37 kcal/mol|
|  sn= 2 | S(rot)=       0.01268512 Eh      7.96 kcal/mol|
|  sn= 3 | S(rot)=       0.01230229 Eh      7.72 kcal/mol|
|  sn= 4 | S(rot)=       0.01203067 Eh      7.55 kcal/mol|
|  sn= 5 | S(rot)=       0.01181998 Eh      7.42 kcal/mol|
|  sn= 6 | S(rot)=       0.01164783 Eh      7.31 kcal/mol|
|  sn= 7 | S(rot)=       0.01150229 Eh      7.22 kcal/mol|
|  sn= 8 | S(rot)=       0.01137621 Eh      7.14 kcal/mol|
|  sn= 9 | S(rot)=       0.01126500 Eh      7.07 kcal/mol|
|  sn=10 | S(rot)=       0.01116552 Eh      7.01 kcal/mol|
|  sn=11 | S(rot)=       0.01107553 Eh      6.95 kcal/mol|
|  sn=12 | S(rot)=       0.01099338 Eh      6.90 kcal/mol|
 linear molecules ---------------------------------------
|  Dinfh | S(rot)=       0.00834571 Eh      5.24 kcal/mol|
|  Cinfv | S(rot)=       0.00900017 Eh      5.65 kcal/mol|

                             ****ORCA TERMINATED NORMALLY****
TOTAL RUN TIME: 0 days 0 hours 13 minutes 21 seconds 67 msec
