                         Program Version 6.0.1  -  RELEASE   -
|  1> ! pbe def2-sv(p) def2/J RI DEFGRID1 loosescf d4 GCP(DFT/SV(P)) printgap
|  2> %output
|  3>     printlevel normal
|  4> end
|  5> * xyz 0 1
|  6> C -2.4263985501 -0.8731106435 0.3145893737
|  7> C -0.981199852 -0.4469284663 0.597903624
|  8> H -0.7506907908 -0.6442412895 1.6571162708
|  9> C -0.7518353249 1.0556609724 0.3102191597
| 10> H -1.5758080755 1.4411378866 -0.2997490217
| 11> C 0.5660511453 1.2449572711 -0.481358919
| 12> H 0.8500776276 2.3019182492 -0.4109926048
| 13> C 1.663886857 0.3686755648 0.1566726691
| 14> H 2.5828098381 0.4385858557 -0.4388401316
| 15> C 1.2240592394 -1.1096782774 0.1233742475
| 16> H 1.3914062916 -1.5346639217 1.1347399523
| 17> O -0.1384428969 -1.2563149971 -0.211492278
| 18> O 1.9675541788 -1.7662670391 -0.8395796016
| 19> O 1.8937073096 0.7279310787 1.5040511477
| 20> O 0.4298860761 0.9736747968 -1.8451800576
| 21> O -0.7496979649 1.8068495057 1.4931128299
| 22> O -2.8077241713 -0.613060703 -1.0066031905
| 23> H -3.0980283171 -0.2962688134 0.9526317323
| 24> H -2.530735209 -1.9419249454 0.5493323562
| 25> H 1.6214158692 -2.6608525134 -0.9454139824
| 26> H 2.3833771599 1.5580895762 1.5236292152
| 27> H 0.250459999 0.0296250796 -1.9488189685
| 28> H 0.009987896 1.5215973387 2.0232538036
| 29> H -2.1771988768 -1.04902887 -1.5918308509
| 30> *
| 31>
| 32>                          ****END OF INPUT****

CARTESIAN COORDINATES (ANGSTROEM)
---------------------------------
  C     -2.426399   -0.873111    0.314589
  C     -0.981200   -0.446928    0.597904
  H     -0.750691   -0.644241    1.657116
  C     -0.751835    1.055661    0.310219
  H     -1.575808    1.441138   -0.299749
  C      0.566051    1.244957   -0.481359
  H      0.850078    2.301918   -0.410993
  C      1.663887    0.368676    0.156673
  H      2.582810    0.438586   -0.438840
  C      1.224059   -1.109678    0.123374
  H      1.391406   -1.534664    1.134740
  O     -0.138443   -1.256315   -0.211492
  O      1.967554   -1.766267   -0.839580
  O      1.893707    0.727931    1.504051
  O      0.429886    0.973675   -1.845180
  O     -0.749698    1.806850    1.493113
  O     -2.807724   -0.613061   -1.006603
  H     -3.098028   -0.296269    0.952632
  H     -2.530735   -1.941925    0.549332
  H      1.621416   -2.660853   -0.945414
  H      2.383377    1.558090    1.523629
  H      0.250460    0.029625   -1.948819
  H      0.009988    1.521597    2.023254
  H     -2.177199   -1.049029   -1.591831

 Total Charge           Charge          ....    0
 Multiplicity           Mult            ....    1
 Number of Electrons    NEL             ....   96
 Basis Dimension        Dim             ....  192

ORBITAL ENERGIES
----------------

  NO   OCC          E(Eh)            E(eV)
   0   2.0000     -18.790521      -511.3161
   1   2.0000     -18.784624      -511.1556
   2   2.0000     -18.777740      -510.9683
   3   2.0000     -18.753012      -510.2954
   4   2.0000     -18.747260      -510.1389
   5   2.0000     -18.740969      -509.9677
   6   2.0000     -10.002196      -272.1736
   7   2.0000      -9.952221      -270.8137
   8   2.0000      -9.948098      -270.7015
   9   2.0000      -9.940607      -270.4977
  10   2.0000      -9.937281      -270.4072
  11   2.0000      -9.933097      -270.2933
  12   2.0000      -1.003241       -27.2996
  13   2.0000      -0.958643       -26.0860
  14   2.0000      -0.943454       -25.6727
  15   2.0000      -0.930149       -25.3106
  16   2.0000      -0.922987       -25.1158
  17   2.0000      -0.918923       -25.0052
  18   2.0000      -0.699254       -19.0277
  19   2.0000      -0.694996       -18.9118
  20   2.0000      -0.629123       -17.1193
  21   2.0000      -0.584441       -15.9034
  22   2.0000      -0.575631       -15.6637
  23   2.0000      -0.530112       -14.4251
  24   2.0000      -0.520928       -14.1752
  25   2.0000      -0.499791       -13.6000
  26   2.0000      -0.482710       -13.1352
  27   2.0000      -0.463267       -12.6061
  28   2.0000      -0.450986       -12.2719
  29   2.0000      -0.437332       -11.9004
  30   2.0000      -0.428314       -11.6550
  31   2.0000      -0.397801       -10.8247
  32   2.0000      -0.386428       -10.5152
  33   2.0000      -0.373854       -10.1731
  34   2.0000      -0.361633        -9.8405
  35   2.0000      -0.355248        -9.6668
  36   2.0000      -0.339179        -9.2295
  37   2.0000      -0.329210        -8.9582
  38   2.0000      -0.316499        -8.6124
  39   2.0000      -0.307969        -8.3803
  40   2.0000      -0.283280        -7.7084
  41   2.0000      -0.274920        -7.4810
  42   2.0000      -0.266041        -7.2393
  43   2.0000      -0.255845        -6.9619
  44   2.0000      -0.250084        -6.8051
  45   2.0000      -0.230215        -6.2645
  46   2.0000      -0.216333        -5.8867
  47   2.0000      -0.195418        -5.3176
  48   0.0000       0.000166         0.0045
  49   0.0000       0.017507         0.4764
  50   0.0000       0.030830         0.8389
  51   0.0000       0.048605         1.3226
  52   0.0000       0.056246         1.5305

MULLIKEN ATOMIC CHARGES
-----------------------
   0 C :    0.076201
   1 C :   -0.032809
   2 H :    0.056993
   3 C :    0.095760
   4 H :    0.084806
   5 C :    0.015950
   6 H :    0.069024
   7 C :    0.007675
   8 H :    0.094535
   9 C :    0.181560
  10 H :    0.066148
  11 O :   -0.331733
  12 O :   -0.376772
  13 O :   -0.418204
  14 O :   -0.409745
  15 O :   -0.430610
  16 O :   -0.426347
  17 H :    0.103016
  18 H :    0.076787
  19 H :    0.306339
  20 H :    0.315138
  21 H :    0.293601
  22 H :    0.286643
  23 H :    0.296043
Sum of atomic charges:   -0.0000000

LOEWDIN ATOMIC CHARGES
----------------------
   0 C :   -0.122148
   1 C :   -0.082164
   2 H :    0.107597
   3 C :   -0.078022
   4 H :    0.122784
   5 C :   -0.084097
   6 H :    0.113382
   7 C :   -0.089638
   8 H :    0.118515
   9 C :    0.003346
  10 H :    0.091058
  11 O :   -0.168810
  12 O :   -0.289943
  13 O :   -0.309611
  14 O :   -0.307705
  15 O :   -0.319275
  16 O :   -0.324443
  17 H :    0.124680
  18 H :    0.099717
  19 H :    0.290096
  20 H :    0.295527
  21 H :    0.267210
  22 H :    0.263451
  23 H :    0.278495

  Mayer bond orders larger than 0.100000
B(  0-C ,  1-C ) :   1.0487 B(  0-C , 16-O ) :   1.0688 B(  0-C , 17-H ) :   0.9209
B(  0-C , 18-H ) :   0.9112 B(  1-C ,  2-H ) :   0.8666 B(  1-C ,  3-C ) :   0.9701
B(  1-C , 11-O ) :   0.9871 B(  3-C ,  4-H ) :   0.8819 B(  3-C ,  5-C ) :   0.9647
B(  3-C , 15-O ) :   1.0349 B(  5-C ,  6-H ) :   0.8947 B(  5-C ,  7-C ) :   0.9964
B(  5-C , 14-O ) :   1.0575 B(  7-C ,  8-H ) :   0.8957 B(  7-C ,  9-C ) :   0.9630
B(  7-C , 13-O ) :   1.0281 B(  9-C , 10-H ) :   0.8959 B(  9-C , 11-O ) :   1.0074
B(  9-C , 12-O ) :   1.1644 B( 12-O , 19-H ) :   0.8409 B( 13-O , 20-H ) :   0.8397
B( 14-O , 21-H ) :   0.8301 B( 15-O , 22-H ) :   0.8204 B( 16-O , 23-H ) :   0.8416

Dispersion correction           -0.025316202
FINAL SINGLE POINT ENERGY      -685.694312797742

DIPOLE MOMENT
-------------

Method             : SCF
Type of density    : Electron Density
Multiplicity       :   1
Irrep              :   0
Energy             :  -685.8274315152932559 Eh
Relativity type    :
Basis              : AO
                                X                 Y                 Z
Electronic contribution:      1.867113823      -0.119964743      -1.544017130
Nuclear contribution   :     -0.969623752      -0.786219172       2.055301955
                        -----------------------------------------
Total Dipole Moment    :      0.897490071      -0.906183915       0.511284825
                        -----------------------------------------
Magnitude (a.u.)       :      1.374070554
Magnitude (Debye)      :      3.492609787

Rotational constants in cm-1:             0.039549             0.028584             0.023158
Rotational constants in MHz :          1185.659599           856.925739           694.250722

                             ****ORCA TERMINATED NORMALLY****
TOTAL RUN TIME: 0 days 0 hours 0 minutes 9 seconds 325 msec
