                         Program Version 6.0.1  -  RELEASE   -
|  1> ! r2scan-3c def2/J RI DEFGRID2 scfconv6 printgap
|  2> %output
|  3>     printlevel normal
|  4> end
|  5> * xyz 0 1
|  6> C -5.9089e-06 -2.0098e-06 -2.6559e-06
|  7> H -1.0400797322 0.2814849306 -0.100665805
|  8> H 0.4416977546 0.5408368296 0.8267577207
|  9> H 0.0694131545 -1.063708484 0.1865932446
| 10> H 0.5290392384 0.2414106746 -0.9126535102
| 11> *
| 12>
| 13>                          ****END OF INPUT****

CARTESIAN COORDINATES (ANGSTROEM)
---------------------------------
  C     -0.000006   -0.000002   -0.000003
  H     -1.040080    0.281485   -0.100666
  H      0.441698    0.540837    0.826758
  H      0.069413   -1.063708    0.186593
  H      0.529039    0.241411   -0.912654

 Total Charge           Charge          ....    0
 Multiplicity           Mult            ....    1
 Number of Electrons    NEL             ....   10
 Basis Dimension        Dim             ....   39

ORBITAL ENERGIES
----------------

  NO   OCC          E(Eh)            E(eV)
   0   2.0000     -10.008170      -272.3361
   1   2.0000      -0.661793       -18.0083
   2   2.0000      -0.360396        -9.8069
   3   2.0000      -0.360391        -9.8067
   4   2.0000      -0.360382        -9.8065
   5   0.0000       0.116202         3.1620
   6   0.0000       0.184563         5.0222
   7   0.0000       0.184569         5.0224
   8   0.0000       0.184580         5.0227
   9   0.0000       0.228072         6.2062

MULLIKEN ATOMIC CHARGES
-----------------------
   0 C :   -0.574858
   1 H :    0.143717
   2 H :    0.143710
   3 H :    0.143712
   4 H :    0.143718
Sum of atomic charges:    0.0000000

LOEWDIN ATOMIC CHARGES
----------------------
   0 C :   -0.587444
   1 H :    0.146863
   2 H :    0.146861
   3 H :    0.146860
   4 H :    0.146860

  Mayer bond orders larger than 0.100000
B(  0-C ,  1-H ) :   0.9731 B(  0-C ,  2-H ) :   0.9732 B(  0-C ,  3-H ) :   0.9732
B(  0-C ,  4-H ) :   0.9732

Dispersion correction           -0.000297413
FINAL SINGLE POINT ENERGY       -40.494385603062

DIPOLE MOMENT
-------------

Method             : SCF
Type of density    : Electron Density
Multiplicity       :   1
Irrep              :   0
Energy             :   -40.4970639830170001 Eh
Relativity type    :
Basis              : AO
                                X                 Y                 Z
Electronic contribution:     -0.000050245      -0.000020548      -0.000027751
Nuclear contribution   :      0.000066060       0.000022469       0.000029693
                        -----------------------------------------
Total Dipole Moment    :      0.000015816       0.000001922       0.000001942
                        -----------------------------------------
Magnitude (a.u.)       :      0.000016050
Magnitude (Debye)      :      0.000040796

Rotational constants in cm-1:             5.355217             5.355097             5.354964
Rotational constants in MHz :        160545.380030        160541.762837        160537.768979

                             ****ORCA TERMINATED NORMALLY****
TOTAL RUN TIME: 0 days 0 hours 0 minutes 2 seconds 783 msec
