                         Program Version 6.0.1  -  RELEASE   -
|  1> ! r2scan-3c def2/J RI DEFGRID2 scfconv6 printgap
|  2> %output
|  3>     printlevel normal
|  4> end
|  5> * xyz 0 1
|  6> C -0.5852113157 0.0130247967 0.4888087321
|  7> C 0.5852358437 -0.0115223008 -0.4888964646
|  8> O 1.7801260977 0.0125893905 0.2588090962
|  9> O -1.7801471999 -0.0139001163 -0.2587412001
| 10> H -0.5181075458 0.9226221813 1.10004565
| 11> H -0.5109742239 -0.8577512303 1.1534057699
| 12> H 0.5123685596 0.8605516007 -1.1519413461
| 13> H 0.5167981477 -0.9199166304 -1.1017743602
| 14> H 2.5263251068 -0.0011163069 -0.3490666381
| 15> H -2.5263673645 -0.0014881867 0.3492986378
| 16> *
| 17>
| 18>                          ****END OF INPUT****

CARTESIAN COORDINATES (ANGSTROEM)
---------------------------------
  C     -0.585211    0.013025    0.488809
  C      0.585236   -0.011522   -0.488896
  O      1.780126    0.012589    0.258809
  O     -1.780147   -0.013900   -0.258741
  H     -0.518108    0.922622    1.100046
  H     -0.510974   -0.857751    1.153406
  H      0.512369    0.860552   -1.151941
  H      0.516798   -0.919917   -1.101774
  H      2.526325   -0.001116   -0.349067
  H     -2.526367   -0.001488    0.349299

 Total Charge           Charge          ....    0
 Multiplicity           Mult            ....    1
 Number of Electrons    NEL             ....   34
 Basis Dimension        Dim             ....  116

ORBITAL ENERGIES
----------------

  NO   OCC          E(Eh)            E(eV)
   0   2.0000     -18.952880      -515.7341
   1   2.0000     -18.952873      -515.7339
   2   2.0000     -10.076112      -274.1850
   3   2.0000     -10.075980      -274.1814
   4   2.0000      -0.995974       -27.1018
   5   2.0000      -0.985649       -26.8209
   6   2.0000      -0.704369       -19.1669
   7   2.0000      -0.574390       -15.6300
   8   2.0000      -0.507708       -13.8154
   9   2.0000      -0.453173       -12.3315
  10   2.0000      -0.448901       -12.2152
  11   2.0000      -0.388608       -10.5746
  12   2.0000      -0.365638        -9.9495
  13   2.0000      -0.327074        -8.9001
  14   2.0000      -0.291826        -7.9410
  15   2.0000      -0.240261        -6.5378
  16   2.0000      -0.240068        -6.5326
  17   0.0000       0.038816         1.0562
  18   0.0000       0.080543         2.1917
  19   0.0000       0.134823         3.6687
  20   0.0000       0.138304         3.7634
  21   0.0000       0.157528         4.2865

MULLIKEN ATOMIC CHARGES
-----------------------
   0 C :   -0.115577
   1 C :   -0.115566
   2 O :   -0.434325
   3 O :   -0.434374
   4 H :    0.126855
   5 H :    0.126829
   6 H :    0.126800
   7 H :    0.126878
   8 H :    0.296215
   9 H :    0.296265
Sum of atomic charges:   -0.0000000

LOEWDIN ATOMIC CHARGES
----------------------
   0 C :    0.034291
   1 C :    0.034296
   2 O :   -0.620278
   3 O :   -0.620328
   4 H :    0.159750
   5 H :    0.159804
   6 H :    0.159756
   7 H :    0.159794
   8 H :    0.266425
   9 H :    0.266489

  Mayer bond orders larger than 0.100000
B(  0-C ,  1-C ) :   0.9916 B(  0-C ,  3-O ) :   0.9270 B(  0-C ,  4-H ) :   0.9571
B(  0-C ,  5-H ) :   0.9572 B(  1-C ,  2-O ) :   0.9270 B(  1-C ,  6-H ) :   0.9571
B(  1-C ,  7-H ) :   0.9571 B(  2-O ,  8-H ) :   0.9002 B(  3-O ,  9-H ) :   0.9001

Dispersion correction           -0.001521625
FINAL SINGLE POINT ENERGY      -230.206349636817

DIPOLE MOMENT
-------------

Method             : SCF
Type of density    : Electron Density
Multiplicity       :   1
Irrep              :   0
Energy             :  -230.2120821583125121 Eh
Relativity type    :
Basis              : AO
                                X                 Y                 Z
Electronic contribution:     -0.000001215      -0.002597321       0.000051769
Nuclear contribution   :      0.000039728       0.002702592      -0.000029284
                        -----------------------------------------
Total Dipole Moment    :      0.000038513       0.000105271       0.000022486
                        -----------------------------------------
Magnitude (a.u.)       :      0.000114328
Magnitude (Debye)      :      0.000290599

Rotational constants in cm-1:             1.032315             0.132855             0.123209
Rotational constants in MHz :         30948.011028          3982.892940          3693.716318

                             ****ORCA TERMINATED NORMALLY****
TOTAL RUN TIME: 0 days 0 hours 0 minutes 11 seconds 552 msec
