                         Program Version 6.0.1  -  RELEASE   -
|  1> ! pbe def2-sv(p) def2/J RI DEFGRID1 loosescf d4 GCP(DFT/SV(P)) printgap
|  2> %output
|  3>     printlevel normal
|  4> end
|  5> * xyz 0 1
|  6> C 2.4103513364 7.28969e-05 -0.0075275921
|  7> N 0.9973864844 -2.29003e-05 0.2981561795
|  8> C 0.3300299486 -1.1853499542 -0.2115780257
|  9> C -1.1363070296 -1.1562026846 0.2184665738
| 10> O -1.7877759119 -6.33975e-05 -0.2525681126
| 11> C -1.1364526262 1.1562091031 0.2183184487
| 12> C 0.3299789581 1.1853443757 -0.2114494447
| 13> H 2.6131598952 0.0001174688 -1.0903885867
| 14> H 2.8675708855 -0.8852470257 0.4320504753
| 15> H 2.8675975199 0.8851895042 0.4323208024
| 16> H 0.3837194082 -1.2368804425 -1.3145599897
| 17> H 0.815813183 -2.0704862945 0.2047442771
| 18> H -1.6793962217 -2.0060328171 -0.1986092591
| 19> H -1.1872373663 -1.1905385979 1.3172462795
| 20> H -1.6795126916 2.0059073574 -0.1990925086
| 21> H -1.1875740739 1.190822277 1.317085096
| 22> H 0.3839354575 1.2371676283 -1.3144183453
| 23> H 0.8155840901 2.070426846 0.2051943885
| 24> *
| 25>
| 26>                          ****END OF INPUT****

CARTESIAN COORDINATES (ANGSTROEM)
---------------------------------
  C      2.410351    0.000073   -0.007528
  N      0.997386   -0.000023    0.298156
  C      0.330030   -1.185350   -0.211578
  C     -1.136307   -1.156203    0.218467
  O     -1.787776   -0.000063   -0.252568
  C     -1.136453    1.156209    0.218318
  C      0.329979    1.185344   -0.211449
  H      2.613160    0.000117   -1.090389
  H      2.867571   -0.885247    0.432050
  H      2.867598    0.885190    0.432321
  H      0.383719   -1.236880   -1.314560
  H      0.815813   -2.070486    0.204744
  H     -1.679396   -2.006033   -0.198609
  H     -1.187237   -1.190539    1.317246
  H     -1.679513    2.005907   -0.199093
  H     -1.187574    1.190822    1.317085
  H      0.383935    1.237168   -1.314418
  H      0.815584    2.070427    0.205194

 Total Charge           Charge          ....    0
 Multiplicity           Mult            ....    1
 Number of Electrons    NEL             ....   56
 Basis Dimension        Dim             ....  120

ORBITAL ENERGIES
----------------

  NO   OCC          E(Eh)            E(eV)
   0   2.0000     -18.751892      -510.2649
   1   2.0000     -13.990328      -380.6962
   2   2.0000      -9.927704      -270.1466
   3   2.0000      -9.927698      -270.1464
   4   2.0000      -9.909543      -269.6524
   5   2.0000      -9.909536      -269.6522
   6   2.0000      -9.903224      -269.4804
   7   2.0000      -0.943423       -25.6718
   8   2.0000      -0.841853       -22.9080
   9   2.0000      -0.693415       -18.8688
  10   2.0000      -0.653067       -17.7709
  11   2.0000      -0.588516       -16.0143
  12   2.0000      -0.567240       -15.4354
  13   2.0000      -0.501263       -13.6401
  14   2.0000      -0.451891       -12.2966
  15   2.0000      -0.431481       -11.7412
  16   2.0000      -0.420075       -11.4308
  17   2.0000      -0.417848       -11.3702
  18   2.0000      -0.399525       -10.8716
  19   2.0000      -0.364133        -9.9086
  20   2.0000      -0.357994        -9.7415
  21   2.0000      -0.339886        -9.2488
  22   2.0000      -0.334316        -9.0972
  23   2.0000      -0.313045        -8.5184
  24   2.0000      -0.304265        -8.2795
  25   2.0000      -0.259297        -7.0558
  26   2.0000      -0.207045        -5.6340
  27   2.0000      -0.178442        -4.8557
  28   0.0000       0.037600         1.0231
  29   0.0000       0.056278         1.5314
  30   0.0000       0.065075         1.7708
  31   0.0000       0.075640         2.0583
  32   0.0000       0.094266         2.5651

MULLIKEN ATOMIC CHARGES
-----------------------
   0 C :   -0.144296
   1 N :   -0.324307
   2 C :   -0.081020
   3 C :    0.044119
   4 O :   -0.328575
   5 C :    0.044136
   6 C :   -0.081072
   7 H :    0.069650
   8 H :    0.102446
   9 H :    0.102457
  10 H :    0.057952
  11 H :    0.086022
  12 H :    0.090918
  13 H :    0.063335
  14 H :    0.090924
  15 H :    0.063340
  16 H :    0.057955
  17 H :    0.086016
Sum of atomic charges:   -0.0000000

LOEWDIN ATOMIC CHARGES
----------------------
   0 C :   -0.256894
   1 N :   -0.153249
   2 C :   -0.175824
   3 C :   -0.118485
   4 O :   -0.165273
   5 C :   -0.118485
   6 C :   -0.175826
   7 H :    0.090192
   8 H :    0.113795
   9 H :    0.113802
  10 H :    0.092710
  11 H :    0.116834
  12 H :    0.114430
  13 H :    0.099149
  14 H :    0.114436
  15 H :    0.099148
  16 H :    0.092704
  17 H :    0.116835

  Mayer bond orders larger than 0.100000
B(  0-C ,  1-N ) :   1.0458 B(  0-C ,  7-H ) :   0.9262 B(  0-C ,  8-H ) :   0.9556
B(  0-C ,  9-H ) :   0.9556 B(  1-N ,  2-C ) :   1.0234 B(  1-N ,  6-C ) :   1.0234
B(  2-C ,  3-C ) :   1.1327 B(  2-C , 10-H ) :   0.8800 B(  2-C , 11-H ) :   0.9161
B(  3-C ,  4-O ) :   1.0386 B(  3-C , 12-H ) :   0.9285 B(  3-C , 13-H ) :   0.8954
B(  4-O ,  5-C ) :   1.0386 B(  5-C ,  6-C ) :   1.1327 B(  5-C , 14-H ) :   0.9285
B(  5-C , 15-H ) :   0.8954 B(  6-C , 16-H ) :   0.8800 B(  6-C , 17-H ) :   0.9161

Dispersion correction           -0.015174121
FINAL SINGLE POINT ENERGY      -326.348500657391

DIPOLE MOMENT
-------------

Method             : SCF
Type of density    : Electron Density
Multiplicity       :   1
Irrep              :   0
Energy             :  -326.4217441038009611 Eh
Relativity type    :
Basis              : AO
                                X                 Y                 Z
Electronic contribution:     -4.196108013      -0.000372256       0.256979686
Nuclear contribution   :      4.682595017       0.000417266      -0.197652447
                        -----------------------------------------
Total Dipole Moment    :      0.486487004       0.000045011       0.059327239
                        -----------------------------------------
Magnitude (a.u.)       :      0.490091143
Magnitude (Debye)      :      1.245712687

Rotational constants in cm-1:             0.163113             0.078290             0.057681
Rotational constants in MHz :          4890.004056          2347.078644          1729.226081

                             ****ORCA TERMINATED NORMALLY****
TOTAL RUN TIME: 0 days 0 hours 0 minutes 22 seconds 856 msec
