                         Program Version 6.0.0  -   RELEASE  -
|  1> ! r2SCAN-3c DEF2-TZVP FREQ
|  2> * xyzfile 0 1 censo.xyz
|  3>
|  4>                          ****END OF INPUT****

CARTESIAN COORDINATES (ANGSTROEM)
---------------------------------
  C     -0.194556    1.275749    0.000008
  C      1.241826    1.202247   -0.000074
  O      2.000435    2.175157   -0.000059
  N      1.769263   -0.093030   -0.000063
  C      1.060132   -1.269487   -0.000039
  O      1.581770   -2.378079   -0.000058
  N     -0.316918   -1.104831   -0.000016
  C     -0.904756    0.126530    0.000008
  Cl    -2.634651    0.116892    0.000008
  H     -0.671953    2.244818    0.000024
  H      2.779989   -0.182459   -0.000072
  H     -0.872344   -1.952908   -0.000004

 Total Charge           Charge          ....    0
 Multiplicity           Mult            ....    1
 Number of Electrons    NEL             ....   74
 Basis Dimension        Dim             ....  303

ORBITAL ENERGIES
----------------

  NO   OCC          E(Eh)            E(eV)
   0   2.0000    -101.242766     -2754.9557
   1   2.0000     -18.949329      -515.6375
   2   2.0000     -18.938515      -515.3432
   3   2.0000     -14.258291      -387.9878
   4   2.0000     -14.234006      -387.3270
   5   2.0000     -10.200878      -277.5800
   6   2.0000     -10.186953      -277.2011
   7   2.0000     -10.162519      -276.5362
   8   2.0000     -10.070722      -274.0383
   9   2.0000      -9.418622      -256.2937
  10   2.0000      -7.163709      -194.9344
  11   2.0000      -7.153451      -194.6553
  12   2.0000      -7.153088      -194.6454
  13   2.0000      -1.059840       -28.8397
  14   2.0000      -1.013756       -27.5857
  15   2.0000      -0.976863       -26.5818
  16   2.0000      -0.917335       -24.9620
  17   2.0000      -0.865415       -23.5492
  18   2.0000      -0.775075       -21.0909
  19   2.0000      -0.667393       -18.1607
  20   2.0000      -0.648546       -17.6478
  21   2.0000      -0.590494       -16.0682
  22   2.0000      -0.553621       -15.0648
  23   2.0000      -0.504747       -13.7349
  24   2.0000      -0.476293       -12.9606
  25   2.0000      -0.463487       -12.6121
  26   2.0000      -0.436528       -11.8785
  27   2.0000      -0.411834       -11.2066
  28   2.0000      -0.401133       -10.9154
  29   2.0000      -0.399879       -10.8813
  30   2.0000      -0.388095       -10.5606
  31   2.0000      -0.340669        -9.2701
  32   2.0000      -0.323363        -8.7992
  33   2.0000      -0.278353        -7.5744
  34   2.0000      -0.276913        -7.5352
  35   2.0000      -0.248224        -6.7545
  36   2.0000      -0.243974        -6.6389
  37   0.0000      -0.090054        -2.4505
  38   0.0000      -0.042431        -1.1546
  39   0.0000      -0.037954        -1.0328
  40   0.0000       0.026295         0.7155
  41   0.0000       0.061145         1.6638

MULLIKEN ATOMIC CHARGES
-----------------------
   0 C :   -0.312221
   1 C :    0.298427
   2 O :   -0.370477
   3 N :   -0.221873
   4 C :    0.329291
   5 O :   -0.369031
   6 N :   -0.227662
   7 C :    0.235284
   8 Cl:   -0.047610
   9 H :    0.162145
  10 H :    0.259948
  11 H :    0.263778
Sum of atomic charges:   -0.0000000

LOEWDIN ATOMIC CHARGES
----------------------
   0 C :   -0.153418
   1 C :   -0.420446
   2 O :    0.070616
   3 N :    0.210154
   4 C :   -0.494593
   5 O :    0.062062
   6 N :    0.187531
   7 C :   -0.497848
   8 Cl:    0.445598
   9 H :    0.163792
  10 H :    0.214605
  11 H :    0.211946

  Mayer bond orders larger than 0.100000
B(  0-C ,  1-C ) :   1.0951 B(  0-C ,  7-C ) :   1.5615 B(  0-C ,  9-H ) :   0.9733
B(  1-C ,  2-O ) :   1.9877 B(  1-C ,  3-N ) :   1.0724 B(  3-N ,  4-C ) :   1.1600
B(  3-N , 10-H ) :   0.8812 B(  4-C ,  5-O ) :   2.0395 B(  4-C ,  6-N ) :   1.0692
B(  6-N ,  7-C ) :   1.1393 B(  6-N , 11-H ) :   0.8885 B(  7-C ,  8-Cl) :   1.1190

Dispersion correction           -0.004351088
FINAL SINGLE POINT ENERGY      -874.364838150868

DIPOLE MOMENT
-------------

Method             : SCF
Type of density    : Electron Density
Multiplicity       :   1
Irrep              :   0
Energy             :  -874.3737153885207363 Eh
Relativity type    :
Basis              : AO
                                X                 Y                 Z
Electronic contribution:     -6.038449770      -0.328695082       0.000044865
Nuclear contribution   :      4.757150645      -0.066539137      -0.000021483
                        -----------------------------------------
Total Dipole Moment    :     -1.281299125      -0.395234219       0.000023382
                        -----------------------------------------
Magnitude (a.u.)       :      1.340871931
Magnitude (Debye)      :      3.408225592

VIBRATIONAL FREQUENCIES
-----------------------

Scaling factor for frequencies =  1.000000000  (already applied!)

     0:       0.00 cm**-1
     1:       0.00 cm**-1
     2:       0.00 cm**-1
     3:       0.00 cm**-1
     4:       0.00 cm**-1
     5:       0.00 cm**-1
     6:     151.44 cm**-1
     7:     166.43 cm**-1
     8:     179.48 cm**-1
     9:     253.40 cm**-1
    10:     369.24 cm**-1
    11:     432.81 cm**-1
    12:     527.14 cm**-1
    13:     551.03 cm**-1
    14:     593.05 cm**-1
    15:     607.23 cm**-1
    16:     612.78 cm**-1
    17:     703.90 cm**-1
    18:     733.93 cm**-1
    19:     761.13 cm**-1
    20:     824.59 cm**-1
    21:     898.68 cm**-1
    22:    1006.25 cm**-1
    23:    1013.26 cm**-1
    24:    1110.83 cm**-1
    25:    1235.76 cm**-1
    26:    1319.76 cm**-1
    27:    1385.21 cm**-1
    28:    1422.64 cm**-1
    29:    1494.48 cm**-1
    30:    1625.21 cm**-1
    31:    1685.89 cm**-1
    32:    1742.27 cm**-1
    33:    3240.88 cm**-1
    34:    3554.20 cm**-1
    35:    3564.73 cm**-1

IR SPECTRUM
-----------

 Mode   freq       eps      Int      T**2         TX        TY        TZ
       cm**-1   L/(mol*cm) km/mol    a.u.
----------------------------------------------------------------------------
  6:    151.44   0.000218    1.10  0.000449  (-0.000005 -0.000006 -0.021184)
  7:    166.43   0.000439    2.22  0.000823  (-0.000000 -0.000007  0.028683)
  8:    179.48   0.000074    0.37  0.000129  (-0.000017 -0.000020 -0.011359)
  9:    253.40   0.000582    2.94  0.000717  (-0.000923  0.026761 -0.000002)
 10:    369.24   0.000061    0.31  0.000052  (-0.007183 -0.000201  0.000001)
 11:    432.81   0.007465   37.73  0.005382  ( 0.073362  0.000645 -0.000003)
 12:    527.14   0.003713   18.77  0.002198  (-0.004405 -0.046679  0.000009)
 13:    551.03   0.007357   37.18  0.004166  ( 0.000004  0.000006  0.064548)
 14:    593.05   0.001036    5.23  0.000545  (-0.000656  0.023337 -0.000001)
 15:    607.23   0.000055    0.28  0.000028  ( 0.002340  0.004760 -0.000008)
 16:    612.78   0.001040    5.25  0.000529  (-0.000007 -0.000010 -0.023010)
 17:    703.90   0.015776   79.72  0.006994  (-0.000001 -0.000003  0.083630)
 18:    733.93   0.001513    7.64  0.000643  (-0.000010 -0.000017  0.025360)
 19:    761.13   0.008555   43.23  0.003507  (-0.000008 -0.000006 -0.059224)
 20:    824.59   0.008761   44.27  0.003316  (-0.000008 -0.000017 -0.057581)
 21:    898.68   0.005558   28.09  0.001930  ( 0.043810 -0.003276  0.000001)
 22:   1006.25   0.010938   55.27  0.003392  ( 0.056126  0.015554 -0.000000)
 23:   1013.26   0.004622   23.36  0.001424  (-0.025072  0.028196  0.000002)
 24:   1110.83   0.005689   28.75  0.001598  (-0.032570  0.023181 -0.000000)
 25:   1235.76   0.002506   12.67  0.000633  (-0.000460  0.025153  0.000000)
 26:   1319.76   0.003416   17.26  0.000808  (-0.001675  0.028372 -0.000000)
 27:   1385.21   0.005463   27.61  0.001231  (-0.016720  0.030840  0.000001)
 28:   1422.64   0.027711  140.04  0.006079  ( 0.073033 -0.027291 -0.000002)
 29:   1494.48   0.035095  177.35  0.007328  (-0.070024  0.049242  0.000001)
 30:   1625.21   0.017941   90.67  0.003445  (-0.050036 -0.030680  0.000000)
 31:   1685.89   0.133468  674.49  0.024705  (-0.103201 -0.118553  0.000003)
 32:   1742.27   0.143298  724.17  0.025667  ( 0.064591 -0.146611 -0.000001)
 33:   3240.88   0.001835    9.27  0.000177  (-0.003772  0.012746  0.000000)
 34:   3554.20   0.017558   88.73  0.001542  ( 0.039263 -0.000157 -0.000000)
 35:   3564.73   0.024004  121.31  0.002101  ( 0.025177  0.038308 -0.000001)

--------------------------
THERMOCHEMISTRY AT 298.15K
--------------------------

Temperature         ...   298.15 K
Pressure            ...     1.00 atm
Total Mass          ...   146.53 AMU
Quasi RRHO          ...     True
Cut-Off Frequency   ...     1.00 cm^-1

Throughout the following assumptions are being made:
  (1) The electronic state is orbitally nondegenerate
  (2) There are no thermally accessible electronically excited states
  (3) Hindered rotations indicated by low frequency modes are not
      treated as such but are treated as vibrations and this may
      cause some error
  (4) All equations used are the standard statistical mechanics
      equations for an ideal gas
  (5) All vibrations are strictly harmonic

freq.     151.44  E(vib)   ...       0.40
freq.     166.43  E(vib)   ...       0.39
freq.     179.48  E(vib)   ...       0.37
freq.     253.40  E(vib)   ...       0.30
freq.     369.24  E(vib)   ...       0.21
freq.     432.81  E(vib)   ...       0.17
freq.     527.14  E(vib)   ...       0.13
freq.     551.03  E(vib)   ...       0.12
freq.     593.05  E(vib)   ...       0.10
freq.     607.23  E(vib)   ...       0.10
freq.     612.78  E(vib)   ...       0.10
freq.     703.90  E(vib)   ...       0.07
freq.     733.93  E(vib)   ...       0.06
freq.     761.13  E(vib)   ...       0.06
freq.     824.59  E(vib)   ...       0.04
freq.     898.68  E(vib)   ...       0.03
freq.    1006.25  E(vib)   ...       0.02
freq.    1013.26  E(vib)   ...       0.02
freq.    1110.83  E(vib)   ...       0.01
freq.    1235.76  E(vib)   ...       0.01
freq.    1319.76  E(vib)   ...       0.01
freq.    1385.21  E(vib)   ...       0.00
freq.    1422.64  E(vib)   ...       0.00
freq.    1494.48  E(vib)   ...       0.00
freq.    1625.21  E(vib)   ...       0.00
freq.    1685.89  E(vib)   ...       0.00
freq.    1742.27  E(vib)   ...       0.00
freq.    3240.88  E(vib)   ...       0.00
freq.    3554.20  E(vib)   ...       0.00
freq.    3564.73  E(vib)   ...       0.00

------------
INNER ENERGY
------------

The inner energy is: U= E(el) + E(ZPE) + E(vib) + E(rot) + E(trans)
    E(el)   - is the total energy from the electronic structure calculation
              = E(kin-el) + E(nuc-el) + E(el-el) + E(nuc-nuc)
    E(ZPE)  - the the zero temperature vibrational energy from the frequency calculation
    E(vib)  - the the finite temperature correction to E(ZPE) due to population
              of excited vibrational states
    E(rot)  - is the rotational thermal energy
    E(trans)- is the translational thermal energy

Summary of contributions to the inner energy U:
Electronic energy                ...   -874.36483815 Eh
Zero point energy                ...      0.07692833 Eh      48.27 kcal/mol
Thermal vibrational correction   ...      0.00439106 Eh       2.76 kcal/mol
Thermal rotational correction    ...      0.00141627 Eh       0.89 kcal/mol
Thermal translational correction ...      0.00141627 Eh       0.89 kcal/mol
-----------------------------------------------------------------------
Total thermal energy                   -874.28068622 Eh

Summary of corrections to the electronic energy:
(perhaps to be used in another calculation)
Total thermal correction                  0.00722360 Eh       4.53 kcal/mol
Non-thermal (ZPE) correction              0.07692833 Eh      48.27 kcal/mol
-----------------------------------------------------------------------
Total correction                          0.08415193 Eh      52.81 kcal/mol

--------
ENTHALPY
--------

The enthalpy is H = U + kB*T
                kB is Boltzmann's constant
Total thermal energy              ...   -874.28068622 Eh
Thermal Enthalpy correction       ...      0.00094421 Eh       0.59 kcal/mol
-----------------------------------------------------------------------
Total Enthalpy                    ...   -874.27974201 Eh

Note: Rotational entropy computed according to Herzberg
Infrared and Raman Spectra, Chapter V,1, Van Nostrand Reinhold, 1945
Point Group:  Cs, Symmetry Number:   1
Rotational constants in cm-1:     0.067626     0.037735     0.024220

Vibrational entropy computed according to the QRRHO of S. Grimme
Chem.Eur.J. 2012 18 9955 using a reference frequency of 100.0 cm-1

-------
ENTROPY
-------

The entropy contributions are T*S = T*(S(el)+S(vib)+S(rot)+S(trans))
     S(el)   - electronic entropy
     S(vib)  - vibrational entropy
     S(rot)  - rotational entropy
     S(trans)- translational entropy
The entropies will be listed as multiplied by the temperature to get
units of energy

Electronic entropy                ...      0.00000000 Eh      0.00 kcal/mol
Vibrational entropy               ...      0.00714103 Eh      4.48 kcal/mol
Rotational entropy                ...      0.01408607 Eh      8.84 kcal/mol
Translational entropy             ...      0.01941237 Eh     12.18 kcal/mol
-----------------------------------------------------------------------
Final entropy term                ...      0.04063947 Eh     25.50 kcal/mol

In case the symmetry of your molecule has not been determined correctly
or in case you have a reason to use a different symmetry number we print
out the resulting rotational entropy values for sn=1,12:

 non-linear molecules -----------------------------------
|  sn= 1 | S(rot)=       0.01408607 Eh      8.84 kcal/mol|
|  sn= 2 | S(rot)=       0.01343161 Eh      8.43 kcal/mol|
|  sn= 3 | S(rot)=       0.01304878 Eh      8.19 kcal/mol|
|  sn= 4 | S(rot)=       0.01277716 Eh      8.02 kcal/mol|
|  sn= 5 | S(rot)=       0.01256647 Eh      7.89 kcal/mol|
|  sn= 6 | S(rot)=       0.01239432 Eh      7.78 kcal/mol|
|  sn= 7 | S(rot)=       0.01224878 Eh      7.69 kcal/mol|
|  sn= 8 | S(rot)=       0.01212270 Eh      7.61 kcal/mol|
|  sn= 9 | S(rot)=       0.01201149 Eh      7.54 kcal/mol|
|  sn=10 | S(rot)=       0.01191201 Eh      7.47 kcal/mol|
|  sn=11 | S(rot)=       0.01182202 Eh      7.42 kcal/mol|
|  sn=12 | S(rot)=       0.01173987 Eh      7.37 kcal/mol|
 linear molecules ---------------------------------------
|  Dinfh | S(rot)=       0.00883869 Eh      5.55 kcal/mol|
|  Cinfv | S(rot)=       0.00949315 Eh      5.96 kcal/mol|
 --------------------------------------------------------

-------------------
GIBBS FREE ENERGY
-------------------

The Gibbs free energy is G = H - T*S

Total enthalpy                    ...   -874.27974201 Eh
Total entropy correction          ...     -0.04063947 Eh    -25.50 kcal/mol
-----------------------------------------------------------------------
Final Gibbs free energy         ...   -874.32038148 Eh

For completeness - the Gibbs free energy minus the electronic energy
G-E(el)                           ...      0.04445667 Eh     27.90 kcal/mol

                             ****ORCA TERMINATED NORMALLY****
TOTAL RUN TIME: 0 days 0 hours 7 minutes 33 seconds 753 msec
