                         Program Version 6.0.0  -   RELEASE  -
|  1> ! r2SCAN-3c DEF2-TZVP FREQ
|  2> * xyzfile 0 1 vacuum_censo.xyz
|  3>
|  4>                          ****END OF INPUT****

CARTESIAN COORDINATES (ANGSTROEM)
---------------------------------
  C     -0.195576    1.281836    0.000195
  C      1.254270    1.215435    0.000132
  O      2.005716    2.172665    0.000020
  N      1.771686   -0.099554    0.000350
  C      1.068013   -1.285733    0.000011
  O      1.568763   -2.390380   -0.000191
  N     -0.320176   -1.099101   -0.000040
  C     -0.906827    0.137312    0.000058
  Cl    -2.642161    0.112419   -0.000022
  H     -0.667206    2.252726    0.000261
  H      2.779261   -0.186538    0.000245
  H     -0.879099   -1.938933   -0.000296

 Total Charge           Charge          ....    0
 Multiplicity           Mult            ....    1
 Number of Electrons    NEL             ....   74
 Basis Dimension        Dim             ....  303

ORBITAL ENERGIES
----------------

  NO   OCC          E(Eh)            E(eV)
   0   2.0000    -101.241094     -2754.9102
   1   2.0000     -18.951738      -515.7030
   2   2.0000     -18.942045      -515.4392
   3   2.0000     -14.254044      -387.8723
   4   2.0000     -14.231507      -387.2590
   5   2.0000     -10.200871      -277.5798
   6   2.0000     -10.185382      -277.1583
   7   2.0000     -10.164337      -276.5857
   8   2.0000     -10.069614      -274.0081
   9   2.0000      -9.416870      -256.2461
  10   2.0000      -7.161979      -194.8874
  11   2.0000      -7.151680      -194.6071
  12   2.0000      -7.151355      -194.5983
  13   2.0000      -1.060826       -28.8665
  14   2.0000      -1.022826       -27.8325
  15   2.0000      -0.975796       -26.5527
  16   2.0000      -0.915600       -24.9147
  17   2.0000      -0.861529       -23.4434
  18   2.0000      -0.773062       -21.0361
  19   2.0000      -0.663252       -18.0480
  20   2.0000      -0.645579       -17.5671
  21   2.0000      -0.587119       -15.9763
  22   2.0000      -0.550262       -14.9734
  23   2.0000      -0.500682       -13.6243
  24   2.0000      -0.472965       -12.8700
  25   2.0000      -0.462094       -12.5742
  26   2.0000      -0.437126       -11.8948
  27   2.0000      -0.412074       -11.2131
  28   2.0000      -0.404804       -11.0153
  29   2.0000      -0.399761       -10.8781
  30   2.0000      -0.390977       -10.6390
  31   2.0000      -0.339428        -9.2363
  32   2.0000      -0.321867        -8.7585
  33   2.0000      -0.282493        -7.6870
  34   2.0000      -0.279392        -7.6026
  35   2.0000      -0.248054        -6.7499
  36   2.0000      -0.248035        -6.7494
  37   0.0000      -0.087492        -2.3808
  38   0.0000      -0.042629        -1.1600
  39   0.0000      -0.036130        -0.9832
  40   0.0000       0.028251         0.7687
  41   0.0000       0.062988         1.7140

MULLIKEN ATOMIC CHARGES
-----------------------
   0 C :   -0.316888
   1 C :    0.295926
   2 O :   -0.348221
   3 N :   -0.232514
   4 C :    0.325595
   5 O :   -0.351184
   6 N :   -0.233028
   7 C :    0.235087
   8 Cl:   -0.051324
   9 H :    0.160993
  10 H :    0.255660
  11 H :    0.259897
Sum of atomic charges:   -0.0000000

LOEWDIN ATOMIC CHARGES
----------------------
   0 C :   -0.155636
   1 C :   -0.423747
   2 O :    0.094615
   3 N :    0.200757
   4 C :   -0.498724
   5 O :    0.080886
   6 N :    0.180569
   7 C :   -0.495429
   8 Cl:    0.438049
   9 H :    0.162376
  10 H :    0.209649
  11 H :    0.206636

  Mayer bond orders larger than 0.100000
B(  0-C ,  1-C ) :   1.0819 B(  0-C ,  7-C ) :   1.5743 B(  0-C ,  9-H ) :   0.9721
B(  1-C ,  2-O ) :   2.0114 B(  1-C ,  3-N ) :   1.0582 B(  3-N ,  4-C ) :   1.1572
B(  3-N , 10-H ) :   0.8844 B(  4-C ,  5-O ) :   2.0546 B(  4-C ,  6-N ) :   1.0560
B(  6-N ,  7-C ) :   1.1423 B(  6-N , 11-H ) :   0.8915 B(  7-C ,  8-Cl) :   1.1132

Dispersion correction           -0.004342149
FINAL SINGLE POINT ENERGY      -874.365747085495

DIPOLE MOMENT
-------------

Method             : SCF
Type of density    : Electron Density
Multiplicity       :   1
Irrep              :   0
Energy             :  -874.3745564988876140 Eh
Relativity type    :
Basis              : AO
                                X                 Y                 Z
Electronic contribution:     -5.960223223      -0.317205263      -0.000130884
Nuclear contribution   :      4.766583198      -0.041757996       0.000164963
                        -----------------------------------------
Total Dipole Moment    :     -1.193640025      -0.358963258       0.000034079
                        -----------------------------------------
Magnitude (a.u.)       :      1.246447404
Magnitude (Debye)      :      3.168217519

VIBRATIONAL FREQUENCIES
-----------------------

Scaling factor for frequencies =  1.000000000  (already applied!)

     0:       0.00 cm**-1
     1:       0.00 cm**-1
     2:       0.00 cm**-1
     3:       0.00 cm**-1
     4:       0.00 cm**-1
     5:       0.00 cm**-1
     6:     138.93 cm**-1
     7:     161.99 cm**-1
     8:     176.69 cm**-1
     9:     250.35 cm**-1
    10:     360.45 cm**-1
    11:     421.65 cm**-1
    12:     504.61 cm**-1
    13:     523.76 cm**-1
    14:     580.74 cm**-1
    15:     598.89 cm**-1
    16:     598.95 cm**-1
    17:     678.92 cm**-1
    18:     723.21 cm**-1
    19:     750.83 cm**-1
    20:     818.11 cm**-1
    21:     879.45 cm**-1
    22:     989.75 cm**-1
    23:    1004.38 cm**-1
    24:    1097.98 cm**-1
    25:    1188.17 cm**-1
    26:    1307.13 cm**-1
    27:    1383.93 cm**-1
    28:    1392.73 cm**-1
    29:    1479.67 cm**-1
    30:    1636.33 cm**-1
    31:    1748.66 cm**-1
    32:    1790.99 cm**-1
    33:    3248.16 cm**-1
    34:    3590.84 cm**-1
    35:    3620.81 cm**-1

IR SPECTRUM
-----------

 Mode   freq       eps      Int      T**2         TX        TY        TZ
       cm**-1   L/(mol*cm) km/mol    a.u.
----------------------------------------------------------------------------
  6:    138.93   0.000370    1.87  0.000831  (-0.000004  0.000032 -0.028834)
  7:    161.99   0.000164    0.83  0.000315  (-0.000040 -0.000023  0.017757)
  8:    176.69   0.000002    0.01  0.000004  ( 0.000020  0.000029  0.001992)
  9:    250.35   0.000618    3.12  0.000770  ( 0.000124 -0.027753 -0.000006)
 10:    360.45   0.000101    0.51  0.000087  ( 0.009294  0.001061  0.000002)
 11:    421.65   0.007556   38.18  0.005592  ( 0.074774 -0.000880 -0.000007)
 12:    504.61   0.009802   49.53  0.006061  (-0.000013 -0.000039 -0.077855)
 13:    523.76   0.003522   17.80  0.002099  ( 0.005417  0.045489 -0.000059)
 14:    580.74   0.001116    5.64  0.000600  (-0.001536 -0.024437 -0.000012)
 15:    598.89   0.000002    0.01  0.000001  ( 0.000324  0.000356 -0.001032)
 16:    598.95   0.000014    0.07  0.000007  (-0.001910 -0.001937 -0.000171)
 17:    678.92   0.016655   84.17  0.007655  (-0.000056  0.000004 -0.087496)
 18:    723.21   0.001394    7.05  0.000602  (-0.000022 -0.000051 -0.024528)
 19:    750.83   0.007179   36.28  0.002984  (-0.000029 -0.000003  0.054625)
 20:    818.11   0.008269   41.79  0.003154  ( 0.000014  0.000021  0.056161)
 21:    879.45   0.003861   19.51  0.001370  ( 0.036674 -0.005003  0.000002)
 22:    989.75   0.005695   28.78  0.001796  ( 0.020554  0.037058  0.000000)
 23:   1004.38   0.012258   61.95  0.003809  (-0.060684  0.011226 -0.000009)
 24:   1097.98   0.004429   22.38  0.001259  (-0.029327  0.019967  0.000002)
 25:   1188.17   0.004810   24.31  0.001263  (-0.006901  0.034868  0.000001)
 26:   1307.13   0.001488    7.52  0.000355  ( 0.001267  0.018804  0.000002)
 27:   1383.93   0.040781  206.09  0.009196  ( 0.087735 -0.038709  0.000005)
 28:   1392.73   0.005372   27.15  0.001204  ( 0.034570 -0.002930  0.000003)
 29:   1479.67   0.033710  170.36  0.007109  (-0.065394  0.053227 -0.000000)
 30:   1636.33   0.041925  211.87  0.007995  ( 0.067915  0.058163  0.000008)
 31:   1748.66   0.131783  665.98  0.023518  (-0.080326 -0.130636  0.000007)
 32:   1790.99   0.123487  624.05  0.021516  ( 0.070638 -0.128557 -0.000023)
 33:   3248.16   0.001618    8.18  0.000155  (-0.003308  0.012022  0.000001)
 34:   3590.84   0.015175   76.69  0.001319  (-0.036303  0.000935  0.000000)
 35:   3620.81   0.023291  117.70  0.002007  ( 0.025362  0.036934  0.000009)

--------------------------
THERMOCHEMISTRY AT 298.15K
--------------------------

Temperature         ...   298.15 K
Pressure            ...     1.00 atm
Total Mass          ...   146.53 AMU
Quasi RRHO          ...     True
Cut-Off Frequency   ...     1.00 cm^-1

Throughout the following assumptions are being made:
  (1) The electronic state is orbitally nondegenerate
  (2) There are no thermally accessible electronically excited states
  (3) Hindered rotations indicated by low frequency modes are not
      treated as such but are treated as vibrations and this may
      cause some error
  (4) All equations used are the standard statistical mechanics
      equations for an ideal gas
  (5) All vibrations are strictly harmonic

freq.     138.93  E(vib)   ...       0.42
freq.     161.99  E(vib)   ...       0.39
freq.     176.69  E(vib)   ...       0.38
freq.     250.35  E(vib)   ...       0.30
freq.     360.45  E(vib)   ...       0.22
freq.     421.65  E(vib)   ...       0.18
freq.     504.61  E(vib)   ...       0.14
freq.     523.76  E(vib)   ...       0.13
freq.     580.74  E(vib)   ...       0.11
freq.     598.89  E(vib)   ...       0.10
freq.     598.95  E(vib)   ...       0.10
freq.     678.92  E(vib)   ...       0.08
freq.     723.21  E(vib)   ...       0.07
freq.     750.83  E(vib)   ...       0.06
freq.     818.11  E(vib)   ...       0.05
freq.     879.45  E(vib)   ...       0.04
freq.     989.75  E(vib)   ...       0.02
freq.    1004.38  E(vib)   ...       0.02
freq.    1097.98  E(vib)   ...       0.02
freq.    1188.17  E(vib)   ...       0.01
freq.    1307.13  E(vib)   ...       0.01
freq.    1383.93  E(vib)   ...       0.00
freq.    1392.73  E(vib)   ...       0.00
freq.    1479.67  E(vib)   ...       0.00
freq.    1636.33  E(vib)   ...       0.00
freq.    1748.66  E(vib)   ...       0.00
freq.    1790.99  E(vib)   ...       0.00
freq.    3248.16  E(vib)   ...       0.00
freq.    3590.84  E(vib)   ...       0.00
freq.    3620.81  E(vib)   ...       0.00

------------
INNER ENERGY
------------

The inner energy is: U= E(el) + E(ZPE) + E(vib) + E(rot) + E(trans)
    E(el)   - is the total energy from the electronic structure calculation
              = E(kin-el) + E(nuc-el) + E(el-el) + E(nuc-nuc)
    E(ZPE)  - the the zero temperature vibrational energy from the frequency calculation
    E(vib)  - the the finite temperature correction to E(ZPE) due to population
              of excited vibrational states
    E(rot)  - is the rotational thermal energy
    E(trans)- is the translational thermal energy

Summary of contributions to the inner energy U:
Electronic energy                ...   -874.36574709 Eh
Zero point energy                ...      0.07665360 Eh      48.10 kcal/mol
Thermal vibrational correction   ...      0.00453415 Eh       2.85 kcal/mol
Thermal rotational correction    ...      0.00141627 Eh       0.89 kcal/mol
Thermal translational correction ...      0.00141627 Eh       0.89 kcal/mol
-----------------------------------------------------------------------
Total thermal energy                   -874.28172680 Eh

Summary of corrections to the electronic energy:
(perhaps to be used in another calculation)
Total thermal correction                  0.00736669 Eh       4.62 kcal/mol
Non-thermal (ZPE) correction              0.07665360 Eh      48.10 kcal/mol
-----------------------------------------------------------------------
Total correction                          0.08402029 Eh      52.72 kcal/mol

--------
ENTHALPY
--------

The enthalpy is H = U + kB*T
                kB is Boltzmann's constant
Total thermal energy              ...   -874.28172680 Eh
Thermal Enthalpy correction       ...      0.00094421 Eh       0.59 kcal/mol
-----------------------------------------------------------------------
Total Enthalpy                    ...   -874.28078259 Eh

Note: Only C1 symmetry has been detected, increase convergence thresholds
      if your molecule has a higher symmetry. Symmetry factor of 1.0 is
      used for the rotational entropy correction.

Note: Rotational entropy computed according to Herzberg
Infrared and Raman Spectra, Chapter V,1, Van Nostrand Reinhold, 1945
Point Group:  C1, Symmetry Number:   1
Rotational constants in cm-1:     0.067178     0.037579     0.024099

Vibrational entropy computed according to the QRRHO of S. Grimme
Chem.Eur.J. 2012 18 9955 using a reference frequency of 100.0 cm-1

-------
ENTROPY
-------

The entropy contributions are T*S = T*(S(el)+S(vib)+S(rot)+S(trans))
     S(el)   - electronic entropy
     S(vib)  - vibrational entropy
     S(rot)  - rotational entropy
     S(trans)- translational entropy
The entropies will be listed as multiplied by the temperature to get
units of energy

Electronic entropy                ...      0.00000000 Eh      0.00 kcal/mol
Vibrational entropy               ...      0.00741177 Eh      4.65 kcal/mol
Rotational entropy                ...      0.01409354 Eh      8.84 kcal/mol
Translational entropy             ...      0.01941237 Eh     12.18 kcal/mol
-----------------------------------------------------------------------
Final entropy term                ...      0.04091768 Eh     25.68 kcal/mol

In case the symmetry of your molecule has not been determined correctly
or in case you have a reason to use a different symmetry number we print
out the resulting rotational entropy values for sn=1,12:

 non-linear molecules -----------------------------------
|  sn= 1 | S(rot)=       0.01409354 Eh      8.84 kcal/mol|
|  sn= 2 | S(rot)=       0.01343909 Eh      8.43 kcal/mol|
|  sn= 3 | S(rot)=       0.01305625 Eh      8.19 kcal/mol|
|  sn= 4 | S(rot)=       0.01278463 Eh      8.02 kcal/mol|
|  sn= 5 | S(rot)=       0.01257394 Eh      7.89 kcal/mol|
|  sn= 6 | S(rot)=       0.01240180 Eh      7.78 kcal/mol|
|  sn= 7 | S(rot)=       0.01225625 Eh      7.69 kcal/mol|
|  sn= 8 | S(rot)=       0.01213017 Eh      7.61 kcal/mol|
|  sn= 9 | S(rot)=       0.01201897 Eh      7.54 kcal/mol|
|  sn=10 | S(rot)=       0.01191949 Eh      7.48 kcal/mol|
|  sn=11 | S(rot)=       0.01182950 Eh      7.42 kcal/mol|
|  sn=12 | S(rot)=       0.01174734 Eh      7.37 kcal/mol|
 linear molecules ---------------------------------------
|  Dinfh | S(rot)=       0.00884345 Eh      5.55 kcal/mol|
|  Cinfv | S(rot)=       0.00949791 Eh      5.96 kcal/mol|
 --------------------------------------------------------

-------------------
GIBBS FREE ENERGY
-------------------

The Gibbs free energy is G = H - T*S

Total enthalpy                    ...   -874.28078259 Eh
Total entropy correction          ...     -0.04091768 Eh    -25.68 kcal/mol
-----------------------------------------------------------------------
Final Gibbs free energy         ...   -874.32170027 Eh

For completeness - the Gibbs free energy minus the electronic energy

                             ****ORCA TERMINATED NORMALLY****
TOTAL RUN TIME: 0 days 0 hours 7 minutes 43 seconds 997 msec
