                         Program Version 6.0.1  -  RELEASE   -
|  1> ! r2scan-3c def2/J RI DEFGRID2 scfconv6 printgap
|  2> %output
|  3>     printlevel normal
|  4> end
|  5> * xyz 0 1
|  6> C -2.0782489127 -1.2539471247 -0.1568582567
|  7> C -1.2241578985 -0.3832048998 0.7916252859
|  8> H -1.800754175 -0.2391021493 1.7132982709
|  9> C -0.9229070008 0.9916984179 0.1605401022
| 10> H -1.2245016603 0.9819911187 -0.89368452
| 11> C 0.5788508106 1.2858018474 0.2375978224
| 12> H 0.8797299156 1.37783872 1.2969966902
| 13> C 1.3562659 0.1260638188 -0.3903836631
| 14> H 1.0391509104 0.0153066353 -1.4389505758
| 15> C 1.0294249569 -1.168287729 0.3706501324
| 16> H 1.8866335588 -1.4091460967 1.014789993
| 17> O -0.0471305479 -1.0407663161 1.2576259135
| 18> O 0.8179762096 -2.1891702585 -0.5667531739
| 19> O 2.7381080283 0.3394154068 -0.3167563894
| 20> O 0.9026038663 2.46858263 -0.451918775
| 21> O -1.6587093827 2.0408123051 0.7425088196
| 22> O -1.6268913108 -1.2735392773 -1.4792020341
| 23> H -3.0844112068 -0.8290966156 -0.1877940786
| 24> H -2.1344005168 -2.2681653092 0.2635660435
| 25> H 0.7374305684 -3.0331183064 -0.1051917395
| 26> H 2.9037572779 1.2323533764 -0.6473584256
| 27> H 0.1559864424 3.0747388898 -0.3579261781
| 28> H -1.4690155285 2.0751769007 1.6886296139
| 29> H -0.7385985436 -1.6715204665 -1.4908938274
| 30> *
| 31>
| 32>                          ****END OF INPUT****

CARTESIAN COORDINATES (ANGSTROEM)
---------------------------------
  C     -2.078249   -1.253947   -0.156858
  C     -1.224158   -0.383205    0.791625
  H     -1.800754   -0.239102    1.713298
  C     -0.922907    0.991698    0.160540
  H     -1.224502    0.981991   -0.893685
  C      0.578851    1.285802    0.237598
  H      0.879730    1.377839    1.296997
  C      1.356266    0.126064   -0.390384
  H      1.039151    0.015307   -1.438951
  C      1.029425   -1.168288    0.370650
  H      1.886634   -1.409146    1.014790
  O     -0.047131   -1.040766    1.257626
  O      0.817976   -2.189170   -0.566753
  O      2.738108    0.339415   -0.316756
  O      0.902604    2.468583   -0.451919
  O     -1.658709    2.040812    0.742509
  O     -1.626891   -1.273539   -1.479202
  H     -3.084411   -0.829097   -0.187794
  H     -2.134401   -2.268165    0.263566
  H      0.737431   -3.033118   -0.105192
  H      2.903757    1.232353   -0.647358
  H      0.155986    3.074739   -0.357926
  H     -1.469016    2.075177    1.688630
  H     -0.738599   -1.671520   -1.490894

 Total Charge           Charge          ....    0
 Multiplicity           Mult            ....    1
 Number of Electrons    NEL             ....   96
 Basis Dimension        Dim             ....  318

ORBITAL ENERGIES
----------------

  NO   OCC          E(Eh)            E(eV)
   0   2.0000     -18.987392      -516.6732
   1   2.0000     -18.977397      -516.4012
   2   2.0000     -18.974000      -516.3088
   3   2.0000     -18.963400      -516.0203
   4   2.0000     -18.958902      -515.8979
   5   2.0000     -18.943018      -515.4657
   6   2.0000     -10.148509      -276.1550
   7   2.0000     -10.098479      -274.7936
   8   2.0000     -10.095639      -274.7163
   9   2.0000     -10.095073      -274.7009
  10   2.0000     -10.093420      -274.6559
  11   2.0000     -10.081730      -274.3378
  12   2.0000      -1.061382       -28.8817
  13   2.0000      -1.023531       -27.8517
  14   2.0000      -1.007833       -27.4245
  15   2.0000      -0.994878       -27.0720
  16   2.0000      -0.989210       -26.9178
  17   2.0000      -0.985471       -26.8160
  18   2.0000      -0.755010       -20.5449
  19   2.0000      -0.745241       -20.2790
  20   2.0000      -0.666322       -18.1315
  21   2.0000      -0.626964       -17.0606
  22   2.0000      -0.608305       -16.5528
  23   2.0000      -0.550332       -14.9753
  24   2.0000      -0.537751       -14.6329
  25   2.0000      -0.514680       -14.0051
  26   2.0000      -0.511021       -13.9056
  27   2.0000      -0.483598       -13.1594
  28   2.0000      -0.461950       -12.5703
  29   2.0000      -0.459557       -12.5052
  30   2.0000      -0.442726       -12.0472
  31   2.0000      -0.423611       -11.5270
  32   2.0000      -0.418218       -11.3803
  33   2.0000      -0.404599       -11.0097
  34   2.0000      -0.390339       -10.6217
  35   2.0000      -0.376066       -10.2333
  36   2.0000      -0.361700        -9.8424
  37   2.0000      -0.348737        -9.4896
  38   2.0000      -0.335176        -9.1206
  39   2.0000      -0.325437        -8.8556
  40   2.0000      -0.313844        -8.5401
  41   2.0000      -0.294567        -8.0156
  42   2.0000      -0.279600        -7.6083
  43   2.0000      -0.277946        -7.5633
  44   2.0000      -0.267873        -7.2892
  45   2.0000      -0.248969        -6.7748
  46   2.0000      -0.243272        -6.6198
  47   2.0000      -0.223970        -6.0945
  48   0.0000       0.029089         0.7916
  49   0.0000       0.038989         1.0610
  50   0.0000       0.053191         1.4474
  51   0.0000       0.071260         1.9391
  52   0.0000       0.081076         2.2062

MULLIKEN ATOMIC CHARGES
-----------------------
   0 C :   -0.230807
   1 C :    0.040866
   2 H :    0.143489
   3 C :   -0.170479
   4 H :    0.205310
   5 C :    0.026618
   6 H :    0.172389
   7 C :    0.038044
   8 H :    0.176732
   9 C :   -0.147193
  10 H :    0.151583
  11 O :   -0.180125
  12 O :   -0.393856
  13 O :   -0.425357
  14 O :   -0.431333
  15 O :   -0.418887
  16 O :   -0.430823
  17 H :    0.144753
  18 H :    0.141156
  19 H :    0.311895
  20 H :    0.319102
  21 H :    0.315487
  22 H :    0.303513
  23 H :    0.337922
Sum of atomic charges:    0.0000000

LOEWDIN ATOMIC CHARGES
----------------------
   0 C :    0.023231
   1 C :    0.102349
   2 H :    0.201574
   3 C :    0.105764
   4 H :    0.216801
   5 C :    0.112243
   6 H :    0.184624
   7 C :    0.134416
   8 H :    0.194387
   9 C :    0.302401
  10 H :    0.214712
  11 O :   -0.678969
  12 O :   -0.527241
  13 O :   -0.558231
  14 O :   -0.578327
  15 O :   -0.580071
  16 O :   -0.617472
  17 H :    0.186259
  18 H :    0.167862
  19 H :    0.277960
  20 H :    0.283504
  21 H :    0.283244
  22 H :    0.270494
  23 H :    0.278485

  Mayer bond orders larger than 0.100000
B(  0-C ,  1-C ) :   0.9106 B(  0-C , 16-O ) :   1.0163 B(  0-C , 17-H ) :   0.9640
B(  0-C , 18-H ) :   0.9926 B(  1-C ,  2-H ) :   0.9336 B(  1-C ,  3-C ) :   0.8226
B(  1-C , 11-O ) :   0.9572 B(  3-C ,  4-H ) :   0.9499 B(  3-C ,  5-C ) :   0.8989
B(  3-C , 15-O ) :   0.9899 B(  5-C ,  6-H ) :   0.9764 B(  5-C ,  7-C ) :   0.8922
B(  5-C , 14-O ) :   0.9103 B(  7-C ,  8-H ) :   0.9526 B(  7-C ,  9-C ) :   0.9364
B(  7-C , 13-O ) :   0.9051 B(  9-C , 10-H ) :   0.9647 B(  9-C , 11-O ) :   1.0125
B(  9-C , 12-O ) :   0.9660 B( 12-O , 19-H ) :   0.8869 B( 13-O , 20-H ) :   0.8727
B( 14-O , 21-H ) :   0.8686 B( 15-O , 22-H ) :   0.8874 B( 16-O , 23-H ) :   0.8172

Dispersion correction           -0.008482248
FINAL SINGLE POINT ENERGY      -687.073196414950

DIPOLE MOMENT
-------------

Method             : SCF
Type of density    : Electron Density
Multiplicity       :   1
Irrep              :   0
Energy             :  -687.0855384656658771 Eh
Relativity type    :
Basis              : AO
                                X                 Y                 Z
Electronic contribution:      2.486909372       0.449673621       0.159419128
Nuclear contribution   :     -2.656159581      -0.644795111       0.790520622
                        -----------------------------------------
Total Dipole Moment    :     -0.169250209      -0.195121490       0.949939751
                        -----------------------------------------
Magnitude (a.u.)       :      0.984430576
Magnitude (Debye)      :      2.502223669

Rotational constants in cm-1:             0.036259             0.032526             0.021469
Rotational constants in MHz :          1087.007319           975.106637           643.632739

                             ****ORCA TERMINATED NORMALLY****
TOTAL RUN TIME: 0 days 0 hours 0 minutes 39 seconds 865 msec
