                         Program Version 6.0.0  -   RELEASE  -
|  1> ! r2SCAN-3c DEF2-TZVP FREQ
|  2> * xyzfile 0 1 censo.xyz
|  3>
|  4>                          ****END OF INPUT****

CARTESIAN COORDINATES (ANGSTROEM)
---------------------------------
  C     -2.507358    0.079448   -0.005027
  C     -1.099173   -0.512150   -0.034689
  C     -0.045665    0.581781    0.055840
  S      1.691727   -0.047400   -0.029706
  H     -3.264065   -0.709309   -0.057819
  H     -2.676933    0.647168    0.916097
  H     -2.666128    0.755785   -0.851827
  H     -0.950580   -1.086167   -0.955969
  H     -0.970365   -1.208930    0.802397
  H     -0.130965    1.274254   -0.788484
  H     -0.160660    1.163443    0.975360
  H      1.630241   -0.813600    1.076062

 Total Charge           Charge          ....    0
 Multiplicity           Mult            ....    1
 Number of Electrons    NEL             ....   42
 Basis Dimension        Dim             ....  178

ORBITAL ENERGIES
----------------

  NO   OCC          E(Eh)            E(eV)
   0   2.0000     -88.523632     -2408.8505
   1   2.0000     -10.067610      -273.9536
   2   2.0000     -10.038557      -273.1630
   3   2.0000     -10.027990      -272.8755
   4   2.0000      -7.837753      -213.2761
   5   2.0000      -5.783283      -157.3711
   6   2.0000      -5.779655      -157.2724
   7   2.0000      -5.774587      -157.1345
   8   2.0000      -0.776220       -21.1220
   9   2.0000      -0.704618       -19.1736
  10   2.0000      -0.616764       -16.7830
  11   2.0000      -0.560901       -15.2629
  12   2.0000      -0.450108       -12.2481
  13   2.0000      -0.411600       -11.2002
  14   2.0000      -0.384043       -10.4503
  15   2.0000      -0.376062       -10.2332
  16   2.0000      -0.346443        -9.4272
  17   2.0000      -0.324427        -8.8281
  18   2.0000      -0.312275        -8.4974
  19   2.0000      -0.292775        -7.9668
  20   2.0000      -0.210515        -5.7284
  21   0.0000      -0.002596        -0.0706
  22   0.0000       0.035818         0.9746
  23   0.0000       0.054251         1.4762
  24   0.0000       0.083576         2.2742
  25   0.0000       0.089435         2.4336

MULLIKEN ATOMIC CHARGES
-----------------------
   0 C :   -0.322988
   1 C :   -0.135439
   2 C :   -0.145294
   3 S :   -0.240896
   4 H :    0.111612
   5 H :    0.100775
   6 H :    0.102843
   7 H :    0.096058
   8 H :    0.078438
   9 H :    0.109967
  10 H :    0.113956
  11 H :    0.130971
Sum of atomic charges:    0.0000000

LOEWDIN ATOMIC CHARGES
----------------------
   0 C :   -0.309635
   1 C :   -0.328955
   2 C :   -0.475062
   3 S :    0.208096
   4 H :    0.120220
   5 H :    0.117751
   6 H :    0.118553
   7 H :    0.133798
   8 H :    0.130227
   9 H :    0.128461
  10 H :    0.121784
  11 H :    0.034762

  Mayer bond orders larger than 0.100000
B(  0-C ,  1-C ) :   0.9649 B(  0-C ,  4-H ) :   0.9730 B(  0-C ,  5-H ) :   0.9740
B(  0-C ,  6-H ) :   0.9766 B(  1-C ,  2-C ) :   0.9696 B(  1-C ,  7-H ) :   0.9652
B(  1-C ,  8-H ) :   0.9648 B(  2-C ,  3-S ) :   1.0150 B(  2-C ,  9-H ) :   0.9535
B(  2-C , 10-H ) :   0.9614 B(  3-S , 11-H ) :   0.9662

Dispersion correction           -0.002536054
FINAL SINGLE POINT ENERGY      -517.272717820856

DIPOLE MOMENT
-------------

Method             : SCF
Type of density    : Electron Density
Multiplicity       :   1
Irrep              :   0
Energy             :  -517.2790253491100430 Eh
Relativity type    :
Basis              : AO
                                X                 Y                 Z
Electronic contribution:      8.104035089      -0.006806086      -0.757915715
Nuclear contribution   :     -8.779007697      -0.006221886       1.011758159
                        -----------------------------------------
Total Dipole Moment    :     -0.674972608      -0.013027972       0.253842444
                        -----------------------------------------
Magnitude (a.u.)       :      0.721244574
Magnitude (Debye)      :      1.833258016

VIBRATIONAL FREQUENCIES
-----------------------

Scaling factor for frequencies =  1.000000000  (already applied!)

     0:       0.00 cm**-1
     1:       0.00 cm**-1
     2:       0.00 cm**-1
     3:       0.00 cm**-1
     4:       0.00 cm**-1
     5:       0.00 cm**-1
     6:     129.36 cm**-1
     7:     237.42 cm**-1
     8:     252.07 cm**-1
     9:     274.59 cm**-1
    10:     362.14 cm**-1
    11:     684.23 cm**-1
    12:     738.59 cm**-1
    13:     818.21 cm**-1
    14:     903.07 cm**-1
    15:     929.09 cm**-1
    16:    1034.61 cm**-1
    17:    1098.56 cm**-1
    18:    1132.68 cm**-1
    19:    1250.68 cm**-1
    20:    1265.77 cm**-1
    21:    1321.34 cm**-1
    22:    1354.17 cm**-1
    23:    1401.89 cm**-1
    24:    1463.18 cm**-1
    25:    1483.01 cm**-1
    26:    1494.64 cm**-1
    27:    1499.98 cm**-1
    28:    2651.57 cm**-1
    29:    3003.91 cm**-1
    30:    3010.84 cm**-1
    31:    3031.85 cm**-1
    32:    3051.11 cm**-1
    33:    3079.62 cm**-1
    34:    3086.86 cm**-1
    35:    3095.05 cm**-1

IR SPECTRUM
-----------

 Mode   freq       eps      Int      T**2         TX        TY        TZ
       cm**-1   L/(mol*cm) km/mol    a.u.
----------------------------------------------------------------------------
  6:    129.36   0.000177    0.90  0.000428  (-0.008908  0.010627 -0.015338)
  7:    237.42   0.000232    1.17  0.000305  (-0.006047 -0.003526 -0.015993)
  8:    252.07   0.000572    2.89  0.000708  (-0.011902 -0.019264 -0.013977)
  9:    274.59   0.002620   13.24  0.002977  (-0.025491 -0.035396 -0.032777)
 10:    362.14   0.000111    0.56  0.000096  ( 0.008473  0.004779  0.001079)
 11:    684.23   0.001587    8.02  0.000724  (-0.026016  0.006857  0.000216)
 12:    738.59   0.000524    2.65  0.000221  ( 0.005326  0.003929  0.013329)
 13:    818.21   0.000567    2.86  0.000216  (-0.001809 -0.007949  0.012234)
 14:    903.07   0.001366    6.91  0.000472  ( 0.018334  0.011527 -0.001775)
 15:    929.09   0.000204    1.03  0.000068  ( 0.001464 -0.002210  0.007832)
 16:   1034.61   0.000039    0.20  0.000012  (-0.003115 -0.001204 -0.000702)
 17:   1098.56   0.000524    2.65  0.000149  (-0.001256  0.006113  0.010482)
 18:   1132.68   0.001586    8.01  0.000437  (-0.015597 -0.005048  0.012965)
 19:   1250.68   0.001022    5.17  0.000255  (-0.013992  0.004818  0.006009)
 20:   1265.77   0.002537   12.82  0.000626  (-0.022124  0.010870 -0.004233)
 21:   1321.34   0.000237    1.20  0.000056  (-0.006889  0.001856 -0.002245)
 22:   1354.17   0.000084    0.42  0.000019  (-0.003866  0.001779  0.001080)
 23:   1401.89   0.000615    3.11  0.000137  (-0.009151  0.007263  0.000562)
 24:   1463.18   0.000293    1.48  0.000062  (-0.000789 -0.007862  0.000042)
 25:   1483.01   0.000270    1.36  0.000057  (-0.006370  0.003957 -0.000687)
 26:   1494.64   0.001851    9.36  0.000387  ( 0.000449 -0.000082 -0.019656)
 27:   1499.98   0.001466    7.41  0.000305  (-0.003489 -0.017101  0.000670)
 28:   2651.57   0.000557    2.81  0.000066  ( 0.000428 -0.004876  0.006449)
 29:   3003.91   0.005208   26.32  0.000541  (-0.022135  0.007088  0.000918)
 30:   3010.84   0.002686   13.58  0.000278  ( 0.006054 -0.015220  0.003184)
 31:   3031.85   0.006077   30.71  0.000625  (-0.010270  0.022785  0.000939)
 32:   3051.11   0.000133    0.67  0.000014  (-0.000793 -0.001398 -0.003314)
 33:   3079.62   0.002903   14.67  0.000294  (-0.002162  0.001505 -0.016948)
 34:   3086.86   0.006455   32.62  0.000653  ( 0.011404  0.022857  0.000142)
 35:   3095.05   0.008879   44.87  0.000895  ( 0.002147 -0.000800 -0.029832)

--------------------------
THERMOCHEMISTRY AT 298.15K
--------------------------

Temperature         ...   298.15 K
Pressure            ...     1.00 atm
Total Mass          ...    76.16 AMU
Quasi RRHO          ...     True
Cut-Off Frequency   ...     1.00 cm^-1

Throughout the following assumptions are being made:
  (1) The electronic state is orbitally nondegenerate
  (2) There are no thermally accessible electronically excited states
  (3) Hindered rotations indicated by low frequency modes are not
      treated as such but are treated as vibrations and this may
      cause some error
  (4) All equations used are the standard statistical mechanics
      equations for an ideal gas
  (5) All vibrations are strictly harmonic

freq.     129.36  E(vib)   ...       0.43
freq.     237.42  E(vib)   ...       0.32
freq.     252.07  E(vib)   ...       0.30
freq.     274.59  E(vib)   ...       0.28
freq.     362.14  E(vib)   ...       0.22
freq.     684.23  E(vib)   ...       0.07
freq.     738.59  E(vib)   ...       0.06
freq.     818.21  E(vib)   ...       0.05
freq.     903.07  E(vib)   ...       0.03
freq.     929.09  E(vib)   ...       0.03
freq.    1034.61  E(vib)   ...       0.02
freq.    1098.56  E(vib)   ...       0.02
freq.    1132.68  E(vib)   ...       0.01
freq.    1250.68  E(vib)   ...       0.01
freq.    1265.77  E(vib)   ...       0.01
freq.    1321.34  E(vib)   ...       0.01
freq.    1354.17  E(vib)   ...       0.01
freq.    1401.89  E(vib)   ...       0.00
freq.    1463.18  E(vib)   ...       0.00
freq.    1483.01  E(vib)   ...       0.00
freq.    1494.64  E(vib)   ...       0.00
freq.    1499.98  E(vib)   ...       0.00
freq.    2651.57  E(vib)   ...       0.00
freq.    3003.91  E(vib)   ...       0.00
freq.    3010.84  E(vib)   ...       0.00
freq.    3031.85  E(vib)   ...       0.00
freq.    3051.11  E(vib)   ...       0.00
freq.    3079.62  E(vib)   ...       0.00
freq.    3086.86  E(vib)   ...       0.00
freq.    3095.05  E(vib)   ...       0.00

------------
INNER ENERGY
------------

The inner energy is: U= E(el) + E(ZPE) + E(vib) + E(rot) + E(trans)
    E(el)   - is the total energy from the electronic structure calculation
              = E(kin-el) + E(nuc-el) + E(el-el) + E(nuc-nuc)
    E(ZPE)  - the the zero temperature vibrational energy from the frequency calculation
    E(vib)  - the the finite temperature correction to E(ZPE) due to population
              of excited vibrational states
    E(rot)  - is the rotational thermal energy
    E(trans)- is the translational thermal energy

Summary of contributions to the inner energy U:
Electronic energy                ...   -517.27271782 Eh
Zero point energy                ...      0.10283671 Eh      64.53 kcal/mol
Thermal vibrational correction   ...      0.00301465 Eh       1.89 kcal/mol
Thermal rotational correction    ...      0.00141627 Eh       0.89 kcal/mol
Thermal translational correction ...      0.00141627 Eh       0.89 kcal/mol
-----------------------------------------------------------------------
Total thermal energy                   -517.16403392 Eh

Summary of corrections to the electronic energy:
(perhaps to be used in another calculation)
Total thermal correction                  0.00584719 Eh       3.67 kcal/mol
Non-thermal (ZPE) correction              0.10283671 Eh      64.53 kcal/mol
-----------------------------------------------------------------------
Total correction                          0.10868390 Eh      68.20 kcal/mol

--------
ENTHALPY
--------

The enthalpy is H = U + kB*T
                kB is Boltzmann's constant
Total thermal energy              ...   -517.16403392 Eh
Thermal Enthalpy correction       ...      0.00094421 Eh       0.59 kcal/mol
-----------------------------------------------------------------------
Total Enthalpy                    ...   -517.16308971 Eh

Note: Only C1 symmetry has been detected, increase convergence thresholds
      if your molecule has a higher symmetry. Symmetry factor of 1.0 is
      used for the rotational entropy correction.

Note: Rotational entropy computed according to Herzberg
Infrared and Raman Spectra, Chapter V,1, Van Nostrand Reinhold, 1945
Point Group:  C1, Symmetry Number:   1
Rotational constants in cm-1:     0.796073     0.077514     0.074362

Vibrational entropy computed according to the QRRHO of S. Grimme
Chem.Eur.J. 2012 18 9955 using a reference frequency of 100.0 cm-1

-------
ENTROPY
-------

The entropy contributions are T*S = T*(S(el)+S(vib)+S(rot)+S(trans))
     S(el)   - electronic entropy
     S(vib)  - vibrational entropy
     S(rot)  - rotational entropy
     S(trans)- translational entropy
The entropies will be listed as multiplied by the temperature to get
units of energy

Electronic entropy                ...      0.00000000 Eh      0.00 kcal/mol
Vibrational entropy               ...      0.00499927 Eh      3.14 kcal/mol
Rotational entropy                ...      0.01205263 Eh      7.56 kcal/mol
Translational entropy             ...      0.01848549 Eh     11.60 kcal/mol
-----------------------------------------------------------------------
Final entropy term                ...      0.03553738 Eh     22.30 kcal/mol

In case the symmetry of your molecule has not been determined correctly
or in case you have a reason to use a different symmetry number we print
out the resulting rotational entropy values for sn=1,12:

 non-linear molecules -----------------------------------
|  sn= 1 | S(rot)=       0.01205263 Eh      7.56 kcal/mol|
|  sn= 2 | S(rot)=       0.01139817 Eh      7.15 kcal/mol|
|  sn= 3 | S(rot)=       0.01101534 Eh      6.91 kcal/mol|
|  sn= 4 | S(rot)=       0.01074372 Eh      6.74 kcal/mol|
|  sn= 5 | S(rot)=       0.01053303 Eh      6.61 kcal/mol|
|  sn= 6 | S(rot)=       0.01036088 Eh      6.50 kcal/mol|
|  sn= 7 | S(rot)=       0.01021534 Eh      6.41 kcal/mol|
|  sn= 8 | S(rot)=       0.01008926 Eh      6.33 kcal/mol|
|  sn= 9 | S(rot)=       0.00997805 Eh      6.26 kcal/mol|
|  sn=10 | S(rot)=       0.00987857 Eh      6.20 kcal/mol|
|  sn=11 | S(rot)=       0.00978858 Eh      6.14 kcal/mol|
|  sn=12 | S(rot)=       0.00970643 Eh      6.09 kcal/mol|
 linear molecules ---------------------------------------
|  Dinfh | S(rot)=       0.00777955 Eh      4.88 kcal/mol|
|  Cinfv | S(rot)=       0.00843401 Eh      5.29 kcal/mol|
 --------------------------------------------------------

-------------------
GIBBS FREE ENERGY
-------------------

The Gibbs free energy is G = H - T*S

Total enthalpy                    ...   -517.16308971 Eh
Total entropy correction          ...     -0.03553738 Eh    -22.30 kcal/mol
-----------------------------------------------------------------------
Final Gibbs free energy         ...   -517.19862709 Eh

For completeness - the Gibbs free energy minus the electronic energy

                             ****ORCA TERMINATED NORMALLY****
TOTAL RUN TIME: 0 days 0 hours 3 minutes 41 seconds 780 msec
