                         Program Version 6.0.0  -   RELEASE  -
|  1> ! r2SCAN-3c DEF2-TZVP FREQ
|  2> * xyzfile 0 1 vacuum_censo.xyz
|  3>
|  4>                          ****END OF INPUT****

CARTESIAN COORDINATES (ANGSTROEM)
---------------------------------
  C     -2.513408    0.080773    0.006425
  C     -1.104469   -0.512800    0.037973
  C     -0.040164    0.572678   -0.061025
  S      1.690537   -0.061105    0.044658
  H     -3.271683   -0.705205    0.064715
  H     -2.672410    0.762191    0.848791
  H     -2.685760    0.644464   -0.916475
  H     -0.979380   -1.219282   -0.791573
  H     -0.950739   -1.083896    0.959832
  H     -0.152079    1.153898   -0.982021
  H     -0.127466    1.273024    0.777006
  H      1.642888   -0.808015   -1.073142

 Total Charge           Charge          ....    0
 Multiplicity           Mult            ....    1
 Number of Electrons    NEL             ....   42
 Basis Dimension        Dim             ....  178

ORBITAL ENERGIES
----------------

  NO   OCC          E(Eh)            E(eV)
   0   2.0000     -88.523910     -2408.8581
   1   2.0000     -10.067477      -273.9500
   2   2.0000     -10.038491      -273.1612
   3   2.0000     -10.027977      -272.8751
   4   2.0000      -7.838072      -213.2848
   5   2.0000      -5.783595      -157.3796
   6   2.0000      -5.779968      -157.2809
   7   2.0000      -5.774913      -157.1434
   8   2.0000      -0.775738       -21.1089
   9   2.0000      -0.704920       -19.1819
  10   2.0000      -0.617086       -16.7918
  11   2.0000      -0.560852       -15.2616
  12   2.0000      -0.449258       -12.2249
  13   2.0000      -0.411193       -11.1891
  14   2.0000      -0.384373       -10.4593
  15   2.0000      -0.376141       -10.2353
  16   2.0000      -0.345880        -9.4119
  17   2.0000      -0.324233        -8.8228
  18   2.0000      -0.311438        -8.4746
  19   2.0000      -0.293839        -7.9958
  20   2.0000      -0.210858        -5.7377
  21   0.0000      -0.002728        -0.0742
  22   0.0000       0.036524         0.9939
  23   0.0000       0.054829         1.4920
  24   0.0000       0.083894         2.2829
  25   0.0000       0.089726         2.4416

MULLIKEN ATOMIC CHARGES
-----------------------
   0 C :   -0.323201
   1 C :   -0.135479
   2 C :   -0.147340
   3 S :   -0.238736
   4 H :    0.112003
   5 H :    0.102969
   6 H :    0.100985
   7 H :    0.078275
   8 H :    0.096165
   9 H :    0.114144
  10 H :    0.109225
  11 H :    0.130990
Sum of atomic charges:    0.0000000

LOEWDIN ATOMIC CHARGES
----------------------
   0 C :   -0.309545
   1 C :   -0.328359
   2 C :   -0.477874
   3 S :    0.211295
   4 H :    0.120149
   5 H :    0.118351
   6 H :    0.117645
   7 H :    0.130018
   8 H :    0.133470
   9 H :    0.121695
  10 H :    0.128527
  11 H :    0.034628

  Mayer bond orders larger than 0.100000
B(  0-C ,  1-C ) :   0.9648 B(  0-C ,  4-H ) :   0.9730 B(  0-C ,  5-H ) :   0.9765
B(  0-C ,  6-H ) :   0.9739 B(  1-C ,  2-C ) :   0.9675 B(  1-C ,  7-H ) :   0.9652
B(  1-C ,  8-H ) :   0.9655 B(  2-C ,  3-S ) :   1.0176 B(  2-C ,  9-H ) :   0.9614
B(  2-C , 10-H ) :   0.9538 B(  3-S , 11-H ) :   0.9665

Dispersion correction           -0.002533551
FINAL SINGLE POINT ENERGY      -517.272814807643

DIPOLE MOMENT
-------------

Method             : SCF
Type of density    : Electron Density
Multiplicity       :   1
Irrep              :   0
Energy             :  -517.2791260915817020 Eh
Relativity type    :
Basis              : AO
                                X                 Y                 Z
Electronic contribution:      8.110268880      -0.049795971       0.794502180
Nuclear contribution   :     -8.774356587       0.042661338      -1.056183692
                        -----------------------------------------
Total Dipole Moment    :     -0.664087708      -0.007134633      -0.261681512
                        -----------------------------------------
Magnitude (a.u.)       :      0.713821126
Magnitude (Debye)      :      1.814389111

VIBRATIONAL FREQUENCIES
-----------------------

Scaling factor for frequencies =  1.000000000  (already applied!)

     0:       0.00 cm**-1
     1:       0.00 cm**-1
     2:       0.00 cm**-1
     3:       0.00 cm**-1
     4:       0.00 cm**-1
     5:       0.00 cm**-1
     6:     129.12 cm**-1
     7:     232.97 cm**-1
     8:     242.62 cm**-1
     9:     267.46 cm**-1
    10:     361.39 cm**-1
    11:     686.60 cm**-1
    12:     735.69 cm**-1
    13:     814.95 cm**-1
    14:     899.28 cm**-1
    15:     927.65 cm**-1
    16:    1031.26 cm**-1
    17:    1097.88 cm**-1
    18:    1130.96 cm**-1
    19:    1248.94 cm**-1
    20:    1268.11 cm**-1
    21:    1320.92 cm**-1
    22:    1354.72 cm**-1
    23:    1401.30 cm**-1
    24:    1463.93 cm**-1
    25:    1483.71 cm**-1
    26:    1493.77 cm**-1
    27:    1500.07 cm**-1
    28:    2661.96 cm**-1
    29:    3007.17 cm**-1
    30:    3012.16 cm**-1
    31:    3028.48 cm**-1
    32:    3051.13 cm**-1
    33:    3078.24 cm**-1
    34:    3091.43 cm**-1
    35:    3092.11 cm**-1

IR SPECTRUM
-----------

 Mode   freq       eps      Int      T**2         TX        TY        TZ
       cm**-1   L/(mol*cm) km/mol    a.u.
----------------------------------------------------------------------------
  6:    129.12   0.000172    0.87  0.000415  (-0.008435  0.011800  0.014319)
  7:    232.97   0.000667    3.37  0.000893  (-0.012765 -0.014168  0.023013)
  8:    242.62   0.000271    1.37  0.000349  (-0.008388 -0.015338  0.006561)
  9:    267.46   0.002492   12.59  0.002908  (-0.025588 -0.035616  0.031376)
 10:    361.39   0.000104    0.53  0.000090  ( 0.008085  0.004840 -0.001047)
 11:    686.60   0.001490    7.53  0.000677  (-0.025120  0.006743 -0.000738)
 12:    735.69   0.000566    2.86  0.000240  (-0.005941 -0.003383  0.013909)
 13:    814.95   0.000557    2.82  0.000213  (-0.001860 -0.007798 -0.012209)
 14:    899.28   0.001361    6.88  0.000472  (-0.018328 -0.011601 -0.001395)
 15:    927.65   0.000209    1.05  0.000070  (-0.001027  0.002470  0.007937)
 16:   1031.26   0.000037    0.19  0.000011  (-0.003005 -0.001284  0.000789)
 17:   1097.88   0.000500    2.53  0.000142  (-0.000816  0.006385 -0.010038)
 18:   1130.96   0.001645    8.32  0.000454  ( 0.015700  0.004916  0.013540)
 19:   1248.94   0.001019    5.15  0.000255  (-0.013844  0.004741 -0.006364)
 20:   1268.11   0.002564   12.96  0.000631  ( 0.022302 -0.010852 -0.003985)
 21:   1320.92   0.000241    1.22  0.000057  (-0.007003  0.001848  0.002115)
 22:   1354.72   0.000087    0.44  0.000020  (-0.003928  0.001848 -0.001069)
 23:   1401.30   0.000583    2.95  0.000130  (-0.008901  0.007094 -0.000588)
 24:   1463.93   0.000282    1.42  0.000060  ( 0.000853  0.007702  0.000215)
 25:   1483.71   0.000255    1.29  0.000054  ( 0.006308 -0.003670 -0.000583)
 26:   1493.77   0.001854    9.37  0.000387  (-0.000611 -0.000501 -0.019662)
 27:   1500.07   0.001501    7.59  0.000312  ( 0.003422  0.017337  0.000020)
 28:   2661.96   0.000548    2.77  0.000064  ( 0.000688 -0.004810 -0.006371)
 29:   3007.17   0.004828   24.40  0.000501  ( 0.021380 -0.006496  0.001299)
 30:   3012.16   0.002383   12.04  0.000247  ( 0.006260 -0.013911 -0.003767)
 31:   3028.48   0.006960   35.17  0.000717  (-0.010862  0.024465 -0.000841)
 32:   3051.13   0.000153    0.78  0.000016  (-0.000287 -0.002654  0.002927)
 33:   3078.24   0.000956    4.83  0.000097  ( 0.002556 -0.001031 -0.009451)
 34:   3091.43   0.007839   39.62  0.000791  (-0.010573 -0.018762 -0.018097)
 35:   3092.11   0.009458   47.79  0.000954  (-0.005169 -0.012322  0.027855)

--------------------------
THERMOCHEMISTRY AT 298.15K
--------------------------

Temperature         ...   298.15 K
Pressure            ...     1.00 atm
Total Mass          ...    76.16 AMU
Quasi RRHO          ...     True
Cut-Off Frequency   ...     1.00 cm^-1

Throughout the following assumptions are being made:
  (1) The electronic state is orbitally nondegenerate
  (2) There are no thermally accessible electronically excited states
  (3) Hindered rotations indicated by low frequency modes are not
      treated as such but are treated as vibrations and this may
      cause some error
  (4) All equations used are the standard statistical mechanics
      equations for an ideal gas
  (5) All vibrations are strictly harmonic

freq.     129.12  E(vib)   ...       0.43
freq.     232.97  E(vib)   ...       0.32
freq.     242.62  E(vib)   ...       0.31
freq.     267.46  E(vib)   ...       0.29
freq.     361.39  E(vib)   ...       0.22
freq.     686.60  E(vib)   ...       0.07
freq.     735.69  E(vib)   ...       0.06
freq.     814.95  E(vib)   ...       0.05
freq.     899.28  E(vib)   ...       0.03
freq.     927.65  E(vib)   ...       0.03
freq.    1031.26  E(vib)   ...       0.02
freq.    1097.88  E(vib)   ...       0.02
freq.    1130.96  E(vib)   ...       0.01
freq.    1248.94  E(vib)   ...       0.01
freq.    1268.11  E(vib)   ...       0.01
freq.    1320.92  E(vib)   ...       0.01
freq.    1354.72  E(vib)   ...       0.01
freq.    1401.30  E(vib)   ...       0.00
freq.    1463.93  E(vib)   ...       0.00
freq.    1483.71  E(vib)   ...       0.00
freq.    1493.77  E(vib)   ...       0.00
freq.    1500.07  E(vib)   ...       0.00
freq.    2661.96  E(vib)   ...       0.00
freq.    3007.17  E(vib)   ...       0.00
freq.    3012.16  E(vib)   ...       0.00
freq.    3028.48  E(vib)   ...       0.00
freq.    3051.13  E(vib)   ...       0.00
freq.    3078.24  E(vib)   ...       0.00
freq.    3091.43  E(vib)   ...       0.00
freq.    3092.11  E(vib)   ...       0.00

------------
INNER ENERGY
------------

The inner energy is: U= E(el) + E(ZPE) + E(vib) + E(rot) + E(trans)
    E(el)   - is the total energy from the electronic structure calculation
              = E(kin-el) + E(nuc-el) + E(el-el) + E(nuc-nuc)
    E(ZPE)  - the the zero temperature vibrational energy from the frequency calculation
    E(vib)  - the the finite temperature correction to E(ZPE) due to population
              of excited vibrational states
    E(rot)  - is the rotational thermal energy
    E(trans)- is the translational thermal energy

Summary of contributions to the inner energy U:
Electronic energy                ...   -517.27281481 Eh
Zero point energy                ...      0.10278180 Eh      64.50 kcal/mol
Thermal vibrational correction   ...      0.00304784 Eh       1.91 kcal/mol
Thermal rotational correction    ...      0.00141627 Eh       0.89 kcal/mol
Thermal translational correction ...      0.00141627 Eh       0.89 kcal/mol
-----------------------------------------------------------------------
Total thermal energy                   -517.16415263 Eh

Summary of corrections to the electronic energy:
(perhaps to be used in another calculation)
Total thermal correction                  0.00588038 Eh       3.69 kcal/mol
Non-thermal (ZPE) correction              0.10278180 Eh      64.50 kcal/mol
-----------------------------------------------------------------------
Total correction                          0.10866218 Eh      68.19 kcal/mol

--------
ENTHALPY
--------

The enthalpy is H = U + kB*T
                kB is Boltzmann's constant
Total thermal energy              ...   -517.16415263 Eh
Thermal Enthalpy correction       ...      0.00094421 Eh       0.59 kcal/mol
-----------------------------------------------------------------------
Total Enthalpy                    ...   -517.16320842 Eh

Note: Only C1 symmetry has been detected, increase convergence thresholds
      if your molecule has a higher symmetry. Symmetry factor of 1.0 is
      used for the rotational entropy correction.

Note: Rotational entropy computed according to Herzberg
Infrared and Raman Spectra, Chapter V,1, Van Nostrand Reinhold, 1945
Point Group:  C1, Symmetry Number:   1
Rotational constants in cm-1:     0.798112     0.077307     0.074206

Vibrational entropy computed according to the QRRHO of S. Grimme
Chem.Eur.J. 2012 18 9955 using a reference frequency of 100.0 cm-1

-------
ENTROPY
-------

The entropy contributions are T*S = T*(S(el)+S(vib)+S(rot)+S(trans))
     S(el)   - electronic entropy
     S(vib)  - vibrational entropy
     S(rot)  - rotational entropy
     S(trans)- translational entropy
The entropies will be listed as multiplied by the temperature to get
units of energy

Electronic entropy                ...      0.00000000 Eh      0.00 kcal/mol
Vibrational entropy               ...      0.00507518 Eh      3.18 kcal/mol
Rotational entropy                ...      0.01205367 Eh      7.56 kcal/mol
Translational entropy             ...      0.01848549 Eh     11.60 kcal/mol
-----------------------------------------------------------------------
Final entropy term                ...      0.03561435 Eh     22.35 kcal/mol

In case the symmetry of your molecule has not been determined correctly
or in case you have a reason to use a different symmetry number we print
out the resulting rotational entropy values for sn=1,12:

 non-linear molecules -----------------------------------
|  sn= 1 | S(rot)=       0.01205367 Eh      7.56 kcal/mol|
|  sn= 2 | S(rot)=       0.01139922 Eh      7.15 kcal/mol|
|  sn= 3 | S(rot)=       0.01101639 Eh      6.91 kcal/mol|
|  sn= 4 | S(rot)=       0.01074476 Eh      6.74 kcal/mol|
|  sn= 5 | S(rot)=       0.01053407 Eh      6.61 kcal/mol|
|  sn= 6 | S(rot)=       0.01036193 Eh      6.50 kcal/mol|
|  sn= 7 | S(rot)=       0.01021638 Eh      6.41 kcal/mol|
|  sn= 8 | S(rot)=       0.01009031 Eh      6.33 kcal/mol|
|  sn= 9 | S(rot)=       0.00997910 Eh      6.26 kcal/mol|
|  sn=10 | S(rot)=       0.00987962 Eh      6.20 kcal/mol|
|  sn=11 | S(rot)=       0.00978963 Eh      6.14 kcal/mol|
|  sn=12 | S(rot)=       0.00970747 Eh      6.09 kcal/mol|
 linear molecules ---------------------------------------
|  Dinfh | S(rot)=       0.00778154 Eh      4.88 kcal/mol|
|  Cinfv | S(rot)=       0.00843600 Eh      5.29 kcal/mol|
 --------------------------------------------------------

-------------------
GIBBS FREE ENERGY
-------------------

The Gibbs free energy is G = H - T*S

Total enthalpy                    ...   -517.16320842 Eh
Total entropy correction          ...     -0.03561435 Eh    -22.35 kcal/mol
-----------------------------------------------------------------------
Final Gibbs free energy         ...   -517.19882277 Eh

For completeness - the Gibbs free energy minus the electronic energy

                             ****ORCA TERMINATED NORMALLY****
TOTAL RUN TIME: 0 days 0 hours 3 minutes 42 seconds 431 msec
