                         Program Version 6.0.1  -  RELEASE   -
|  1> ! r2scan-3c def2/J RI DEFGRID2 scfconv6 printgap
|  2> %output
|  3>     printlevel normal
|  4> end
|  5> * xyz 0 1
|  6> C -1.0186294319 -1.8020751375 -6.3708e-06
|  7> C 0.3524325964 -1.6178273377 5.7522e-06
|  8> C 0.8739400305 -0.325884851 1.30059e-05
|  9> C 0.0133066187 0.77120394 6.463e-06
| 10> C -1.359814284 0.58184707 -2.7726e-06
| 11> C -1.8735007578 -0.7155611335 -9.563e-06
| 12> O -2.2347438382 1.6168396968 4.9997e-06
| 13> C 2.3237158973 -0.1012218658 3.11976e-05
| 14> O 2.8617615209 0.9770467321 -3.03942e-05
| 15> H -1.4293458993 -2.800336243 -5.76003e-05
| 16> H 1.0203706235 -2.4660785648 -2.52146e-05
| 17> H 0.4420884232 1.7643667776 1.83506e-05
| 18> H -2.9440628947 -0.8453018964 -2.5389e-05
| 19> H -1.7563058969 2.4553155147 1.47191e-05
| 20> H 2.9193236057 -1.0359247423 2.8833e-05
| 21> *
| 22>
| 23>                          ****END OF INPUT****

CARTESIAN COORDINATES (ANGSTROEM)
---------------------------------
  C     -1.018629   -1.802075   -0.000006
  C      0.352433   -1.617827    0.000006
  C      0.873940   -0.325885    0.000013
  C      0.013307    0.771204    0.000006
  C     -1.359814    0.581847   -0.000003
  C     -1.873501   -0.715561   -0.000010
  O     -2.234744    1.616840    0.000005
  C      2.323716   -0.101222    0.000031
  O      2.861762    0.977047   -0.000030
  H     -1.429346   -2.800336   -0.000058
  H      1.020371   -2.466079   -0.000025
  H      0.442088    1.764367    0.000018
  H     -2.944063   -0.845302   -0.000025
  H     -1.756306    2.455316    0.000015
  H      2.919324   -1.035925    0.000029

 Total Charge           Charge          ....    0
 Multiplicity           Mult            ....    1
 Number of Electrons    NEL             ....   64
 Basis Dimension        Dim             ....  211

ORBITAL ENERGIES
----------------

  NO   OCC          E(Eh)            E(eV)
   0   2.0000     -19.000387      -517.0268
   1   2.0000     -18.949895      -515.6529
   2   2.0000     -10.120659      -275.3971
   3   2.0000     -10.116163      -275.2748
   4   2.0000     -10.058646      -273.7097
   5   2.0000     -10.056399      -273.6485
   6   2.0000     -10.054315      -273.5918
   7   2.0000     -10.053451      -273.5683
   8   2.0000     -10.052278      -273.5364
   9   2.0000      -1.047285       -28.4981
  10   2.0000      -1.016786       -27.6682
  11   2.0000      -0.844306       -22.9747
  12   2.0000      -0.750195       -20.4138
  13   2.0000      -0.730619       -19.8812
  14   2.0000      -0.639301       -17.3963
  15   2.0000      -0.605668       -16.4811
  16   2.0000      -0.552791       -15.0422
  17   2.0000      -0.531218       -14.4552
  18   2.0000      -0.484839       -13.1931
  19   2.0000      -0.452797       -12.3212
  20   2.0000      -0.437132       -11.8950
  21   2.0000      -0.416544       -11.3347
  22   2.0000      -0.405200       -11.0261
  23   2.0000      -0.404800       -11.0152
  24   2.0000      -0.377248       -10.2654
  25   2.0000      -0.375280       -10.2119
  26   2.0000      -0.347402        -9.4533
  27   2.0000      -0.334093        -9.0911
  28   2.0000      -0.325966        -8.8700
  29   2.0000      -0.256790        -6.9876
  30   2.0000      -0.229032        -6.2323
  31   2.0000      -0.226823        -6.1722
  32   0.0000      -0.099290        -2.7018
  33   0.0000      -0.038164        -1.0385
  34   0.0000       0.006132         0.1669
  35   0.0000       0.048031         1.3070
  36   0.0000       0.076988         2.0950

MULLIKEN ATOMIC CHARGES
-----------------------
   0 C :   -0.125731
   1 C :   -0.244993
   2 C :    0.231056
   3 C :   -0.387837
   4 C :    0.445234
   5 C :   -0.252350
   6 O :   -0.401834
   7 C :    0.021251
   8 O :   -0.344841
   9 H :    0.150735
  10 H :    0.154114
  11 H :    0.171133
  12 H :    0.162047
  13 H :    0.317976
  14 H :    0.104041
Sum of atomic charges:   -0.0000000

LOEWDIN ATOMIC CHARGES
----------------------
   0 C :   -0.146661
   1 C :   -0.156713
   2 C :   -0.091014
   3 C :   -0.113795
   4 C :    0.184444
   5 C :   -0.115580
   6 O :   -0.483074
   7 C :    0.215482
   8 O :   -0.452648
   9 H :    0.171646
  10 H :    0.173507
  11 H :    0.189282
  12 H :    0.182878
  13 H :    0.285724
  14 H :    0.156522

  Mayer bond orders larger than 0.100000
B(  0-C ,  1-C ) :   1.4172 B(  0-C ,  5-C ) :   1.4124 B(  0-C ,  9-H ) :   0.9535
B(  1-C ,  2-C ) :   1.3713 B(  1-C , 10-H ) :   0.9307 B(  2-C ,  3-C ) :   1.3982
B(  2-C ,  7-C ) :   0.8168 B(  2-C ,  8-O ) :  -0.1096 B(  2-C , 14-H ) :  -0.1185
B(  3-C ,  4-C ) :   1.2936 B(  3-C , 11-H ) :   0.9613 B(  4-C ,  5-C ) :   1.3960
B(  4-C ,  6-O ) :   0.9315 B(  5-C , 12-H ) :   0.9404 B(  6-O , 13-H ) :   0.8808
B(  7-C ,  8-O ) :   1.9562 B(  7-C , 14-H ) :   1.0428

Dispersion correction           -0.004937112
FINAL SINGLE POINT ENERGY      -420.711847072633

DIPOLE MOMENT
-------------

Method             : SCF
Type of density    : Electron Density
Multiplicity       :   1
Irrep              :   0
Energy             :  -420.7118308043846469 Eh
Relativity type    :
Basis              : AO
                                X                 Y                 Z
Electronic contribution:      0.906472150       2.230806300       0.000056257
Nuclear contribution   :     -1.630575744      -2.708518825      -0.000043814
                        -----------------------------------------
Total Dipole Moment    :     -0.724103594      -0.477712525       0.000012443
                        -----------------------------------------
Magnitude (a.u.)       :      0.867487908
Magnitude (Debye)      :      2.204979030

Rotational constants in cm-1:             0.098382             0.043557             0.030191
Rotational constants in MHz :          2949.404618          1305.811373           905.092974

                             ****ORCA TERMINATED NORMALLY****
TOTAL RUN TIME: 0 days 0 hours 0 minutes 27 seconds 618 msec
