                         Program Version 6.0.1  -  RELEASE   -
|  1> ! pbe def2-sv(p) def2/J RI DEFGRID1 loosescf d4 GCP(DFT/SV(P)) printgap
|  2> %output
|  3>     printlevel normal
|  4> end
|  5> * xyz 0 1
|  6> C -1.9544221564 0.5342910391 0.8986890131
|  7> O -1.2049591858 -0.3170821852 0.056944566
|  8> S 0.3594022586 0.021950225 -0.1747750669
|  9> O 0.8013075645 0.8956797489 0.8688417959
| 10> O 0.5662470836 0.4215249105 -1.5281137887
| 11> C 1.0288405081 -1.6271480706 0.063813776
| 12> H -1.2731242825 1.0992255398 1.5377100918
| 13> H -2.6123096652 -0.0902429631 1.5040784022
| 14> H -2.5486523475 1.2239737988 0.2957654939
| 15> H 0.4810703401 -2.2888255318 -0.5916222549
| 16> H 2.0780457837 -1.6038177492 -0.1978872049
| 17> H 0.8918318902 -1.8910402706 1.1026599848
| 18> *
| 19>
| 20>                          ****END OF INPUT****

CARTESIAN COORDINATES (ANGSTROEM)
---------------------------------
  C     -1.954422    0.534291    0.898689
  O     -1.204959   -0.317082    0.056945
  S      0.359402    0.021950   -0.174775
  O      0.801308    0.895680    0.868842
  O      0.566247    0.421525   -1.528114
  C      1.028841   -1.627148    0.063814
  H     -1.273124    1.099226    1.537710
  H     -2.612310   -0.090243    1.504078
  H     -2.548652    1.223974    0.295765
  H      0.481070   -2.288826   -0.591622
  H      2.078046   -1.603818   -0.197887
  H      0.891832   -1.891040    1.102660

 Total Charge           Charge          ....    0
 Multiplicity           Mult            ....    1
 Number of Electrons    NEL             ....   58
 Basis Dimension        Dim             ....  100

ORBITAL ENERGIES
----------------

  NO   OCC          E(Eh)            E(eV)
   0   2.0000     -88.253699     -2401.5052
   1   2.0000     -18.803957      -511.6817
   2   2.0000     -18.749680      -510.2047
   3   2.0000     -18.745120      -510.0806
   4   2.0000      -9.947790      -270.6931
   5   2.0000      -9.927394      -270.1381
   6   2.0000      -7.868184      -214.1042
   7   2.0000      -5.896754      -160.4588
   8   2.0000      -5.893510      -160.3706
   9   2.0000      -5.892237      -160.3359
  10   2.0000      -1.058488       -28.8029
  11   2.0000      -0.952810       -25.9273
  12   2.0000      -0.919911       -25.0320
  13   2.0000      -0.717475       -19.5235
  14   2.0000      -0.654855       -17.8195
  15   2.0000      -0.540680       -14.7126
  16   2.0000      -0.489275       -13.3139
  17   2.0000      -0.451322       -12.2811
  18   2.0000      -0.440502       -11.9867
  19   2.0000      -0.416163       -11.3244
  20   2.0000      -0.411519       -11.1980
  21   2.0000      -0.398811       -10.8522
  22   2.0000      -0.380478       -10.3533
  23   2.0000      -0.340616        -9.2686
  24   2.0000      -0.298944        -8.1347
  25   2.0000      -0.285968        -7.7816
  26   2.0000      -0.277564        -7.5529
  27   2.0000      -0.267834        -7.2881
  28   2.0000      -0.248167        -6.7530
  29   0.0000       0.019104         0.5199
  30   0.0000       0.034731         0.9451
  31   0.0000       0.052768         1.4359
  32   0.0000       0.060335         1.6418
  33   0.0000       0.071889         1.9562

MULLIKEN ATOMIC CHARGES
-----------------------
   0 C :   -0.138921
   1 O :   -0.403729
   2 S :    0.776805
   3 O :   -0.399510
   4 O :   -0.381401
   5 C :   -0.316777
   6 H :    0.143674
   7 H :    0.123188
   8 H :    0.125254
   9 H :    0.158346
  10 H :    0.165449
  11 H :    0.147621
Sum of atomic charges:   -0.0000000

LOEWDIN ATOMIC CHARGES
----------------------
   0 C :   -0.232757
   1 O :   -0.297713
   2 S :    1.109416
   3 O :   -0.455852
   4 O :   -0.448539
   5 C :   -0.466984
   6 H :    0.119867
   7 H :    0.119465
   8 H :    0.116714
   9 H :    0.146572
  10 H :    0.148027
  11 H :    0.141785

  Mayer bond orders larger than 0.100000
B(  0-C ,  1-O ) :   0.9361 B(  0-C ,  6-H ) :   0.9282 B(  0-C ,  7-H ) :   0.9559
B(  0-C ,  8-H ) :   0.9555 B(  1-O ,  2-S ) :   0.9338 B(  2-S ,  3-O ) :   1.7410
B(  2-S ,  4-O ) :   1.8104 B(  2-S ,  5-C ) :   0.9229 B(  5-C ,  9-H ) :   0.9279
B(  5-C , 10-H ) :   0.9318 B(  5-C , 11-H ) :   0.9304

Dispersion correction           -0.010001443
FINAL SINGLE POINT ENERGY      -702.677054243590

DIPOLE MOMENT
-------------

Method             : SCF
Type of density    : Electron Density
Multiplicity       :   1
Irrep              :   0
Energy             :  -702.7274427633693676 Eh
Relativity type    :
Basis              : AO
                                X                 Y                 Z
Electronic contribution:      2.369881790       2.358801319      -2.756043619
Nuclear contribution   :     -2.806691117      -3.317014128       3.421125427
                        -----------------------------------------
Total Dipole Moment    :     -0.436809327      -0.958212809       0.665081808
                        -----------------------------------------
Magnitude (a.u.)       :      1.245515149
Magnitude (Debye)      :      3.165847915

Rotational constants in cm-1:             0.151132             0.086568             0.082628
Rotational constants in MHz :          4530.818976          2595.239563          2477.120677

                             ****ORCA TERMINATED NORMALLY****
TOTAL RUN TIME: 0 days 0 hours 0 minutes 5 seconds 79 msec
