                         Program Version 6.0.1  -  RELEASE   -
|  1> ! r2scan-3c def2/J RI DEFGRID2 scfconv6 printgap
|  2> %output
|  3>     printlevel normal
|  4> end
|  5> * xyz 0 1
|  6> C -2.8286774254 -0.5888788216 0.0109300545
|  7> O -1.5021574841 -0.8813097677 0.4414570319
|  8> C -0.5443411829 -0.0745521442 -0.027342458
|  9> O -0.7349405129 0.8477851311 -0.7637529675
| 10> C 0.7986444023 -0.5229354212 0.5253784326
| 11> Cl 2.1004366623 0.5190520055 -0.071136173
| 12> H -3.4670974091 -1.3353272502 0.475349246
| 13> H -2.8945084047 -0.6478753782 -1.0768476123
| 14> H -3.1159643813 0.4151826159 0.3278253937
| 15> H 1.0013768994 -1.5475781789 0.2122070612
| 16> H 0.7832210702 -0.4721883 1.6145379989
| 17> *
| 18>
| 19>                          ****END OF INPUT****

CARTESIAN COORDINATES (ANGSTROEM)
---------------------------------
  C     -2.828677   -0.588879    0.010930
  O     -1.502157   -0.881310    0.441457
  C     -0.544341   -0.074552   -0.027342
  O     -0.734941    0.847785   -0.763753
  C      0.798644   -0.522935    0.525378
  Cl     2.100437    0.519052   -0.071136
  H     -3.467097   -1.335327    0.475349
  H     -2.894508   -0.647875   -1.076848
  H     -3.115964    0.415183    0.327825
  H      1.001377   -1.547578    0.212207
  H      0.783221   -0.472188    1.614538

 Total Charge           Charge          ....    0
 Multiplicity           Mult            ....    1
 Number of Electrons    NEL             ....   56
 Basis Dimension        Dim             ....  157

ORBITAL ENERGIES
----------------

  NO   OCC          E(Eh)            E(eV)
   0   2.0000    -101.211319     -2754.1000
   1   2.0000     -19.016340      -517.4609
   2   2.0000     -18.950725      -515.6754
   3   2.0000     -10.173934      -276.8468
   4   2.0000     -10.114375      -275.2261
   5   2.0000     -10.098268      -274.7878
   6   2.0000      -9.367174      -254.8938
   7   2.0000      -7.113971      -193.5810
   8   2.0000      -7.102943      -193.2809
   9   2.0000      -7.102880      -193.2792
  10   2.0000      -1.092412       -29.7260
  11   2.0000      -1.002902       -27.2904
  12   2.0000      -0.833449       -22.6793
  13   2.0000      -0.732379       -19.9291
  14   2.0000      -0.658435       -17.9169
  15   2.0000      -0.548629       -14.9290
  16   2.0000      -0.493946       -13.4409
  17   2.0000      -0.481281       -13.0963
  18   2.0000      -0.458316       -12.4714
  19   2.0000      -0.436179       -11.8690
  20   2.0000      -0.408797       -11.1239
  21   2.0000      -0.394499       -10.7349
  22   2.0000      -0.366939        -9.9849
  23   2.0000      -0.342867        -9.3299
  24   2.0000      -0.293394        -7.9836
  25   2.0000      -0.277080        -7.5397
  26   2.0000      -0.273888        -7.4529
  27   2.0000      -0.259862        -7.0712
  28   0.0000      -0.031323        -0.8524
  29   0.0000      -0.002064        -0.0562
  30   0.0000       0.062702         1.7062
  31   0.0000       0.084642         2.3032
  32   0.0000       0.110332         3.0023

MULLIKEN ATOMIC CHARGES
-----------------------
   0 C :   -0.289787
   1 O :   -0.187891
   2 C :    0.352904
   3 O :   -0.391692
   4 C :   -0.188077
   5 Cl:   -0.135220
   6 H :    0.153610
   7 H :    0.163076
   8 H :    0.162751
   9 H :    0.180168
  10 H :    0.180158
Sum of atomic charges:   -0.0000000

LOEWDIN ATOMIC CHARGES
----------------------
   0 C :   -0.041237
   1 O :   -0.604587
   2 C :    0.329635
   3 O :   -0.396927
   4 C :   -0.266259
   5 Cl:    0.079920
   6 H :    0.177814
   7 H :    0.178197
   8 H :    0.177996
   9 H :    0.182725
  10 H :    0.182723

  Mayer bond orders larger than 0.100000
B(  0-C ,  1-O ) :   0.8532 B(  0-C ,  6-H ) :   0.9681 B(  0-C ,  7-H ) :   0.9609
B(  0-C ,  8-H ) :   0.9608 B(  1-O ,  2-C ) :   1.0434 B(  2-C ,  3-O ) :   1.8594
B(  2-C ,  4-C ) :   1.0028 B(  4-C ,  5-Cl) :   1.0524 B(  4-C ,  9-H ) :   0.9350
B(  4-C , 10-H ) :   0.9349

Dispersion correction           -0.002556239
FINAL SINGLE POINT ENERGY      -727.903982273614

DIPOLE MOMENT
-------------

Method             : SCF
Type of density    : Electron Density
Multiplicity       :   1
Irrep              :   0
Energy             :  -727.9118523994465022 Eh
Relativity type    :
Basis              : AO
                                X                 Y                 Z
Electronic contribution:      9.253222714       3.149860673      -0.974884032
Nuclear contribution   :    -10.069675861      -4.063137195       1.547759728
                        -----------------------------------------
Total Dipole Moment    :     -0.816453147      -0.913276522       0.572875696
                        -----------------------------------------
Magnitude (a.u.)       :      1.352352140
Magnitude (Debye)      :      3.437405965

Rotational constants in cm-1:             0.331430             0.046965             0.041786
Rotational constants in MHz :          9936.023947          1407.967307          1252.698800

                             ****ORCA TERMINATED NORMALLY****
TOTAL RUN TIME: 0 days 0 hours 0 minutes 13 seconds 940 msec
