                         Program Version 6.0.1  -  RELEASE   -
|  1> ! pbe def2-sv(p) def2/J RI DEFGRID1 loosescf d4 GCP(DFT/SV(P)) printgap
|  2> %output
|  3>     printlevel normal
|  4> end
|  5> * xyz 0 1
|  6> C -2.417412484 0.0604503496 1.5239251162
|  7> O -1.1676724241 0.0513127411 0.8496959028
|  8> C -1.2205555855 -0.0707298139 -0.4815192171
|  9> O -2.2610470334 -0.1684216923 -1.0816153686
| 10> C 0.135225763 -0.0768692399 -1.1602284967
| 11> C 0.9792000794 -1.2960863472 -0.7590436388
| 12> C 1.585835117 -1.1655262433 0.6338541608
| 13> C 2.4103372315 0.1127299898 0.7381255733
| 14> C 1.5269610039 1.3234557298 0.458228362
| 15> C 0.9144226342 1.227222449 -0.9350824582
| 16> H -2.9514471705 -0.874982303 1.3454425821
| 17> H -3.0344804406 0.8876767686 1.1676126161
| 18> H -2.1934011021 0.1774606603 2.5813051965
| 19> H -0.0967598984 -0.1579756673 -2.2285922668
| 20> H 0.3657909219 -2.1978880765 -0.8202068158
| 21> H 1.7872740719 -1.3941743057 -1.4883621937
| 22> H 0.7930250877 -1.1429480203 1.3817102273
| 23> H 2.2151484695 -2.0357156147 0.8334978625
| 24> H 2.8476668684 0.1935745171 1.7350876917
| 25> H 3.2284834117 0.0807781018 0.014080412
| 26> H 0.7361673961 1.3711655765 1.2068332711
| 27> H 2.115065576 2.2413098336 0.5277976377
| 28> H 0.2554958953 2.0794765433 -1.1159307709
| 29> H 1.7167063252 1.2649985601 -1.6763815829
| 30> *
| 31>
| 32>                          ****END OF INPUT****

CARTESIAN COORDINATES (ANGSTROEM)
---------------------------------
  C     -2.417412    0.060450    1.523925
  O     -1.167672    0.051313    0.849696
  C     -1.220556   -0.070730   -0.481519
  O     -2.261047   -0.168422   -1.081615
  C      0.135226   -0.076869   -1.160228
  C      0.979200   -1.296086   -0.759044
  C      1.585835   -1.165526    0.633854
  C      2.410337    0.112730    0.738126
  C      1.526961    1.323456    0.458228
  C      0.914423    1.227222   -0.935082
  H     -2.951447   -0.874982    1.345443
  H     -3.034480    0.887677    1.167613
  H     -2.193401    0.177461    2.581305
  H     -0.096760   -0.157976   -2.228592
  H      0.365791   -2.197888   -0.820207
  H      1.787274   -1.394174   -1.488362
  H      0.793025   -1.142948    1.381710
  H      2.215148   -2.035716    0.833498
  H      2.847667    0.193575    1.735088
  H      3.228483    0.080778    0.014080
  H      0.736167    1.371166    1.206833
  H      2.115066    2.241310    0.527798
  H      0.255496    2.079477   -1.115931
  H      1.716706    1.264999   -1.676382

 Total Charge           Charge          ....    0
 Multiplicity           Mult            ....    1
 Number of Electrons    NEL             ....   78
 Basis Dimension        Dim             ....  168

ORBITAL ENERGIES
----------------

  NO   OCC          E(Eh)            E(eV)
   0   2.0000     -18.801104      -511.6040
   1   2.0000     -18.734695      -509.7970
   2   2.0000     -10.003314      -272.2040
   3   2.0000      -9.941456      -270.5208
   4   2.0000      -9.903363      -269.4842
   5   2.0000      -9.890462      -269.1332
   6   2.0000      -9.890218      -269.1265
   7   2.0000      -9.880572      -268.8640
   8   2.0000      -9.879127      -268.8247
   9   2.0000      -9.878847      -268.8171
  10   2.0000      -1.009270       -27.4636
  11   2.0000      -0.913850       -24.8671
  12   2.0000      -0.761398       -20.7187
  13   2.0000      -0.688767       -18.7423
  14   2.0000      -0.668720       -18.1968
  15   2.0000      -0.652814       -17.7640
  16   2.0000      -0.560317       -15.2470
  17   2.0000      -0.544086       -14.8053
  18   2.0000      -0.516693       -14.0599
  19   2.0000      -0.497649       -13.5417
  20   2.0000      -0.441522       -12.0144
  21   2.0000      -0.439920       -11.9708
  22   2.0000      -0.427649       -11.6369
  23   2.0000      -0.407656       -11.0929
  24   2.0000      -0.394278       -10.7288
  25   2.0000      -0.391313       -10.6482
  26   2.0000      -0.378482       -10.2990
  27   2.0000      -0.356619        -9.7041
  28   2.0000      -0.343843        -9.3565
  29   2.0000      -0.336041        -9.1441
  30   2.0000      -0.326775        -8.8920
  31   2.0000      -0.325591        -8.8598
  32   2.0000      -0.311657        -8.4806
  33   2.0000      -0.301807        -8.2126
  34   2.0000      -0.269566        -7.3353
  35   2.0000      -0.263639        -7.1740
  36   2.0000      -0.262669        -7.1476
  37   2.0000      -0.258947        -7.0463
  38   2.0000      -0.215851        -5.8736
  39   0.0000      -0.018965        -0.5161
  40   0.0000       0.029548         0.8040
  41   0.0000       0.040916         1.1134
  42   0.0000       0.067845         1.8462
  43   0.0000       0.075642         2.0583

MULLIKEN ATOMIC CHARGES
-----------------------
   0 C :   -0.110066
   1 O :   -0.241861
   2 C :    0.118473
   3 O :   -0.193565
   4 C :   -0.120425
   5 C :   -0.139722
   6 C :   -0.143652
   7 C :   -0.164331
   8 C :   -0.143751
   9 C :   -0.138009
  10 H :    0.118418
  11 H :    0.118792
  12 H :    0.119669
  13 H :    0.078925
  14 H :    0.091487
  15 H :    0.081291
  16 H :    0.089092
  17 H :    0.082457
  18 H :    0.082724
  19 H :    0.070478
  20 H :    0.089928
  21 H :    0.082169
  22 H :    0.090796
  23 H :    0.080683
Sum of atomic charges:   -0.0000000

LOEWDIN ATOMIC CHARGES
----------------------
   0 C :   -0.207513
   1 O :   -0.066666
   2 C :    0.043971
   3 O :   -0.154413
   4 C :   -0.160478
   5 C :   -0.209215
   6 C :   -0.234405
   7 C :   -0.224938
   8 C :   -0.234639
   9 C :   -0.209564
  10 H :    0.118853
  11 H :    0.119030
  12 H :    0.118637
  13 H :    0.133355
  14 H :    0.119511
  15 H :    0.118967
  16 H :    0.116891
  17 H :    0.115548
  18 H :    0.115760
  19 H :    0.110492
  20 H :    0.117153
  21 H :    0.115409
  22 H :    0.119336
  23 H :    0.118916

  Mayer bond orders larger than 0.100000
B(  0-C ,  1-O ) :   0.9428 B(  0-C , 10-H ) :   0.9524 B(  0-C , 11-H ) :   0.9517
B(  0-C , 12-H ) :   0.9568 B(  1-O ,  2-C ) :   1.1745 B(  2-C ,  3-O ) :   2.0788
B(  2-C ,  4-C ) :   0.9767 B(  4-C ,  5-C ) :   1.0736 B(  4-C ,  9-C ) :   1.0721
B(  4-C , 13-H ) :   0.8719 B(  5-C ,  6-C ) :   1.1283 B(  5-C , 14-H ) :   0.9194
B(  5-C , 15-H ) :   0.9095 B(  6-C ,  7-C ) :   1.1303 B(  6-C , 16-H ) :   0.9048
B(  6-C , 17-H ) :   0.9160 B(  7-C ,  8-C ) :   1.1313 B(  7-C , 18-H ) :   0.9189
B(  7-C , 19-H ) :   0.9182 B(  8-C ,  9-C ) :   1.1280 B(  8-C , 20-H ) :   0.9044
B(  8-C , 21-H ) :   0.9160 B(  9-C , 22-H ) :   0.9198 B(  9-C , 23-H ) :   0.9094

Dispersion correction           -0.023921701
FINAL SINGLE POINT ENERGY      -462.703675272497

DIPOLE MOMENT
-------------

Method             : SCF
Type of density    : Electron Density
Multiplicity       :   1
Irrep              :   0
Energy             :  -462.7917488847240293 Eh
Relativity type    :
Basis              : AO
                                X                 Y                 Z
Electronic contribution:     -6.896127303      -0.394303804      -2.644254365
Nuclear contribution   :      7.252547784       0.460551739       3.246272953
                        -----------------------------------------
Total Dipole Moment    :      0.356420481       0.066247936       0.602018588
                        -----------------------------------------
Magnitude (a.u.)       :      0.702745138
Magnitude (Debye)      :      1.786236185

Rotational constants in cm-1:             0.069981             0.033509             0.031308
Rotational constants in MHz :          2097.964305          1004.567886           938.575507

                             ****ORCA TERMINATED NORMALLY****
TOTAL RUN TIME: 0 days 0 hours 0 minutes 8 seconds 484 msec
