                         Program Version 6.0.1  -  RELEASE   -
|  1> ! r2scan-3c def2/J RI DEFGRID2 scfconv6 printgap
|  2> %output
|  3>     printlevel normal
|  4> end
|  5> * xyz 0 1
|  6> C 0.0338974235 -1.2113383878 4.16102e-05
|  7> C 1.4090849832 -1.2117799209 3.51946e-05
|  8> C 2.1096719525 -0.0019630052 8.1802e-06
|  9> C 1.410545533 1.206267088 9.1699e-06
| 10> C 0.0328920824 1.208618535 1.65201e-05
| 11> C -0.6543361896 -0.0003670428 2.07993e-05
| 12> N -2.0886313294 0.0015085588 -8.3438e-06
| 13> O -2.6523941453 1.0771816638 3.8856e-06
| 14> O -2.6557866956 -1.0718252102 -4.93952e-05
| 15> O 3.4548602087 -0.0519544283 -4.68574e-05
| 16> H -0.5262397964 -2.1335302065 5.89533e-05
| 17> H 1.9700784551 -2.1319092322 2.91895e-05
| 18> H 1.9542377178 2.1408458087 -2.4916e-06
| 19> H -0.5254938617 2.1320200496 3.56975e-05
| 20> H 3.8324694049 0.8371798892 -0.0001059219
| 21> *
| 22>
| 23>                          ****END OF INPUT****

CARTESIAN COORDINATES (ANGSTROEM)
---------------------------------
  C      0.033897   -1.211338    0.000042
  C      1.409085   -1.211780    0.000035
  C      2.109672   -0.001963    0.000008
  C      1.410546    1.206267    0.000009
  C      0.032892    1.208619    0.000017
  C     -0.654336   -0.000367    0.000021
  N     -2.088631    0.001509   -0.000008
  O     -2.652394    1.077182    0.000004
  O     -2.655787   -1.071825   -0.000049
  O      3.454860   -0.051954   -0.000047
  H     -0.526240   -2.133530    0.000059
  H      1.970078   -2.131909    0.000029
  H      1.954238    2.140846   -0.000002
  H     -0.525494    2.132020    0.000036
  H      3.832469    0.837180   -0.000106

 Total Charge           Charge          ....    0
 Multiplicity           Mult            ....    1
 Number of Electrons    NEL             ....   72
 Basis Dimension        Dim             ....  235

ORBITAL ENERGIES
----------------

  NO   OCC          E(Eh)            E(eV)
   0   2.0000     -19.019909      -517.5580
   1   2.0000     -18.974634      -516.3260
   2   2.0000     -18.974473      -516.3217
   3   2.0000     -14.388187      -391.5225
   4   2.0000     -10.134967      -275.7865
   5   2.0000     -10.095653      -274.7167
   6   2.0000     -10.072771      -274.0940
   7   2.0000     -10.070833      -274.0413
   8   2.0000     -10.067955      -273.9630
   9   2.0000     -10.062522      -273.8151
  10   2.0000      -1.200506       -32.6674
  11   2.0000      -1.068031       -29.0626
  12   2.0000      -1.022326       -27.8189
  13   2.0000      -0.865329       -23.5468
  14   2.0000      -0.780096       -21.2275
  15   2.0000      -0.754600       -20.5337
  16   2.0000      -0.677057       -18.4237
  17   2.0000      -0.624183       -16.9849
  18   2.0000      -0.581937       -15.8353
  19   2.0000      -0.550689       -14.9850
  20   2.0000      -0.523581       -14.2474
  21   2.0000      -0.507869       -13.8198
  22   2.0000      -0.488923       -13.3043
  23   2.0000      -0.462713       -12.5911
  24   2.0000      -0.443713       -12.0740
  25   2.0000      -0.425799       -11.5866
  26   2.0000      -0.416897       -11.3443
  27   2.0000      -0.412994       -11.2381
  28   2.0000      -0.380980       -10.3670
  29   2.0000      -0.345509        -9.4018
  30   2.0000      -0.338861        -9.2209
  31   2.0000      -0.287252        -7.8165
  32   2.0000      -0.274095        -7.4585
  33   2.0000      -0.270234        -7.3534
  34   2.0000      -0.252853        -6.8805
  35   2.0000      -0.241593        -6.5741
  36   0.0000      -0.112376        -3.0579
  37   0.0000      -0.062788        -1.7085
  38   0.0000      -0.019716        -0.5365
  39   0.0000       0.033142         0.9018
  40   0.0000       0.061377         1.6701

MULLIKEN ATOMIC CHARGES
-----------------------
   0 C :   -0.181324
   1 C :   -0.278687
   2 C :    0.449316
   3 C :   -0.295096
   4 C :   -0.191901
   5 C :   -0.002530
   6 N :    0.364900
   7 O :   -0.239583
   8 O :   -0.237342
   9 O :   -0.392137
  10 H :    0.186571
  11 H :    0.164152
  12 H :    0.145087
  13 H :    0.186254
  14 H :    0.322322
Sum of atomic charges:    0.0000000

LOEWDIN ATOMIC CHARGES
----------------------
   0 C :   -0.063978
   1 C :   -0.128941
   2 C :    0.205363
   3 C :   -0.158718
   4 C :   -0.063650
   5 C :    0.172216
   6 N :   -0.501981
   7 O :   -0.023516
   8 O :   -0.020724
   9 O :   -0.466732
  10 H :    0.200756
  11 H :    0.186242
  12 H :    0.174674
  13 H :    0.200773
  14 H :    0.288217

  Mayer bond orders larger than 0.100000
B(  0-C ,  1-C ) :   1.3388 B(  0-C ,  5-C ) :   1.4104 B(  0-C , 10-H ) :   0.9280
B(  1-C ,  2-C ) :   1.3714 B(  1-C ,  9-O ) :   0.1067 B(  1-C , 11-H ) :   0.9556
B(  2-C ,  3-C ) :   1.2929 B(  2-C ,  9-O ) :   0.9412 B(  3-C ,  4-C ) :   1.3682
B(  3-C , 12-H ) :   0.9300 B(  4-C ,  5-C ) :   1.4386 B(  4-C , 13-H ) :   0.9188
B(  5-C ,  6-N ) :   0.9717 B(  6-N ,  7-O ) :   1.8474 B(  6-N ,  8-O ) :   1.8496
B(  7-O ,  8-O ) :   0.2422 B(  9-O , 14-H ) :   0.8772

Dispersion correction           -0.005149246
FINAL SINGLE POINT ENERGY      -511.896332755170

DIPOLE MOMENT
-------------

Method             : SCF
Type of density    : Electron Density
Multiplicity       :   1
Irrep              :   0
Energy             :  -511.9014175999026861 Eh
Relativity type    :
Basis              : AO
                                X                 Y                 Z
Electronic contribution:     -4.154238943      -0.283904956      -0.000018734
Nuclear contribution   :      6.251584141       0.791705347       0.000013060
                        -----------------------------------------
Total Dipole Moment    :      2.097345198       0.507800390      -0.000005674
                        -----------------------------------------
Magnitude (a.u.)       :      2.157943029
Magnitude (Debye)      :      5.485055275

Rotational constants in cm-1:             0.133422             0.027774             0.022988
Rotational constants in MHz :          3999.885624           832.631739           689.171187

                             ****ORCA TERMINATED NORMALLY****
TOTAL RUN TIME: 0 days 0 hours 0 minutes 24 seconds 639 msec
