                         Program Version 6.0.1  -  RELEASE   -
|  1> ! pbe def2-sv(p) def2/J RI DEFGRID1 loosescf d4 GCP(DFT/SV(P)) printgap
|  2> %output
|  3>     printlevel normal
|  4> end
|  5> * xyz 0 1
|  6> C -2.3368332879 -0.793273409 0.6875460779
|  7> C -0.8804347995 -0.3111542277 0.7691849533
|  8> H -0.654410313 0.0127218884 1.7923302193
|  9> C -0.6322030953 0.8648613342 -0.177002907
| 10> H -0.8654964663 0.5397335781 -1.2049955556
| 11> C 0.8463696772 1.3141520332 -0.1224815415
| 12> H 0.9367823364 2.1224771768 0.6112670018
| 13> C 1.7648109135 0.1673904356 0.3420416049
| 14> H 2.7477891891 0.3025467286 -0.135767275
| 15> C 1.1741084239 -1.1629504925 -0.1440449536
| 16> H 1.8208285117 -2.0098230033 0.1510044046
| 17> O -0.0649881585 -1.4387541757 0.430248175
| 18> O 1.1061496364 -1.0842316151 -1.5453250489
| 19> O 1.8701094316 0.2105438896 1.7388138425
| 20> O 1.2618658863 1.8404360649 -1.3533484948
| 21> O -1.4924419983 1.9088004181 0.2046073492
| 22> O -2.6046519067 -1.4234716565 -0.535854114
| 23> H -2.9986398848 0.0695437263 0.7593565746
| 24> H -2.5297556907 -1.4781090892 1.5242019728
| 25> H 0.6323951517 -1.8549143403 -1.8811630982
| 26> H 2.4036648928 -0.5307790368 2.0476162422
| 27> H 1.2915108087 1.1130077209 -1.9901530487
| 28> H -1.2878857846 2.6756142377 -0.3434362523
| 29> H -1.9390375449 -2.1152452832 -0.6404411068
| 30> *
| 31>
| 32>                          ****END OF INPUT****

CARTESIAN COORDINATES (ANGSTROEM)
---------------------------------
  C     -2.336833   -0.793273    0.687546
  C     -0.880435   -0.311154    0.769185
  H     -0.654410    0.012722    1.792330
  C     -0.632203    0.864861   -0.177003
  H     -0.865496    0.539734   -1.204996
  C      0.846370    1.314152   -0.122482
  H      0.936782    2.122477    0.611267
  C      1.764811    0.167390    0.342042
  H      2.747789    0.302547   -0.135767
  C      1.174108   -1.162950   -0.144045
  H      1.820829   -2.009823    0.151004
  O     -0.064988   -1.438754    0.430248
  O      1.106150   -1.084232   -1.545325
  O      1.870109    0.210544    1.738814
  O      1.261866    1.840436   -1.353348
  O     -1.492442    1.908800    0.204607
  O     -2.604652   -1.423472   -0.535854
  H     -2.998640    0.069544    0.759357
  H     -2.529756   -1.478109    1.524202
  H      0.632395   -1.854914   -1.881163
  H      2.403665   -0.530779    2.047616
  H      1.291511    1.113008   -1.990153
  H     -1.287886    2.675614   -0.343436
  H     -1.939038   -2.115245   -0.640441

 Total Charge           Charge          ....    0
 Multiplicity           Mult            ....    1
 Number of Electrons    NEL             ....   96
 Basis Dimension        Dim             ....  192

ORBITAL ENERGIES
----------------

  NO   OCC          E(Eh)            E(eV)
   0   2.0000     -18.785136      -511.1695
   1   2.0000     -18.783431      -511.1231
   2   2.0000     -18.767700      -510.6951
   3   2.0000     -18.748835      -510.1817
   4   2.0000     -18.744972      -510.0766
   5   2.0000     -18.741474      -509.9814
   6   2.0000     -10.000780      -272.1351
   7   2.0000      -9.950161      -270.7576
   8   2.0000      -9.939751      -270.4744
   9   2.0000      -9.938763      -270.4475
  10   2.0000      -9.935255      -270.3520
  11   2.0000      -9.922962      -270.0175
  12   2.0000      -0.997919       -27.1548
  13   2.0000      -0.946507       -25.7558
  14   2.0000      -0.936388       -25.4804
  15   2.0000      -0.934085       -25.4177
  16   2.0000      -0.917491       -24.9662
  17   2.0000      -0.913632       -24.8612
  18   2.0000      -0.702644       -19.1199
  19   2.0000      -0.695549       -18.9269
  20   2.0000      -0.619168       -16.8484
  21   2.0000      -0.593161       -16.1407
  22   2.0000      -0.566729       -15.4215
  23   2.0000      -0.530778       -14.4432
  24   2.0000      -0.504372       -13.7247
  25   2.0000      -0.482194       -13.1212
  26   2.0000      -0.475908       -12.9501
  27   2.0000      -0.457678       -12.4541
  28   2.0000      -0.445581       -12.1249
  29   2.0000      -0.444115       -12.0850
  30   2.0000      -0.424501       -11.5513
  31   2.0000      -0.392652       -10.6846
  32   2.0000      -0.385634       -10.4936
  33   2.0000      -0.374570       -10.1926
  34   2.0000      -0.361488        -9.8366
  35   2.0000      -0.356583        -9.7031
  36   2.0000      -0.346927        -9.4404
  37   2.0000      -0.316409        -8.6099
  38   2.0000      -0.307221        -8.3599
  39   2.0000      -0.296945        -8.0803
  40   2.0000      -0.281074        -7.6484
  41   2.0000      -0.269784        -7.3412
  42   2.0000      -0.260679        -7.0934
  43   2.0000      -0.243930        -6.6377
  44   2.0000      -0.239436        -6.5154
  45   2.0000      -0.224230        -6.1016
  46   2.0000      -0.211753        -5.7621
  47   2.0000      -0.205008        -5.5786
  48   0.0000       0.004053         0.1103
  49   0.0000       0.012090         0.3290
  50   0.0000       0.039456         1.0736
  51   0.0000       0.053017         1.4427
  52   0.0000       0.065622         1.7857

MULLIKEN ATOMIC CHARGES
-----------------------
   0 C :    0.086148
   1 C :    0.010999
   2 H :    0.072599
   3 C :    0.066557
   4 H :    0.032927
   5 C :    0.096039
   6 H :    0.073353
   7 C :    0.009791
   8 H :    0.077727
   9 C :    0.150217
  10 H :    0.057487
  11 O :   -0.321440
  12 O :   -0.405006
  13 O :   -0.403205
  14 O :   -0.431282
  15 O :   -0.415777
  16 O :   -0.439516
  17 H :    0.103932
  18 H :    0.074505
  19 H :    0.305707
  20 H :    0.303296
  21 H :    0.303298
  22 H :    0.308073
  23 H :    0.283570
Sum of atomic charges:    0.0000000

LOEWDIN ATOMIC CHARGES
----------------------
   0 C :   -0.126003
   1 C :   -0.067628
   2 H :    0.116308
   3 C :   -0.079186
   4 H :    0.099225
   5 C :   -0.070121
   6 H :    0.123682
   7 C :   -0.088821
   8 H :    0.109199
   9 C :   -0.011037
  10 H :    0.090942
  11 O :   -0.142584
  12 O :   -0.316788
  13 O :   -0.303586
  14 O :   -0.316752
  15 O :   -0.315441
  16 O :   -0.333979
  17 H :    0.125734
  18 H :    0.097492
  19 H :    0.285964
  20 H :    0.288949
  21 H :    0.276335
  22 H :    0.290970
  23 H :    0.267126

  Mayer bond orders larger than 0.100000
B(  0-C ,  1-C ) :   1.0375 B(  0-C , 16-O ) :   1.0581 B(  0-C , 17-H ) :   0.9121
B(  0-C , 18-H ) :   0.9167 B(  1-C ,  2-H ) :   0.8638 B(  1-C ,  3-C ) :   1.0680
B(  1-C , 11-O ) :   0.9525 B(  3-C ,  4-H ) :   0.8410 B(  3-C ,  5-C ) :   1.0262
B(  3-C , 15-O ) :   1.0534 B(  5-C ,  6-H ) :   0.8518 B(  5-C ,  7-C ) :   1.0007
B(  5-C , 14-O ) :   1.0374 B(  7-C ,  8-H ) :   0.8840 B(  7-C ,  9-C ) :   1.0232
B(  7-C , 13-O ) :   1.0358 B(  9-C , 10-H ) :   0.8953 B(  9-C , 11-O ) :   1.0907
B(  9-C , 12-O ) :   1.0934 B( 12-O , 19-H ) :   0.8349 B( 13-O , 20-H ) :   0.8449
B( 14-O , 21-H ) :   0.8339 B( 15-O , 22-H ) :   0.8444 B( 16-O , 23-H ) :   0.8384

Dispersion correction           -0.025255485
FINAL SINGLE POINT ENERGY      -685.693949475178

DIPOLE MOMENT
-------------

Method             : SCF
Type of density    : Electron Density
Multiplicity       :   1
Irrep              :   0
Energy             :  -685.8261493054291122 Eh
Relativity type    :
Basis              : AO
                                X                 Y                 Z
Electronic contribution:      1.334940260       0.063511338      -0.752042363
Nuclear contribution   :     -0.413783695      -1.081724515       0.631452509
                        -----------------------------------------
Total Dipole Moment    :      0.921156565      -1.018213177      -0.120589854
                        -----------------------------------------
Magnitude (a.u.)       :      1.378342992
Magnitude (Debye)      :      3.503469461

Rotational constants in cm-1:             0.040367             0.027625             0.023712
Rotational constants in MHz :          1210.159115           828.182282           710.858931

                             ****ORCA TERMINATED NORMALLY****
TOTAL RUN TIME: 0 days 0 hours 0 minutes 10 seconds 381 msec
