                         Program Version 6.0.1  -  RELEASE   -
|  1> ! pbe def2-sv(p) def2/J RI DEFGRID1 loosescf d4 GCP(DFT/SV(P)) printgap
|  2> %output
|  3>     printlevel normal
|  4> end
|  5> * xyz 0 1
|  6> C -2.2036668796 -1.0227786995 -0.4017713483
|  7> C -1.1716427412 -0.2071469171 0.3883300904
|  8> H -1.6619463628 0.2135124777 1.2738988649
|  9> C -0.59245628 0.9431946796 -0.4387070341
| 10> H -0.4299371171 0.6160072548 -1.4781855982
| 11> C 0.7648774631 1.3360519908 0.1596030369
| 12> H 0.6258699891 1.5429945029 1.235135254
| 13> C 1.7512246099 0.1693314913 -0.0015481494
| 14> H 2.1959749023 0.2246697513 -1.0017707767
| 15> C 0.9992335769 -1.1835267902 0.1398722935
| 16> H 1.6395849071 -1.8784524605 0.7084435225
| 17> O -0.1484397825 -1.061846338 0.9109506405
| 18> O 0.6799059015 -1.7246920124 -1.1175136611
| 19> O 2.8300962589 0.2694248259 0.8948571406
| 20> O 1.2123112575 2.4986238822 -0.4973365644
| 21> O -1.4937487067 2.0136509795 -0.4009729293
| 22> O -2.7819312944 -2.0194895403 0.3971545467
| 23> H -1.7153980349 -1.4634029339 -1.2810269136
| 24> H -3.0082394924 -0.3591399175 -0.7223672711
| 25> H 1.473430726 -2.0785395583 -1.5312408489
| 26> H 2.4978600744 0.1851844008 1.7971612571
| 27> H 2.1208738765 2.6713020062 -0.2250214572
| 28> H -1.022374807 2.7915100258 -0.7279268815
| 29> H -2.0576765256 -2.4980483566 0.8200853706
| 30> *
| 31>
| 32>                          ****END OF INPUT****

CARTESIAN COORDINATES (ANGSTROEM)
---------------------------------
  C     -2.203667   -1.022779   -0.401771
  C     -1.171643   -0.207147    0.388330
  H     -1.661946    0.213512    1.273899
  C     -0.592456    0.943195   -0.438707
  H     -0.429937    0.616007   -1.478186
  C      0.764877    1.336052    0.159603
  H      0.625870    1.542995    1.235135
  C      1.751225    0.169331   -0.001548
  H      2.195975    0.224670   -1.001771
  C      0.999234   -1.183527    0.139872
  H      1.639585   -1.878452    0.708444
  O     -0.148440   -1.061846    0.910951
  O      0.679906   -1.724692   -1.117514
  O      2.830096    0.269425    0.894857
  O      1.212311    2.498624   -0.497337
  O     -1.493749    2.013651   -0.400973
  O     -2.781931   -2.019490    0.397155
  H     -1.715398   -1.463403   -1.281027
  H     -3.008239   -0.359140   -0.722367
  H      1.473431   -2.078540   -1.531241
  H      2.497860    0.185184    1.797161
  H      2.120874    2.671302   -0.225021
  H     -1.022375    2.791510   -0.727927
  H     -2.057677   -2.498048    0.820085

 Total Charge           Charge          ....    0
 Multiplicity           Mult            ....    1
 Number of Electrons    NEL             ....   96
 Basis Dimension        Dim             ....  192

ORBITAL ENERGIES
----------------

  NO   OCC          E(Eh)            E(eV)
   0   2.0000     -18.782877      -511.1081
   1   2.0000     -18.773358      -510.8491
   2   2.0000     -18.768811      -510.7253
   3   2.0000     -18.766712      -510.6682
   4   2.0000     -18.748567      -510.1744
   5   2.0000     -18.730672      -509.6875
   6   2.0000      -9.999128      -272.0901
   7   2.0000      -9.950801      -270.7751
   8   2.0000      -9.949754      -270.7466
   9   2.0000      -9.943315      -270.5713
  10   2.0000      -9.941195      -270.5137
  11   2.0000      -9.915344      -269.8102
  12   2.0000      -0.993949       -27.0467
  13   2.0000      -0.956094       -26.0167
  14   2.0000      -0.942049       -25.6345
  15   2.0000      -0.929732       -25.2993
  16   2.0000      -0.921089       -25.0641
  17   2.0000      -0.907069       -24.6826
  18   2.0000      -0.709715       -19.3123
  19   2.0000      -0.694261       -18.8918
  20   2.0000      -0.616354       -16.7718
  21   2.0000      -0.594472       -16.1764
  22   2.0000      -0.565202       -15.3799
  23   2.0000      -0.522002       -14.2044
  24   2.0000      -0.513434       -13.9713
  25   2.0000      -0.500771       -13.6267
  26   2.0000      -0.488573       -13.2948
  27   2.0000      -0.458307       -12.4712
  28   2.0000      -0.446264       -12.1435
  29   2.0000      -0.427226       -11.6254
  30   2.0000      -0.424218       -11.5436
  31   2.0000      -0.398081       -10.8323
  32   2.0000      -0.382303       -10.4030
  33   2.0000      -0.374688       -10.1958
  34   2.0000      -0.372854       -10.1459
  35   2.0000      -0.349678        -9.5152
  36   2.0000      -0.327632        -8.9153
  37   2.0000      -0.321904        -8.7595
  38   2.0000      -0.316383        -8.6092
  39   2.0000      -0.305234        -8.3059
  40   2.0000      -0.280720        -7.6388
  41   2.0000      -0.272484        -7.4147
  42   2.0000      -0.261450        -7.1144
  43   2.0000      -0.251240        -6.8366
  44   2.0000      -0.242336        -6.5943
  45   2.0000      -0.217520        -5.9190
  46   2.0000      -0.213653        -5.8138
  47   2.0000      -0.199550        -5.4300
  48   0.0000       0.010156         0.2764
  49   0.0000       0.015574         0.4238
  50   0.0000       0.027396         0.7455
  51   0.0000       0.051099         1.3905
  52   0.0000       0.057871         1.5747

MULLIKEN ATOMIC CHARGES
-----------------------
   0 C :    0.081456
   1 C :    0.026284
   2 H :    0.077729
   3 C :    0.031402
   4 H :    0.063362
   5 C :    0.041442
   6 H :    0.045390
   7 C :    0.070344
   8 H :    0.058535
   9 C :    0.156593
  10 H :    0.063060
  11 O :   -0.317760
  12 O :   -0.404074
  13 O :   -0.420403
  14 O :   -0.422998
  15 O :   -0.412669
  16 O :   -0.436184
  17 H :    0.083197
  18 H :    0.091872
  19 H :    0.308024
  20 H :    0.302544
  21 H :    0.310331
  22 H :    0.309146
  23 H :    0.293377
Sum of atomic charges:   -0.0000000

LOEWDIN ATOMIC CHARGES
----------------------
   0 C :   -0.134756
   1 C :   -0.064252
   2 H :    0.121296
   3 C :   -0.071693
   4 H :    0.105755
   5 C :   -0.078927
   6 H :    0.101752
   7 C :   -0.100054
   8 H :    0.115654
   9 C :   -0.005708
  10 H :    0.096625
  11 O :   -0.132047
  12 O :   -0.318401
  13 O :   -0.315976
  14 O :   -0.323692
  15 O :   -0.314669
  16 O :   -0.338175
  17 H :    0.102466
  18 H :    0.119789
  19 H :    0.294232
  20 H :    0.285745
  21 H :    0.291748
  22 H :    0.286969
  23 H :    0.276318

  Mayer bond orders larger than 0.100000
B(  0-C ,  1-C ) :   1.0859 B(  0-C , 16-O ) :   1.0729 B(  0-C , 17-H ) :   0.8963
B(  0-C , 18-H ) :   0.9132 B(  1-C ,  2-H ) :   0.8742 B(  1-C ,  3-C ) :   0.9712
B(  1-C , 11-O ) :   0.9506 B(  3-C ,  4-H ) :   0.8776 B(  3-C ,  5-C ) :   1.0355
B(  3-C , 15-O ) :   1.0809 B(  5-C ,  6-H ) :   0.8597 B(  5-C ,  7-C ) :   1.0189
B(  5-C , 14-O ) :   1.0751 B(  7-C ,  8-H ) :   0.8610 B(  7-C ,  9-C ) :   0.9688
B(  7-C , 13-O ) :   1.0262 B(  9-C , 10-H ) :   0.9020 B(  9-C , 11-O ) :   1.1061
B(  9-C , 12-O ) :   1.0207 B( 12-O , 19-H ) :   0.8402 B( 13-O , 20-H ) :   0.8488
B( 14-O , 21-H ) :   0.8394 B( 15-O , 22-H ) :   0.8324 B( 16-O , 23-H ) :   0.8438

Dispersion correction           -0.024531930
FINAL SINGLE POINT ENERGY      -685.689342326682

DIPOLE MOMENT
-------------

Method             : SCF
Type of density    : Electron Density
Multiplicity       :   1
Irrep              :   0
Energy             :  -685.8202399906244864 Eh
Relativity type    :
Basis              : AO
                                X                 Y                 Z
Electronic contribution:      1.070788909       0.112310222       1.092621223
Nuclear contribution   :      0.621754292      -0.030759755      -1.060001259
                        -----------------------------------------
Total Dipole Moment    :      1.692543201       0.081550466       0.032619964
                        -----------------------------------------
Magnitude (a.u.)       :      1.694820647
Magnitude (Debye)      :      4.307891732

Rotational constants in cm-1:             0.042818             0.026118             0.018861
Rotational constants in MHz :          1283.654558           782.986596           565.441073

                             ****ORCA TERMINATED NORMALLY****
TOTAL RUN TIME: 0 days 0 hours 0 minutes 10 seconds 773 msec
