                         Program Version 6.0.1  -  RELEASE   -
|  1> ! r2scan-3c def2/J RI DEFGRID2 scfconv6 printgap
|  2> %output
|  3>     printlevel normal
|  4> end
|  5> * xyz 0 1
|  6> C 3.6832811329 -0.3588087757 -0.0808558437
|  7> C 2.214845622 -0.301894418 0.3296766105
|  8> H 2.1540501028 -0.3726440356 1.4221424901
|  9> C 1.4278481708 -1.4636285882 -0.2747204145
| 10> C -0.0438640613 -1.3851668391 0.1192014145
| 11> C -0.6703653961 -0.0739586983 -0.3594350204
| 12> H -0.5201335036 0.0055548694 -1.4427794041
| 13> C 0.1047616604 1.0954827751 0.2802078354
| 14> H 0.0256707037 1.0240303756 1.3776782497
| 15> C 1.5817518036 1.0160893836 -0.1070759324
| 16> O -0.3538513757 2.3634384351 -0.1451131621
| 17> C -2.1924509911 0.0062006683 -0.1167916145
| 18> C -2.9475060085 -0.9860438642 -1.0023329275
| 19> C -2.5956077811 -0.1970575263 1.3431693031
| 20> H 4.2374434146 0.4636647117 0.3651730978
| 21> H 4.1347752742 -1.2940533459 0.2430003805
| 22> H 3.7776277752 -0.2885501556 -1.162312244
| 23> H 1.5166783474 -1.4304646954 -1.3630346569
| 24> H 1.8489132356 -2.4123954467 0.0658313996
| 25> H -0.5775575136 -2.2318443472 -0.3138796348
| 26> H -0.1230392558 -1.4531153135 1.2059302154
| 27> H 1.6564424526 1.1272153612 -1.1902663111
| 28> H 2.1022432571 1.8604502236 0.3476509709
| 29> H -1.2602837958 2.4856929549 0.154896123
| 30> H -2.5156595693 1.0091973679 -0.4244790314
| 31> H -2.6626952691 -0.8664794893 -2.0451245744
| 32> H -4.0193601668 -0.8187413501 -0.9196370669
| 33> H -2.7446821769 -2.0112089067 -0.703362346
| 34> H -2.0639255436 0.4833312476 2.0039908998
| 35> H -2.392765071 -1.2164919109 1.6608534726
| 36> H -3.6622532176 -0.0151569067 1.4596280815
| 37> *
| 38>
| 39>                          ****END OF INPUT****

CARTESIAN COORDINATES (ANGSTROEM)
---------------------------------
  C      3.683281   -0.358809   -0.080856
  C      2.214846   -0.301894    0.329677
  H      2.154050   -0.372644    1.422142
  C      1.427848   -1.463629   -0.274720
  C     -0.043864   -1.385167    0.119201
  C     -0.670365   -0.073959   -0.359435
  H     -0.520134    0.005555   -1.442779
  C      0.104762    1.095483    0.280208
  H      0.025671    1.024030    1.377678
  C      1.581752    1.016089   -0.107076
  O     -0.353851    2.363438   -0.145113
  C     -2.192451    0.006201   -0.116792
  C     -2.947506   -0.986044   -1.002333
  C     -2.595608   -0.197058    1.343169
  H      4.237443    0.463665    0.365173
  H      4.134775   -1.294053    0.243000
  H      3.777628   -0.288550   -1.162312
  H      1.516678   -1.430465   -1.363035
  H      1.848913   -2.412395    0.065831
  H     -0.577558   -2.231844   -0.313880
  H     -0.123039   -1.453115    1.205930
  H      1.656442    1.127215   -1.190266
  H      2.102243    1.860450    0.347651
  H     -1.260284    2.485693    0.154896
  H     -2.515660    1.009197   -0.424479
  H     -2.662695   -0.866479   -2.045125
  H     -4.019360   -0.818741   -0.919637
  H     -2.744682   -2.011209   -0.703362
  H     -2.063926    0.483331    2.003991
  H     -2.392765   -1.216492    1.660853
  H     -3.662253   -0.015157    1.459628

 Total Charge           Charge          ....    0
 Multiplicity           Mult            ....    1
 Number of Electrons    NEL             ....   88
 Basis Dimension        Dim             ....  314

ORBITAL ENERGIES
----------------

  NO   OCC          E(Eh)            E(eV)
   0   2.0000     -18.943387      -515.4758
   1   2.0000     -10.074229      -274.1337
   2   2.0000     -10.037622      -273.1376
   3   2.0000     -10.031272      -272.9648
   4   2.0000     -10.027696      -272.8675
   5   2.0000     -10.023816      -272.7619
   6   2.0000     -10.021923      -272.7104
   7   2.0000     -10.019883      -272.6549
   8   2.0000     -10.017535      -272.5910
   9   2.0000     -10.017104      -272.5793
  10   2.0000     -10.014133      -272.4984
  11   2.0000      -0.983346       -26.7582
  12   2.0000      -0.806776       -21.9535
  13   2.0000      -0.770631       -20.9699
  14   2.0000      -0.713581       -19.4175
  15   2.0000      -0.698652       -19.0113
  16   2.0000      -0.653749       -17.7894
  17   2.0000      -0.640770       -17.4362
  18   2.0000      -0.579792       -15.7769
  19   2.0000      -0.567264       -15.4360
  20   2.0000      -0.531148       -14.4533
  21   2.0000      -0.513164       -13.9639
  22   2.0000      -0.474854       -12.9214
  23   2.0000      -0.442974       -12.0539
  24   2.0000      -0.429344       -11.6831
  25   2.0000      -0.417547       -11.3620
  26   2.0000      -0.414213       -11.2713
  27   2.0000      -0.393403       -10.7050
  28   2.0000      -0.381720       -10.3871
  29   2.0000      -0.376186       -10.2365
  30   2.0000      -0.369084       -10.0433
  31   2.0000      -0.354862        -9.6563
  32   2.0000      -0.346335        -9.4243
  33   2.0000      -0.342371        -9.3164
  34   2.0000      -0.329891        -8.9768
  35   2.0000      -0.316912        -8.6236
  36   2.0000      -0.311063        -8.4644
  37   2.0000      -0.302629        -8.2350
  38   2.0000      -0.295418        -8.0387
  39   2.0000      -0.293231        -7.9792
  40   2.0000      -0.288331        -7.8459
  41   2.0000      -0.272440        -7.4135
  42   2.0000      -0.260190        -7.0801
  43   2.0000      -0.228389        -6.2148
  44   0.0000       0.051045         1.3890
  45   0.0000       0.079596         2.1659
  46   0.0000       0.090581         2.4648
  47   0.0000       0.100043         2.7223
  48   0.0000       0.116251         3.1634

MULLIKEN ATOMIC CHARGES
-----------------------
   0 C :   -0.503616
   1 C :   -0.034147
   2 H :    0.159939
   3 C :   -0.340064
   4 C :   -0.383344
   5 C :   -0.004031
   6 H :    0.176099
   7 C :   -0.093192
   8 H :    0.157153
   9 C :   -0.388341
  10 O :   -0.419335
  11 C :   -0.038894
  12 C :   -0.523113
  13 C :   -0.510652
  14 H :    0.148620
  15 H :    0.146710
  16 H :    0.151496
  17 H :    0.157268
  18 H :    0.146768
  19 H :    0.151114
  20 H :    0.164014
  21 H :    0.168244
  22 H :    0.155089
  23 H :    0.288322
  24 H :    0.144042
  25 H :    0.151202
  26 H :    0.150072
  27 H :    0.155650
  28 H :    0.153966
  29 H :    0.160592
  30 H :    0.152369
Sum of atomic charges:    0.0000000

LOEWDIN ATOMIC CHARGES
----------------------
   0 C :   -0.412038
   1 C :   -0.232628
   2 H :    0.158196
   3 C :   -0.291138
   4 C :   -0.287728
   5 C :   -0.198894
   6 H :    0.172001
   7 C :    0.067749
   8 H :    0.165246
   9 C :   -0.251999
  10 O :   -0.607644
  11 C :   -0.236482
  12 C :   -0.411933
  13 C :   -0.415432
  14 H :    0.154036
  15 H :    0.152851
  16 H :    0.154376
  17 H :    0.159373
  18 H :    0.157559
  19 H :    0.160440
  20 H :    0.161290
  21 H :    0.168838
  22 H :    0.168328
  23 H :    0.263714
  24 H :    0.156198
  25 H :    0.155623
  26 H :    0.153638
  27 H :    0.152580
  28 H :    0.152685
  29 H :    0.156446
  30 H :    0.154748

  Mayer bond orders larger than 0.100000
B(  0-C ,  1-C ) :   0.8849 B(  0-C , 14-H ) :   0.9770 B(  0-C , 15-H ) :   0.9767
B(  0-C , 16-H ) :   0.9967 B(  1-C ,  2-H ) :   0.9496 B(  1-C ,  3-C ) :   0.9121
B(  1-C ,  9-C ) :   0.9070 B(  3-C ,  4-C ) :   0.8931 B(  3-C , 17-H ) :   1.0165
B(  3-C , 18-H ) :   0.9443 B(  4-C ,  5-C ) :   0.8580 B(  4-C , 19-H ) :   0.9447
B(  4-C , 20-H ) :   0.9888 B(  5-C ,  6-H ) :   1.0078 B(  5-C ,  7-C ) :   0.8745
B(  5-C , 11-C ) :   0.8228 B(  7-C ,  8-H ) :   0.9839 B(  7-C ,  9-C ) :   0.9115
B(  7-C , 10-O ) :   0.8592 B(  9-C , 21-H ) :   1.0330 B(  9-C , 22-H ) :   0.9406
B( 10-O , 23-H ) :   0.8945 B( 11-C , 12-C ) :   0.9157 B( 11-C , 13-C ) :   0.8746
B( 11-C , 24-H ) :   0.9785 B( 12-C , 25-H ) :   0.9804 B( 12-C , 26-H ) :   0.9740
B( 12-C , 27-H ) :   0.9884 B( 13-C , 28-H ) :   0.9727 B( 13-C , 29-H ) :   0.9813
B( 13-C , 30-H ) :   0.9738

Dispersion correction           -0.010852430
FINAL SINGLE POINT ENERGY      -468.209249381580

DIPOLE MOMENT
-------------

Method             : SCF
Type of density    : Electron Density
Multiplicity       :   1
Irrep              :   0
Energy             :  -468.2136966764520594 Eh
Relativity type    :
Basis              : AO
                                X                 Y                 Z
Electronic contribution:      0.713204533       5.103440634      -0.426407699
Nuclear contribution   :     -1.026452040      -5.548895557       0.693871176
                        -----------------------------------------
Total Dipole Moment    :     -0.313247508      -0.445454923       0.267463477
                        -----------------------------------------
Magnitude (a.u.)       :      0.606704871
Magnitude (Debye)      :      1.542121229

Rotational constants in cm-1:             0.059365             0.023306             0.019247
Rotational constants in MHz :          1779.705299           698.682971           577.017895

                             ****ORCA TERMINATED NORMALLY****
TOTAL RUN TIME: 0 days 0 hours 0 minutes 41 seconds 571 msec
