                         Program Version 6.0.1  -  RELEASE   -
|  1> ! pbe def2-sv(p) def2/J RI DEFGRID1 loosescf d4 GCP(DFT/SV(P)) printgap
|  2> %output
|  3>     printlevel normal
|  4> end
|  5> * xyz 0 1
|  6> C -1.4967427343 0.5235239981 -0.0322656831
|  7> C -0.7129083979 -0.7843516068 0.0343768165
|  8> C 0.8352022893 -0.6094707678 0.0394538689
|  9> N 1.3601021705 0.7387831115 -0.0343637776
| 10> H -2.5633307403 0.3102816514 -0.0294710323
| 11> H -1.2797041665 1.1580109086 0.8251440476
| 12> H -1.2678690555 1.0749060371 -0.9424424714
| 13> H -0.9992463161 -1.4014712804 -0.819110852
| 14> H -1.0132995148 -1.3206417319 0.9362510683
| 15> H 1.2439712293 -1.0525270538 0.9514281157
| 16> H 1.2609274214 -1.1555527999 -0.8065089173
| 17> H 1.0410880171 1.2932342799 0.751879857
| 18> H 1.055349801 1.1981754982 -0.8849435218
| 19> *
| 20>
| 21>                          ****END OF INPUT****

CARTESIAN COORDINATES (ANGSTROEM)
---------------------------------
  C     -1.496743    0.523524   -0.032266
  C     -0.712908   -0.784352    0.034377
  C      0.835202   -0.609471    0.039454
  N      1.360102    0.738783   -0.034364
  H     -2.563331    0.310282   -0.029471
  H     -1.279704    1.158011    0.825144
  H     -1.267869    1.074906   -0.942442
  H     -0.999246   -1.401471   -0.819111
  H     -1.013300   -1.320642    0.936251
  H      1.243971   -1.052527    0.951428
  H      1.260927   -1.155553   -0.806509
  H      1.041088    1.293234    0.751880
  H      1.055350    1.198175   -0.884944

 Total Charge           Charge          ....    0
 Multiplicity           Mult            ....    1
 Number of Electrons    NEL             ....   34
 Basis Dimension        Dim             ....   74

ORBITAL ENERGIES
----------------

  NO   OCC          E(Eh)            E(eV)
   0   2.0000     -13.954605      -379.7241
   1   2.0000      -9.901818      -269.4422
   2   2.0000      -9.879484      -268.8344
   3   2.0000      -9.877747      -268.7872
   4   2.0000      -0.791746       -21.5445
   5   2.0000      -0.681195       -18.5363
   6   2.0000      -0.596696       -16.2369
   7   2.0000      -0.511368       -13.9150
   8   2.0000      -0.449827       -12.2404
   9   2.0000      -0.392188       -10.6720
  10   2.0000      -0.390313       -10.6209
  11   2.0000      -0.378789       -10.3074
  12   2.0000      -0.335497        -9.1293
  13   2.0000      -0.307322        -8.3627
  14   2.0000      -0.302186        -8.2229
  15   2.0000      -0.274995        -7.4830
  16   2.0000      -0.179542        -4.8856
  17   0.0000       0.023579         0.6416
  18   0.0000       0.064723         1.7612
  19   0.0000       0.065493         1.7822
  20   0.0000       0.090393         2.4597
  21   0.0000       0.096364         2.6222

MULLIKEN ATOMIC CHARGES
-----------------------
   0 C :   -0.299101
   1 C :   -0.193832
   2 C :   -0.094445
   3 N :   -0.439259
   4 H :    0.102997
   5 H :    0.093262
   6 H :    0.092712
   7 H :    0.082592
   8 H :    0.082747
   9 H :    0.085474
  10 H :    0.085582
  11 H :    0.200652
  12 H :    0.200617
Sum of atomic charges:   -0.0000000

LOEWDIN ATOMIC CHARGES
----------------------
   0 C :   -0.348394
   1 C :   -0.266329
   2 C :   -0.184710
   3 N :   -0.399431
   4 H :    0.121261
   5 H :    0.110723
   6 H :    0.110608
   7 H :    0.115311
   8 H :    0.115522
   9 H :    0.112250
  10 H :    0.112308
  11 H :    0.200451
  12 H :    0.200431

  Mayer bond orders larger than 0.100000
B(  0-C ,  1-C ) :   1.1834 B(  0-C ,  4-H ) :   0.9461 B(  0-C ,  5-H ) :   0.9499
B(  0-C ,  6-H ) :   0.9496 B(  1-C ,  2-C ) :   1.0357 B(  1-C ,  7-H ) :   0.9302
B(  1-C ,  8-H ) :   0.9300 B(  2-C ,  3-N ) :   1.1989 B(  2-C ,  9-H ) :   0.9445
B(  2-C , 10-H ) :   0.9446 B(  3-N , 11-H ) :   0.9075 B(  3-N , 12-H ) :   0.9078

Dispersion correction           -0.007487502
FINAL SINGLE POINT ENERGY      -174.025903456711

DIPOLE MOMENT
-------------

Method             : SCF
Type of density    : Electron Density
Multiplicity       :   1
Irrep              :   0
Energy             :  -174.0759871590514649 Eh
Relativity type    :
Basis              : AO
                                X                 Y                 Z
Electronic contribution:      1.889144427       0.008611675       0.006228329
Nuclear contribution   :     -2.358719901       0.101995219      -0.016862374
                        -----------------------------------------
Total Dipole Moment    :     -0.469575474       0.110606895      -0.010634045
                        -----------------------------------------
Magnitude (a.u.)       :      0.482543360
Magnitude (Debye)      :      1.226527747

Rotational constants in cm-1:             0.416082             0.185209             0.141153
Rotational constants in MHz :         12473.816049          5552.437889          4231.653970

                             ****ORCA TERMINATED NORMALLY****
TOTAL RUN TIME: 0 days 0 hours 0 minutes 14 seconds 402 msec
