                         Program Version 6.0.1  -  RELEASE   -
|  1> ! r2scan-3c def2/J RI DEFGRID2 scfconv6 printgap
|  2> %output
|  3>     printlevel normal
|  4> end
|  5> * xyz 0 1
|  6> C -1.0765530412 -1.8706175168 5.0328e-06
|  7> C 0.2500681684 -1.4842425481 -1.3842e-06
|  8> C 0.548050306 -0.1266614008 -9.5692e-06
|  9> C -0.4452489226 0.8391426777 -3.102e-07
| 10> C -1.7776638409 0.4389884689 5.8165e-06
| 11> C -2.0842845509 -0.9208472027 9.3099e-06
| 12> O -2.7295442872 1.397048335 1.06108e-05
| 13> N 1.9295829652 0.2929982589 -4.27157e-05
| 14> O 2.1580288286 1.4825863516 -2.06584e-05
| 15> O 2.778542672 -0.5723478662 3.88476e-05
| 16> H -1.3320536095 -2.9186542429 1.03297e-05
| 17> H 1.0521071698 -2.2046832869 -1.14459e-05
| 18> H -0.1929094684 1.8873876731 -7.0543e-06
| 19> H -3.1198089774 -1.2333267363 2.25374e-05
| 20> H -3.6106056694 1.0027356722 1.60703e-05
| 21> *
| 22>
| 23>                          ****END OF INPUT****

CARTESIAN COORDINATES (ANGSTROEM)
---------------------------------
  C     -1.076553   -1.870618    0.000005
  C      0.250068   -1.484243   -0.000001
  C      0.548050   -0.126661   -0.000010
  C     -0.445249    0.839143   -0.000000
  C     -1.777664    0.438988    0.000006
  C     -2.084285   -0.920847    0.000009
  O     -2.729544    1.397048    0.000011
  N      1.929583    0.292998   -0.000043
  O      2.158029    1.482586   -0.000021
  O      2.778543   -0.572348    0.000039
  H     -1.332054   -2.918654    0.000010
  H      1.052107   -2.204683   -0.000011
  H     -0.192909    1.887388   -0.000007
  H     -3.119809   -1.233327    0.000023
  H     -3.610606    1.002736    0.000016

 Total Charge           Charge          ....    0
 Multiplicity           Mult            ....    1
 Number of Electrons    NEL             ....   72
 Basis Dimension        Dim             ....  235

ORBITAL ENERGIES
----------------

  NO   OCC          E(Eh)            E(eV)
   0   2.0000     -19.011249      -517.3224
   1   2.0000     -18.981972      -516.5257
   2   2.0000     -18.981324      -516.5081
   3   2.0000     -14.393608      -391.6700
   4   2.0000     -10.129108      -275.6270
   5   2.0000     -10.104130      -274.9473
   6   2.0000     -10.068607      -273.9807
   7   2.0000     -10.068109      -273.9672
   8   2.0000     -10.064029      -273.8561
   9   2.0000     -10.061558      -273.7889
  10   2.0000      -1.207787       -32.8656
  11   2.0000      -1.059524       -28.8311
  12   2.0000      -1.029827       -28.0230
  13   2.0000      -0.864613       -23.5273
  14   2.0000      -0.784241       -21.3403
  15   2.0000      -0.745158       -20.2768
  16   2.0000      -0.682923       -18.5833
  17   2.0000      -0.609891       -16.5960
  18   2.0000      -0.598713       -16.2918
  19   2.0000      -0.541302       -14.7296
  20   2.0000      -0.513732       -13.9794
  21   2.0000      -0.499420       -13.5899
  22   2.0000      -0.488235       -13.2856
  23   2.0000      -0.487782       -13.2732
  24   2.0000      -0.459342       -12.4993
  25   2.0000      -0.429593       -11.6898
  26   2.0000      -0.411670       -11.2021
  27   2.0000      -0.387275       -10.5383
  28   2.0000      -0.373672       -10.1681
  29   2.0000      -0.343812        -9.3556
  30   2.0000      -0.343023        -9.3341
  31   2.0000      -0.292314        -7.9543
  32   2.0000      -0.279139        -7.5958
  33   2.0000      -0.272211        -7.4072
  34   2.0000      -0.258515        -7.0346
  35   2.0000      -0.235857        -6.4180
  36   0.0000      -0.120883        -3.2894
  37   0.0000      -0.051221        -1.3938
  38   0.0000      -0.025520        -0.6944
  39   0.0000       0.036903         1.0042
  40   0.0000       0.061990         1.6868

MULLIKEN ATOMIC CHARGES
-----------------------
   0 C :   -0.116081
   1 C :   -0.239237
   2 C :    0.042649
   3 C :   -0.372724
   4 C :    0.450437
   5 C :   -0.281342
   6 O :   -0.396187
   7 N :    0.367142
   8 O :   -0.221721
   9 O :   -0.227557
  10 H :    0.155330
  11 H :    0.184076
  12 H :    0.194571
  13 H :    0.142164
  14 H :    0.318480
Sum of atomic charges:    0.0000000

LOEWDIN ATOMIC CHARGES
----------------------
   0 C :   -0.139465
   1 C :   -0.102861
   2 C :    0.196088
   3 C :   -0.054552
   4 C :    0.187196
   5 C :   -0.142961
   6 O :   -0.476491
   7 N :   -0.487788
   8 O :   -0.010107
   9 O :   -0.011895
  10 H :    0.174627
  11 H :    0.198697
  12 H :    0.210834
  13 H :    0.172684
  14 H :    0.285994

  Mayer bond orders larger than 0.100000
B(  0-C ,  1-C ) :   1.3565 B(  0-C ,  5-C ) :   1.4110 B(  0-C , 10-H ) :   0.9493
B(  1-C ,  2-C ) :   1.4183 B(  1-C ,  9-O ) :   0.1023 B(  1-C , 11-H ) :   0.9362
B(  2-C ,  3-C ) :   1.4026 B(  2-C ,  7-N ) :   0.9268 B(  3-C ,  4-C ) :   1.3278
B(  3-C ,  6-O ) :   0.1371 B(  3-C , 12-H ) :   0.9385 B(  4-C ,  5-C ) :   1.3192
B(  4-C ,  6-O ) :   0.8892 B(  5-C , 13-H ) :   0.9357 B(  6-O , 14-H ) :   0.8788
B(  7-N ,  8-O ) :   1.8567 B(  7-N ,  9-O ) :   1.8574 B(  8-O ,  9-O ) :   0.2579

Dispersion correction           -0.005155580
FINAL SINGLE POINT ENERGY      -511.892887719264

DIPOLE MOMENT
-------------

Method             : SCF
Type of density    : Electron Density
Multiplicity       :   1
Irrep              :   0
Energy             :  -511.8979289082916466 Eh
Relativity type    :
Basis              : AO
                                X                 Y                 Z
Electronic contribution:      4.581122536       2.405773432      -0.000050477
Nuclear contribution   :     -6.714637721      -3.216450076       0.000028747
                        -----------------------------------------
Total Dipole Moment    :     -2.133515186      -0.810676644      -0.000021730
                        -----------------------------------------
Magnitude (a.u.)       :      2.282341707
Magnitude (Debye)      :      5.801251587

Rotational constants in cm-1:             0.092582             0.033310             0.024497
Rotational constants in MHz :          2775.529479           998.615273           734.387871

                             ****ORCA TERMINATED NORMALLY****
TOTAL RUN TIME: 0 days 0 hours 0 minutes 32 seconds 161 msec
