                         Program Version 6.0.1  -  RELEASE   -
|  1> ! pbe def2-sv(p) def2/J RI DEFGRID1 loosescf d4 GCP(DFT/SV(P)) printgap
|  2> %output
|  3>     printlevel normal
|  4> end
|  5> * xyz 0 1
|  6> C 4.5360897638 -0.2209771497 0.0403912534
|  7> C 3.9831918493 1.0483800962 0.086512202
|  8> C 2.6130850218 1.2150040769 0.0816089259
|  9> C 1.7644525987 0.1073175563 0.0305775251
| 10> C 2.3219454691 -1.1666637805 -0.0152840322
| 11> C 3.6982507544 -1.3194644766 -0.0102941494
| 12> N 0.3591822046 0.3427382289 0.026403552
| 13> C -0.6101939148 -0.6813573366 -0.0304400807
| 14> O -0.331031516 -1.8644166107 -0.0701834544
| 15> C -1.9672704456 -0.1907422365 -0.0321110828
| 16> C -2.2996710283 1.1402460311 0.0184191034
| 17> C -1.182442194 2.0266113382 0.0801266557
| 18> N 0.0387350133 1.6264507513 0.0820900654
| 19> N -3.5733793974 1.5952765844 -0.0375142041
| 20> Cl -3.2027767113 -1.400187396 -0.0971795697
| 21> H 5.6080260253 -0.3497980875 0.0438280958
| 22> H 4.6226341458 1.9177432834 0.1265057767
| 23> H 2.1867165325 2.2035867872 0.11695306
| 24> H 1.6929006764 -2.0378054375 -0.0552188012
| 25> H 4.1131194241 -2.3155924885 -0.0469706092
| 26> H -1.3244855859 3.0955136587 0.1273279373
| 27> H -3.7689413124 2.5486923478 0.2084504663
| 28> H -4.3082532828 0.9126571816 0.0517926758
| 29> *
| 30>
| 31>                          ****END OF INPUT****

CARTESIAN COORDINATES (ANGSTROEM)
---------------------------------
  C      4.536090   -0.220977    0.040391
  C      3.983192    1.048380    0.086512
  C      2.613085    1.215004    0.081609
  C      1.764453    0.107318    0.030578
  C      2.321945   -1.166664   -0.015284
  C      3.698251   -1.319464   -0.010294
  N      0.359182    0.342738    0.026404
  C     -0.610194   -0.681357   -0.030440
  O     -0.331032   -1.864417   -0.070183
  C     -1.967270   -0.190742   -0.032111
  C     -2.299671    1.140246    0.018419
  C     -1.182442    2.026611    0.080127
  N      0.038735    1.626451    0.082090
  N     -3.573379    1.595277   -0.037514
  Cl    -3.202777   -1.400187   -0.097180
  H      5.608026   -0.349798    0.043828
  H      4.622634    1.917743    0.126506
  H      2.186717    2.203587    0.116953
  H      1.692901   -2.037805   -0.055219
  H      4.113119   -2.315592   -0.046971
  H     -1.324486    3.095514    0.127328
  H     -3.768941    2.548692    0.208450
  H     -4.308253    0.912657    0.051793

 Total Charge           Charge          ....    0
 Multiplicity           Mult            ....    1
 Number of Electrons    NEL             ....  114
 Basis Dimension        Dim             ....  230

ORBITAL ENERGIES
----------------

  NO   OCC          E(Eh)            E(eV)
   0   2.0000    -100.650800     -2738.8475
   1   2.0000     -18.720463      -509.4097
   2   2.0000     -14.093453      -383.5023
   3   2.0000     -14.040329      -382.0568
   4   2.0000     -14.031752      -381.8234
   5   2.0000      -9.995304      -271.9861
   6   2.0000      -9.972362      -271.3618
   7   2.0000      -9.951069      -270.7824
   8   2.0000      -9.947949      -270.6975
   9   2.0000      -9.940293      -270.4891
  10   2.0000      -9.890506      -269.1343
  11   2.0000      -9.888701      -269.0852
  12   2.0000      -9.887311      -269.0474
  13   2.0000      -9.886914      -269.0366
  14   2.0000      -9.883699      -268.9491
  15   2.0000      -9.185917      -249.9615
  16   2.0000      -7.017306      -190.9506
  17   2.0000      -7.005884      -190.6398
  18   2.0000      -7.005423      -190.6272
  19   2.0000      -0.986000       -26.8304
  20   2.0000      -0.926032       -25.1986
  21   2.0000      -0.877947       -23.8901
  22   2.0000      -0.803976       -21.8773
  23   2.0000      -0.794526       -21.6202
  24   2.0000      -0.760874       -20.7044
  25   2.0000      -0.708484       -19.2788
  26   2.0000      -0.674225       -18.3466
  27   2.0000      -0.668258       -18.1842
  28   2.0000      -0.611922       -16.6512
  29   2.0000      -0.603689       -16.4272
  30   2.0000      -0.551991       -15.0204
  31   2.0000      -0.547294       -14.8926
  32   2.0000      -0.524605       -14.2752
  33   2.0000      -0.495404       -13.4806
  34   2.0000      -0.489000       -13.3064
  35   2.0000      -0.461392       -12.5551
  36   2.0000      -0.442106       -12.0303
  37   2.0000      -0.440265       -11.9802
  38   2.0000      -0.419544       -11.4164
  39   2.0000      -0.401718       -10.9313
  40   2.0000      -0.386609       -10.5202
  41   2.0000      -0.381234       -10.3739
  42   2.0000      -0.376171       -10.2361
  43   2.0000      -0.368992       -10.0408
  44   2.0000      -0.358757        -9.7623
  45   2.0000      -0.345080        -9.3901
  46   2.0000      -0.326901        -8.8954
  47   2.0000      -0.318095        -8.6558
  48   2.0000      -0.299461        -8.1487
  49   2.0000      -0.292411        -7.9569
  50   2.0000      -0.278312        -7.5732
  51   2.0000      -0.260717        -7.0945
  52   2.0000      -0.258182        -7.0255
  53   2.0000      -0.226543        -6.1645
  54   2.0000      -0.206008        -5.6058
  55   2.0000      -0.204273        -5.5585
  56   2.0000      -0.197135        -5.3643
  57   0.0000      -0.087450        -2.3796
  58   0.0000      -0.035907        -0.9771
  59   0.0000      -0.027422        -0.7462
  60   0.0000      -0.012994        -0.3536
  61   0.0000       0.009024         0.2456

MULLIKEN ATOMIC CHARGES
-----------------------
   0 C :   -0.026686
   1 C :   -0.049132
   2 C :   -0.106054
   3 C :    0.194334
   4 C :   -0.143934
   5 C :   -0.055628
   6 N :   -0.145442
   7 C :    0.180217
   8 O :   -0.179775
   9 C :   -0.127728
  10 C :    0.135537
  11 C :   -0.185585
  12 N :    0.024947
  13 N :   -0.294289
  14 Cl:   -0.044675
  15 H :    0.050537
  16 H :    0.052720
  17 H :    0.058710
  18 H :    0.085181
  19 H :    0.055658
  20 H :    0.049571
  21 H :    0.237305
  22 H :    0.234213
Sum of atomic charges:    0.0000000

LOEWDIN ATOMIC CHARGES
----------------------
   0 C :   -0.126163
   1 C :   -0.119790
   2 C :   -0.133459
   3 C :    0.003721
   4 C :   -0.137217
   5 C :   -0.117755
   6 N :    0.079442
   7 C :    0.001776
   8 O :   -0.180784
   9 C :   -0.211629
  10 C :   -0.040257
  11 C :   -0.136825
  12 N :   -0.007013
  13 N :   -0.281004
  14 Cl:    0.164178
  15 H :    0.122500
  16 H :    0.124042
  17 H :    0.133350
  18 H :    0.146677
  19 H :    0.125544
  20 H :    0.124859
  21 H :    0.238947
  22 H :    0.226859

  Mayer bond orders larger than 0.100000
B(  0-C ,  1-C ) :   1.3534 B(  0-C ,  5-C ) :   1.3790 B(  0-C , 15-H ) :   0.9672
B(  1-C ,  2-C ) :   1.3608 B(  1-C , 16-H ) :   0.9638 B(  2-C ,  3-C ) :   1.3726
B(  2-C , 17-H ) :   0.9387 B(  3-C ,  4-C ) :   1.3969 B(  3-C ,  6-N ) :   0.9561
B(  4-C ,  5-C ) :   1.3365 B(  4-C , 18-H ) :   0.9367 B(  5-C , 19-H ) :   0.9631
B(  6-N ,  7-C ) :   0.9503 B(  6-N , 12-N ) :   1.1617 B(  7-C ,  8-O ) :   2.0786
B(  7-C ,  9-C ) :   1.1040 B(  9-C , 10-C ) :   1.5066 B(  9-C , 14-Cl) :   1.0451
B( 10-C , 11-C ) :   1.0571 B( 10-C , 13-N ) :   1.3499 B( 11-C , 12-N ) :   1.7647
B( 11-C , 20-H ) :   0.9664 B( 13-N , 21-H ) :   0.8694 B( 13-N , 22-H ) :   0.8468

Dispersion correction           -0.032104307
FINAL SINGLE POINT ENERGY     -1083.937500293361

DIPOLE MOMENT
-------------

Method             : SCF
Type of density    : Electron Density
Multiplicity       :   1
Irrep              :   0
Energy             : -1084.0008236475432568 Eh
Relativity type    :
Basis              : AO
                                X                 Y                 Z
Electronic contribution:    -13.629266033      -5.852366404      -0.434829846
Nuclear contribution   :     12.552733616       7.476930891       0.667049233
                        -----------------------------------------
Total Dipole Moment    :     -1.076532417       1.624564487       0.232219388
                        -----------------------------------------
Magnitude (a.u.)       :      1.962665957
Magnitude (Debye)      :      4.988700405

Rotational constants in cm-1:             0.044918             0.010691             0.008637
Rotational constants in MHz :          1346.617088           320.518214           258.918492

                             ****ORCA TERMINATED NORMALLY****
TOTAL RUN TIME: 0 days 0 hours 0 minutes 24 seconds 447 msec
