                         Program Version 6.0.0  -   RELEASE  -
|  1> ! r2SCAN-3c DEF2-TZVP FREQ
|  2> * xyzfile 0 1 censo.xyz
|  3>
|  4>                          ****END OF INPUT****

CARTESIAN COORDINATES (ANGSTROEM)
---------------------------------
  C     -2.809053    1.060214   -0.000612
  O     -2.226898   -0.252888    0.000268
  C     -0.858621   -0.336261    0.000128
  C     -0.330050   -1.633408    0.000047
  C      1.046885   -1.800832   -0.000128
  C      1.911126   -0.706361   -0.000212
  C      1.361923    0.572783   -0.000076
  C     -0.019503    0.776371    0.000093
  O      2.147351    1.704504   -0.000110
  H     -2.518897    1.617623   -0.898212
  H     -2.519531    1.618606    0.896588
  H     -3.888138    0.903340   -0.000899
  H     -1.003065   -2.483675    0.000080
  H      1.461142   -2.804216   -0.000241
  H      2.988248   -0.840283   -0.000385
  H     -0.400225    1.789631    0.000214
  H      3.077082    1.437489   -0.000194

 Total Charge           Charge          ....    0
 Multiplicity           Mult            ....    1
 Number of Electrons    NEL             ....   66
 Basis Dimension        Dim             ....  327

ORBITAL ENERGIES
----------------

  NO   OCC          E(Eh)            E(eV)
   0   2.0000     -18.986843      -516.6583
   1   2.0000     -18.985587      -516.6241
   2   2.0000     -10.098758      -274.8012
   3   2.0000     -10.096019      -274.7266
   4   2.0000     -10.087311      -274.4897
   5   2.0000     -10.039711      -273.1944
   6   2.0000     -10.029866      -272.9265
   7   2.0000     -10.029557      -272.9181
   8   2.0000     -10.024478      -272.7799
   9   2.0000      -1.025736       -27.9117
  10   2.0000      -1.023110       -27.8402
  11   2.0000      -0.814425       -22.1616
  12   2.0000      -0.719387       -19.5755
  13   2.0000      -0.713861       -19.4252
  14   2.0000      -0.662453       -18.0263
  15   2.0000      -0.585351       -15.9282
  16   2.0000      -0.572384       -15.5754
  17   2.0000      -0.517237       -14.0747
  18   2.0000      -0.468105       -12.7378
  19   2.0000      -0.452747       -12.3199
  20   2.0000      -0.449756       -12.2385
  21   2.0000      -0.435030       -11.8378
  22   2.0000      -0.412548       -11.2260
  23   2.0000      -0.386100       -10.5063
  24   2.0000      -0.379318       -10.3218
  25   2.0000      -0.361398        -9.8342
  26   2.0000      -0.347033        -9.4432
  27   2.0000      -0.332044        -9.0354
  28   2.0000      -0.319214        -8.6862
  29   2.0000      -0.305259        -8.3065
  30   2.0000      -0.281334        -7.6555
  31   2.0000      -0.219215        -5.9652
  32   2.0000      -0.196300        -5.3416
  33   0.0000      -0.026393        -0.7182
  34   0.0000      -0.012346        -0.3360
  35   0.0000       0.036830         1.0022
  36   0.0000       0.053549         1.4571
  37   0.0000       0.060733         1.6526

MULLIKEN ATOMIC CHARGES
-----------------------
   0 C :   -0.163672
   1 O :   -0.266789
   2 C :    0.393601
   3 C :   -0.277103
   4 C :   -0.046097
   5 C :   -0.268659
   6 C :    0.284434
   7 C :   -0.332913
   8 O :   -0.401063
   9 H :    0.114384
  10 H :    0.114366
  11 H :    0.126543
  12 H :    0.102794
  13 H :    0.110592
  14 H :    0.093024
  15 H :    0.102625
  16 H :    0.313933
Sum of atomic charges:   -0.0000000

LOEWDIN ATOMIC CHARGES
----------------------
   0 C :   -0.311442
   1 O :    0.225529
   2 C :   -0.244979
   3 C :   -0.137048
   4 C :   -0.140549
   5 C :   -0.169027
   6 C :   -0.266503
   7 C :   -0.127801
   8 O :    0.071888
   9 H :    0.107690
  10 H :    0.107679
  11 H :    0.113709
  12 H :    0.147305
  13 H :    0.144871
  14 H :    0.138965
  15 H :    0.152025
  16 H :    0.187689

  Mayer bond orders larger than 0.100000
B(  0-C ,  1-O ) :   0.9279 B(  0-C ,  9-H ) :   0.9651 B(  0-C , 10-H ) :   0.9651
B(  0-C , 11-H ) :   0.9759 B(  1-O ,  2-C ) :   1.1144 B(  2-C ,  3-C ) :   1.3152
B(  2-C ,  7-C ) :   1.2908 B(  3-C ,  4-C ) :   1.4357 B(  3-C , 12-H ) :   0.9889
B(  4-C ,  5-C ) :   1.3523 B(  4-C , 13-H ) :   0.9615 B(  5-C ,  6-C ) :   1.3471
B(  5-C , 14-H ) :   0.9689 B(  6-C ,  7-C ) :   1.3425 B(  6-C ,  8-O ) :   1.1286
B(  7-C , 15-H ) :   0.9766 B(  8-O , 16-H ) :   0.8863

Dispersion correction           -0.005299555
FINAL SINGLE POINT ENERGY      -421.933915762055

DIPOLE MOMENT
-------------

Method             : SCF
Type of density    : Electron Density
Multiplicity       :   1
Irrep              :   0
Energy             :  -421.9366376380980910 Eh
Relativity type    :
Basis              : AO
                                X                 Y                 Z
Electronic contribution:      2.830615937      -0.992947340       0.001822895
Nuclear contribution   :     -2.603161531       1.205255604      -0.002271648
                        -----------------------------------------
Total Dipole Moment    :      0.227454406       0.212308264      -0.000448753
                        -----------------------------------------
Magnitude (a.u.)       :      0.311143869
Magnitude (Debye)      :      0.790864864

VIBRATIONAL FREQUENCIES
-----------------------

Scaling factor for frequencies =  1.000000000  (already applied!)

     0:       0.00 cm**-1
     1:       0.00 cm**-1
     2:       0.00 cm**-1
     3:       0.00 cm**-1
     4:       0.00 cm**-1
     5:       0.00 cm**-1
     6:     121.58 cm**-1
     7:     211.95 cm**-1
     8:     236.17 cm**-1
     9:     244.71 cm**-1
    10:     287.90 cm**-1
    11:     413.94 cm**-1
    12:     422.70 cm**-1
    13:     462.45 cm**-1
    14:     478.51 cm**-1
    15:     538.24 cm**-1
    16:     563.53 cm**-1
    17:     631.00 cm**-1
    18:     690.77 cm**-1
    19:     738.19 cm**-1
    20:     746.84 cm**-1
    21:     831.52 cm**-1
    22:     842.41 cm**-1
    23:     933.14 cm**-1
    24:     948.97 cm**-1
    25:    1009.69 cm**-1
    26:    1031.76 cm**-1
    27:    1100.22 cm**-1
    28:    1157.48 cm**-1
    29:    1157.80 cm**-1
    30:    1179.03 cm**-1
    31:    1200.77 cm**-1
    32:    1226.90 cm**-1
    33:    1289.71 cm**-1
    34:    1329.70 cm**-1
    35:    1373.86 cm**-1
    36:    1456.30 cm**-1
    37:    1484.31 cm**-1
    38:    1491.13 cm**-1
    39:    1506.88 cm**-1
    40:    1513.92 cm**-1
    41:    1624.96 cm**-1
    42:    1644.88 cm**-1
    43:    2996.55 cm**-1
    44:    3072.63 cm**-1
    45:    3127.18 cm**-1
    46:    3158.69 cm**-1
    47:    3172.48 cm**-1
    48:    3189.79 cm**-1
    49:    3209.58 cm**-1
    50:    3760.58 cm**-1

IR SPECTRUM
-----------

 Mode   freq       eps      Int      T**2         TX        TY        TZ
       cm**-1   L/(mol*cm) km/mol    a.u.
----------------------------------------------------------------------------
  6:    121.58   0.001149    5.80  0.002948  (-0.000139 -0.000036  0.054298)
  7:    211.95   0.000009    0.04  0.000013  ( 0.000039  0.000058 -0.003612)
  8:    236.17   0.000867    4.38  0.001146  ( 0.028870  0.017685  0.000012)
  9:    244.71   0.000165    0.84  0.000211  (-0.000072 -0.000043  0.014519)
 10:    287.90   0.000057    0.29  0.000061  ( 0.000038  0.000022  0.007840)
 11:    413.94   0.000846    4.28  0.000638  (-0.004156 -0.024916  0.000029)
 12:    422.70   0.018565   93.82  0.013706  (-0.000004  0.000027 -0.117072)
 13:    462.45   0.000055    0.28  0.000037  (-0.000017 -0.000041 -0.006099)
 14:    478.51   0.000010    0.05  0.000007  (-0.000133 -0.002588 -0.000029)
 15:    538.24   0.000491    2.48  0.000285  ( 0.000076 -0.016876 -0.000008)
 16:    563.53   0.002061   10.41  0.001141  (-0.033090 -0.006790 -0.000016)
 17:    631.00   0.000471    2.38  0.000233  ( 0.000075 -0.000042 -0.015263)
 18:    690.77   0.003996   20.20  0.001805  ( 0.000040  0.000005 -0.042490)
 19:    738.19   0.000125    0.63  0.000053  ( 0.005747 -0.004458  0.000039)
 20:    746.84   0.009062   45.80  0.003787  ( 0.000009 -0.000008 -0.061535)
 21:    831.52   0.000321    1.62  0.000120  (-0.000004  0.000008 -0.010977)
 22:    842.41   0.006439   32.54  0.002385  ( 0.000010 -0.000009 -0.048839)
 23:    933.14   0.000008    0.04  0.000003  ( 0.000004  0.000007  0.001673)
 24:    948.97   0.014791   74.75  0.004864  ( 0.047360  0.051196 -0.000015)
 25:   1009.69   0.001615    8.16  0.000499  (-0.021652  0.005498 -0.000011)
 26:   1031.76   0.014099   71.25  0.004264  ( 0.057978 -0.030048  0.000023)
 27:   1100.22   0.000817    4.13  0.000232  ( 0.005660 -0.014134  0.000000)
 28:   1157.48   0.038528  194.71  0.010387  (-0.100757 -0.015345 -0.000097)
 29:   1157.80   0.000125    0.63  0.000034  (-0.001733 -0.000270  0.005533)
 30:   1179.03   0.001538    7.77  0.000407  (-0.013547 -0.014956 -0.000001)
 31:   1200.77   0.011611   58.68  0.003018  ( 0.043150  0.033995 -0.000003)
 32:   1226.90   0.008155   41.21  0.002074  (-0.015899  0.042677 -0.000005)
 33:   1289.71   0.024031  121.44  0.005815  ( 0.039238 -0.065383  0.000002)
 34:   1329.70   0.006973   35.24  0.001636  (-0.030386 -0.026705 -0.000000)
 35:   1373.86   0.004711   23.81  0.001070  ( 0.009703  0.031240 -0.000003)
 36:   1456.30   0.003975   20.09  0.000852  ( 0.026283  0.012687 -0.000015)
 37:   1484.31   0.001673    8.46  0.000352  ( 0.000081 -0.000006  0.018755)
 38:   1491.13   0.006721   33.96  0.001407  ( 0.037483 -0.001234 -0.000039)
 39:   1506.88   0.005081   25.67  0.001052  (-0.027984  0.016403  0.000001)
 40:   1513.92   0.018491   93.45  0.003812  (-0.059903 -0.014941 -0.000006)
 41:   1624.96   0.028966  146.38  0.005563  (-0.048465 -0.056692 -0.000003)
 42:   1644.88   0.023310  117.80  0.004422  (-0.061831  0.024478  0.000002)
 43:   2996.55   0.009529   48.15  0.000992  ( 0.017889 -0.025929  0.000000)
 44:   3072.63   0.006651   33.61  0.000675  (-0.000002  0.000004  0.025990)
 45:   3127.18   0.003758   18.99  0.000375  ( 0.019102  0.003187 -0.000004)
 46:   3158.69   0.001766    8.93  0.000174  (-0.006294 -0.011613  0.000001)
 47:   3172.48   0.002608   13.18  0.000257  (-0.015301  0.004736  0.000002)
 48:   3189.79   0.000724    3.66  0.000071  (-0.000725 -0.008387  0.000000)
 49:   3209.58   0.000166    0.84  0.000016  (-0.002339  0.003266  0.000000)
 50:   3760.58   0.010762   54.39  0.000893  ( 0.028991  0.007249 -0.000002)

--------------------------
THERMOCHEMISTRY AT 298.15K
--------------------------

Temperature         ...   298.15 K
Pressure            ...     1.00 atm
Total Mass          ...   124.14 AMU
Quasi RRHO          ...     True
Cut-Off Frequency   ...     1.00 cm^-1

Throughout the following assumptions are being made:
  (1) The electronic state is orbitally nondegenerate
  (2) There are no thermally accessible electronically excited states
  (3) Hindered rotations indicated by low frequency modes are not
      treated as such but are treated as vibrations and this may
      cause some error
  (4) All equations used are the standard statistical mechanics
      equations for an ideal gas
  (5) All vibrations are strictly harmonic

freq.     121.58  E(vib)   ...       0.44
freq.     211.95  E(vib)   ...       0.34
freq.     236.17  E(vib)   ...       0.32
freq.     244.71  E(vib)   ...       0.31
freq.     287.90  E(vib)   ...       0.27
freq.     413.94  E(vib)   ...       0.19
freq.     422.70  E(vib)   ...       0.18
freq.     462.45  E(vib)   ...       0.16
freq.     478.51  E(vib)   ...       0.15
freq.     538.24  E(vib)   ...       0.12
freq.     563.53  E(vib)   ...       0.11
freq.     631.00  E(vib)   ...       0.09
freq.     690.77  E(vib)   ...       0.07
freq.     738.19  E(vib)   ...       0.06
freq.     746.84  E(vib)   ...       0.06
freq.     831.52  E(vib)   ...       0.04
freq.     842.41  E(vib)   ...       0.04
freq.     933.14  E(vib)   ...       0.03
freq.     948.97  E(vib)   ...       0.03
freq.    1009.69  E(vib)   ...       0.02
freq.    1031.76  E(vib)   ...       0.02
freq.    1100.22  E(vib)   ...       0.02
freq.    1157.48  E(vib)   ...       0.01
freq.    1157.80  E(vib)   ...       0.01
freq.    1179.03  E(vib)   ...       0.01
freq.    1200.77  E(vib)   ...       0.01
freq.    1226.90  E(vib)   ...       0.01
freq.    1289.71  E(vib)   ...       0.01
freq.    1329.70  E(vib)   ...       0.01
freq.    1373.86  E(vib)   ...       0.01
freq.    1456.30  E(vib)   ...       0.00
freq.    1484.31  E(vib)   ...       0.00
freq.    1491.13  E(vib)   ...       0.00
freq.    1506.88  E(vib)   ...       0.00
freq.    1513.92  E(vib)   ...       0.00
freq.    1624.96  E(vib)   ...       0.00
freq.    1644.88  E(vib)   ...       0.00
freq.    2996.55  E(vib)   ...       0.00
freq.    3072.63  E(vib)   ...       0.00
freq.    3127.18  E(vib)   ...       0.00
freq.    3158.69  E(vib)   ...       0.00
freq.    3172.48  E(vib)   ...       0.00
freq.    3189.79  E(vib)   ...       0.00
freq.    3209.58  E(vib)   ...       0.00
freq.    3760.58  E(vib)   ...       0.00

------------
INNER ENERGY
------------

The inner energy is: U= E(el) + E(ZPE) + E(vib) + E(rot) + E(trans)
    E(el)   - is the total energy from the electronic structure calculation
              = E(kin-el) + E(nuc-el) + E(el-el) + E(nuc-nuc)
    E(ZPE)  - the the zero temperature vibrational energy from the frequency calculation
    E(vib)  - the the finite temperature correction to E(ZPE) due to population
              of excited vibrational states
    E(rot)  - is the rotational thermal energy
    E(trans)- is the translational thermal energy

Summary of contributions to the inner energy U:
Electronic energy                ...   -421.93391576 Eh
Zero point energy                ...      0.13626022 Eh      85.50 kcal/mol
Thermal vibrational correction   ...      0.00505520 Eh       3.17 kcal/mol
Thermal rotational correction    ...      0.00141627 Eh       0.89 kcal/mol
Thermal translational correction ...      0.00141627 Eh       0.89 kcal/mol
-----------------------------------------------------------------------
Total thermal energy                   -421.78976779 Eh

Summary of corrections to the electronic energy:
(perhaps to be used in another calculation)
Total thermal correction                  0.00788775 Eh       4.95 kcal/mol
Non-thermal (ZPE) correction              0.13626022 Eh      85.50 kcal/mol
-----------------------------------------------------------------------
Total correction                          0.14414797 Eh      90.45 kcal/mol

--------
ENTHALPY
--------

The enthalpy is H = U + kB*T
                kB is Boltzmann's constant
Total thermal energy              ...   -421.78976779 Eh
Thermal Enthalpy correction       ...      0.00094421 Eh       0.59 kcal/mol
-----------------------------------------------------------------------
Total Enthalpy                    ...   -421.78882359 Eh

Note: Only C1 symmetry has been detected, increase convergence thresholds
      if your molecule has a higher symmetry. Symmetry factor of 1.0 is
      used for the rotational entropy correction.

Note: Rotational entropy computed according to Herzberg
Infrared and Raman Spectra, Chapter V,1, Van Nostrand Reinhold, 1945
Point Group:  C1, Symmetry Number:   1
Rotational constants in cm-1:     0.094480     0.043347     0.029885

Vibrational entropy computed according to the QRRHO of S. Grimme
Chem.Eur.J. 2012 18 9955 using a reference frequency of 100.0 cm-1

-------
ENTROPY
-------

The entropy contributions are T*S = T*(S(el)+S(vib)+S(rot)+S(trans))
     S(el)   - electronic entropy
     S(vib)  - vibrational entropy
     S(rot)  - rotational entropy
     S(trans)- translational entropy
The entropies will be listed as multiplied by the temperature to get
units of energy

Electronic entropy                ...      0.00000000 Eh      0.00 kcal/mol
Vibrational entropy               ...      0.00801845 Eh      5.03 kcal/mol
Rotational entropy                ...      0.01376352 Eh      8.64 kcal/mol
Translational entropy             ...      0.01917748 Eh     12.03 kcal/mol
-----------------------------------------------------------------------
Final entropy term                ...      0.04095946 Eh     25.70 kcal/mol

In case the symmetry of your molecule has not been determined correctly
or in case you have a reason to use a different symmetry number we print
out the resulting rotational entropy values for sn=1,12:

 non-linear molecules -----------------------------------
|  sn= 1 | S(rot)=       0.01376352 Eh      8.64 kcal/mol|
|  sn= 2 | S(rot)=       0.01310907 Eh      8.23 kcal/mol|
|  sn= 3 | S(rot)=       0.01272624 Eh      7.99 kcal/mol|
|  sn= 4 | S(rot)=       0.01245461 Eh      7.82 kcal/mol|
|  sn= 5 | S(rot)=       0.01224392 Eh      7.68 kcal/mol|
|  sn= 6 | S(rot)=       0.01207178 Eh      7.58 kcal/mol|
|  sn= 7 | S(rot)=       0.01192623 Eh      7.48 kcal/mol|
|  sn= 8 | S(rot)=       0.01180016 Eh      7.40 kcal/mol|
|  sn= 9 | S(rot)=       0.01168895 Eh      7.33 kcal/mol|
|  sn=10 | S(rot)=       0.01158947 Eh      7.27 kcal/mol|
|  sn=11 | S(rot)=       0.01149948 Eh      7.22 kcal/mol|
|  sn=12 | S(rot)=       0.01141732 Eh      7.16 kcal/mol|
 linear molecules ---------------------------------------
|  Dinfh | S(rot)=       0.00864024 Eh      5.42 kcal/mol|
|  Cinfv | S(rot)=       0.00929470 Eh      5.83 kcal/mol|

                             ****ORCA TERMINATED NORMALLY****
TOTAL RUN TIME: 0 days 0 hours 12 minutes 35 seconds 0 msec
