                         Program Version 6.0.0  -   RELEASE  -
|  1> ! r2SCAN-3c DEF2-TZVP FREQ
|  2> * xyzfile 0 1 vacuum_censo.xyz
|  3>
|  4>                          ****END OF INPUT****

CARTESIAN COORDINATES (ANGSTROEM)
---------------------------------
  C     -2.801555    1.053576    0.000052
  O     -2.219976   -0.246529   -0.000016
  C     -0.859199   -0.329756   -0.000010
  C     -0.334128   -1.628100    0.000001
  C      1.039389   -1.800619    0.000014
  C      1.906960   -0.709131    0.000016
  C      1.366743    0.573182   -0.000001
  C     -0.013972    0.777734   -0.000015
  O      2.145583    1.699938   -0.000005
  H     -2.515106    1.618606   -0.896412
  H     -2.515004    1.618554    0.896515
  H     -3.880872    0.896287    0.000107
  H     -1.015465   -2.470419    0.000003
  H      1.450041   -2.805190    0.000027
  H      2.983112   -0.855733    0.000030
  H     -0.382017    1.795004   -0.000032
  H      3.072265    1.435695    0.000007

 Total Charge           Charge          ....    0
 Multiplicity           Mult            ....    1
 Number of Electrons    NEL             ....   66
 Basis Dimension        Dim             ....  327

ORBITAL ENERGIES
----------------

  NO   OCC          E(Eh)            E(eV)
   0   2.0000     -18.987473      -516.6754
   1   2.0000     -18.986218      -516.6413
   2   2.0000     -10.098047      -274.7818
   3   2.0000     -10.095362      -274.7088
   4   2.0000     -10.086823      -274.4764
   5   2.0000     -10.038831      -273.1705
   6   2.0000     -10.029103      -272.9058
   7   2.0000     -10.028479      -272.8888
   8   2.0000     -10.023315      -272.7483
   9   2.0000      -1.031079       -28.0571
  10   2.0000      -1.027226       -27.9522
  11   2.0000      -0.814576       -22.1657
  12   2.0000      -0.720359       -19.6020
  13   2.0000      -0.714081       -19.4311
  14   2.0000      -0.662225       -18.0200
  15   2.0000      -0.586835       -15.9686
  16   2.0000      -0.572199       -15.5703
  17   2.0000      -0.519204       -14.1283
  18   2.0000      -0.467747       -12.7281
  19   2.0000      -0.454474       -12.3669
  20   2.0000      -0.451050       -12.2737
  21   2.0000      -0.436420       -11.8756
  22   2.0000      -0.412591       -11.2272
  23   2.0000      -0.386331       -10.5126
  24   2.0000      -0.380592       -10.3564
  25   2.0000      -0.361130        -9.8268
  26   2.0000      -0.346581        -9.4309
  27   2.0000      -0.332569        -9.0497
  28   2.0000      -0.319136        -8.6841
  29   2.0000      -0.305143        -8.3034
  30   2.0000      -0.281566        -7.6618
  31   2.0000      -0.218826        -5.9546
  32   2.0000      -0.195824        -5.3286
  33   0.0000      -0.025559        -0.6955
  34   0.0000      -0.011595        -0.3155
  35   0.0000       0.037597         1.0231
  36   0.0000       0.054848         1.4925
  37   0.0000       0.061678         1.6784

MULLIKEN ATOMIC CHARGES
-----------------------
   0 C :   -0.161311
   1 O :   -0.265316
   2 C :    0.392658
   3 C :   -0.272383
   4 C :   -0.049571
   5 C :   -0.266917
   6 C :    0.280351
   7 C :   -0.330653
   8 O :   -0.399079
   9 H :    0.112606
  10 H :    0.112607
  11 H :    0.125657
  12 H :    0.102031
  13 H :    0.110275
  14 H :    0.092964
  15 H :    0.102211
  16 H :    0.313871
Sum of atomic charges:    0.0000000

LOEWDIN ATOMIC CHARGES
----------------------
   0 C :   -0.318927
   1 O :    0.237323
   2 C :   -0.249449
   3 C :   -0.137366
   4 C :   -0.141342
   5 C :   -0.169371
   6 C :   -0.273488
   7 C :   -0.127815
   8 O :    0.081423
   9 H :    0.107850
  10 H :    0.107851
  11 H :    0.113796
  12 H :    0.147064
  13 H :    0.144961
  14 H :    0.139065
  15 H :    0.151808
  16 H :    0.186618

  Mayer bond orders larger than 0.100000
B(  0-C ,  1-O ) :   0.9292 B(  0-C ,  9-H ) :   0.9650 B(  0-C , 10-H ) :   0.9650
B(  0-C , 11-H ) :   0.9765 B(  1-O ,  2-C ) :   1.1145 B(  2-C ,  3-C ) :   1.3141
B(  2-C ,  7-C ) :   1.2924 B(  3-C ,  4-C ) :   1.4414 B(  3-C , 12-H ) :   0.9888
B(  4-C ,  5-C ) :   1.3505 B(  4-C , 13-H ) :   0.9617 B(  5-C ,  6-C ) :   1.3479
B(  5-C , 14-H ) :   0.9684 B(  6-C ,  7-C ) :   1.3407 B(  6-C ,  8-O ) :   1.1355
B(  7-C , 15-H ) :   0.9764 B(  8-O , 16-H ) :   0.8867

Dispersion correction           -0.005306570
FINAL SINGLE POINT ENERGY      -421.934298428962

DIPOLE MOMENT
-------------

Method             : SCF
Type of density    : Electron Density
Multiplicity       :   1
Irrep              :   0
Energy             :  -421.9370415063199289 Eh
Relativity type    :
Basis              : AO
                                X                 Y                 Z
Electronic contribution:      2.842356084      -0.980248690      -0.000155411
Nuclear contribution   :     -2.608911974       1.195337904       0.000193432
                        -----------------------------------------
Total Dipole Moment    :      0.233444110       0.215089215       0.000038021
                        -----------------------------------------
Magnitude (a.u.)       :      0.317426407
Magnitude (Debye)      :      0.806833807

VIBRATIONAL FREQUENCIES
-----------------------

Scaling factor for frequencies =  1.000000000  (already applied!)

     0:       0.00 cm**-1
     1:       0.00 cm**-1
     2:       0.00 cm**-1
     3:       0.00 cm**-1
     4:       0.00 cm**-1
     5:       0.00 cm**-1
     6:     105.90 cm**-1
     7:     211.58 cm**-1
     8:     230.42 cm**-1
     9:     240.05 cm**-1
    10:     289.53 cm**-1
    11:     365.17 cm**-1
    12:     410.61 cm**-1
    13:     459.14 cm**-1
    14:     480.32 cm**-1
    15:     539.82 cm**-1
    16:     563.79 cm**-1
    17:     628.82 cm**-1
    18:     688.87 cm**-1
    19:     742.52 cm**-1
    20:     747.40 cm**-1
    21:     831.20 cm**-1
    22:     840.69 cm**-1
    23:     932.22 cm**-1
    24:     961.23 cm**-1
    25:    1013.24 cm**-1
    26:    1054.03 cm**-1
    27:    1102.27 cm**-1
    28:    1167.17 cm**-1
    29:    1167.80 cm**-1
    30:    1180.37 cm**-1
    31:    1204.40 cm**-1
    32:    1231.18 cm**-1
    33:    1308.78 cm**-1
    34:    1329.19 cm**-1
    35:    1379.46 cm**-1
    36:    1464.04 cm**-1
    37:    1485.15 cm**-1
    38:    1495.26 cm**-1
    39:    1512.42 cm**-1
    40:    1518.99 cm**-1
    41:    1628.55 cm**-1
    42:    1650.10 cm**-1
    43:    2981.33 cm**-1
    44:    3050.66 cm**-1
    45:    3121.07 cm**-1
    46:    3154.95 cm**-1
    47:    3172.80 cm**-1
    48:    3197.72 cm**-1
    49:    3214.49 cm**-1
    50:    3809.05 cm**-1

IR SPECTRUM
-----------

 Mode   freq       eps      Int      T**2         TX        TY        TZ
       cm**-1   L/(mol*cm) km/mol    a.u.
----------------------------------------------------------------------------
  6:    105.90   0.001252    6.32  0.003688  ( 0.000012  0.000003  0.060730)
  7:    211.58   0.000120    0.61  0.000178  (-0.000002 -0.000005 -0.013324)
  8:    230.42   0.000901    4.55  0.001220  (-0.029821 -0.018185  0.000001)
  9:    240.05   0.000174    0.88  0.000226  ( 0.000004  0.000002  0.015036)
 10:    289.53   0.000307    1.55  0.000331  (-0.000004 -0.000003  0.018200)
 11:    365.17   0.018140   91.67  0.015502  ( 0.000000 -0.000005 -0.124507)
 12:    410.61   0.000896    4.53  0.000681  (-0.004865 -0.025635  0.000002)
 13:    459.14   0.000415    2.10  0.000282  ( 0.000000  0.000005 -0.016790)
 14:    480.32   0.000010    0.05  0.000006  ( 0.000892  0.002361 -0.000003)
 15:    539.82   0.000438    2.21  0.000253  (-0.000139  0.015908 -0.000001)
 16:    563.79   0.001996   10.08  0.001105  ( 0.032503  0.006937 -0.000001)
 17:    628.82   0.000313    1.58  0.000155  (-0.000008  0.000002 -0.012459)
 18:    688.87   0.003848   19.44  0.001743  (-0.000005 -0.000001 -0.041749)
 19:    742.52   0.000126    0.64  0.000053  (-0.006029  0.004076  0.000005)
 20:    747.40   0.008972   45.34  0.003746  ( 0.000001  0.000002 -0.061207)
 21:    831.20   0.000510    2.58  0.000191  ( 0.000001 -0.000000 -0.013836)
 22:    840.69   0.006349   32.09  0.002357  ( 0.000000  0.000002 -0.048548)
 23:    932.22   0.000010    0.05  0.000003  ( 0.000000 -0.000000  0.001797)
 24:    961.23   0.014772   74.65  0.004796  (-0.050904 -0.046953 -0.000000)
 25:   1013.24   0.000034    0.17  0.000010  ( 0.003195 -0.000411 -0.000000)
 26:   1054.03   0.011275   56.98  0.003338  (-0.046619  0.034129  0.000002)
 27:   1102.27   0.000943    4.77  0.000267  (-0.007115  0.014711 -0.000000)
 28:   1167.17   0.000118    0.60  0.000032  (-0.000107 -0.000020  0.005618)
 29:   1167.80   0.036301  183.45  0.009700  ( 0.096671  0.018845  0.000006)
 30:   1180.37   0.006090   30.78  0.001610  ( 0.030842  0.025668  0.000000)
 31:   1204.40   0.009377   47.39  0.002430  (-0.029121 -0.039769 -0.000000)
 32:   1231.18   0.009635   48.69  0.002442  ( 0.040042 -0.028963 -0.000000)
 33:   1308.78   0.024474  123.68  0.005835  (-0.043961  0.062473  0.000000)
 34:   1329.19   0.007271   36.75  0.001707  ( 0.027803  0.030564 -0.000000)
 35:   1379.46   0.005528   27.94  0.001251  (-0.005400 -0.034949 -0.000000)
 36:   1464.04   0.004665   23.57  0.000994  (-0.028958 -0.012482 -0.000002)
 37:   1485.15   0.001646    8.32  0.000346  (-0.000005  0.000001  0.018595)
 38:   1495.26   0.007046   35.61  0.001471  (-0.038284  0.002206 -0.000002)
 39:   1512.42   0.004858   24.55  0.001002  ( 0.025860 -0.018264 -0.000000)
 40:   1518.99   0.018476   93.37  0.003796  ( 0.060300  0.012638 -0.000000)
 41:   1628.55   0.029528  149.22  0.005658  ( 0.045630  0.059801 -0.000001)
 42:   1650.10   0.026059  131.69  0.004928  ( 0.067323 -0.019897  0.000000)
 43:   2981.33   0.010070   50.89  0.001054  (-0.018040  0.026993 -0.000001)
 44:   3050.66   0.007210   36.44  0.000738  ( 0.000000  0.000001  0.027158)
 45:   3121.07   0.004139   20.91  0.000414  (-0.020199 -0.002409  0.000000)
 46:   3154.95   0.002113   10.68  0.000209  ( 0.010754  0.009660  0.000000)
 47:   3172.80   0.002491   12.59  0.000245  ( 0.013039 -0.008662  0.000000)
 48:   3197.72   0.000683    3.45  0.000067  ( 0.002504  0.007772 -0.000000)
 49:   3214.49   0.000214    1.08  0.000021  ( 0.002816 -0.003584 -0.000000)
 50:   3809.05   0.010984   55.51  0.000900  (-0.029110 -0.007246 -0.000000)

--------------------------
THERMOCHEMISTRY AT 298.15K
--------------------------

Temperature         ...   298.15 K
Pressure            ...     1.00 atm
Total Mass          ...   124.14 AMU
Quasi RRHO          ...     True
Cut-Off Frequency   ...     1.00 cm^-1

Throughout the following assumptions are being made:
  (1) The electronic state is orbitally nondegenerate
  (2) There are no thermally accessible electronically excited states
  (3) Hindered rotations indicated by low frequency modes are not
      treated as such but are treated as vibrations and this may
      cause some error
  (4) All equations used are the standard statistical mechanics
      equations for an ideal gas
  (5) All vibrations are strictly harmonic

freq.     105.90  E(vib)   ...       0.45
freq.     211.58  E(vib)   ...       0.34
freq.     230.42  E(vib)   ...       0.32
freq.     240.05  E(vib)   ...       0.31
freq.     289.53  E(vib)   ...       0.27
freq.     365.17  E(vib)   ...       0.22
freq.     410.61  E(vib)   ...       0.19
freq.     459.14  E(vib)   ...       0.16
freq.     480.32  E(vib)   ...       0.15
freq.     539.82  E(vib)   ...       0.12
freq.     563.79  E(vib)   ...       0.11
freq.     628.82  E(vib)   ...       0.09
freq.     688.87  E(vib)   ...       0.07
freq.     742.52  E(vib)   ...       0.06
freq.     747.40  E(vib)   ...       0.06
freq.     831.20  E(vib)   ...       0.04
freq.     840.69  E(vib)   ...       0.04
freq.     932.22  E(vib)   ...       0.03
freq.     961.23  E(vib)   ...       0.03
freq.    1013.24  E(vib)   ...       0.02
freq.    1054.03  E(vib)   ...       0.02
freq.    1102.27  E(vib)   ...       0.02
freq.    1167.17  E(vib)   ...       0.01
freq.    1167.80  E(vib)   ...       0.01
freq.    1180.37  E(vib)   ...       0.01
freq.    1204.40  E(vib)   ...       0.01
freq.    1231.18  E(vib)   ...       0.01
freq.    1308.78  E(vib)   ...       0.01
freq.    1329.19  E(vib)   ...       0.01
freq.    1379.46  E(vib)   ...       0.01
freq.    1464.04  E(vib)   ...       0.00
freq.    1485.15  E(vib)   ...       0.00
freq.    1495.26  E(vib)   ...       0.00
freq.    1512.42  E(vib)   ...       0.00
freq.    1518.99  E(vib)   ...       0.00
freq.    1628.55  E(vib)   ...       0.00
freq.    1650.10  E(vib)   ...       0.00
freq.    2981.33  E(vib)   ...       0.00
freq.    3050.66  E(vib)   ...       0.00
freq.    3121.07  E(vib)   ...       0.00
freq.    3154.95  E(vib)   ...       0.00
freq.    3172.80  E(vib)   ...       0.00
freq.    3197.72  E(vib)   ...       0.00
freq.    3214.49  E(vib)   ...       0.00
freq.    3809.05  E(vib)   ...       0.00

------------
INNER ENERGY
------------

The inner energy is: U= E(el) + E(ZPE) + E(vib) + E(rot) + E(trans)
    E(el)   - is the total energy from the electronic structure calculation
              = E(kin-el) + E(nuc-el) + E(el-el) + E(nuc-nuc)
    E(ZPE)  - the the zero temperature vibrational energy from the frequency calculation
    E(vib)  - the the finite temperature correction to E(ZPE) due to population
              of excited vibrational states
    E(rot)  - is the rotational thermal energy
    E(trans)- is the translational thermal energy

Summary of contributions to the inner energy U:
Electronic energy                ...   -421.93429843 Eh
Zero point energy                ...      0.13637963 Eh      85.58 kcal/mol
Thermal vibrational correction   ...      0.00514977 Eh       3.23 kcal/mol
Thermal rotational correction    ...      0.00141627 Eh       0.89 kcal/mol
Thermal translational correction ...      0.00141627 Eh       0.89 kcal/mol
-----------------------------------------------------------------------
Total thermal energy                   -421.78993649 Eh

Summary of corrections to the electronic energy:
(perhaps to be used in another calculation)
Total thermal correction                  0.00798231 Eh       5.01 kcal/mol
Non-thermal (ZPE) correction              0.13637963 Eh      85.58 kcal/mol
-----------------------------------------------------------------------
Total correction                          0.14436194 Eh      90.59 kcal/mol

--------
ENTHALPY
--------

The enthalpy is H = U + kB*T
                kB is Boltzmann's constant
Total thermal energy              ...   -421.78993649 Eh
Thermal Enthalpy correction       ...      0.00094421 Eh       0.59 kcal/mol
-----------------------------------------------------------------------
Total Enthalpy                    ...   -421.78899228 Eh

Note: Only C1 symmetry has been detected, increase convergence thresholds
      if your molecule has a higher symmetry. Symmetry factor of 1.0 is
      used for the rotational entropy correction.

Note: Rotational entropy computed according to Herzberg
Infrared and Raman Spectra, Chapter V,1, Van Nostrand Reinhold, 1945
Point Group:  C1, Symmetry Number:   1
Rotational constants in cm-1:     0.094848     0.043513     0.030001

Vibrational entropy computed according to the QRRHO of S. Grimme
Chem.Eur.J. 2012 18 9955 using a reference frequency of 100.0 cm-1

-------
ENTROPY
-------

The entropy contributions are T*S = T*(S(el)+S(vib)+S(rot)+S(trans))
     S(el)   - electronic entropy
     S(vib)  - vibrational entropy
     S(rot)  - rotational entropy
     S(trans)- translational entropy
The entropies will be listed as multiplied by the temperature to get
units of energy

Electronic entropy                ...      0.00000000 Eh      0.00 kcal/mol
Vibrational entropy               ...      0.00822626 Eh      5.16 kcal/mol
Rotational entropy                ...      0.01375807 Eh      8.63 kcal/mol
Translational entropy             ...      0.01917748 Eh     12.03 kcal/mol
-----------------------------------------------------------------------
Final entropy term                ...      0.04116182 Eh     25.83 kcal/mol

In case the symmetry of your molecule has not been determined correctly
or in case you have a reason to use a different symmetry number we print
out the resulting rotational entropy values for sn=1,12:

 non-linear molecules -----------------------------------
|  sn= 1 | S(rot)=       0.01375807 Eh      8.63 kcal/mol|
|  sn= 2 | S(rot)=       0.01310361 Eh      8.22 kcal/mol|
|  sn= 3 | S(rot)=       0.01272078 Eh      7.98 kcal/mol|
|  sn= 4 | S(rot)=       0.01244916 Eh      7.81 kcal/mol|
|  sn= 5 | S(rot)=       0.01223847 Eh      7.68 kcal/mol|
|  sn= 6 | S(rot)=       0.01206633 Eh      7.57 kcal/mol|
|  sn= 7 | S(rot)=       0.01192078 Eh      7.48 kcal/mol|
|  sn= 8 | S(rot)=       0.01179470 Eh      7.40 kcal/mol|
|  sn= 9 | S(rot)=       0.01168349 Eh      7.33 kcal/mol|
|  sn=10 | S(rot)=       0.01158401 Eh      7.27 kcal/mol|
|  sn=11 | S(rot)=       0.01149402 Eh      7.21 kcal/mol|
|  sn=12 | S(rot)=       0.01141187 Eh      7.16 kcal/mol|
 linear molecules ---------------------------------------
|  Dinfh | S(rot)=       0.00863661 Eh      5.42 kcal/mol|
|  Cinfv | S(rot)=       0.00929107 Eh      5.83 kcal/mol|

                             ****ORCA TERMINATED NORMALLY****
TOTAL RUN TIME: 0 days 0 hours 12 minutes 56 seconds 939 msec
