                         Program Version 6.0.1  -  RELEASE   -
|  1> ! pbe def2-sv(p) def2/J RI DEFGRID1 loosescf d4 GCP(DFT/SV(P)) printgap
|  2> %output
|  3>     printlevel normal
|  4> end
|  5> * xyz 0 1
|  6> C -1.5776220665 0.8930540913 0.2942086111
|  7> C -1.3254612968 -0.4789424238 -0.316972047
|  8> C 0.0806933254 -1.0030114977 -0.3840218746
|  9> C 1.2642149429 -0.4830231115 -0.0937578186
| 10> C 1.6485523211 0.8664648988 0.4217781499
| 11> H -2.6513277264 1.0616201148 0.3660432832
| 12> H -1.159577473 1.6828345197 -0.3245203274
| 13> H -1.1580669871 0.9555237499 1.2949108769
| 14> H -1.9059575935 -1.2185916047 0.2463306919
| 15> H -1.7250409434 -0.4888943228 -1.3377410704
| 16> H 0.086312022 -2.0258249934 -0.7492436139
| 17> H 2.1228454475 -1.1318478939 -0.2335267343
| 18> H 0.8480049253 1.5913655798 0.3624383941
| 19> H 2.4991406626 1.2397825824 -0.1483244633
| 20> H 1.9666552023 0.782446349 1.4622639434
| 21> *
| 22>
| 23>                          ****END OF INPUT****

CARTESIAN COORDINATES (ANGSTROEM)
---------------------------------
  C     -1.577622    0.893054    0.294209
  C     -1.325461   -0.478942   -0.316972
  C      0.080693   -1.003011   -0.384022
  C      1.264215   -0.483023   -0.093758
  C      1.648552    0.866465    0.421778
  H     -2.651328    1.061620    0.366043
  H     -1.159577    1.682835   -0.324520
  H     -1.158067    0.955524    1.294911
  H     -1.905958   -1.218592    0.246331
  H     -1.725041   -0.488894   -1.337741
  H      0.086312   -2.025825   -0.749244
  H      2.122845   -1.131848   -0.233527
  H      0.848005    1.591366    0.362438
  H      2.499141    1.239783   -0.148324
  H      1.966655    0.782446    1.462264

 Total Charge           Charge          ....    0
 Multiplicity           Mult            ....    1
 Number of Electrons    NEL             ....   40
 Basis Dimension        Dim             ....   90

ORBITAL ENERGIES
----------------

  NO   OCC          E(Eh)            E(eV)
   0   2.0000      -9.888497      -269.0797
   1   2.0000      -9.880165      -268.8530
   2   2.0000      -9.879590      -268.8373
   3   2.0000      -9.874251      -268.6920
   4   2.0000      -9.874202      -268.6907
   5   2.0000      -0.719547       -19.5799
   6   2.0000      -0.670361       -18.2414
   7   2.0000      -0.614119       -16.7110
   8   2.0000      -0.549829       -14.9616
   9   2.0000      -0.458812       -12.4849
  10   2.0000      -0.419035       -11.4025
  11   2.0000      -0.401433       -10.9235
  12   2.0000      -0.371231       -10.1017
  13   2.0000      -0.361540        -9.8380
  14   2.0000      -0.343524        -9.3478
  15   2.0000      -0.337125        -9.1736
  16   2.0000      -0.312317        -8.4986
  17   2.0000      -0.292605        -7.9622
  18   2.0000      -0.272886        -7.4256
  19   2.0000      -0.207379        -5.6431
  20   0.0000       0.001816         0.0494
  21   0.0000       0.037735         1.0268
  22   0.0000       0.067561         1.8384
  23   0.0000       0.071102         1.9348
  24   0.0000       0.095210         2.5908

MULLIKEN ATOMIC CHARGES
-----------------------
   0 C :   -0.287945
   1 C :   -0.136574
   2 C :   -0.141684
   3 C :   -0.168607
   4 C :   -0.223550
   5 H :    0.097706
   6 H :    0.120524
   7 H :    0.113756
   8 H :    0.091971
   9 H :    0.096351
  10 H :    0.061075
  11 H :    0.061801
  12 H :    0.101586
  13 H :    0.102647
  14 H :    0.110943
Sum of atomic charges:    0.0000000

LOEWDIN ATOMIC CHARGES
----------------------
   0 C :   -0.343462
   1 C :   -0.232157
   2 C :   -0.154515
   3 C :   -0.159219
   4 C :   -0.342562
   5 H :    0.120077
   6 H :    0.119781
   7 H :    0.120956
   8 H :    0.126102
   9 H :    0.127313
  10 H :    0.118604
  11 H :    0.118533
  12 H :    0.123752
  13 H :    0.126646
  14 H :    0.130151

  Mayer bond orders larger than 0.100000
B(  0-C ,  1-C ) :   1.1672 B(  0-C ,  5-H ) :   0.9430 B(  0-C ,  6-H ) :   0.9408
B(  0-C ,  7-H ) :   0.9505 B(  1-C ,  2-C ) :   1.0857 B(  1-C ,  8-H ) :   0.9099
B(  1-C ,  9-H ) :   0.9070 B(  2-C ,  3-C ) :   2.0371 B(  2-C , 10-H ) :   0.9127
B(  3-C ,  4-C ) :   1.1152 B(  3-C , 11-H ) :   0.9142 B(  4-C , 12-H ) :   0.9368
B(  4-C , 13-H ) :   0.9350 B(  4-C , 14-H ) :   0.9319

Dispersion correction           -0.010142658
FINAL SINGLE POINT ENERGY      -196.025953799034

DIPOLE MOMENT
-------------

Method             : SCF
Type of density    : Electron Density
Multiplicity       :   1
Irrep              :   0
Energy             :  -196.0739459217055298 Eh
Relativity type    :
Basis              : AO
                                X                 Y                 Z
Electronic contribution:      0.925906807      -2.230767774      -0.853820962
Nuclear contribution   :     -1.010413287       2.297011596       0.880588893
                        -----------------------------------------
Total Dipole Moment    :     -0.084506479       0.066243823       0.026767932
                        -----------------------------------------
Magnitude (a.u.)       :      0.110662149
Magnitude (Debye)      :      0.281280829

Rotational constants in cm-1:             0.257513             0.120277             0.085967
Rotational constants in MHz :          7720.035941          3605.822648          2577.221938

                             ****ORCA TERMINATED NORMALLY****
TOTAL RUN TIME: 0 days 0 hours 0 minutes 5 seconds 750 msec
