                         Program Version 6.0.0  -   RELEASE  -
|  1> ! r2SCAN-3c DEF2-TZVP FREQ
|  2> * xyzfile 0 1 censo.xyz
|  3>
|  4>                          ****END OF INPUT****

CARTESIAN COORDINATES (ANGSTROEM)
---------------------------------
  C     -2.979003   -0.354913   -0.001877
  C     -1.968750    0.521970    0.002051
  C     -0.534164    0.216460    0.000998
  C      0.381724    1.279874    0.000177
  C      1.753595    1.046283   -0.000897
  C      2.238934   -0.258636   -0.001009
  C      1.339742   -1.326567   -0.000076
  C     -0.029198   -1.094581    0.000924
  H     -4.007373   -0.007715   -0.001042
  H     -2.823712   -1.430185   -0.006794
  H     -2.204784    1.585650    0.005457
  H      0.006367    2.299733    0.000357
  H      2.443602    1.884520   -0.001509
  H      3.308199   -0.445288   -0.001759
  H      1.710731   -2.347009    0.000120
  H     -0.710070   -1.939770    0.002028

 Total Charge           Charge          ....    0
 Multiplicity           Mult            ....    1
 Number of Electrons    NEL             ....   56
 Basis Dimension        Dim             ....  296

ORBITAL ENERGIES
----------------

  NO   OCC          E(Eh)            E(eV)
   0   2.0000     -10.049911      -273.4720
   1   2.0000     -10.044097      -273.3138
   2   2.0000     -10.040427      -273.2139
   3   2.0000     -10.040277      -273.2098
   4   2.0000     -10.039859      -273.1984
   5   2.0000     -10.039490      -273.1884
   6   2.0000     -10.039307      -273.1834
   7   2.0000     -10.031961      -272.9835
   8   2.0000      -0.828327       -22.5399
   9   2.0000      -0.759156       -20.6577
  10   2.0000      -0.717041       -19.5117
  11   2.0000      -0.694687       -18.9034
  12   2.0000      -0.594984       -16.1903
  13   2.0000      -0.574970       -15.6457
  14   2.0000      -0.529378       -14.4051
  15   2.0000      -0.483891       -13.1673
  16   2.0000      -0.444590       -12.0979
  17   2.0000      -0.425789       -11.5863
  18   2.0000      -0.409453       -11.1418
  19   2.0000      -0.390817       -10.6347
  20   2.0000      -0.381000       -10.3675
  21   2.0000      -0.355266        -9.6673
  22   2.0000      -0.341746        -9.2994
  23   2.0000      -0.315625        -8.5886
  24   2.0000      -0.309541        -8.4230
  25   2.0000      -0.284861        -7.7515
  26   2.0000      -0.240480        -6.5438
  27   2.0000      -0.213112        -5.7991
  28   0.0000      -0.067660        -1.8411
  29   0.0000      -0.036508        -0.9934
  30   0.0000       0.020244         0.5509
  31   0.0000       0.056544         1.5386
  32   0.0000       0.070796         1.9265

MULLIKEN ATOMIC CHARGES
-----------------------
   0 C :   -0.233418
   1 C :   -0.192815
   2 C :    0.280341
   3 C :   -0.187254
   4 C :   -0.099851
   5 C :   -0.126324
   6 C :   -0.084136
   7 C :   -0.205637
   8 H :    0.124776
   9 H :    0.106584
  10 H :    0.094801
  11 H :    0.102388
  12 H :    0.108406
  13 H :    0.110905
  14 H :    0.109092
  15 H :    0.092140
Sum of atomic charges:    0.0000000

LOEWDIN ATOMIC CHARGES
----------------------
   0 C :   -0.192051
   1 C :   -0.158974
   2 C :   -0.140858
   3 C :   -0.103480
   4 C :   -0.140056
   5 C :   -0.139877
   6 C :   -0.138676
   7 C :   -0.094890
   8 H :    0.122884
   9 H :    0.118952
  10 H :    0.147264
  11 H :    0.145551
  12 H :    0.143404
  13 H :    0.142476
  14 H :    0.143459
  15 H :    0.144871

  Mayer bond orders larger than 0.100000
B(  0-C ,  1-C ) :   1.8558 B(  0-C ,  8-H ) :   0.9630 B(  0-C ,  9-H ) :   0.9554
B(  1-C ,  2-C ) :   0.9604 B(  1-C , 10-H ) :   0.9736 B(  2-C ,  3-C ) :   1.3130
B(  2-C ,  7-C ) :   1.2853 B(  3-C ,  4-C ) :   1.4166 B(  3-C , 11-H ) :   0.9723
B(  4-C ,  5-C ) :   1.3955 B(  4-C , 12-H ) :   0.9716 B(  5-C ,  6-C ) :   1.3660
B(  5-C , 13-H ) :   0.9681 B(  6-C ,  7-C ) :   1.4475 B(  6-C , 14-H ) :   0.9690
B(  7-C , 15-H ) :   0.9756

Dispersion correction           -0.005112908
FINAL SINGLE POINT ENERGY      -309.579166420270

DIPOLE MOMENT
-------------

Method             : SCF
Type of density    : Electron Density
Multiplicity       :   1
Irrep              :   0
Energy             :  -309.5776144595160986 Eh
Relativity type    :
Basis              : AO
                                X                 Y                 Z
Electronic contribution:      2.232111863       0.373361816       0.002697177
Nuclear contribution   :     -2.146464189      -0.372141707      -0.002971057
                        -----------------------------------------
Total Dipole Moment    :      0.085647674       0.001220109      -0.000273880
                        -----------------------------------------
Magnitude (a.u.)       :      0.085656802
Magnitude (Debye)      :      0.217722289

VIBRATIONAL FREQUENCIES
-----------------------

Scaling factor for frequencies =  1.000000000  (already applied!)

     0:       0.00 cm**-1
     1:       0.00 cm**-1
     2:       0.00 cm**-1
     3:       0.00 cm**-1
     4:       0.00 cm**-1
     5:       0.00 cm**-1
     6:      63.94 cm**-1
     7:     212.16 cm**-1
     8:     248.81 cm**-1
     9:     408.68 cm**-1
    10:     445.37 cm**-1
    11:     453.21 cm**-1
    12:     565.52 cm**-1
    13:     636.47 cm**-1
    14:     659.62 cm**-1
    15:     704.76 cm**-1
    16:     791.52 cm**-1
    17:     798.47 cm**-1
    18:     841.45 cm**-1
    19:     915.78 cm**-1
    20:     918.61 cm**-1
    21:     951.07 cm**-1
    22:     974.96 cm**-1
    23:    1017.84 cm**-1
    24:    1023.00 cm**-1
    25:    1042.76 cm**-1
    26:    1056.33 cm**-1
    27:    1111.17 cm**-1
    28:    1181.71 cm**-1
    29:    1200.61 cm**-1
    30:    1225.80 cm**-1
    31:    1319.75 cm**-1
    32:    1347.57 cm**-1
    33:    1356.91 cm**-1
    34:    1449.10 cm**-1
    35:    1478.20 cm**-1
    36:    1520.32 cm**-1
    37:    1606.36 cm**-1
    38:    1629.01 cm**-1
    39:    1669.24 cm**-1
    40:    3119.40 cm**-1
    41:    3125.92 cm**-1
    42:    3150.26 cm**-1
    43:    3156.39 cm**-1
    44:    3165.60 cm**-1
    45:    3173.81 cm**-1
    46:    3182.05 cm**-1
    47:    3210.89 cm**-1

IR SPECTRUM
-----------

 Mode   freq       eps      Int      T**2         TX        TY        TZ
       cm**-1   L/(mol*cm) km/mol    a.u.
----------------------------------------------------------------------------
  6:     63.94   0.000002    0.01  0.000011  ( 0.000300 -0.000025  0.003322)
  7:    212.16   0.000416    2.10  0.000612  ( 0.000085 -0.000208 -0.024734)
  8:    248.81   0.000093    0.47  0.000117  ( 0.010614  0.002057 -0.000117)
  9:    408.68   0.000070    0.35  0.000053  ( 0.000297  0.000184 -0.007301)
 10:    445.37   0.001973    9.97  0.001383  (-0.000150 -0.000331  0.037182)
 11:    453.21   0.000028    0.14  0.000020  ( 0.001994  0.003774  0.001150)
 12:    565.52   0.001055    5.33  0.000582  ( 0.024012 -0.002405 -0.000142)
 13:    636.47   0.000011    0.05  0.000005  ( 0.002253 -0.000378 -0.000019)
 14:    659.62   0.000086    0.43  0.000041  ( 0.000017 -0.000002  0.006375)
 15:    704.76   0.009064   45.81  0.004014  ( 0.000144 -0.000046 -0.063353)
 16:    791.52   0.000022    0.11  0.000009  ( 0.002925  0.000368  0.000283)
 17:    798.47   0.005733   28.97  0.002240  (-0.000065 -0.000122  0.047334)
 18:    841.45   0.000127    0.64  0.000047  (-0.000130 -0.000069 -0.006857)
 19:    915.78   0.000083    0.42  0.000028  ( 0.000084  0.000115 -0.005302)
 20:    918.61   0.009019   45.58  0.003064  (-0.000126 -0.000357  0.055351)
 21:    951.07   0.000012    0.06  0.000004  ( 0.000108  0.000112 -0.001973)
 22:    974.96   0.000021    0.10  0.000007  ( 0.000084  0.000031  0.002566)
 23:   1017.84   0.000161    0.81  0.000049  ( 0.006712 -0.002057  0.000231)
 24:   1023.00   0.003190   16.12  0.000973  ( 0.000029 -0.000142  0.031192)
 25:   1042.76   0.001118    5.65  0.000335  ( 0.017641 -0.004831 -0.000045)
 26:   1056.33   0.000076    0.38  0.000022  ( 0.001392 -0.004513 -0.000005)
 27:   1111.17   0.001056    5.34  0.000297  ( 0.007065  0.015706  0.000002)
 28:   1181.71   0.000038    0.19  0.000010  ( 0.003055 -0.000758 -0.000004)
 29:   1200.61   0.000036    0.18  0.000009  ( 0.002810  0.001157  0.000020)
 30:   1225.80   0.000364    1.84  0.000093  (-0.009498 -0.001595 -0.000009)
 31:   1319.75   0.000378    1.91  0.000089  (-0.009304 -0.001687 -0.000014)
 32:   1347.57   0.000424    2.14  0.000098  ( 0.008179 -0.005583 -0.000031)
 33:   1356.91   0.000302    1.53  0.000069  ( 0.004052 -0.007280 -0.000018)
 34:   1449.10   0.001172    5.92  0.000252  (-0.001284 -0.015834 -0.000050)
 35:   1478.20   0.000780    3.94  0.000165  ( 0.008814 -0.009324  0.000019)
 36:   1520.32   0.001855    9.38  0.000381  ( 0.019504  0.000655  0.000001)
 37:   1606.36   0.000753    3.81  0.000146  ( 0.008717  0.008390  0.000004)
 38:   1629.01   0.000178    0.90  0.000034  ( 0.005829 -0.000160  0.000003)
 39:   1669.24   0.003384   17.10  0.000633  ( 0.022914  0.010378  0.000047)
 40:   3119.40   0.002553   12.90  0.000255  (-0.003932  0.015491  0.000061)
 41:   3125.92   0.000816    4.12  0.000081  (-0.008855  0.001748  0.000006)
 42:   3150.26   0.001279    6.46  0.000127  (-0.008897  0.006897  0.000009)
 43:   3156.39   0.000010    0.05  0.000001  (-0.000547 -0.000847 -0.000002)
 44:   3165.60   0.002634   13.31  0.000260  ( 0.008699 -0.013563 -0.000011)
 45:   3173.81   0.005278   26.67  0.000519  (-0.011551 -0.019635  0.000020)
 46:   3182.05   0.002289   11.57  0.000224  (-0.014140  0.004952  0.000000)
 47:   3210.89   0.002088   10.55  0.000203  ( 0.009191 -0.010882 -0.000042)

--------------------------
THERMOCHEMISTRY AT 298.15K
--------------------------

Temperature         ...   298.15 K
Pressure            ...     1.00 atm
Total Mass          ...   104.15 AMU
Quasi RRHO          ...     True
Cut-Off Frequency   ...     1.00 cm^-1

Throughout the following assumptions are being made:
  (1) The electronic state is orbitally nondegenerate
  (2) There are no thermally accessible electronically excited states
  (3) Hindered rotations indicated by low frequency modes are not
      treated as such but are treated as vibrations and this may
      cause some error
  (4) All equations used are the standard statistical mechanics
      equations for an ideal gas
  (5) All vibrations are strictly harmonic

freq.      63.94  E(vib)   ...       0.51
freq.     212.16  E(vib)   ...       0.34
freq.     248.81  E(vib)   ...       0.31
freq.     408.68  E(vib)   ...       0.19
freq.     445.37  E(vib)   ...       0.17
freq.     453.21  E(vib)   ...       0.16
freq.     565.52  E(vib)   ...       0.11
freq.     636.47  E(vib)   ...       0.09
freq.     659.62  E(vib)   ...       0.08
freq.     704.76  E(vib)   ...       0.07
freq.     791.52  E(vib)   ...       0.05
freq.     798.47  E(vib)   ...       0.05
freq.     841.45  E(vib)   ...       0.04
freq.     915.78  E(vib)   ...       0.03
freq.     918.61  E(vib)   ...       0.03
freq.     951.07  E(vib)   ...       0.03
freq.     974.96  E(vib)   ...       0.03
freq.    1017.84  E(vib)   ...       0.02
freq.    1023.00  E(vib)   ...       0.02
freq.    1042.76  E(vib)   ...       0.02
freq.    1056.33  E(vib)   ...       0.02
freq.    1111.17  E(vib)   ...       0.01
freq.    1181.71  E(vib)   ...       0.01
freq.    1200.61  E(vib)   ...       0.01
freq.    1225.80  E(vib)   ...       0.01
freq.    1319.75  E(vib)   ...       0.01
freq.    1347.57  E(vib)   ...       0.01
freq.    1356.91  E(vib)   ...       0.01
freq.    1449.10  E(vib)   ...       0.00
freq.    1478.20  E(vib)   ...       0.00
freq.    1520.32  E(vib)   ...       0.00
freq.    1606.36  E(vib)   ...       0.00
freq.    1629.01  E(vib)   ...       0.00
freq.    1669.24  E(vib)   ...       0.00
freq.    3119.40  E(vib)   ...       0.00
freq.    3125.92  E(vib)   ...       0.00
freq.    3150.26  E(vib)   ...       0.00
freq.    3156.39  E(vib)   ...       0.00
freq.    3165.60  E(vib)   ...       0.00
freq.    3173.81  E(vib)   ...       0.00
freq.    3182.05  E(vib)   ...       0.00
freq.    3210.89  E(vib)   ...       0.00

------------
INNER ENERGY
------------

The inner energy is: U= E(el) + E(ZPE) + E(vib) + E(rot) + E(trans)
    E(el)   - is the total energy from the electronic structure calculation
              = E(kin-el) + E(nuc-el) + E(el-el) + E(nuc-nuc)
    E(ZPE)  - the the zero temperature vibrational energy from the frequency calculation
    E(vib)  - the the finite temperature correction to E(ZPE) due to population
              of excited vibrational states
    E(rot)  - is the rotational thermal energy
    E(trans)- is the translational thermal energy

Summary of contributions to the inner energy U:
Electronic energy                ...   -309.57916642 Eh
Zero point energy                ...      0.13238532 Eh      83.07 kcal/mol
Thermal vibrational correction   ...      0.00389650 Eh       2.45 kcal/mol
Thermal rotational correction    ...      0.00141627 Eh       0.89 kcal/mol
Thermal translational correction ...      0.00141627 Eh       0.89 kcal/mol
-----------------------------------------------------------------------
Total thermal energy                   -309.44005206 Eh

Summary of corrections to the electronic energy:
(perhaps to be used in another calculation)
Total thermal correction                  0.00672904 Eh       4.22 kcal/mol
Non-thermal (ZPE) correction              0.13238532 Eh      83.07 kcal/mol
-----------------------------------------------------------------------
Total correction                          0.13911436 Eh      87.30 kcal/mol

--------
ENTHALPY
--------

The enthalpy is H = U + kB*T
                kB is Boltzmann's constant
Total thermal energy              ...   -309.44005206 Eh
Thermal Enthalpy correction       ...      0.00094421 Eh       0.59 kcal/mol
-----------------------------------------------------------------------
Total Enthalpy                    ...   -309.43910785 Eh

Note: Only C1 symmetry has been detected, increase convergence thresholds
      if your molecule has a higher symmetry. Symmetry factor of 1.0 is
      used for the rotational entropy correction.

Note: Rotational entropy computed according to Herzberg
Infrared and Raman Spectra, Chapter V,1, Van Nostrand Reinhold, 1945
Point Group:  C1, Symmetry Number:   1
Rotational constants in cm-1:     0.172802     0.051605     0.039738

Vibrational entropy computed according to the QRRHO of S. Grimme
Chem.Eur.J. 2012 18 9955 using a reference frequency of 100.0 cm-1

-------
ENTROPY
-------

The entropy contributions are T*S = T*(S(el)+S(vib)+S(rot)+S(trans))
     S(el)   - electronic entropy
     S(vib)  - vibrational entropy
     S(rot)  - rotational entropy
     S(trans)- translational entropy
The entropies will be listed as multiplied by the temperature to get
units of energy

Electronic entropy                ...      0.00000000 Eh      0.00 kcal/mol
Vibrational entropy               ...      0.00619064 Eh      3.88 kcal/mol
Rotational entropy                ...      0.01326167 Eh      8.32 kcal/mol
Translational entropy             ...      0.01892886 Eh     11.88 kcal/mol
-----------------------------------------------------------------------
Final entropy term                ...      0.03838117 Eh     24.08 kcal/mol

In case the symmetry of your molecule has not been determined correctly
or in case you have a reason to use a different symmetry number we print
out the resulting rotational entropy values for sn=1,12:

 non-linear molecules -----------------------------------
|  sn= 1 | S(rot)=       0.01326167 Eh      8.32 kcal/mol|
|  sn= 2 | S(rot)=       0.01260721 Eh      7.91 kcal/mol|
|  sn= 3 | S(rot)=       0.01222438 Eh      7.67 kcal/mol|
|  sn= 4 | S(rot)=       0.01195276 Eh      7.50 kcal/mol|
|  sn= 5 | S(rot)=       0.01174207 Eh      7.37 kcal/mol|
|  sn= 6 | S(rot)=       0.01156992 Eh      7.26 kcal/mol|
|  sn= 7 | S(rot)=       0.01142438 Eh      7.17 kcal/mol|
|  sn= 8 | S(rot)=       0.01129830 Eh      7.09 kcal/mol|
|  sn= 9 | S(rot)=       0.01118709 Eh      7.02 kcal/mol|
|  sn=10 | S(rot)=       0.01108761 Eh      6.96 kcal/mol|
|  sn=11 | S(rot)=       0.01099762 Eh      6.90 kcal/mol|
|  sn=12 | S(rot)=       0.01091547 Eh      6.85 kcal/mol|
 linear molecules ---------------------------------------
|  Dinfh | S(rot)=       0.00837122 Eh      5.25 kcal/mol|
|  Cinfv | S(rot)=       0.00902568 Eh      5.66 kcal/mol|
 --------------------------------------------------------

                             ****ORCA TERMINATED NORMALLY****
TOTAL RUN TIME: 0 days 0 hours 10 minutes 58 seconds 367 msec
