                         Program Version 6.0.0  -   RELEASE  -
|  1> ! r2SCAN-3c DEF2-TZVP FREQ
|  2> * xyzfile 0 1 vacuum_censo.xyz
|  3>
|  4>                          ****END OF INPUT****

CARTESIAN COORDINATES (ANGSTROEM)
---------------------------------
  C     -2.980309    0.352509    0.022122
  C     -1.967607   -0.518410   -0.015531
  C     -0.534048   -0.215743   -0.009407
  C      0.382214   -1.276931   -0.000516
  C      1.752899   -1.045020    0.009198
  C      2.238579    0.258204    0.008472
  C      1.340306    1.325079   -0.003010
  C     -0.026885    1.092664   -0.012449
  H     -4.008101    0.007604    0.012718
  H     -2.827656    1.426271    0.064758
  H     -2.205781   -1.580874   -0.051696
  H      0.007679   -2.297031    0.000218
  H      2.442281   -1.883420    0.016850
  H      3.307639    0.444328    0.015149
  H      1.711399    2.345235   -0.006454
  H     -0.707906    1.937070   -0.025507

 Total Charge           Charge          ....    0
 Multiplicity           Mult            ....    1
 Number of Electrons    NEL             ....   56
 Basis Dimension        Dim             ....  296

ORBITAL ENERGIES
----------------

  NO   OCC          E(Eh)            E(eV)
   0   2.0000     -10.049510      -273.4611
   1   2.0000     -10.043750      -273.3043
   2   2.0000     -10.039980      -273.2018
   3   2.0000     -10.039870      -273.1988
   4   2.0000     -10.039444      -273.1872
   5   2.0000     -10.038984      -273.1747
   6   2.0000     -10.038888      -273.1720
   7   2.0000     -10.031532      -272.9719
   8   2.0000      -0.829035       -22.5592
   9   2.0000      -0.759622       -20.6704
  10   2.0000      -0.717283       -19.5183
  11   2.0000      -0.695228       -18.9181
  12   2.0000      -0.595204       -16.1963
  13   2.0000      -0.575202       -15.6520
  14   2.0000      -0.529679       -14.4133
  15   2.0000      -0.484146       -13.1743
  16   2.0000      -0.444756       -12.1024
  17   2.0000      -0.425982       -11.5916
  18   2.0000      -0.409528       -11.1438
  19   2.0000      -0.390760       -10.6331
  20   2.0000      -0.381547       -10.3824
  21   2.0000      -0.355714        -9.6795
  22   2.0000      -0.341392        -9.2897
  23   2.0000      -0.315923        -8.5967
  24   2.0000      -0.309146        -8.4123
  25   2.0000      -0.285133        -7.7589
  26   2.0000      -0.240594        -6.5469
  27   2.0000      -0.213375        -5.8062
  28   0.0000      -0.067453        -1.8355
  29   0.0000      -0.036166        -0.9841
  30   0.0000       0.020645         0.5618
  31   0.0000       0.056594         1.5400
  32   0.0000       0.071142         1.9359

MULLIKEN ATOMIC CHARGES
-----------------------
   0 C :   -0.233812
   1 C :   -0.192658
   2 C :    0.279415
   3 C :   -0.185831
   4 C :   -0.101181
   5 C :   -0.124305
   6 C :   -0.085378
   7 C :   -0.203746
   8 H :    0.125062
   9 H :    0.105981
  10 H :    0.094323
  11 H :    0.102069
  12 H :    0.108250
  13 H :    0.110767
  14 H :    0.108873
  15 H :    0.092170
Sum of atomic charges:    0.0000000

LOEWDIN ATOMIC CHARGES
----------------------
   0 C :   -0.191746
   1 C :   -0.159169
   2 C :   -0.141627
   3 C :   -0.103227
   4 C :   -0.140215
   5 C :   -0.139818
   6 C :   -0.138782
   7 C :   -0.094778
   8 H :    0.122632
   9 H :    0.118712
  10 H :    0.147559
  11 H :    0.145705
  12 H :    0.143552
  13 H :    0.142552
  14 H :    0.143602
  15 H :    0.145047

  Mayer bond orders larger than 0.100000
B(  0-C ,  1-C ) :   1.8565 B(  0-C ,  8-H ) :   0.9631 B(  0-C ,  9-H ) :   0.9557
B(  1-C ,  2-C ) :   0.9590 B(  1-C , 10-H ) :   0.9738 B(  2-C ,  3-C ) :   1.3130
B(  2-C ,  7-C ) :   1.2864 B(  3-C ,  4-C ) :   1.4174 B(  3-C , 11-H ) :   0.9723
B(  4-C ,  5-C ) :   1.3957 B(  4-C , 12-H ) :   0.9718 B(  5-C ,  6-C ) :   1.3661
B(  5-C , 13-H ) :   0.9681 B(  6-C ,  7-C ) :   1.4476 B(  6-C , 14-H ) :   0.9693
B(  7-C , 15-H ) :   0.9756

Dispersion correction           -0.005114496
FINAL SINGLE POINT ENERGY      -309.579221970938

DIPOLE MOMENT
-------------

Method             : SCF
Type of density    : Electron Density
Multiplicity       :   1
Irrep              :   0
Energy             :  -309.5776740739953539 Eh
Relativity type    :
Basis              : AO
                                X                 Y                 Z
Electronic contribution:      2.237669176      -0.370116751      -0.023617995
Nuclear contribution   :     -2.151377666       0.369439924       0.023504956
                        -----------------------------------------
Total Dipole Moment    :      0.086291510      -0.000676828      -0.000113039
                        -----------------------------------------
Magnitude (a.u.)       :      0.086294239
Magnitude (Debye)      :      0.219342523

VIBRATIONAL FREQUENCIES
-----------------------

Scaling factor for frequencies =  1.000000000  (already applied!)

     0:       0.00 cm**-1
     1:       0.00 cm**-1
     2:       0.00 cm**-1
     3:       0.00 cm**-1
     4:       0.00 cm**-1
     5:       0.00 cm**-1
     6:      33.86 cm**-1
     7:     204.00 cm**-1
     8:     244.10 cm**-1
     9:     406.19 cm**-1
    10:     441.43 cm**-1
    11:     453.34 cm**-1
    12:     563.67 cm**-1
    13:     636.84 cm**-1
    14:     657.50 cm**-1
    15:     703.36 cm**-1
    16:     792.42 cm**-1
    17:     797.45 cm**-1
    18:     841.25 cm**-1
    19:     915.35 cm**-1
    20:     916.90 cm**-1
    21:     951.32 cm**-1
    22:     975.12 cm**-1
    23:    1020.20 cm**-1
    24:    1023.09 cm**-1
    25:    1043.24 cm**-1
    26:    1056.91 cm**-1
    27:    1112.55 cm**-1
    28:    1182.78 cm**-1
    29:    1202.54 cm**-1
    30:    1228.67 cm**-1
    31:    1322.51 cm**-1
    32:    1353.32 cm**-1
    33:    1359.54 cm**-1
    34:    1450.05 cm**-1
    35:    1480.24 cm**-1
    36:    1523.36 cm**-1
    37:    1611.22 cm**-1
    38:    1634.92 cm**-1
    39:    1674.97 cm**-1
    40:    3121.53 cm**-1
    41:    3134.77 cm**-1
    42:    3151.05 cm**-1
    43:    3158.33 cm**-1
    44:    3167.70 cm**-1
    45:    3176.61 cm**-1
    46:    3184.45 cm**-1
    47:    3220.61 cm**-1

IR SPECTRUM
-----------

 Mode   freq       eps      Int      T**2         TX        TY        TZ
       cm**-1   L/(mol*cm) km/mol    a.u.
----------------------------------------------------------------------------
  6:     33.86   0.000001    0.01  0.000009  ( 0.002308  0.001722 -0.001077)
  7:    204.00   0.000429    2.17  0.000657  ( 0.000533  0.000436  0.025619)
  8:    244.10   0.000097    0.49  0.000123  (-0.010824  0.002119 -0.001317)
  9:    406.19   0.000075    0.38  0.000058  ( 0.000384  0.000237  0.007570)
 10:    441.43   0.001864    9.42  0.001317  ( 0.000320  0.000856 -0.036284)
 11:    453.34   0.000137    0.69  0.000094  (-0.001928  0.003695  0.008760)
 12:    563.67   0.001055    5.33  0.000584  (-0.024028 -0.002224 -0.001304)
 13:    636.84   0.000011    0.06  0.000005  (-0.002299 -0.000340 -0.000101)
 14:    657.50   0.000099    0.50  0.000047  (-0.000241 -0.000479 -0.006847)
 15:    703.36   0.009041   45.69  0.004011  (-0.000794  0.000461  0.063327)
 16:    792.42   0.000062    0.31  0.000024  (-0.003315  0.000258  0.003662)
 17:    797.45   0.005854   29.58  0.002291  ( 0.001189  0.000261 -0.047846)
 18:    841.25   0.000116    0.59  0.000043  ( 0.000132 -0.000351  0.006544)
 19:    915.35   0.004823   24.37  0.001644  ( 0.000158 -0.002217  0.040490)
 20:    916.90   0.004335   21.91  0.001475  ( 0.000857  0.000904 -0.038390)
 21:    951.32   0.000006    0.03  0.000002  (-0.000283  0.000091  0.001408)
 22:    975.12   0.000024    0.12  0.000008  (-0.000175  0.000380 -0.002738)
 23:   1020.20   0.000189    0.96  0.000058  ( 0.006556  0.002296 -0.003104)
 24:   1023.09   0.003254   16.44  0.000993  (-0.000283  0.001031 -0.031487)
 25:   1043.24   0.001162    5.87  0.000348  (-0.017872 -0.005314  0.000062)
 26:   1056.91   0.000048    0.24  0.000014  ( 0.001272 -0.003528  0.000204)
 27:   1112.55   0.001066    5.39  0.000299  (-0.006903  0.015851  0.000088)
 28:   1182.78   0.000034    0.17  0.000009  (-0.002924 -0.000665 -0.000031)
 29:   1202.54   0.000033    0.16  0.000008  (-0.002669  0.001141  0.000208)
 30:   1228.67   0.000368    1.86  0.000094  ( 0.009528 -0.001652 -0.000068)
 31:   1322.51   0.000353    1.78  0.000083  ( 0.008967 -0.001705 -0.000115)
 32:   1353.32   0.000565    2.86  0.000130  (-0.008968 -0.007057 -0.000271)
 33:   1359.54   0.000151    0.76  0.000035  (-0.001598 -0.005672 -0.000078)
 34:   1450.05   0.001159    5.86  0.000249  ( 0.001639 -0.015704 -0.000386)
 35:   1480.24   0.000817    4.13  0.000172  (-0.008701 -0.009828  0.000186)
 36:   1523.36   0.001840    9.30  0.000377  (-0.019401  0.000753  0.000018)
 37:   1611.22   0.000729    3.68  0.000141  (-0.008695  0.008093  0.000033)
 38:   1634.92   0.000170    0.86  0.000032  (-0.005694 -0.000140  0.000079)
 39:   1674.97   0.003358   16.97  0.000626  (-0.022842  0.010181  0.000493)
 40:   3121.53   0.002867   14.49  0.000287  (-0.007305 -0.015262 -0.000542)
 41:   3134.77   0.000622    3.14  0.000062  (-0.006386  0.004594  0.000221)
 42:   3151.05   0.001438    7.27  0.000142  (-0.008871 -0.007979 -0.000070)
 43:   3158.33   0.000016    0.08  0.000002  (-0.001043  0.000718  0.000029)
 44:   3167.70   0.002775   14.02  0.000273  ( 0.007669  0.014648  0.000071)
 45:   3176.61   0.005198   26.27  0.000511  (-0.012970  0.018503 -0.000231)
 46:   3184.45   0.002232   11.28  0.000219  (-0.013515 -0.006009  0.000024)
 47:   3220.61   0.002013   10.17  0.000195  (-0.008992 -0.010679 -0.000385)

--------------------------
THERMOCHEMISTRY AT 298.15K
--------------------------

Temperature         ...   298.15 K
Pressure            ...     1.00 atm
Total Mass          ...   104.15 AMU
Quasi RRHO          ...     True
Cut-Off Frequency   ...     1.00 cm^-1

Throughout the following assumptions are being made:
  (1) The electronic state is orbitally nondegenerate
  (2) There are no thermally accessible electronically excited states
  (3) Hindered rotations indicated by low frequency modes are not
      treated as such but are treated as vibrations and this may
      cause some error
  (4) All equations used are the standard statistical mechanics
      equations for an ideal gas
  (5) All vibrations are strictly harmonic

freq.      33.86  E(vib)   ...       0.55
freq.     204.00  E(vib)   ...       0.35
freq.     244.10  E(vib)   ...       0.31
freq.     406.19  E(vib)   ...       0.19
freq.     441.43  E(vib)   ...       0.17
freq.     453.34  E(vib)   ...       0.16
freq.     563.67  E(vib)   ...       0.11
freq.     636.84  E(vib)   ...       0.09
freq.     657.50  E(vib)   ...       0.08
freq.     703.36  E(vib)   ...       0.07
freq.     792.42  E(vib)   ...       0.05
freq.     797.45  E(vib)   ...       0.05
freq.     841.25  E(vib)   ...       0.04
freq.     915.35  E(vib)   ...       0.03
freq.     916.90  E(vib)   ...       0.03
freq.     951.32  E(vib)   ...       0.03
freq.     975.12  E(vib)   ...       0.03
freq.    1020.20  E(vib)   ...       0.02
freq.    1023.09  E(vib)   ...       0.02
freq.    1043.24  E(vib)   ...       0.02
freq.    1056.91  E(vib)   ...       0.02
freq.    1112.55  E(vib)   ...       0.01
freq.    1182.78  E(vib)   ...       0.01
freq.    1202.54  E(vib)   ...       0.01
freq.    1228.67  E(vib)   ...       0.01
freq.    1322.51  E(vib)   ...       0.01
freq.    1353.32  E(vib)   ...       0.01
freq.    1359.54  E(vib)   ...       0.01
freq.    1450.05  E(vib)   ...       0.00
freq.    1480.24  E(vib)   ...       0.00
freq.    1523.36  E(vib)   ...       0.00
freq.    1611.22  E(vib)   ...       0.00
freq.    1634.92  E(vib)   ...       0.00
freq.    1674.97  E(vib)   ...       0.00
freq.    3121.53  E(vib)   ...       0.00
freq.    3134.77  E(vib)   ...       0.00
freq.    3151.05  E(vib)   ...       0.00
freq.    3158.33  E(vib)   ...       0.00
freq.    3167.70  E(vib)   ...       0.00
freq.    3176.61  E(vib)   ...       0.00
freq.    3184.45  E(vib)   ...       0.00
freq.    3220.61  E(vib)   ...       0.00

------------
INNER ENERGY
------------

The inner energy is: U= E(el) + E(ZPE) + E(vib) + E(rot) + E(trans)
    E(el)   - is the total energy from the electronic structure calculation
              = E(kin-el) + E(nuc-el) + E(el-el) + E(nuc-nuc)
    E(ZPE)  - the the zero temperature vibrational energy from the frequency calculation
    E(vib)  - the the finite temperature correction to E(ZPE) due to population
              of excited vibrational states
    E(rot)  - is the rotational thermal energy
    E(trans)- is the translational thermal energy

Summary of contributions to the inner energy U:
Electronic energy                ...   -309.57922197 Eh
Zero point energy                ...      0.13242821 Eh      83.10 kcal/mol
Thermal vibrational correction   ...      0.00398577 Eh       2.50 kcal/mol
Thermal rotational correction    ...      0.00141627 Eh       0.89 kcal/mol
Thermal translational correction ...      0.00141627 Eh       0.89 kcal/mol
-----------------------------------------------------------------------
Total thermal energy                   -309.43997545 Eh

Summary of corrections to the electronic energy:
(perhaps to be used in another calculation)
Total thermal correction                  0.00681831 Eh       4.28 kcal/mol
Non-thermal (ZPE) correction              0.13242821 Eh      83.10 kcal/mol
-----------------------------------------------------------------------
Total correction                          0.13924652 Eh      87.38 kcal/mol

--------
ENTHALPY
--------

The enthalpy is H = U + kB*T
                kB is Boltzmann's constant
Total thermal energy              ...   -309.43997545 Eh
Thermal Enthalpy correction       ...      0.00094421 Eh       0.59 kcal/mol
-----------------------------------------------------------------------
Total Enthalpy                    ...   -309.43903124 Eh

Note: Only C1 symmetry has been detected, increase convergence thresholds
      if your molecule has a higher symmetry. Symmetry factor of 1.0 is
      used for the rotational entropy correction.

Note: Rotational entropy computed according to Herzberg
Infrared and Raman Spectra, Chapter V,1, Van Nostrand Reinhold, 1945
Point Group:  C1, Symmetry Number:   1
Rotational constants in cm-1:     0.173393     0.051596     0.039768

Vibrational entropy computed according to the QRRHO of S. Grimme
Chem.Eur.J. 2012 18 9955 using a reference frequency of 100.0 cm-1

-------
ENTROPY
-------

The entropy contributions are T*S = T*(S(el)+S(vib)+S(rot)+S(trans))
     S(el)   - electronic entropy
     S(vib)  - vibrational entropy
     S(rot)  - rotational entropy
     S(trans)- translational entropy
The entropies will be listed as multiplied by the temperature to get
units of energy

Electronic entropy                ...      0.00000000 Eh      0.00 kcal/mol
Vibrational entropy               ...      0.00649186 Eh      4.07 kcal/mol
Rotational entropy                ...      0.01325978 Eh      8.32 kcal/mol
Translational entropy             ...      0.01892886 Eh     11.88 kcal/mol
-----------------------------------------------------------------------
Final entropy term                ...      0.03868050 Eh     24.27 kcal/mol

In case the symmetry of your molecule has not been determined correctly
or in case you have a reason to use a different symmetry number we print
out the resulting rotational entropy values for sn=1,12:

 non-linear molecules -----------------------------------
|  sn= 1 | S(rot)=       0.01325978 Eh      8.32 kcal/mol|
|  sn= 2 | S(rot)=       0.01260532 Eh      7.91 kcal/mol|
|  sn= 3 | S(rot)=       0.01222249 Eh      7.67 kcal/mol|
|  sn= 4 | S(rot)=       0.01195086 Eh      7.50 kcal/mol|
|  sn= 5 | S(rot)=       0.01174018 Eh      7.37 kcal/mol|
|  sn= 6 | S(rot)=       0.01156803 Eh      7.26 kcal/mol|
|  sn= 7 | S(rot)=       0.01142249 Eh      7.17 kcal/mol|
|  sn= 8 | S(rot)=       0.01129641 Eh      7.09 kcal/mol|
|  sn= 9 | S(rot)=       0.01118520 Eh      7.02 kcal/mol|
|  sn=10 | S(rot)=       0.01108572 Eh      6.96 kcal/mol|
|  sn=11 | S(rot)=       0.01099573 Eh      6.90 kcal/mol|
|  sn=12 | S(rot)=       0.01091358 Eh      6.85 kcal/mol|
 linear molecules ---------------------------------------
|  Dinfh | S(rot)=       0.00837050 Eh      5.25 kcal/mol|
|  Cinfv | S(rot)=       0.00902496 Eh      5.66 kcal/mol|
 --------------------------------------------------------

                             ****ORCA TERMINATED NORMALLY****
TOTAL RUN TIME: 0 days 0 hours 11 minutes 21 seconds 891 msec
