                         Program Version 6.0.1  -  RELEASE   -
|  1> ! r2scan-3c def2/J RI DEFGRID2 scfconv6 printgap
|  2> %output
|  3>     printlevel normal
|  4> end
|  5> * xyz 0 1
|  6> C -2.5154148186 -0.9949547153 0.3591551805
|  7> C -1.0906261622 -0.4866318007 0.6229240165
|  8> H -0.924876823 -0.4173389284 1.709553368
|  9> C -0.8386794748 0.8943116985 -0.0107354717
| 10> H -1.0174180045 0.8220569907 -1.0941746775
| 11> C 0.6244108419 1.2780831088 0.22592398
| 12> H 0.780475699 1.3932467613 1.3111816054
| 13> C 1.5565118698 0.1794415091 -0.296982998
| 14> H 1.433918981 0.1176729522 -1.3935343339
| 15> C 1.1597799761 -1.1774822646 0.3168869251
| 16> H 1.3397166936 -1.1486149432 1.4020604391
| 17> O -0.2097467557 -1.431771976 0.0521935562
| 18> O 1.8916490929 -2.2323593166 -0.1654303273
| 19> O 2.8879714642 0.452191091 0.0319629679
| 20> O 0.9608583229 2.4745621949 -0.4344857737
| 21> O -1.6336172108 1.9109877929 0.5531399582
| 22> O -2.8281238283 -0.9964156471 -1.0066850322
| 23> H -3.2427903037 -0.3440321299 0.8494580777
| 24> H -2.6015166114 -2.0030048159 0.7839513202
| 25> H 1.8162134243 -2.2633209361 -1.1275182223
| 26> H 3.0565253901 1.3739564333 -0.203700247
| 27> H 0.2838547644 3.1240550685 -0.2084761166
| 28> H -2.5509076515 1.7598477914 0.3003166604
| 29> H -2.1859334887 -1.5660579095 -1.4472403515
| 30> *
| 31>
| 32>                          ****END OF INPUT****

CARTESIAN COORDINATES (ANGSTROEM)
---------------------------------
  C     -2.515415   -0.994955    0.359155
  C     -1.090626   -0.486632    0.622924
  H     -0.924877   -0.417339    1.709553
  C     -0.838679    0.894312   -0.010735
  H     -1.017418    0.822057   -1.094175
  C      0.624411    1.278083    0.225924
  H      0.780476    1.393247    1.311182
  C      1.556512    0.179442   -0.296983
  H      1.433919    0.117673   -1.393534
  C      1.159780   -1.177482    0.316887
  H      1.339717   -1.148615    1.402060
  O     -0.209747   -1.431772    0.052194
  O      1.891649   -2.232359   -0.165430
  O      2.887971    0.452191    0.031963
  O      0.960858    2.474562   -0.434486
  O     -1.633617    1.910988    0.553140
  O     -2.828124   -0.996416   -1.006685
  H     -3.242790   -0.344032    0.849458
  H     -2.601517   -2.003005    0.783951
  H      1.816213   -2.263321   -1.127518
  H      3.056525    1.373956   -0.203700
  H      0.283855    3.124055   -0.208476
  H     -2.550908    1.759848    0.300317
  H     -2.185933   -1.566058   -1.447240

 Total Charge           Charge          ....    0
 Multiplicity           Mult            ....    1
 Number of Electrons    NEL             ....   96
 Basis Dimension        Dim             ....  318

ORBITAL ENERGIES
----------------

  NO   OCC          E(Eh)            E(eV)
   0   2.0000     -18.976873      -516.3870
   1   2.0000     -18.976226      -516.3694
   2   2.0000     -18.969247      -516.1795
   3   2.0000     -18.965025      -516.0646
   4   2.0000     -18.964619      -516.0535
   5   2.0000     -18.957041      -515.8473
   6   2.0000     -10.143582      -276.0209
   7   2.0000     -10.099881      -274.8317
   8   2.0000     -10.095962      -274.7251
   9   2.0000     -10.095443      -274.7110
  10   2.0000     -10.094524      -274.6860
  11   2.0000     -10.094021      -274.6723
  12   2.0000      -1.057072       -28.7644
  13   2.0000      -1.023725       -27.8570
  14   2.0000      -1.012266       -27.5452
  15   2.0000      -1.004148       -27.3243
  16   2.0000      -0.991036       -26.9675
  17   2.0000      -0.986305       -26.8387
  18   2.0000      -0.757100       -20.6017
  19   2.0000      -0.741087       -20.1660
  20   2.0000      -0.669081       -18.2066
  21   2.0000      -0.621899       -16.9227
  22   2.0000      -0.600519       -16.3409
  23   2.0000      -0.570372       -15.5206
  24   2.0000      -0.529444       -14.4069
  25   2.0000      -0.523064       -14.2333
  26   2.0000      -0.501386       -13.6434
  27   2.0000      -0.483093       -13.1456
  28   2.0000      -0.468653       -12.7527
  29   2.0000      -0.463210       -12.6046
  30   2.0000      -0.447371       -12.1736
  31   2.0000      -0.437055       -11.8929
  32   2.0000      -0.411157       -11.1881
  33   2.0000      -0.407070       -11.0769
  34   2.0000      -0.391272       -10.6471
  35   2.0000      -0.381708       -10.3868
  36   2.0000      -0.358057        -9.7432
  37   2.0000      -0.343724        -9.3532
  38   2.0000      -0.338730        -9.2173
  39   2.0000      -0.324815        -8.8387
  40   2.0000      -0.314146        -8.5483
  41   2.0000      -0.303732        -8.2650
  42   2.0000      -0.282506        -7.6874
  43   2.0000      -0.267456        -7.2778
  44   2.0000      -0.257549        -7.0083
  45   2.0000      -0.254239        -6.9182
  46   2.0000      -0.246037        -6.6950
  47   2.0000      -0.234068        -6.3693
  48   0.0000       0.028979         0.7886
  49   0.0000       0.037966         1.0331
  50   0.0000       0.055727         1.5164
  51   0.0000       0.075669         2.0591
  52   0.0000       0.077422         2.1068

MULLIKEN ATOMIC CHARGES
-----------------------
   0 C :   -0.250791
   1 C :    0.029723
   2 H :    0.169752
   3 C :   -0.089771
   4 H :    0.193143
   5 C :   -0.019713
   6 H :    0.169477
   7 C :    0.089252
   8 H :    0.160029
   9 C :   -0.192734
  10 H :    0.157743
  11 O :   -0.195017
  12 O :   -0.346453
  13 O :   -0.417337
  14 O :   -0.445687
  15 O :   -0.448483
  16 O :   -0.419854
  17 H :    0.139085
  18 H :    0.149717
  19 H :    0.309596
  20 H :    0.317395
  21 H :    0.314140
  22 H :    0.312718
  23 H :    0.314070
Sum of atomic charges:    0.0000000

LOEWDIN ATOMIC CHARGES
----------------------
   0 C :    0.037075
   1 C :    0.103362
   2 H :    0.186481
   3 C :    0.103071
   4 H :    0.191327
   5 C :    0.107941
   6 H :    0.185642
   7 C :    0.116767
   8 H :    0.180480
   9 C :    0.300648
  10 H :    0.200151
  11 O :   -0.692115
  12 O :   -0.459410
  13 O :   -0.553409
  14 O :   -0.576012
  15 O :   -0.581500
  16 O :   -0.595072
  17 H :    0.179309
  18 H :    0.174346
  19 H :    0.276408
  20 H :    0.283067
  21 H :    0.282112
  22 H :    0.275589
  23 H :    0.273740

  Mayer bond orders larger than 0.100000
B(  0-C ,  1-C ) :   0.9137 B(  0-C , 16-O ) :   1.0093 B(  0-C , 17-H ) :   0.9789
B(  0-C , 18-H ) :   0.9791 B(  1-C ,  2-H ) :   0.9334 B(  1-C ,  3-C ) :   0.7394
B(  1-C , 11-O ) :   0.7548 B(  1-C , 16-O ) :  -0.1137 B(  3-C ,  4-H ) :   1.0306
B(  3-C ,  5-C ) :   0.8088 B(  3-C , 15-O ) :   0.8895 B(  5-C ,  6-H ) :   0.9802
B(  5-C ,  7-C ) :   0.8881 B(  5-C , 14-O ) :   0.9087 B(  7-C ,  8-H ) :   0.9412
B(  7-C ,  9-C ) :   0.8519 B(  7-C , 13-O ) :   0.8787 B(  9-C , 10-H ) :   1.0098
B(  9-C , 11-O ) :   0.9396 B(  9-C , 12-O ) :   1.1506 B( 12-O , 19-H ) :   0.8775
B( 13-O , 20-H ) :   0.8751 B( 14-O , 21-H ) :   0.8756 B( 15-O , 22-H ) :   0.8876
B( 16-O , 23-H ) :   0.8769

Dispersion correction           -0.008094827
FINAL SINGLE POINT ENERGY      -687.077910134140

DIPOLE MOMENT
-------------

Method             : SCF
Type of density    : Electron Density
Multiplicity       :   1
Irrep              :   0
Energy             :  -687.0892758062885832 Eh
Relativity type    :
Basis              : AO
                                X                 Y                 Z
Electronic contribution:      2.780334472      -0.457942833      -0.941455201
Nuclear contribution   :     -3.561160235       0.798630802       0.812991384
                        -----------------------------------------
Total Dipole Moment    :     -0.780825763       0.340687969      -0.128463817
                        -----------------------------------------
Magnitude (a.u.)       :      0.861545192
Magnitude (Debye)      :      2.189873845

Rotational constants in cm-1:             0.039559             0.027027             0.017673
Rotational constants in MHz :          1185.952006           810.242204           529.821715

                             ****ORCA TERMINATED NORMALLY****
TOTAL RUN TIME: 0 days 0 hours 0 minutes 38 seconds 991 msec
