                         Program Version 6.0.1  -  RELEASE   -
|  1> ! pbe def2-sv(p) def2/J RI DEFGRID1 loosescf d4 GCP(DFT/SV(P)) printgap
|  2> %output
|  3>     printlevel normal
|  4> end
|  5> * xyz 0 1
|  6> C -1.7722213094 -1.0629456094 -0.6816254708
|  7> C -1.0296290826 -0.4918437764 0.5462863116
|  8> H -1.7029443783 -0.601304243 1.4123421444
|  9> C -0.7204880348 1.0066712534 0.3743530732
| 10> H -1.5819750537 1.468683819 -0.13784312
| 11> C 0.5508740755 1.2429398605 -0.4665722152
| 12> H 0.8370352268 2.297377045 -0.3356301822
| 13> C 1.7128053319 0.3767492853 0.0579538826
| 14> H 2.5450082393 0.4377987743 -0.6522734821
| 15> C 1.2691046884 -1.1002747729 0.1360815168
| 16> H 2.014974683 -1.6781755305 0.6949348746
| 17> O 0.1020203181 -1.2476725291 0.9190866677
| 18> O 1.1644113789 -1.6712875619 -1.1244073514
| 19> O 2.1927645485 0.85075021 1.2797799527
| 20> O 0.3517435528 0.9417757312 -1.8301689171
| 21> O -0.4931387683 1.6423889775 1.6153441686
| 22> O -3.085827854 -0.5620103444 -0.7601348432
| 23> H -1.7539979637 -2.1566689206 -0.6159375193
| 24> H -1.2883770834 -0.7618562559 -1.6106830717
| 25> H 0.8483064696 -1.0028049329 -1.7501136202
| 26> H 1.4359309236 0.9876514197 1.8693552049
| 27> H -0.301307989 1.5477810079 -2.1991307641
| 28> H -1.2426274627 1.4839039496 2.2003291009
| 29> H -3.616846293 -0.9492424798 -0.0553193685
| 30> *
| 31>
| 32>                          ****END OF INPUT****

CARTESIAN COORDINATES (ANGSTROEM)
---------------------------------
  C     -1.772221   -1.062946   -0.681625
  C     -1.029629   -0.491844    0.546286
  H     -1.702944   -0.601304    1.412342
  C     -0.720488    1.006671    0.374353
  H     -1.581975    1.468684   -0.137843
  C      0.550874    1.242940   -0.466572
  H      0.837035    2.297377   -0.335630
  C      1.712805    0.376749    0.057954
  H      2.545008    0.437799   -0.652273
  C      1.269105   -1.100275    0.136082
  H      2.014975   -1.678176    0.694935
  O      0.102020   -1.247673    0.919087
  O      1.164411   -1.671288   -1.124407
  O      2.192765    0.850750    1.279780
  O      0.351744    0.941776   -1.830169
  O     -0.493139    1.642389    1.615344
  O     -3.085828   -0.562010   -0.760135
  H     -1.753998   -2.156669   -0.615938
  H     -1.288377   -0.761856   -1.610683
  H      0.848306   -1.002805   -1.750114
  H      1.435931    0.987651    1.869355
  H     -0.301308    1.547781   -2.199131
  H     -1.242627    1.483904    2.200329
  H     -3.616846   -0.949242   -0.055319

 Total Charge           Charge          ....    0
 Multiplicity           Mult            ....    1
 Number of Electrons    NEL             ....   96
 Basis Dimension        Dim             ....  192

ORBITAL ENERGIES
----------------

  NO   OCC          E(Eh)            E(eV)
   0   2.0000     -18.788162      -511.2519
   1   2.0000     -18.779751      -511.0230
   2   2.0000     -18.761485      -510.5260
   3   2.0000     -18.760337      -510.4947
   4   2.0000     -18.746393      -510.1153
   5   2.0000     -18.739058      -509.9157
   6   2.0000      -9.972548      -271.3668
   7   2.0000      -9.958377      -270.9812
   8   2.0000      -9.957920      -270.9688
   9   2.0000      -9.952054      -270.8092
  10   2.0000      -9.939307      -270.4623
  11   2.0000      -9.934924      -270.3430
  12   2.0000      -0.980126       -26.6706
  13   2.0000      -0.957659       -26.0592
  14   2.0000      -0.952661       -25.9232
  15   2.0000      -0.936270       -25.4772
  16   2.0000      -0.919438       -25.0192
  17   2.0000      -0.905410       -24.6374
  18   2.0000      -0.711326       -19.3562
  19   2.0000      -0.688645       -18.7390
  20   2.0000      -0.621359       -16.9080
  21   2.0000      -0.598162       -16.2768
  22   2.0000      -0.577015       -15.7014
  23   2.0000      -0.528945       -14.3933
  24   2.0000      -0.511090       -13.9075
  25   2.0000      -0.491679       -13.3793
  26   2.0000      -0.473609       -12.8876
  27   2.0000      -0.468238       -12.7414
  28   2.0000      -0.451771       -12.2933
  29   2.0000      -0.435623       -11.8539
  30   2.0000      -0.420501       -11.4424
  31   2.0000      -0.403501       -10.9798
  32   2.0000      -0.394626       -10.7383
  33   2.0000      -0.384319       -10.4578
  34   2.0000      -0.368797       -10.0355
  35   2.0000      -0.349369        -9.5068
  36   2.0000      -0.338327        -9.2063
  37   2.0000      -0.325959        -8.8698
  38   2.0000      -0.306192        -8.3319
  39   2.0000      -0.295884        -8.0514
  40   2.0000      -0.282557        -7.6888
  41   2.0000      -0.277785        -7.5589
  42   2.0000      -0.259936        -7.0732
  43   2.0000      -0.249569        -6.7911
  44   2.0000      -0.239833        -6.5262
  45   2.0000      -0.237212        -6.4549
  46   2.0000      -0.211489        -5.7549
  47   2.0000      -0.200767        -5.4631
  48   0.0000      -0.002214        -0.0602
  49   0.0000       0.004156         0.1131
  50   0.0000       0.020041         0.5453
  51   0.0000       0.055738         1.5167
  52   0.0000       0.066682         1.8145

MULLIKEN ATOMIC CHARGES
-----------------------
   0 C :    0.013141
   1 C :    0.032229
   2 H :    0.039587
   3 C :    0.039480
   4 H :    0.066344
   5 C :    0.012090
   6 H :    0.089881
   7 C :    0.025177
   8 H :    0.089006
   9 C :    0.199776
  10 H :    0.073034
  11 O :   -0.302441
  12 O :   -0.404387
  13 O :   -0.419037
  14 O :   -0.412982
  15 O :   -0.419689
  16 O :   -0.433855
  17 H :    0.097284
  18 H :    0.074033
  19 H :    0.317380
  20 H :    0.299314
  21 H :    0.317895
  22 H :    0.309278
  23 H :    0.297462
Sum of atomic charges:    0.0000000

LOEWDIN ATOMIC CHARGES
----------------------
   0 C :   -0.148747
   1 C :   -0.080719
   2 H :    0.101844
   3 C :   -0.080956
   4 H :    0.102454
   5 C :   -0.071458
   6 H :    0.112973
   7 C :   -0.084117
   8 H :    0.122069
   9 C :   -0.007449
  10 H :    0.111159
  11 O :   -0.142719
  12 O :   -0.305933
  13 O :   -0.311218
  14 O :   -0.305405
  15 O :   -0.307745
  16 O :   -0.335077
  17 H :    0.108800
  18 H :    0.107769
  19 H :    0.273217
  20 H :    0.270943
  21 H :    0.296402
  22 H :    0.290197
  23 H :    0.283717

  Mayer bond orders larger than 0.100000
B(  0-C ,  1-C ) :   1.0173 B(  0-C , 16-O ) :   1.0355 B(  0-C , 17-H ) :   0.9135
B(  0-C , 18-H ) :   0.9021 B(  1-C ,  2-H ) :   0.8940 B(  1-C ,  3-C ) :   0.9794
B(  1-C , 11-O ) :   1.0469 B(  3-C ,  4-H ) :   0.8865 B(  3-C ,  5-C ) :   0.9835
B(  3-C , 15-O ) :   1.0087 B(  5-C ,  6-H ) :   0.9032 B(  5-C ,  7-C ) :   0.9913
B(  5-C , 14-O ) :   1.0351 B(  7-C ,  8-H ) :   0.8947 B(  7-C ,  9-C ) :   0.9926
B(  7-C , 13-O ) :   1.0741 B(  9-C , 10-H ) :   0.9063 B(  9-C , 11-O ) :   1.0167
B(  9-C , 12-O ) :   1.1303 B( 12-O , 19-H ) :   0.8045 B( 13-O , 20-H ) :   0.8136
B( 14-O , 21-H ) :   0.8325 B( 15-O , 22-H ) :   0.8411 B( 16-O , 23-H ) :   0.8525

Dispersion correction           -0.026044742
FINAL SINGLE POINT ENERGY      -685.695889894641

DIPOLE MOMENT
-------------

Method             : SCF
Type of density    : Electron Density
Multiplicity       :   1
Irrep              :   0
Energy             :  -685.8291767766421572 Eh
Relativity type    :
Basis              : AO
                                X                 Y                 Z
Electronic contribution:      2.027050595      -0.273384152       1.257038028
Nuclear contribution   :     -3.568008843       1.006109018      -1.105538372
                        -----------------------------------------
Total Dipole Moment    :     -1.540958248       0.732724867       0.151499656
                        -----------------------------------------
Magnitude (a.u.)       :      1.713006188
Magnitude (Debye)      :      4.354115702

Rotational constants in cm-1:             0.041212             0.028500             0.024629
Rotational constants in MHz :          1235.496621           854.407844           738.345923

                             ****ORCA TERMINATED NORMALLY****
TOTAL RUN TIME: 0 days 0 hours 1 minutes 33 seconds 768 msec
