                         Program Version 6.0.1  -  RELEASE   -
|  1> ! pbe def2-sv(p) def2/J RI DEFGRID1 loosescf d4 GCP(DFT/SV(P)) printgap
|  2> %output
|  3>     printlevel normal
|  4> end
|  5> * xyz 0 1
|  6> C 2.0645419598 0.0372640234 -0.1204130636
|  7> C 0.7573837377 0.6737643771 0.3339547152
|  8> C -0.4553814094 0.0191901897 -0.3309319889
|  9> H -0.3108950697 0.0279987587 -1.4256107775
| 10> C -1.744935315 0.7698836492 0.0041247206
| 11> O -0.5143044443 -1.3207545788 0.1214172091
| 12> H 2.2075681844 0.1792991939 -1.1896378649
| 13> H 2.0443456714 -1.028625093 0.0880959313
| 14> H 2.9065656665 0.4823548003 0.4040031253
| 15> H 0.7571298066 1.7389304663 0.0963649945
| 16> H 0.6527208651 0.5590632083 1.4137963165
| 17> H -1.9023214612 0.771701927 1.0803501296
| 18> H -1.6859281099 1.7969709538 -0.345198689
| 19> H -2.6006000525 0.2922008131 -0.4716360492
| 20> H -1.3121442349 -1.7307464908 -0.228133201
| 21> *
| 22>
| 23>                          ****END OF INPUT****

CARTESIAN COORDINATES (ANGSTROEM)
---------------------------------
  C      2.064542    0.037264   -0.120413
  C      0.757384    0.673764    0.333955
  C     -0.455381    0.019190   -0.330932
  H     -0.310895    0.027999   -1.425611
  C     -1.744935    0.769884    0.004125
  O     -0.514304   -1.320755    0.121417
  H      2.207568    0.179299   -1.189638
  H      2.044346   -1.028625    0.088096
  H      2.906566    0.482355    0.404003
  H      0.757130    1.738930    0.096365
  H      0.652721    0.559063    1.413796
  H     -1.902321    0.771702    1.080350
  H     -1.685928    1.796971   -0.345199
  H     -2.600600    0.292201   -0.471636
  H     -1.312144   -1.730746   -0.228133

 Total Charge           Charge          ....    0
 Multiplicity           Mult            ....    1
 Number of Electrons    NEL             ....   42
 Basis Dimension        Dim             ....   90

ORBITAL ENERGIES
----------------

  NO   OCC          E(Eh)            E(eV)
   0   2.0000     -18.738587      -509.9029
   1   2.0000      -9.934742      -270.3381
   2   2.0000      -9.878994      -268.8211
   3   2.0000      -9.874968      -268.7115
   4   2.0000      -9.864699      -268.4321
   5   2.0000      -0.918151       -24.9842
   6   2.0000      -0.703753       -19.1501
   7   2.0000      -0.647764       -17.6266
   8   2.0000      -0.564673       -15.3655
   9   2.0000      -0.512806       -13.9542
  10   2.0000      -0.461234       -12.5508
  11   2.0000      -0.394831       -10.7439
  12   2.0000      -0.387196       -10.5361
  13   2.0000      -0.373869       -10.1735
  14   2.0000      -0.358083        -9.7439
  15   2.0000      -0.329156        -8.9568
  16   2.0000      -0.302967        -8.2442
  17   2.0000      -0.302028        -8.2186
  18   2.0000      -0.292879        -7.9696
  19   2.0000      -0.264739        -7.2039
  20   2.0000      -0.211647        -5.7592
  21   0.0000       0.025096         0.6829
  22   0.0000       0.064345         1.7509
  23   0.0000       0.072079         1.9614
  24   0.0000       0.081822         2.2265
  25   0.0000       0.095806         2.6070

MULLIKEN ATOMIC CHARGES
-----------------------
   0 C :   -0.261876
   1 C :   -0.167994
   2 C :    0.000380
   3 H :    0.053747
   4 C :   -0.249846
   5 O :   -0.424665
   6 H :    0.089421
   7 H :    0.113275
   8 H :    0.099116
   9 H :    0.081942
  10 H :    0.085222
  11 H :    0.102679
  12 H :    0.095401
  13 H :    0.090115
  14 H :    0.293082
Sum of atomic charges:    0.0000000

LOEWDIN ATOMIC CHARGES
----------------------
   0 C :   -0.342332
   1 C :   -0.235833
   2 C :   -0.059043
   3 H :    0.092114
   4 C :   -0.352957
   5 O :   -0.332102
   6 H :    0.114356
   7 H :    0.124020
   8 H :    0.117171
   9 H :    0.116552
  10 H :    0.120207
  11 H :    0.122017
  12 H :    0.122335
  13 H :    0.112113
  14 H :    0.281382

  Mayer bond orders larger than 0.100000
B(  0-C ,  1-C ) :   1.1610 B(  0-C ,  6-H ) :   0.9537 B(  0-C ,  7-H ) :   0.9482
B(  0-C ,  8-H ) :   0.9539 B(  1-C ,  2-C ) :   1.0797 B(  1-C ,  9-H ) :   0.9264
B(  1-C , 10-H ) :   0.9127 B(  2-C ,  3-H ) :   0.9054 B(  2-C ,  4-C ) :   1.1134
B(  2-C ,  5-O ) :   1.0500 B(  4-C , 11-H ) :   0.9428 B(  4-C , 12-H ) :   0.9373
B(  4-C , 13-H ) :   0.9467 B(  5-O , 14-H ) :   0.8542

Dispersion correction           -0.009471263
FINAL SINGLE POINT ENERGY      -233.093081292348

DIPOLE MOMENT
-------------

Method             : SCF
Type of density    : Electron Density
Multiplicity       :   1
Irrep              :   0
Energy             :  -233.1528154523994942 Eh
Relativity type    :
Basis              : AO
                                X                 Y                 Z
Electronic contribution:     -1.157853679      -2.705950718       0.231005667
Nuclear contribution   :      0.702033485       2.878527138      -0.540087252
                        -----------------------------------------
Total Dipole Moment    :     -0.455820194       0.172576420      -0.309081585
                        -----------------------------------------
Magnitude (a.u.)       :      0.577136116
Magnitude (Debye)      :      1.466963424

Rotational constants in cm-1:             0.269888             0.115894             0.089956
Rotational constants in MHz :          8091.050385          3474.417719          2696.802808

                             ****ORCA TERMINATED NORMALLY****
TOTAL RUN TIME: 0 days 0 hours 0 minutes 3 seconds 823 msec
