                         Program Version 6.0.1  -  RELEASE   -
|  1> ! pbe def2-sv(p) def2/J RI DEFGRID1 loosescf d4 GCP(DFT/SV(P)) printgap
|  2> %output
|  3>     printlevel normal
|  4> end
|  5> * xyz 0 1
|  6> C -1.6044783188 0.0907741376 0.5063988101
|  7> C -0.6453520092 -0.4964513537 -0.5231307021
|  8> C 0.6679539017 0.2800751053 -0.6251301909
|  9> N 1.4991804952 0.0439967099 0.5454231766
| 10> H -1.8143487486 1.1352207076 0.2820145882
| 11> H -2.544557253 -0.4558634318 0.4998939547
| 12> H -1.186587486 0.0280022256 1.5082880833
| 13> H -1.1259292379 -0.49235214 -1.5035794378
| 14> H -0.4127233644 -1.5289580184 -0.2601832077
| 15> H 1.2280119822 -0.0795886009 -1.4935444203
| 16> H 0.4423586217 1.3487215809 -0.7900086727
| 17> H 1.0437919944 0.4055710858 1.3765822498
| 18> H 2.3869954115 0.5246104517 0.4498162256
| 19> *
| 20>
| 21>                          ****END OF INPUT****

CARTESIAN COORDINATES (ANGSTROEM)
---------------------------------
  C     -1.604478    0.090774    0.506399
  C     -0.645352   -0.496451   -0.523131
  C      0.667954    0.280075   -0.625130
  N      1.499180    0.043997    0.545423
  H     -1.814349    1.135221    0.282015
  H     -2.544557   -0.455863    0.499894
  H     -1.186587    0.028002    1.508288
  H     -1.125929   -0.492352   -1.503579
  H     -0.412723   -1.528958   -0.260183
  H      1.228012   -0.079589   -1.493544
  H      0.442359    1.348722   -0.790009
  H      1.043792    0.405571    1.376582
  H      2.386995    0.524610    0.449816

 Total Charge           Charge          ....    0
 Multiplicity           Mult            ....    1
 Number of Electrons    NEL             ....   34
 Basis Dimension        Dim             ....   74

ORBITAL ENERGIES
----------------

  NO   OCC          E(Eh)            E(eV)
   0   2.0000     -13.953491      -379.6938
   1   2.0000      -9.902293      -269.4551
   2   2.0000      -9.877588      -268.7828
   3   2.0000      -9.873241      -268.6645
   4   2.0000      -0.790262       -21.5041
   5   2.0000      -0.683876       -18.6092
   6   2.0000      -0.591646       -16.0995
   7   2.0000      -0.507840       -13.8190
   8   2.0000      -0.442055       -12.0289
   9   2.0000      -0.418670       -11.3926
  10   2.0000      -0.365062        -9.9338
  11   2.0000      -0.362866        -9.8741
  12   2.0000      -0.356921        -9.7123
  13   2.0000      -0.295385        -8.0378
  14   2.0000      -0.292350        -7.9552
  15   2.0000      -0.286804        -7.8043
  16   2.0000      -0.178201        -4.8491
  17   0.0000       0.031517         0.8576
  18   0.0000       0.066663         1.8140
  19   0.0000       0.073604         2.0029
  20   0.0000       0.087119         2.3706
  21   0.0000       0.113084         3.0772

MULLIKEN ATOMIC CHARGES
-----------------------
   0 C :   -0.298200
   1 C :   -0.179879
   2 C :   -0.073440
   3 N :   -0.468761
   4 H :    0.095590
   5 H :    0.106999
   6 H :    0.100466
   7 H :    0.083502
   8 H :    0.092330
   9 H :    0.079503
  10 H :    0.059494
  11 H :    0.199803
  12 H :    0.202593
Sum of atomic charges:   -0.0000000

LOEWDIN ATOMIC CHARGES
----------------------
   0 C :   -0.345447
   1 C :   -0.243474
   2 C :   -0.175856
   3 N :   -0.419785
   4 H :    0.115255
   5 H :    0.121249
   6 H :    0.114077
   7 H :    0.115879
   8 H :    0.120076
   9 H :    0.110205
  10 H :    0.085433
  11 H :    0.198658
  12 H :    0.203730

  Mayer bond orders larger than 0.100000
B(  0-C ,  1-C ) :   1.1538 B(  0-C ,  4-H ) :   0.9543 B(  0-C ,  5-H ) :   0.9536
B(  0-C ,  6-H ) :   0.9509 B(  1-C ,  2-C ) :   1.1213 B(  1-C ,  7-H ) :   0.9260
B(  1-C ,  8-H ) :   0.9206 B(  2-C ,  3-N ) :   1.1067 B(  2-C ,  9-H ) :   0.9305
B(  2-C , 10-H ) :   0.9173 B(  3-N , 11-H ) :   0.9012 B(  3-N , 12-H ) :   0.9043

Dispersion correction           -0.007376117
FINAL SINGLE POINT ENERGY      -174.031836881522

DIPOLE MOMENT
-------------

Method             : SCF
Type of density    : Electron Density
Multiplicity       :   1
Irrep              :   0
Energy             :  -174.0817710125866995 Eh
Relativity type    :
Basis              : AO
                                X                 Y                 Z
Electronic contribution:      1.847318065      -0.343144135      -0.048907076
Nuclear contribution   :     -1.852173125       0.830855227       0.067975343
                        -----------------------------------------
Total Dipole Moment    :     -0.004855060       0.487711092       0.019068267
                        -----------------------------------------
Magnitude (a.u.)       :      0.488107857
Magnitude (Debye)      :      1.240671575

Rotational constants in cm-1:             0.482963             0.162300             0.139867
Rotational constants in MHz :         14478.875792          4865.643542          4193.098445

                             ****ORCA TERMINATED NORMALLY****
TOTAL RUN TIME: 0 days 0 hours 0 minutes 14 seconds 403 msec
