                         Program Version 6.0.1  -  RELEASE   -
|  1> ! pbe def2-sv(p) def2/J RI DEFGRID1 loosescf d4 GCP(DFT/SV(P)) printgap
|  2> %output
|  3>     printlevel normal
|  4> end
|  5> * xyz 0 1
|  6> C -2.9803463735 1.2428490934 0.0108186764
|  7> C -1.7441514657 0.3935854636 -0.0076154195
|  8> C -1.8351196526 -0.9869624494 -0.006540495
|  9> C -0.6876637953 -1.7642255881 -0.0019953597
| 10> C 0.5652238638 -1.1798544962 0.0013947801
| 11> C 0.6734606701 0.2231262564 -7.58426e-05
| 12> C -0.4840797085 0.9847186725 -0.0040607789
| 13> O 1.9422112933 0.7206750016 0.001351196
| 14> C 2.1127298325 2.11390686 -0.0032525733
| 15> O 1.7143594103 -1.9137348171 0.0045524296
| 16> H -3.3730726879 1.3108683011 1.025918887
| 17> H -2.7678319512 2.2502315583 -0.3384213214
| 18> H -3.7547211283 0.8087701542 -0.6179231073
| 19> H -2.8029320055 -1.4652766366 -0.0095429775
| 20> H -0.7659681192 -2.8436727877 -0.0022745015
| 21> H -0.4206856464 2.0617633546 -0.0055018406
| 22> H 1.6730807019 2.5787267074 0.8860368927
| 23> H 1.6826396293 2.5712412236 -0.9011598295
| 24> H 3.1892727323 2.2778390162 0.0018611077
| 25> H 1.4910287204 -2.8521905797 0.0022749499
| 26> *
| 27>
| 28>                          ****END OF INPUT****

CARTESIAN COORDINATES (ANGSTROEM)
---------------------------------
  C     -2.980346    1.242849    0.010819
  C     -1.744151    0.393585   -0.007615
  C     -1.835120   -0.986962   -0.006540
  C     -0.687664   -1.764226   -0.001995
  C      0.565224   -1.179854    0.001395
  C      0.673461    0.223126   -0.000076
  C     -0.484080    0.984719   -0.004061
  O      1.942211    0.720675    0.001351
  C      2.112730    2.113907   -0.003253
  O      1.714359   -1.913735    0.004552
  H     -3.373073    1.310868    1.025919
  H     -2.767832    2.250232   -0.338421
  H     -3.754721    0.808770   -0.617923
  H     -2.802932   -1.465277   -0.009543
  H     -0.765968   -2.843673   -0.002275
  H     -0.420686    2.061763   -0.005502
  H      1.673081    2.578727    0.886037
  H      1.682640    2.571241   -0.901160
  H      3.189273    2.277839    0.001861
  H      1.491029   -2.852191    0.002275

 Total Charge           Charge          ....    0
 Multiplicity           Mult            ....    1
 Number of Electrons    NEL             ....   74
 Basis Dimension        Dim             ....  160

ORBITAL ENERGIES
----------------

  NO   OCC          E(Eh)            E(eV)
   0   2.0000     -18.780400      -511.0407
   1   2.0000     -18.774409      -510.8776
   2   2.0000      -9.942735      -270.5556
   3   2.0000      -9.942544      -270.5504
   4   2.0000      -9.935912      -270.3699
   5   2.0000      -9.889953      -269.1193
   6   2.0000      -9.885400      -268.9954
   7   2.0000      -9.882302      -268.9111
   8   2.0000      -9.878334      -268.8031
   9   2.0000      -9.877974      -268.7933
  10   2.0000      -0.969947       -26.3936
  11   2.0000      -0.949850       -25.8467
  12   2.0000      -0.767874       -20.8949
  13   2.0000      -0.691309       -18.8115
  14   2.0000      -0.671826       -18.2813
  15   2.0000      -0.630954       -17.1691
  16   2.0000      -0.601559       -16.3693
  17   2.0000      -0.552767       -15.0416
  18   2.0000      -0.519139       -14.1265
  19   2.0000      -0.493140       -13.4190
  20   2.0000      -0.457858       -12.4590
  21   2.0000      -0.439910       -11.9706
  22   2.0000      -0.416864       -11.3434
  23   2.0000      -0.402772       -10.9600
  24   2.0000      -0.387127       -10.5342
  25   2.0000      -0.373092       -10.1523
  26   2.0000      -0.371077       -10.0975
  27   2.0000      -0.353435        -9.6175
  28   2.0000      -0.349619        -9.5136
  29   2.0000      -0.329570        -8.9681
  30   2.0000      -0.310959        -8.4616
  31   2.0000      -0.296190        -8.0597
  32   2.0000      -0.290246        -7.8980
  33   2.0000      -0.275117        -7.4863
  34   2.0000      -0.268476        -7.3056
  35   2.0000      -0.205901        -5.6028
  36   2.0000      -0.169901        -4.6232
  37   0.0000      -0.018604        -0.5062
  38   0.0000      -0.010251        -0.2789
  39   0.0000       0.028077         0.7640
  40   0.0000       0.043831         1.1927
  41   0.0000       0.058698         1.5973

MULLIKEN ATOMIC CHARGES
-----------------------
   0 C :   -0.226917
   1 C :    0.084023
   2 C :   -0.121366
   3 C :   -0.188127
   4 C :    0.187996
   5 C :    0.227803
   6 C :   -0.307080
   7 O :   -0.255644
   8 C :   -0.113447
   9 O :   -0.327558
  10 H :    0.115421
  11 H :    0.098925
  12 H :    0.105886
  13 H :    0.026884
  14 H :    0.020703
  15 H :    0.020313
  16 H :    0.107012
  17 H :    0.106853
  18 H :    0.124359
  19 H :    0.313961
Sum of atomic charges:    0.0000000

LOEWDIN ATOMIC CHARGES
----------------------
   0 C :   -0.321235
   1 C :   -0.062680
   2 C :   -0.141180
   3 C :   -0.173629
   4 C :    0.003361
   5 C :    0.012310
   6 C :   -0.173030
   7 O :   -0.080367
   8 C :   -0.203857
   9 O :   -0.232656
  10 H :    0.130485
  11 H :    0.121893
  12 H :    0.126292
  13 H :    0.119149
  14 H :    0.119580
  15 H :    0.124189
  16 H :    0.106847
  17 H :    0.106921
  18 H :    0.121550
  19 H :    0.296056

  Mayer bond orders larger than 0.100000
B(  0-C ,  1-C ) :   1.0945 B(  0-C , 10-H ) :   0.9346 B(  0-C , 11-H ) :   0.9445
B(  0-C , 12-H ) :   0.9423 B(  1-C ,  2-C ) :   1.4031 B(  1-C ,  6-C ) :   1.3126
B(  2-C ,  3-C ) :   1.3090 B(  2-C , 13-H ) :   0.9679 B(  3-C ,  4-C ) :   1.3547
B(  3-C , 14-H ) :   0.9630 B(  4-C ,  5-C ) :   1.3434 B(  4-C ,  9-O ) :   1.2116
B(  5-C ,  6-C ) :   1.3073 B(  5-C ,  7-O ) :   1.1683 B(  6-C , 15-H ) :   0.9637
B(  7-O ,  8-C ) :   0.9994 B(  8-C , 16-H ) :   0.9400 B(  8-C , 17-H ) :   0.9402
B(  8-C , 18-H ) :   0.9580 B(  9-O , 19-H ) :   0.8439

Dispersion correction           -0.020051733
FINAL SINGLE POINT ENERGY      -460.305210940834

DIPOLE MOMENT
-------------

Method             : SCF
Type of density    : Electron Density
Multiplicity       :   1
Irrep              :   0
Energy             :  -460.3723316096086364 Eh
Relativity type    :
Basis              : AO
                                X                 Y                 Z
Electronic contribution:      5.216983039      -6.199679578      -0.022246633
Nuclear contribution   :     -5.433354298       6.266464732       0.038804098
                        -----------------------------------------
Total Dipole Moment    :     -0.216371259       0.066785153       0.016557465
                        -----------------------------------------
Magnitude (a.u.)       :      0.227048295
Magnitude (Debye)      :      0.577110902

Rotational constants in cm-1:             0.062184             0.039583             0.024409
Rotational constants in MHz :          1864.222162          1186.654389           731.765119

                             ****ORCA TERMINATED NORMALLY****
TOTAL RUN TIME: 0 days 0 hours 0 minutes 6 seconds 2 msec
