                         Program Version 6.0.1  -  RELEASE   -
|  1> ! r2scan-3c def2/J RI DEFGRID2 scfconv6 printgap
|  2> %output
|  3>     printlevel normal
|  4> end
|  5> * xyz 0 1
|  6> C 2.0645419598 0.0372640234 -0.1204130636
|  7> C 0.7573837377 0.6737643771 0.3339547152
|  8> C -0.4553814094 0.0191901897 -0.3309319889
|  9> H -0.3108950697 0.0279987587 -1.4256107775
| 10> C -1.744935315 0.7698836492 0.0041247206
| 11> O -0.5143044443 -1.3207545788 0.1214172091
| 12> H 2.2075681844 0.1792991939 -1.1896378649
| 13> H 2.0443456714 -1.028625093 0.0880959313
| 14> H 2.9065656665 0.4823548003 0.4040031253
| 15> H 0.7571298066 1.7389304663 0.0963649945
| 16> H 0.6527208651 0.5590632083 1.4137963165
| 17> H -1.9023214612 0.771701927 1.0803501296
| 18> H -1.6859281099 1.7969709538 -0.345198689
| 19> H -2.6006000525 0.2922008131 -0.4716360492
| 20> H -1.3121442349 -1.7307464908 -0.228133201
| 21> *
| 22>
| 23>                          ****END OF INPUT****

CARTESIAN COORDINATES (ANGSTROEM)
---------------------------------
  C      2.064542    0.037264   -0.120413
  C      0.757384    0.673764    0.333955
  C     -0.455381    0.019190   -0.330932
  H     -0.310895    0.027999   -1.425611
  C     -1.744935    0.769884    0.004125
  O     -0.514304   -1.320755    0.121417
  H      2.207568    0.179299   -1.189638
  H      2.044346   -1.028625    0.088096
  H      2.906566    0.482355    0.404003
  H      0.757130    1.738930    0.096365
  H      0.652721    0.559063    1.413796
  H     -1.902321    0.771702    1.080350
  H     -1.685928    1.796971   -0.345199
  H     -2.600600    0.292201   -0.471636
  H     -1.312144   -1.730746   -0.228133

 Total Charge           Charge          ....    0
 Multiplicity           Mult            ....    1
 Number of Electrons    NEL             ....   42
 Basis Dimension        Dim             ....  150

ORBITAL ENERGIES
----------------

  NO   OCC          E(Eh)            E(eV)
   0   2.0000     -18.944558      -515.5076
   1   2.0000     -10.079410      -274.2747
   2   2.0000     -10.022064      -272.7142
   3   2.0000     -10.020081      -272.6603
   4   2.0000     -10.009246      -272.3654
   5   2.0000      -0.985018       -26.8037
   6   2.0000      -0.750529       -20.4229
   7   2.0000      -0.691177       -18.8079
   8   2.0000      -0.601532       -16.3685
   9   2.0000      -0.543344       -14.7851
  10   2.0000      -0.481929       -13.1140
  11   2.0000      -0.415053       -11.2942
  12   2.0000      -0.404210       -10.9991
  13   2.0000      -0.390696       -10.6314
  14   2.0000      -0.374331       -10.1861
  15   2.0000      -0.344895        -9.3851
  16   2.0000      -0.321088        -8.7372
  17   2.0000      -0.316262        -8.6059
  18   2.0000      -0.305717        -8.3190
  19   2.0000      -0.280576        -7.6349
  20   2.0000      -0.234079        -6.3696
  21   0.0000       0.064373         1.7517
  22   0.0000       0.112778         3.0688
  23   0.0000       0.118287         3.2187
  24   0.0000       0.141481         3.8499
  25   0.0000       0.144518         3.9325

MULLIKEN ATOMIC CHARGES
-----------------------
   0 C :   -0.499271
   1 C :   -0.228228
   2 C :    0.070448
   3 H :    0.121173
   4 C :   -0.486391
   5 O :   -0.429034
   6 H :    0.138835
   7 H :    0.170695
   8 H :    0.143815
   9 H :    0.128482
  10 H :    0.146611
  11 H :    0.158420
  12 H :    0.145718
  13 H :    0.134498
  14 H :    0.284229
Sum of atomic charges:   -0.0000000

LOEWDIN ATOMIC CHARGES
----------------------
   0 C :   -0.418756
   1 C :   -0.282819
   2 C :    0.045068
   3 H :    0.158761
   4 C :   -0.402299
   5 O :   -0.618879
   6 H :    0.149335
   7 H :    0.163723
   8 H :    0.149099
   9 H :    0.156769
  10 H :    0.164190
  11 H :    0.161375
  12 H :    0.157789
  13 H :    0.150257
  14 H :    0.266386

  Mayer bond orders larger than 0.100000
B(  0-C ,  1-C ) :   0.9058 B(  0-C ,  6-H ) :   0.9816 B(  0-C ,  7-H ) :   0.9775
B(  0-C ,  8-H ) :   0.9759 B(  1-C ,  2-C ) :   0.9586 B(  1-C ,  9-H ) :   0.9666
B(  1-C , 10-H ) :   0.9710 B(  2-C ,  3-H ) :   0.9482 B(  2-C ,  4-C ) :   0.9259
B(  2-C ,  5-O ) :   0.8444 B(  4-C , 11-H ) :   0.9821 B(  4-C , 12-H ) :   0.9739
B(  4-C , 13-H ) :   0.9720 B(  5-O , 14-H ) :   0.9041

Dispersion correction           -0.003132396
FINAL SINGLE POINT ENERGY      -233.604347455832

DIPOLE MOMENT
-------------

Method             : SCF
Type of density    : Electron Density
Multiplicity       :   1
Irrep              :   0
Energy             :  -233.6093677426339639 Eh
Relativity type    :
Basis              : AO
                                X                 Y                 Z
Electronic contribution:     -1.117023951      -2.616075193       0.231273356
Nuclear contribution   :      0.702033485       2.878527138      -0.540087252
                        -----------------------------------------
Total Dipole Moment    :     -0.414990466       0.262451944      -0.308813896
                        -----------------------------------------
Magnitude (a.u.)       :      0.580055284
Magnitude (Debye)      :      1.474383360

Rotational constants in cm-1:             0.269888             0.115894             0.089956
Rotational constants in MHz :          8091.050385          3474.417719          2696.802808

                             ****ORCA TERMINATED NORMALLY****
TOTAL RUN TIME: 0 days 0 hours 0 minutes 10 seconds 538 msec
