                         Program Version 6.0.1  -  RELEASE   -
|  1> ! pbe def2-sv(p) def2/J RI DEFGRID1 loosescf d4 GCP(DFT/SV(P)) printgap
|  2> %output
|  3>     printlevel normal
|  4> end
|  5> * xyz 0 1
|  6> C -2.763298709 0.3291167548 1.3352094563
|  7> O -1.4571353117 0.0744021518 0.8386458198
|  8> C -1.3266302817 -0.1234369079 -0.4798564723
|  9> O -2.252586423 -0.1096685497 -1.248933161
| 10> C 0.1176837153 -0.3235129822 -0.8894088862
| 11> C 0.8385401698 -1.3487392347 -0.0018245581
| 12> C 2.3417150978 -1.0952271338 -0.0239267145
| 13> C 2.6715763173 0.2388742735 0.6573235011
| 14> C 1.5294594632 1.2480020888 0.4903406108
| 15> C 0.834044818 1.0443537006 -0.8492795504
| 16> H -3.5094910397 -0.0622891293 0.6412391926
| 17> H -2.9050453358 1.4055124587 1.4508354508
| 18> H -2.8425227434 -0.1627233295 2.3030340655
| 19> H 0.0935181812 -0.6764454662 -1.9246272935
| 20> H 0.4778566265 -1.2696082541 1.0238034469
| 21> H 0.6178581807 -2.3562588816 -0.3586781282
| 22> H 2.8639606559 -1.9089697174 0.481508851
| 23> H 2.6823855345 -1.0831343917 -1.0609642991
| 24> H 2.8526746959 0.0775978235 1.7213204419
| 25> H 3.5900672324 0.6434289016 0.2280259904
| 26> H 0.796324189 1.1229383213 1.2879093999
| 27> H 1.920490924 2.2647162184 0.5566054109
| 28> H 0.111195106 1.8424769162 -1.0307279133
| 29> H 1.5745305878 1.0868688207 -1.6494777949
| 30> *
| 31>
| 32>                          ****END OF INPUT****

CARTESIAN COORDINATES (ANGSTROEM)
---------------------------------
  C     -2.763299    0.329117    1.335209
  O     -1.457135    0.074402    0.838646
  C     -1.326630   -0.123437   -0.479856
  O     -2.252586   -0.109669   -1.248933
  C      0.117684   -0.323513   -0.889409
  C      0.838540   -1.348739   -0.001825
  C      2.341715   -1.095227   -0.023927
  C      2.671576    0.238874    0.657324
  C      1.529459    1.248002    0.490341
  C      0.834045    1.044354   -0.849280
  H     -3.509491   -0.062289    0.641239
  H     -2.905045    1.405512    1.450835
  H     -2.842523   -0.162723    2.303034
  H      0.093518   -0.676445   -1.924627
  H      0.477857   -1.269608    1.023803
  H      0.617858   -2.356259   -0.358678
  H      2.863961   -1.908970    0.481509
  H      2.682386   -1.083134   -1.060964
  H      2.852675    0.077598    1.721320
  H      3.590067    0.643429    0.228026
  H      0.796324    1.122938    1.287909
  H      1.920491    2.264716    0.556605
  H      0.111195    1.842477   -1.030728
  H      1.574531    1.086869   -1.649478

 Total Charge           Charge          ....    0
 Multiplicity           Mult            ....    1
 Number of Electrons    NEL             ....   78
 Basis Dimension        Dim             ....  168

ORBITAL ENERGIES
----------------

  NO   OCC          E(Eh)            E(eV)
   0   2.0000     -18.798156      -511.5238
   1   2.0000     -18.733684      -509.7694
   2   2.0000     -10.002463      -272.1809
   3   2.0000      -9.938301      -270.4349
   4   2.0000      -9.902517      -269.4612
   5   2.0000      -9.891222      -269.1538
   6   2.0000      -9.886016      -269.0122
   7   2.0000      -9.884199      -268.9627
   8   2.0000      -9.882688      -268.9216
   9   2.0000      -9.881406      -268.8867
  10   2.0000      -1.005177       -27.3523
  11   2.0000      -0.913305       -24.8523
  12   2.0000      -0.763373       -20.7724
  13   2.0000      -0.690861       -18.7993
  14   2.0000      -0.666880       -18.1467
  15   2.0000      -0.648164       -17.6374
  16   2.0000      -0.560772       -15.2594
  17   2.0000      -0.556036       -15.1305
  18   2.0000      -0.508300       -13.8315
  19   2.0000      -0.476392       -12.9633
  20   2.0000      -0.455846       -12.4042
  21   2.0000      -0.443559       -12.0698
  22   2.0000      -0.432574       -11.7709
  23   2.0000      -0.416982       -11.3467
  24   2.0000      -0.397340       -10.8122
  25   2.0000      -0.381347       -10.3770
  26   2.0000      -0.369653       -10.0588
  27   2.0000      -0.357241        -9.7210
  28   2.0000      -0.339127        -9.2281
  29   2.0000      -0.335200        -9.1213
  30   2.0000      -0.326571        -8.8864
  31   2.0000      -0.323273        -8.7967
  32   2.0000      -0.313538        -8.5318
  33   2.0000      -0.300753        -8.1839
  34   2.0000      -0.273644        -7.4462
  35   2.0000      -0.265334        -7.2201
  36   2.0000      -0.264553        -7.1989
  37   2.0000      -0.254877        -6.9356
  38   2.0000      -0.214489        -5.8365
  39   0.0000      -0.016917        -0.4603
  40   0.0000       0.027714         0.7541
  41   0.0000       0.044456         1.2097
  42   0.0000       0.061629         1.6770
  43   0.0000       0.072818         1.9815

MULLIKEN ATOMIC CHARGES
-----------------------
   0 C :   -0.126728
   1 O :   -0.249802
   2 C :    0.122620
   3 O :   -0.182907
   4 C :   -0.143157
   5 C :   -0.125689
   6 C :   -0.148935
   7 C :   -0.161629
   8 C :   -0.151212
   9 C :   -0.143479
  10 H :    0.130704
  11 H :    0.118115
  12 H :    0.119749
  13 H :    0.079741
  14 H :    0.091925
  15 H :    0.089523
  16 H :    0.086287
  17 H :    0.075716
  18 H :    0.081840
  19 H :    0.080834
  20 H :    0.087628
  21 H :    0.085355
  22 H :    0.098110
  23 H :    0.085390
Sum of atomic charges:   -0.0000000

LOEWDIN ATOMIC CHARGES
----------------------
   0 C :   -0.211768
   1 O :   -0.072833
   2 C :    0.043763
   3 O :   -0.155236
   4 C :   -0.158118
   5 C :   -0.220326
   6 C :   -0.228490
   7 C :   -0.228834
   8 C :   -0.234463
   9 C :   -0.208640
  10 H :    0.122870
  11 H :    0.117418
  12 H :    0.118850
  13 H :    0.131455
  14 H :    0.120249
  15 H :    0.120780
  16 H :    0.119053
  17 H :    0.114429
  18 H :    0.116709
  19 H :    0.115488
  20 H :    0.117088
  21 H :    0.118375
  22 H :    0.122343
  23 H :    0.119838

  Mayer bond orders larger than 0.100000
B(  0-C ,  1-O ) :   0.9461 B(  0-C , 10-H ) :   0.9317 B(  0-C , 11-H ) :   0.9591
B(  0-C , 12-H ) :   0.9600 B(  1-O ,  2-C ) :   1.1768 B(  2-C ,  3-O ) :   2.1000
B(  2-C ,  4-C ) :   0.9672 B(  4-C ,  5-C ) :   1.0835 B(  4-C ,  9-C ) :   1.0692
B(  4-C , 13-H ) :   0.8798 B(  5-C ,  6-C ) :   1.1844 B(  5-C , 14-H ) :   0.8966
B(  5-C , 15-H ) :   0.9184 B(  6-C ,  7-C ) :   1.1405 B(  6-C , 16-H ) :   0.9217
B(  6-C , 17-H ) :   0.9070 B(  7-C ,  8-C ) :   1.1444 B(  7-C , 18-H ) :   0.9216
B(  7-C , 19-H ) :   0.9221 B(  8-C ,  9-C ) :   1.1790 B(  8-C , 20-H ) :   0.8975
B(  8-C , 21-H ) :   0.9195 B(  9-C , 22-H ) :   0.9178 B(  9-C , 23-H ) :   0.9043

Dispersion correction           -0.023300070
FINAL SINGLE POINT ENERGY      -462.695695992205

DIPOLE MOMENT
-------------

Method             : SCF
Type of density    : Electron Density
Multiplicity       :   1
Irrep              :   0
Energy             :  -462.7839548286260651 Eh
Relativity type    :
Basis              : AO
                                X                 Y                 Z
Electronic contribution:     -7.425599689      -0.772054831      -2.782041625
Nuclear contribution   :      7.754116867       0.866447054       3.436809184
                        -----------------------------------------
Total Dipole Moment    :      0.328517179       0.094392223       0.654767559
                        -----------------------------------------
Magnitude (a.u.)       :      0.738616263
Magnitude (Debye)      :      1.877413341

Rotational constants in cm-1:             0.081476             0.028716             0.027330
Rotational constants in MHz :          2442.598194           860.875196           819.340967

                             ****ORCA TERMINATED NORMALLY****
TOTAL RUN TIME: 0 days 0 hours 0 minutes 8 seconds 509 msec
