                         Program Version 6.0.1  -  RELEASE   -
|  1> ! pbe def2-sv(p) def2/J RI DEFGRID1 loosescf d4 GCP(DFT/SV(P)) printgap
|  2> %output
|  3>     printlevel normal
|  4> end
|  5> * xyz 0 1
|  6> C -2.5828374519 0.8760555643 -0.1324420604
|  7> C -1.426153007 -0.050301399 0.1550325302
|  8> O -1.3907407988 -0.7341954695 1.1459679594
|  9> C -0.351400386 -0.0784308583 -0.9243881168
| 10> C 0.5302566147 -1.3368049301 -0.8258852593
| 11> C 1.8974597932 -1.0473360718 -0.2035256733
| 12> C 1.7311578498 -0.1049438249 0.9823470362
| 13> C 1.2400190568 1.2721829208 0.5146378567
| 14> C 0.5152166524 1.1864489646 -0.8305563034
| 15> H -3.1451195777 1.0651784455 0.7783155787
| 16> H -2.2493752112 1.8133780807 -0.5673534793
| 17> H -3.2405650529 0.3847960826 -0.8485938296
| 18> H -0.8716515896 -0.0620214369 -1.8883860786
| 19> H 0.011263661 -2.0677263307 -0.2025340978
| 20> H 0.663664044 -1.774985635 -1.8165980981
| 21> H 2.3487492011 -1.9852883845 0.1239936082
| 22> H 2.5687006902 -0.6001766955 -0.939820386
| 23> H 1.0023912994 -0.5433165284 1.6648151319
| 24> H 2.6739966039 -0.0014605287 1.5216355594
| 25> H 0.5672005584 1.6892511349 1.266500638
| 26> H 2.0823781033 1.9598144123 0.411855801
| 27> H -0.0930079673 2.080569226 -0.9790184902
| 28> H 1.2425399961 1.153762177 -1.6436999492
| 29> *
| 30>
| 31>                          ****END OF INPUT****

CARTESIAN COORDINATES (ANGSTROEM)
---------------------------------
  C     -2.582837    0.876056   -0.132442
  C     -1.426153   -0.050301    0.155033
  O     -1.390741   -0.734195    1.145968
  C     -0.351400   -0.078431   -0.924388
  C      0.530257   -1.336805   -0.825885
  C      1.897460   -1.047336   -0.203526
  C      1.731158   -0.104944    0.982347
  C      1.240019    1.272183    0.514638
  C      0.515217    1.186449   -0.830556
  H     -3.145120    1.065178    0.778316
  H     -2.249375    1.813378   -0.567353
  H     -3.240565    0.384796   -0.848594
  H     -0.871652   -0.062021   -1.888386
  H      0.011264   -2.067726   -0.202534
  H      0.663664   -1.774986   -1.816598
  H      2.348749   -1.985288    0.123994
  H      2.568701   -0.600177   -0.939820
  H      1.002391   -0.543317    1.664815
  H      2.673997   -0.001461    1.521636
  H      0.567201    1.689251    1.266501
  H      2.082378    1.959814    0.411856
  H     -0.093008    2.080569   -0.979018
  H      1.242540    1.153762   -1.643700

 Total Charge           Charge          ....    0
 Multiplicity           Mult            ....    1
 Number of Electrons    NEL             ....   70
 Basis Dimension        Dim             ....  154

ORBITAL ENERGIES
----------------

  NO   OCC          E(Eh)            E(eV)
   0   2.0000     -18.742036      -509.9967
   1   2.0000      -9.973429      -271.3908
   2   2.0000      -9.900244      -269.3993
   3   2.0000      -9.894939      -269.2550
   4   2.0000      -9.887053      -269.0404
   5   2.0000      -9.882773      -268.9239
   6   2.0000      -9.878592      -268.8101
   7   2.0000      -9.877784      -268.7882
   8   2.0000      -9.872661      -268.6488
   9   2.0000      -0.944243       -25.6941
  10   2.0000      -0.758974       -20.6527
  11   2.0000      -0.690183       -18.7808
  12   2.0000      -0.664678       -18.0868
  13   2.0000      -0.651802       -17.7364
  14   2.0000      -0.564660       -15.3652
  15   2.0000      -0.544036       -14.8040
  16   2.0000      -0.490733       -13.3535
  17   2.0000      -0.452716       -12.3190
  18   2.0000      -0.440904       -11.9976
  19   2.0000      -0.430365       -11.7108
  20   2.0000      -0.413819       -11.2606
  21   2.0000      -0.392366       -10.6768
  22   2.0000      -0.379257       -10.3201
  23   2.0000      -0.367763       -10.0073
  24   2.0000      -0.350503        -9.5377
  25   2.0000      -0.342363        -9.3162
  26   2.0000      -0.330636        -8.9971
  27   2.0000      -0.328069        -8.9272
  28   2.0000      -0.322522        -8.7763
  29   2.0000      -0.316937        -8.6243
  30   2.0000      -0.304037        -8.2733
  31   2.0000      -0.265510        -7.2249
  32   2.0000      -0.262054        -7.1309
  33   2.0000      -0.258124        -7.0239
  34   2.0000      -0.197925        -5.3858
  35   0.0000      -0.049840        -1.3562
  36   0.0000       0.022115         0.6018
  37   0.0000       0.049632         1.3506
  38   0.0000       0.065662         1.7868
  39   0.0000       0.076326         2.0769

MULLIKEN ATOMIC CHARGES
-----------------------
   0 C :   -0.248349
   1 C :    0.008189
   2 O :   -0.152512
   3 C :   -0.207982
   4 C :   -0.090990
   5 C :   -0.161837
   6 C :   -0.159931
   7 C :   -0.165042
   8 C :   -0.123716
   9 H :    0.118442
  10 H :    0.119592
  11 H :    0.127379
  12 H :    0.077921
  13 H :    0.093522
  14 H :    0.076392
  15 H :    0.086804
  16 H :    0.071204
  17 H :    0.100965
  18 H :    0.081366
  19 H :    0.088222
  20 H :    0.084064
  21 H :    0.090439
  22 H :    0.085857
Sum of atomic charges:   -0.0000000

LOEWDIN ATOMIC CHARGES
----------------------
   0 C :   -0.362465
   1 C :    0.049300
   2 O :   -0.116628
   3 C :   -0.172763
   4 C :   -0.220426
   5 C :   -0.224540
   6 C :   -0.237184
   7 C :   -0.230765
   8 C :   -0.210509
   9 H :    0.134517
  10 H :    0.132793
  11 H :    0.147783
  12 H :    0.128222
  13 H :    0.124037
  14 H :    0.116857
  15 H :    0.119221
  16 H :    0.109855
  17 H :    0.123619
  18 H :    0.115647
  19 H :    0.118254
  20 H :    0.118157
  21 H :    0.115167
  22 H :    0.121851

  Mayer bond orders larger than 0.100000
B(  0-C ,  1-C ) :   1.0713 B(  0-C ,  9-H ) :   0.9346 B(  0-C , 10-H ) :   0.9302
B(  0-C , 11-H ) :   0.9174 B(  1-C ,  2-O ) :   2.1711 B(  1-C ,  3-C ) :   0.9092
B(  3-C ,  4-C ) :   1.0691 B(  3-C ,  8-C ) :   1.1169 B(  3-C , 12-H ) :   0.8806
B(  4-C ,  5-C ) :   1.1653 B(  4-C , 13-H ) :   0.9024 B(  4-C , 14-H ) :   0.9099
B(  5-C ,  6-C ) :   1.1850 B(  5-C , 15-H ) :   0.9196 B(  5-C , 16-H ) :   0.9054
B(  6-C ,  7-C ) :   1.1458 B(  6-C , 17-H ) :   0.8988 B(  6-C , 18-H ) :   0.9218
B(  7-C ,  8-C ) :   1.1565 B(  7-C , 19-H ) :   0.9120 B(  7-C , 20-H ) :   0.9168
B(  8-C , 21-H ) :   0.9134 B(  8-C , 22-H ) :   0.8937

Dispersion correction           -0.023040260
FINAL SINGLE POINT ENERGY      -387.600672391018

DIPOLE MOMENT
-------------

Method             : SCF
Type of density    : Electron Density
Multiplicity       :   1
Irrep              :   0
Energy             :  -387.6784523442677255 Eh
Relativity type    :
Basis              : AO
                                X                 Y                 Z
Electronic contribution:     -3.350845387      -2.376186191       2.146036140
Nuclear contribution   :      3.320337643       2.908471740      -2.909038933
                        -----------------------------------------
Total Dipole Moment    :     -0.030507744       0.532285548      -0.763002793
                        -----------------------------------------
Magnitude (a.u.)       :      0.930823232
Magnitude (Debye)      :      2.365964629

Rotational constants in cm-1:             0.085370             0.044043             0.040797
Rotational constants in MHz :          2559.315018          1320.364174          1223.048512

                             ****ORCA TERMINATED NORMALLY****
TOTAL RUN TIME: 0 days 0 hours 0 minutes 11 seconds 486 msec
