                         Program Version 6.0.1  -  RELEASE   -
|  1> ! r2scan-3c def2/J RI DEFGRID2 scfconv6 printgap
|  2> %output
|  3>     printlevel normal
|  4> end
|  5> * xyz 0 1
|  6> C -0.1398075351 -1.354316966 4.254e-07
|  7> C 1.2271327543 -1.1954357471 -5.3387e-06
|  8> C 1.7802185676 0.0864977046 -1.3135e-06
|  9> C 0.9437578556 1.2020492254 1.18e-08
| 10> C -0.4234162363 1.036823602 -5.874e-07
| 11> C -0.9844685453 -0.2419404163 6.1105e-06
| 12> C -2.4376079835 -0.402884457 1.99323e-05
| 13> O -3.2423643534 0.4957471702 -1.1556e-05
| 14> O 3.1270249893 0.1971540154 3.63e-07
| 15> H -0.5661218344 -2.3469276816 -5.8235e-06
| 16> H 1.8938555772 -2.0428989076 -1.31987e-05
| 17> H 1.3751751467 2.1944526087 3.9767e-06
| 18> H -1.08548506 1.8895579654 5.985e-06
| 19> H -2.7678938747 -1.4617547625 -5.0085e-05
| 20> H 3.3888172994 1.1266765437 7.5389e-06
| 21> *
| 22>
| 23>                          ****END OF INPUT****

CARTESIAN COORDINATES (ANGSTROEM)
---------------------------------
  C     -0.139808   -1.354317    0.000000
  C      1.227133   -1.195436   -0.000005
  C      1.780219    0.086498   -0.000001
  C      0.943758    1.202049    0.000000
  C     -0.423416    1.036824   -0.000001
  C     -0.984469   -0.241940    0.000006
  C     -2.437608   -0.402884    0.000020
  O     -3.242364    0.495747   -0.000012
  O      3.127025    0.197154    0.000000
  H     -0.566122   -2.346928   -0.000006
  H      1.893856   -2.042899   -0.000013
  H      1.375175    2.194453    0.000004
  H     -1.085485    1.889558    0.000006
  H     -2.767894   -1.461755   -0.000050
  H      3.388817    1.126677    0.000008

 Total Charge           Charge          ....    0
 Multiplicity           Mult            ....    1
 Number of Electrons    NEL             ....   64
 Basis Dimension        Dim             ....  211

ORBITAL ENERGIES
----------------

  NO   OCC          E(Eh)            E(eV)
   0   2.0000     -19.010476      -517.3014
   1   2.0000     -18.939550      -515.3714
   2   2.0000     -10.123973      -275.4873
   3   2.0000     -10.112187      -275.1666
   4   2.0000     -10.061242      -273.7803
   5   2.0000     -10.057244      -273.6715
   6   2.0000     -10.056112      -273.6407
   7   2.0000     -10.051316      -273.5102
   8   2.0000     -10.048881      -273.4440
   9   2.0000      -1.057122       -28.7658
  10   2.0000      -1.006936       -27.4001
  11   2.0000      -0.845069       -22.9955
  12   2.0000      -0.743307       -20.2264
  13   2.0000      -0.741254       -20.1706
  14   2.0000      -0.631880       -17.1943
  15   2.0000      -0.612592       -16.6695
  16   2.0000      -0.551174       -14.9982
  17   2.0000      -0.539136       -14.6706
  18   2.0000      -0.488427       -13.2908
  19   2.0000      -0.448166       -12.1952
  20   2.0000      -0.426505       -11.6058
  21   2.0000      -0.412469       -11.2238
  22   2.0000      -0.408879       -11.1262
  23   2.0000      -0.408512       -11.1162
  24   2.0000      -0.377119       -10.2619
  25   2.0000      -0.375057       -10.2058
  26   2.0000      -0.362938        -9.8761
  27   2.0000      -0.325362        -8.8535
  28   2.0000      -0.323046        -8.7905
  29   2.0000      -0.260577        -7.0907
  30   2.0000      -0.228782        -6.2255
  31   2.0000      -0.220812        -6.0086
  32   0.0000      -0.086810        -2.3622
  33   0.0000      -0.052110        -1.4180
  34   0.0000       0.012788         0.3480
  35   0.0000       0.040489         1.1018
  36   0.0000       0.073660         2.0044

MULLIKEN ATOMIC CHARGES
-----------------------
   0 C :   -0.190338
   1 C :   -0.300482
   2 C :    0.449523
   3 C :   -0.319824
   4 C :   -0.150319
   5 C :    0.192909
   6 C :    0.011383
   7 O :   -0.351608
   8 O :   -0.397031
   9 H :    0.155963
  10 H :    0.159206
  11 H :    0.141211
  12 H :    0.181465
  13 H :    0.099281
  14 H :    0.318660
Sum of atomic charges:   -0.0000000

LOEWDIN ATOMIC CHARGES
----------------------
   0 C :   -0.119635
   1 C :   -0.138970
   2 C :    0.201406
   3 C :   -0.160976
   4 C :   -0.089327
   5 C :   -0.121278
   6 C :    0.206092
   7 O :   -0.463639
   8 O :   -0.473136
   9 H :    0.175278
  10 H :    0.182993
  11 H :    0.171961
  12 H :    0.189359
  13 H :    0.153521
  14 H :    0.286353

  Mayer bond orders larger than 0.100000
B(  0-C ,  1-C ) :   1.4271 B(  0-C ,  5-C ) :   1.3487 B(  0-C ,  9-H ) :   0.9260
B(  1-C ,  2-C ) :   1.3983 B(  1-C ,  8-O ) :   0.1002 B(  1-C , 10-H ) :   0.9532
B(  2-C ,  3-C ) :   1.2886 B(  2-C ,  8-O ) :   0.9390 B(  3-C ,  4-C ) :   1.4449
B(  3-C , 11-H ) :   0.9371 B(  4-C ,  5-C ) :   1.3756 B(  4-C , 12-H ) :   0.9515
B(  5-C ,  6-C ) :   0.8517 B(  5-C ,  7-O ) :  -0.1117 B(  5-C , 13-H ) :  -0.1289
B(  6-C ,  7-O ) :   1.9479 B(  6-C , 13-H ) :   1.0505 B(  8-O , 14-H ) :   0.8794

Dispersion correction           -0.004924708
FINAL SINGLE POINT ENERGY      -420.713965665206

DIPOLE MOMENT
-------------

Method             : SCF
Type of density    : Electron Density
Multiplicity       :   1
Irrep              :   0
Energy             :  -420.7139703663057730 Eh
Relativity type    :
Basis              : AO
                                X                 Y                 Z
Electronic contribution:     -0.653027085       0.592697962       0.000058060
Nuclear contribution   :      2.098246308      -0.591008522      -0.000048582
                        -----------------------------------------
Total Dipole Moment    :      1.445219223       0.001689440       0.000009478
                        -----------------------------------------
Magnitude (a.u.)       :      1.445220211
Magnitude (Debye)      :      3.673457842

Rotational constants in cm-1:             0.171311             0.033500             0.028020
Rotational constants in MHz :          5135.789278          1004.296919           840.030121

                             ****ORCA TERMINATED NORMALLY****
TOTAL RUN TIME: 0 days 0 hours 0 minutes 29 seconds 907 msec
