                         Program Version 6.0.1  -  RELEASE   -
|  1> ! r2scan-3c def2/J RI DEFGRID2 scfconv6 printgap
|  2> %output
|  3>     printlevel normal
|  4> end
|  5> * xyz 0 1
|  6> C 0.7401570553 -0.0004065057 -0.0001318876
|  7> C 1.4436806245 -0.9535606415 0.7323909662
|  8> C 2.8376584854 -0.9593713669 0.7360997158
|  9> C 3.5333990231 0.0001530552 -0.0002679995
| 10> C 2.8372157923 0.9593606827 -0.7365927589
| 11> C 1.4432424725 0.9530080787 -0.7327772723
| 12> Cl 0.5786170034 2.1145089707 -1.6468759946
| 13> Cl 3.691380345 2.1342302648 -1.6394137563
| 14> Cl 5.2426080421 0.0006968876 -9.25121e-05
| 15> Cl 3.6923534559 -2.1337558774 1.6389891465
| 16> Cl 0.5795954168 -2.1154967844 1.6464488655
| 17> C -0.7401586374 -0.0003854375 8.48214e-05
| 18> C -1.4436945906 -0.9535362267 -0.7324400047
| 19> C -2.83768253 -0.9592608764 -0.7361614492
| 20> C -3.5334087813 0.0003246495 0.0001002651
| 21> C -2.8371946424 0.9594800683 0.7365129288
| 22> C -1.4432341574 0.9530137202 0.7327569778
| 23> Cl -0.5785964376 2.1144824307 1.6468837444
| 24> Cl -3.691294832 2.1343164915 1.6394046005
| 25> Cl -5.2425846283 0.0006967881 0.0001741788
| 26> Cl -3.6924491596 -2.1338278725 -1.6388104166
| 27> Cl -0.5796224686 -2.1154512599 -1.6465636357
| 28> *
| 29>
| 30>                          ****END OF INPUT****

CARTESIAN COORDINATES (ANGSTROEM)
---------------------------------
  C      0.740157   -0.000407   -0.000132
  C      1.443681   -0.953561    0.732391
  C      2.837658   -0.959371    0.736100
  C      3.533399    0.000153   -0.000268
  C      2.837216    0.959361   -0.736593
  C      1.443242    0.953008   -0.732777
  Cl     0.578617    2.114509   -1.646876
  Cl     3.691380    2.134230   -1.639414
  Cl     5.242608    0.000697   -0.000093
  Cl     3.692353   -2.133756    1.638989
  Cl     0.579595   -2.115497    1.646449
  C     -0.740159   -0.000385    0.000085
  C     -1.443695   -0.953536   -0.732440
  C     -2.837683   -0.959261   -0.736161
  C     -3.533409    0.000325    0.000100
  C     -2.837195    0.959480    0.736513
  C     -1.443234    0.953014    0.732757
  Cl    -0.578596    2.114482    1.646884
  Cl    -3.691295    2.134316    1.639405
  Cl    -5.242585    0.000697    0.000174
  Cl    -3.692449   -2.133828   -1.638810
  Cl    -0.579622   -2.115451   -1.646564

 Total Charge           Charge          ....    0
 Multiplicity           Mult            ....    1
 Number of Electrons    NEL             ....  242
 Basis Dimension        Dim             ....  498

ORBITAL ENERGIES
----------------

  NO   OCC          E(Eh)            E(eV)
   0   2.0000    -101.250914     -2755.1774
   1   2.0000    -101.250912     -2755.1774
   2   2.0000    -101.250378     -2755.1628
   3   2.0000    -101.250376     -2755.1628
   4   2.0000    -101.250375     -2755.1628
   5   2.0000    -101.250374     -2755.1627
   6   2.0000    -101.249463     -2755.1379
   7   2.0000    -101.249462     -2755.1379
   8   2.0000    -101.249459     -2755.1379
   9   2.0000    -101.249459     -2755.1378
  10   2.0000     -10.147612      -276.1306
  11   2.0000     -10.147611      -276.1305
  12   2.0000     -10.144232      -276.0386
  13   2.0000     -10.144232      -276.0386
  14   2.0000     -10.144204      -276.0378
  15   2.0000     -10.144203      -276.0378
  16   2.0000     -10.143730      -276.0249
  17   2.0000     -10.143727      -276.0248
  18   2.0000     -10.143727      -276.0248
  19   2.0000     -10.143725      -276.0248
  20   2.0000     -10.106257      -275.0052
  21   2.0000     -10.106056      -274.9998
  22   2.0000      -9.406749      -255.9706
  23   2.0000      -9.406746      -255.9706
  24   2.0000      -9.406229      -255.9565
  25   2.0000      -9.406228      -255.9565
  26   2.0000      -9.406227      -255.9565
  27   2.0000      -9.406226      -255.9564
  28   2.0000      -9.405270      -255.9304
  29   2.0000      -9.405269      -255.9304
  30   2.0000      -9.405266      -255.9303
  31   2.0000      -9.405265      -255.9303
  32   2.0000      -7.153462      -194.6556
  33   2.0000      -7.153459      -194.6555
  34   2.0000      -7.152816      -194.6380
  35   2.0000      -7.152816      -194.6380
  36   2.0000      -7.152814      -194.6380
  37   2.0000      -7.152814      -194.6380
  38   2.0000      -7.151976      -194.6152
  39   2.0000      -7.151975      -194.6151
  40   2.0000      -7.151972      -194.6151
  41   2.0000      -7.151972      -194.6151
  42   2.0000      -7.143081      -194.3731
  43   2.0000      -7.143079      -194.3731
  44   2.0000      -7.142494      -194.3572
  45   2.0000      -7.142493      -194.3571
  46   2.0000      -7.142492      -194.3571
  47   2.0000      -7.142492      -194.3571
  48   2.0000      -7.141933      -194.3419
  49   2.0000      -7.141931      -194.3418
  50   2.0000      -7.141604      -194.3329
  51   2.0000      -7.141603      -194.3329
  52   2.0000      -7.141602      -194.3329
  53   2.0000      -7.141601      -194.3328
  54   2.0000      -7.141562      -194.3318
  55   2.0000      -7.141561      -194.3318
  56   2.0000      -7.141558      -194.3317
  57   2.0000      -7.141558      -194.3317
  58   2.0000      -7.140505      -194.3030
  59   2.0000      -7.140505      -194.3030
  60   2.0000      -7.140502      -194.3029
  61   2.0000      -7.140502      -194.3029
  62   2.0000      -0.948388       -25.8069
  63   2.0000      -0.937745       -25.5173
  64   2.0000      -0.899129       -24.4665
  65   2.0000      -0.896415       -24.3927
  66   2.0000      -0.895404       -24.3652
  67   2.0000      -0.875452       -23.8223
  68   2.0000      -0.851422       -23.1684
  69   2.0000      -0.847908       -23.0727
  70   2.0000      -0.839302       -22.8386
  71   2.0000      -0.833878       -22.6910
  72   2.0000      -0.810680       -22.0597
  73   2.0000      -0.803929       -21.8760
  74   2.0000      -0.758590       -20.6423
  75   2.0000      -0.711383       -19.3577
  76   2.0000      -0.711373       -19.3574
  77   2.0000      -0.709193       -19.2981
  78   2.0000      -0.636587       -17.3224
  79   2.0000      -0.605710       -16.4822
  80   2.0000      -0.600674       -16.3452
  81   2.0000      -0.590705       -16.0739
  82   2.0000      -0.538977       -14.6663
  83   2.0000      -0.529258       -14.4018
  84   2.0000      -0.523439       -14.2435
  85   2.0000      -0.503046       -13.6886
  86   2.0000      -0.478289       -13.0149
  87   2.0000      -0.466418       -12.6919
  88   2.0000      -0.452487       -12.3128
  89   2.0000      -0.452337       -12.3087
  90   2.0000      -0.451803       -12.2942
  91   2.0000      -0.448586       -12.2066
  92   2.0000      -0.447296       -12.1716
  93   2.0000      -0.430309       -11.7093
  94   2.0000      -0.415492       -11.3061
  95   2.0000      -0.413162       -11.2427
  96   2.0000      -0.405232       -11.0269
  97   2.0000      -0.396957       -10.8018
  98   2.0000      -0.386376       -10.5138
  99   2.0000      -0.375533       -10.2188
 100   2.0000      -0.374059       -10.1787
 101   2.0000      -0.346928        -9.4404
 102   2.0000      -0.337171        -9.1749
 103   2.0000      -0.332240        -9.0407
 104   2.0000      -0.332169        -9.0388
 105   2.0000      -0.329813        -8.9747
 106   2.0000      -0.329575        -8.9682
 107   2.0000      -0.329389        -8.9631
 108   2.0000      -0.327613        -8.9148
 109   2.0000      -0.318009        -8.6535
 110   2.0000      -0.315696        -8.5905
 111   2.0000      -0.307277        -8.3614
 112   2.0000      -0.305656        -8.3173
 113   2.0000      -0.304310        -8.2807
 114   2.0000      -0.300418        -8.1748
 115   2.0000      -0.286745        -7.8027
 116   2.0000      -0.285941        -7.7808
 117   2.0000      -0.256532        -6.9806
 118   2.0000      -0.248110        -6.7514
 119   2.0000      -0.244498        -6.6531
 120   2.0000      -0.244471        -6.6524
 121   0.0000      -0.094534        -2.5724
 122   0.0000      -0.083815        -2.2807
 123   0.0000      -0.080495        -2.1904
 124   0.0000      -0.077318        -2.1039
 125   0.0000      -0.076780        -2.0893

MULLIKEN ATOMIC CHARGES
-----------------------
   0 C :    0.087321
   1 C :    0.077706
   2 C :   -0.014303
   3 C :    0.047889
   4 C :   -0.014217
   5 C :    0.077662
   6 Cl:   -0.053925
   7 Cl:   -0.052700
   8 Cl:   -0.048822
   9 Cl:   -0.052687
  10 Cl:   -0.053938
  11 C :    0.087470
  12 C :    0.077562
  13 C :   -0.014170
  14 C :    0.047865
  15 C :   -0.014247
  16 C :    0.077605
  17 Cl:   -0.053930
  18 Cl:   -0.052692
  19 Cl:   -0.048805
  20 Cl:   -0.052710
  21 Cl:   -0.053936
Sum of atomic charges:    0.0000000

LOEWDIN ATOMIC CHARGES
----------------------
   0 C :   -0.112682
   1 C :   -0.163765
   2 C :   -0.196219
   3 C :   -0.189043
   4 C :   -0.196209
   5 C :   -0.163769
   6 Cl:    0.214559
   7 Cl:    0.196111
   8 Cl:    0.200347
   9 Cl:    0.196133
  10 Cl:    0.214538
  11 C :   -0.112681
  12 C :   -0.163759
  13 C :   -0.196206
  14 C :   -0.189056
  15 C :   -0.196216
  16 C :   -0.163772
  17 Cl:    0.214554
  18 Cl:    0.196124
  19 Cl:    0.200369
  20 Cl:    0.196107
  21 Cl:    0.214535

  Mayer bond orders larger than 0.100000
B(  0-C ,  1-C ) :   1.1900 B(  0-C ,  5-C ) :   1.1899 B(  0-C ,  6-Cl) :  -0.1036
B(  0-C , 10-Cl) :  -0.1036 B(  0-C , 11-C ) :   0.7293 B(  0-C , 12-C ) :  -0.1177
B(  0-C , 16-C ) :  -0.1178 B(  1-C ,  2-C ) :   1.0369 B(  1-C , 10-Cl) :   1.2462
B(  1-C , 11-C ) :  -0.1177 B(  2-C ,  3-C ) :   1.0782 B(  2-C ,  9-Cl) :   1.2945
B(  3-C ,  4-C ) :   1.0783 B(  3-C ,  8-Cl) :   1.2999 B(  4-C ,  5-C ) :   1.0370
B(  4-C ,  7-Cl) :   1.2946 B(  5-C ,  6-Cl) :   1.2462 B(  5-C , 11-C ) :  -0.1178
B( 11-C , 12-C ) :   1.1900 B( 11-C , 16-C ) :   1.1900 B( 11-C , 17-Cl) :  -0.1036
B( 11-C , 21-Cl) :  -0.1036 B( 12-C , 13-C ) :   1.0368 B( 12-C , 21-Cl) :   1.2462
B( 13-C , 14-C ) :   1.0784 B( 13-C , 20-Cl) :   1.2945 B( 14-C , 15-C ) :   1.0784
B( 14-C , 19-Cl) :   1.2998 B( 15-C , 16-C ) :   1.0370 B( 15-C , 18-Cl) :   1.2945
B( 16-C , 17-Cl) :   1.2462

Dispersion correction           -0.019911107
FINAL SINGLE POINT ENERGY     -5058.941672226354

DIPOLE MOMENT
-------------

Method             : SCF
Type of density    : Electron Density
Multiplicity       :   1
Irrep              :   0
Energy             : -5058.9388692069369426 Eh
Relativity type    :
Basis              : AO
                                X                 Y                 Z
Electronic contribution:     -0.000037508       0.000533265       0.000254145
Nuclear contribution   :     -0.000009043      -0.000536936      -0.000193574
                        -----------------------------------------
Total Dipole Moment    :     -0.000046550      -0.000003671       0.000060571
                        -----------------------------------------
Magnitude (a.u.)       :      0.000076480
Magnitude (Debye)      :      0.000194398

Rotational constants in cm-1:             0.007714             0.003039             0.002765
Rotational constants in MHz :           231.247572            91.114225            82.885582

                             ****ORCA TERMINATED NORMALLY****
TOTAL RUN TIME: 0 days 0 hours 1 minutes 11 seconds 462 msec
