                         Program Version 6.0.1  -  RELEASE   -
|  1> ! r2scan-3c def2/J RI DEFGRID2 scfconv6 printgap
|  2> %output
|  3>     printlevel normal
|  4> end
|  5> * xyz 0 1
|  6> C 2.0293143283 0.064313675 -0.0001448703
|  7> C 0.7594901066 -0.7741161631 0.0002011116
|  8> C -0.4821750247 0.0802950012 -3.24718e-05
|  9> O -0.520060659 1.2795597523 7.8788e-05
| 10> O -1.5940121691 -0.6732028059 -0.0001014068
| 11> H 2.9059702643 -0.5777955148 6.75225e-05
| 12> H 2.0590235288 0.7020786627 -0.8795173375
| 13> H 2.0590710945 0.7027376031 0.8787465348
| 14> H 0.7150210224 -1.4210827437 -0.8786306191
| 15> H 0.715125012 -1.4204677122 0.8795006096
| 16> H -2.3832009402 -0.1090271003 -9.09185e-05
| 17> *
| 18>
| 19>                          ****END OF INPUT****

CARTESIAN COORDINATES (ANGSTROEM)
---------------------------------
  C      2.029314    0.064314   -0.000145
  C      0.759490   -0.774116    0.000201
  C     -0.482175    0.080295   -0.000032
  O     -0.520061    1.279560    0.000079
  O     -1.594012   -0.673203   -0.000101
  H      2.905970   -0.577796    0.000068
  H      2.059024    0.702079   -0.879517
  H      2.059071    0.702738    0.878747
  H      0.715021   -1.421083   -0.878631
  H      0.715125   -1.420468    0.879501
  H     -2.383201   -0.109027   -0.000091

 Total Charge           Charge          ....    0
 Multiplicity           Mult            ....    1
 Number of Electrons    NEL             ....   40
 Basis Dimension        Dim             ....  135

ORBITAL ENERGIES
----------------

  NO   OCC          E(Eh)            E(eV)
   0   2.0000     -19.000514      -517.0303
   1   2.0000     -18.938917      -515.3541
   2   2.0000     -10.162315      -276.5307
   3   2.0000     -10.051525      -273.5159
   4   2.0000     -10.026195      -272.8266
   5   2.0000      -1.076319       -29.2881
   6   2.0000      -0.985387       -26.8137
   7   2.0000      -0.758648       -20.6439
   8   2.0000      -0.646363       -17.5884
   9   2.0000      -0.560337       -15.2475
  10   2.0000      -0.469204       -12.7677
  11   2.0000      -0.454208       -12.3596
  12   2.0000      -0.445693       -12.1279
  13   2.0000      -0.390470       -10.6252
  14   2.0000      -0.377128       -10.2622
  15   2.0000      -0.351857        -9.5745
  16   2.0000      -0.336579        -9.1588
  17   2.0000      -0.325762        -8.8644
  18   2.0000      -0.296242        -8.0611
  19   2.0000      -0.246066        -6.6958
  20   0.0000      -0.019085        -0.5193
  21   0.0000       0.061084         1.6622
  22   0.0000       0.090671         2.4673
  23   0.0000       0.132108         3.5948
  24   0.0000       0.153805         4.1853

MULLIKEN ATOMIC CHARGES
-----------------------
   0 C :   -0.459006
   1 C :   -0.241076
   2 C :    0.342449
   3 O :   -0.393288
   4 O :   -0.349716
   5 H :    0.144564
   6 H :    0.155699
   7 H :    0.155719
   8 H :    0.160307
   9 H :    0.160321
  10 H :    0.324026
Sum of atomic charges:    0.0000000

LOEWDIN ATOMIC CHARGES
----------------------
   0 C :   -0.401559
   1 C :   -0.248544
   2 C :    0.343002
   3 O :   -0.410396
   4 O :   -0.412049
   5 H :    0.151328
   6 H :    0.161783
   7 H :    0.161793
   8 H :    0.180999
   9 H :    0.181008
  10 H :    0.292635

  Mayer bond orders larger than 0.100000
B(  0-C ,  1-C ) :   0.9363 B(  0-C ,  5-H ) :   0.9692 B(  0-C ,  6-H ) :   0.9737
B(  0-C ,  7-H ) :   0.9737 B(  1-C ,  2-C ) :   1.0012 B(  1-C ,  8-H ) :   0.9339
B(  1-C ,  9-H ) :   0.9338 B(  2-C ,  3-O ) :   1.9400 B(  2-C ,  4-O ) :   1.0395
B(  4-O , 10-H ) :   0.8649

Dispersion correction           -0.002087882
FINAL SINGLE POINT ENERGY      -268.351146613710

DIPOLE MOMENT
-------------

Method             : SCF
Type of density    : Electron Density
Multiplicity       :   1
Irrep              :   0
Energy             :  -268.3554501864809367 Eh
Relativity type    :
Basis              : AO
                                X                 Y                 Z
Electronic contribution:     -5.683037366       1.325305755      -0.000047203
Nuclear contribution   :      5.664301766      -1.983268572       0.000070770
                        -----------------------------------------
Total Dipole Moment    :     -0.018735599      -0.657962816       0.000023568
                        -----------------------------------------
Magnitude (a.u.)       :      0.658229512
Magnitude (Debye)      :      1.673086458

Rotational constants in cm-1:             0.341947             0.128593             0.096794
Rotational constants in MHz :         10251.326553          3855.111978          2901.806647

                             ****ORCA TERMINATED NORMALLY****
TOTAL RUN TIME: 0 days 0 hours 0 minutes 8 seconds 944 msec
