                         Program Version 6.0.1  -  RELEASE   -
|  1> ! pbe def2-sv(p) def2/J RI DEFGRID1 loosescf d4 GCP(DFT/SV(P)) printgap
|  2> %output
|  3>     printlevel normal
|  4> end
|  5> * xyz 0 1
|  6> C -2.495513542 -0.3057844744 -0.4207957907
|  7> C -1.1583202934 -0.2084617554 0.3238824714
|  8> H -1.2929969815 -0.5474989243 1.3658180937
|  9> C -0.6218052876 1.2513888901 0.3660893602
| 10> H -1.3842967271 1.9224357066 -0.0465121591
| 11> C 0.6419828576 1.3462315801 -0.5089077735
| 12> H 1.0589518897 2.3553338952 -0.4280065693
| 13> C 1.6994840001 0.3441319333 0.0036221186
| 14> H 2.4651065158 0.2282131172 -0.7771827852
| 15> C 1.0348094072 -1.0404715229 0.2571735192
| 16> H 0.9624973948 -1.1959843868 1.3499810654
| 17> O -0.2425631649 -1.0812766228 -0.3222344917
| 18> O 1.7853661667 -2.0875901538 -0.2512995843
| 19> O 2.2672054646 0.8613449319 1.1875191693
| 20> O 0.3598446429 1.1391283874 -1.8632505535
| 21> O -0.3844156578 1.6763820594 1.6802195286
| 22> O -2.9971270891 -1.6095004481 -0.4929690018
| 23> H -2.3674986797 0.0183526001 -1.4561291699
| 24> H -3.2073221993 0.3679922185 0.0780611772
| 25> H 1.4959208382 -2.2533351172 -1.1566354697
| 26> H 3.0003314175 0.2973656932 1.4585810631
| 27> H -0.0286496353 0.2566755609 -1.9550615259
| 28> H 0.5399817439 1.4917624891 1.9064872365
| 29> H -3.0380822499 -1.9850121888 0.3940082689
| 30> *
| 31>
| 32>                          ****END OF INPUT****

CARTESIAN COORDINATES (ANGSTROEM)
---------------------------------
  C     -2.495514   -0.305784   -0.420796
  C     -1.158320   -0.208462    0.323882
  H     -1.292997   -0.547499    1.365818
  C     -0.621805    1.251389    0.366089
  H     -1.384297    1.922436   -0.046512
  C      0.641983    1.346232   -0.508908
  H      1.058952    2.355334   -0.428007
  C      1.699484    0.344132    0.003622
  H      2.465107    0.228213   -0.777183
  C      1.034809   -1.040472    0.257174
  H      0.962497   -1.195984    1.349981
  O     -0.242563   -1.081277   -0.322234
  O      1.785366   -2.087590   -0.251300
  O      2.267205    0.861345    1.187519
  O      0.359845    1.139128   -1.863251
  O     -0.384416    1.676382    1.680220
  O     -2.997127   -1.609500   -0.492969
  H     -2.367499    0.018353   -1.456129
  H     -3.207322    0.367992    0.078061
  H      1.495921   -2.253335   -1.156635
  H      3.000331    0.297366    1.458581
  H     -0.028650    0.256676   -1.955062
  H      0.539982    1.491762    1.906487
  H     -3.038082   -1.985012    0.394008

 Total Charge           Charge          ....    0
 Multiplicity           Mult            ....    1
 Number of Electrons    NEL             ....   96
 Basis Dimension        Dim             ....  192

ORBITAL ENERGIES
----------------

  NO   OCC          E(Eh)            E(eV)
   0   2.0000     -18.791719      -511.3487
   1   2.0000     -18.784648      -511.1563
   2   2.0000     -18.769078      -510.7326
   3   2.0000     -18.756050      -510.3781
   4   2.0000     -18.751350      -510.2502
   5   2.0000     -18.742140      -509.9996
   6   2.0000      -9.998929      -272.0847
   7   2.0000      -9.952046      -270.8089
   8   2.0000      -9.950762      -270.7740
   9   2.0000      -9.949050      -270.7274
  10   2.0000      -9.943808      -270.5848
  11   2.0000      -9.942194      -270.5408
  12   2.0000      -1.003378       -27.3033
  13   2.0000      -0.958963       -26.0947
  14   2.0000      -0.943928       -25.6856
  15   2.0000      -0.933837       -25.4110
  16   2.0000      -0.923873       -25.1399
  17   2.0000      -0.919718       -25.0268
  18   2.0000      -0.704098       -19.1595
  19   2.0000      -0.696680       -18.9576
  20   2.0000      -0.622448       -16.9377
  21   2.0000      -0.599824       -16.3220
  22   2.0000      -0.574743       -15.6395
  23   2.0000      -0.542717       -14.7681
  24   2.0000      -0.506953       -13.7949
  25   2.0000      -0.502087       -13.6625
  26   2.0000      -0.498639       -13.5687
  27   2.0000      -0.475245       -12.9321
  28   2.0000      -0.448475       -12.2036
  29   2.0000      -0.430634       -11.7182
  30   2.0000      -0.413283       -11.2460
  31   2.0000      -0.406467       -11.0605
  32   2.0000      -0.397270       -10.8103
  33   2.0000      -0.381458       -10.3800
  34   2.0000      -0.368277       -10.0213
  35   2.0000      -0.350370        -9.5340
  36   2.0000      -0.337851        -9.1934
  37   2.0000      -0.335258        -9.1228
  38   2.0000      -0.324602        -8.8329
  39   2.0000      -0.308238        -8.3876
  40   2.0000      -0.287465        -7.8223
  41   2.0000      -0.281541        -7.6611
  42   2.0000      -0.262027        -7.1301
  43   2.0000      -0.259804        -7.0696
  44   2.0000      -0.238799        -6.4981
  45   2.0000      -0.225791        -6.1441
  46   2.0000      -0.215603        -5.8668
  47   2.0000      -0.205729        -5.5982
  48   0.0000       0.004985         0.1356
  49   0.0000       0.022848         0.6217
  50   0.0000       0.025075         0.6823
  51   0.0000       0.046219         1.2577
  52   0.0000       0.047307         1.2873

MULLIKEN ATOMIC CHARGES
-----------------------
   0 C :    0.077949
   1 C :   -0.022152
   2 H :    0.057691
   3 C :    0.035674
   4 H :    0.079560
   5 C :    0.018885
   6 H :    0.090997
   7 C :    0.028068
   8 H :    0.070633
   9 C :    0.190666
  10 H :    0.048768
  11 O :   -0.304747
  12 O :   -0.387965
  13 O :   -0.420811
  14 O :   -0.416414
  15 O :   -0.423079
  16 O :   -0.419672
  17 H :    0.081327
  18 H :    0.089165
  19 H :    0.305656
  20 H :    0.317097
  21 H :    0.301847
  22 H :    0.304249
  23 H :    0.296608
Sum of atomic charges:    0.0000000

LOEWDIN ATOMIC CHARGES
----------------------
   0 C :   -0.129185
   1 C :   -0.083953
   2 H :    0.105175
   3 C :   -0.074041
   4 H :    0.116473
   5 C :   -0.073119
   6 H :    0.123941
   7 C :   -0.099762
   8 H :    0.111390
   9 C :   -0.003171
  10 H :    0.093414
  11 O :   -0.149450
  12 O :   -0.301408
  13 O :   -0.309851
  14 O :   -0.309302
  15 O :   -0.323319
  16 O :   -0.327870
  17 H :    0.114769
  18 H :    0.105847
  19 H :    0.289601
  20 H :    0.296971
  21 H :    0.270035
  22 H :    0.272461
  23 H :    0.284355

  Mayer bond orders larger than 0.100000
B(  0-C ,  1-C ) :   1.0451 B(  0-C , 16-O ) :   1.0851 B(  0-C , 17-H ) :   0.9020
B(  0-C , 18-H ) :   0.9143 B(  1-C ,  2-H ) :   0.8691 B(  1-C ,  3-C ) :   0.9290
B(  1-C , 11-O ) :   0.9668 B(  3-C ,  4-H ) :   0.9004 B(  3-C ,  5-C ) :   1.0081
B(  3-C , 15-O ) :   1.0814 B(  5-C ,  6-H ) :   0.8895 B(  5-C ,  7-C ) :   0.9786
B(  5-C , 14-O ) :   1.0537 B(  7-C ,  8-H ) :   0.8869 B(  7-C ,  9-C ) :   0.9588
B(  7-C , 13-O ) :   1.0170 B(  9-C , 10-H ) :   0.8719 B(  9-C , 11-O ) :   1.0409
B(  9-C , 12-O ) :   1.1305 B( 12-O , 19-H ) :   0.8416 B( 13-O , 20-H ) :   0.8396
B( 13-O , 22-H ) :   0.1027 B( 14-O , 21-H ) :   0.8213 B( 15-O , 22-H ) :   0.8096
B( 16-O , 23-H ) :   0.8525

Dispersion correction           -0.024900528
FINAL SINGLE POINT ENERGY      -685.686738653509

DIPOLE MOMENT
-------------

Method             : SCF
Type of density    : Electron Density
Multiplicity       :   1
Irrep              :   0
Energy             :  -685.8192723798412089 Eh
Relativity type    :
Basis              : AO
                                X                 Y                 Z
Electronic contribution:      2.192446451      -1.411786168      -0.308205595
Nuclear contribution   :     -1.673328284       0.880854369       0.687143900
                        -----------------------------------------
Total Dipole Moment    :      0.519118167      -0.530931799       0.378938306
                        -----------------------------------------
Magnitude (a.u.)       :      0.833646499
Magnitude (Debye)      :      2.118961005

Rotational constants in cm-1:             0.040497             0.026186             0.021473
Rotational constants in MHz :          1214.057261           785.029089           643.744661

                             ****ORCA TERMINATED NORMALLY****
TOTAL RUN TIME: 0 days 0 hours 0 minutes 8 seconds 556 msec
