                         Program Version 6.0.1  -  RELEASE   -
|  1> ! pbe def2-sv(p) def2/J RI DEFGRID1 loosescf d4 GCP(DFT/SV(P)) printgap
|  2> %output
|  3>     printlevel normal
|  4> end
|  5> * xyz 0 1
|  6> C -2.6703761668 0.9512460234 -0.4845424201
|  7> C -1.7631779716 -0.1458652776 0.0219365487
|  8> O -2.1733670057 -1.0424214193 0.7147519488
|  9> C -0.3037497275 -0.0213575401 -0.3805230691
| 10> C 0.4830428716 -1.2726905396 0.0093787736
| 11> C 1.9499655874 -1.1359977297 -0.3817637518
| 12> C 2.5656095118 0.0926126543 0.2800801359
| 13> C 1.789042461 1.3465129509 -0.1080750465
| 14> C 0.3192689401 1.2158557848 0.282462978
| 15> H -3.6886866988 0.5782718578 -0.5599877028
| 16> H -2.6660773481 1.7637011367 0.2408650052
| 17> H -2.3400787451 1.3387102501 -1.4435276734
| 18> H -0.2616967157 0.110216969 -1.4680602196
| 19> H 0.398293576 -1.4202571289 1.0875302022
| 20> H 0.0408376553 -2.1446148809 -0.4762084077
| 21> H 2.4955684362 -2.0330574844 -0.083310443
| 22> H 2.0311371739 -1.0418919263 -1.4677025239
| 23> H 2.5378705585 -0.028811439 1.3651710451
| 24> H 3.6106304494 0.1953929012 -0.01935239
| 25> H 2.2203517186 2.2206518436 0.3843918613
| 26> H 1.8643178816 1.4995188032 -1.1874857618
| 27> H 0.2386421791 1.1146520571 1.3672016573
| 28> H -0.2195800895 2.1167777417 -0.0162193714
| 29> *
| 30>
| 31>                          ****END OF INPUT****

CARTESIAN COORDINATES (ANGSTROEM)
---------------------------------
  C     -2.670376    0.951246   -0.484542
  C     -1.763178   -0.145865    0.021937
  O     -2.173367   -1.042421    0.714752
  C     -0.303750   -0.021358   -0.380523
  C      0.483043   -1.272691    0.009379
  C      1.949966   -1.135998   -0.381764
  C      2.565610    0.092613    0.280080
  C      1.789042    1.346513   -0.108075
  C      0.319269    1.215856    0.282463
  H     -3.688687    0.578272   -0.559988
  H     -2.666077    1.763701    0.240865
  H     -2.340079    1.338710   -1.443528
  H     -0.261697    0.110217   -1.468060
  H      0.398294   -1.420257    1.087530
  H      0.040838   -2.144615   -0.476208
  H      2.495568   -2.033057   -0.083310
  H      2.031137   -1.041892   -1.467703
  H      2.537871   -0.028811    1.365171
  H      3.610630    0.195393   -0.019352
  H      2.220352    2.220652    0.384392
  H      1.864318    1.499519   -1.187486
  H      0.238642    1.114652    1.367202
  H     -0.219580    2.116778   -0.016219

 Total Charge           Charge          ....    0
 Multiplicity           Mult            ....    1
 Number of Electrons    NEL             ....   70
 Basis Dimension        Dim             ....  154

ORBITAL ENERGIES
----------------

  NO   OCC          E(Eh)            E(eV)
   0   2.0000     -18.735218      -509.8112
   1   2.0000      -9.969857      -271.2936
   2   2.0000      -9.898944      -269.3640
   3   2.0000      -9.896072      -269.2858
   4   2.0000      -9.888533      -269.0807
   5   2.0000      -9.885013      -268.9849
   6   2.0000      -9.883659      -268.9480
   7   2.0000      -9.882243      -268.9095
   8   2.0000      -9.879119      -268.8245
   9   2.0000      -0.938439       -25.5362
  10   2.0000      -0.762735       -20.7551
  11   2.0000      -0.693140       -18.8613
  12   2.0000      -0.669761       -18.2251
  13   2.0000      -0.653723       -17.7887
  14   2.0000      -0.560283       -15.2461
  15   2.0000      -0.544963       -14.8292
  16   2.0000      -0.503452       -13.6996
  17   2.0000      -0.469588       -12.7781
  18   2.0000      -0.431387       -11.7386
  19   2.0000      -0.416999       -11.3471
  20   2.0000      -0.403436       -10.9781
  21   2.0000      -0.398436       -10.8420
  22   2.0000      -0.385882       -10.5004
  23   2.0000      -0.376525       -10.2458
  24   2.0000      -0.365860        -9.9556
  25   2.0000      -0.340628        -9.2690
  26   2.0000      -0.337744        -9.1905
  27   2.0000      -0.327662        -8.9161
  28   2.0000      -0.315416        -8.5829
  29   2.0000      -0.305038        -8.3005
  30   2.0000      -0.303036        -8.2460
  31   2.0000      -0.284891        -7.7523
  32   2.0000      -0.271603        -7.3907
  33   2.0000      -0.261751        -7.1226
  34   2.0000      -0.192445        -5.2367
  35   0.0000      -0.045771        -1.2455
  36   0.0000       0.027539         0.7494
  37   0.0000       0.044507         1.2111
  38   0.0000       0.053083         1.4445
  39   0.0000       0.071038         1.9330

MULLIKEN ATOMIC CHARGES
-----------------------
   0 C :   -0.249836
   1 C :    0.033856
   2 O :   -0.158450
   3 C :   -0.208834
   4 C :   -0.111491
   5 C :   -0.131579
   6 C :   -0.162983
   7 C :   -0.126821
   8 C :   -0.155317
   9 H :    0.120153
  10 H :    0.135485
  11 H :    0.111219
  12 H :    0.077535
  13 H :    0.083169
  14 H :    0.087306
  15 H :    0.086556
  16 H :    0.070136
  17 H :    0.077537
  18 H :    0.086287
  19 H :    0.088355
  20 H :    0.072941
  21 H :    0.086665
  22 H :    0.088114
Sum of atomic charges:    0.0000000

LOEWDIN ATOMIC CHARGES
----------------------
   0 C :   -0.365291
   1 C :    0.047739
   2 O :   -0.119508
   3 C :   -0.173427
   4 C :   -0.215850
   5 C :   -0.225793
   6 C :   -0.227578
   7 C :   -0.224071
   8 C :   -0.210781
   9 H :    0.137961
  10 H :    0.147918
  11 H :    0.129134
  12 H :    0.126120
  13 H :    0.120916
  14 H :    0.120627
  15 H :    0.117636
  16 H :    0.112610
  17 H :    0.115547
  18 H :    0.116621
  19 H :    0.117879
  20 H :    0.114658
  21 H :    0.120716
  22 H :    0.116216

  Mayer bond orders larger than 0.100000
B(  0-C ,  1-C ) :   1.0746 B(  0-C ,  9-H ) :   0.9295 B(  0-C , 10-H ) :   0.9184
B(  0-C , 11-H ) :   0.9362 B(  1-C ,  2-O ) :   2.2001 B(  1-C ,  3-C ) :   0.9243
B(  3-C ,  4-C ) :   1.0975 B(  3-C ,  8-C ) :   1.0711 B(  3-C , 12-H ) :   0.8666
B(  4-C ,  5-C ) :   1.1316 B(  4-C , 13-H ) :   0.9043 B(  4-C , 14-H ) :   0.9163
B(  5-C ,  6-C ) :   1.1319 B(  5-C , 15-H ) :   0.9195 B(  5-C , 16-H ) :   0.9108
B(  6-C ,  7-C ) :   1.1375 B(  6-C , 17-H ) :   0.9151 B(  6-C , 18-H ) :   0.9197
B(  7-C ,  8-C ) :   1.1387 B(  7-C , 19-H ) :   0.9185 B(  7-C , 20-H ) :   0.9109
B(  8-C , 21-H ) :   0.9088 B(  8-C , 22-H ) :   0.9113

Dispersion correction           -0.021810203
FINAL SINGLE POINT ENERGY      -387.610193004404

DIPOLE MOMENT
-------------

Method             : SCF
Type of density    : Electron Density
Multiplicity       :   1
Irrep              :   0
Energy             :  -387.6879698123121329 Eh
Relativity type    :
Basis              : AO
                                X                 Y                 Z
Electronic contribution:     -5.428404357      -3.232606994       1.643352124
Nuclear contribution   :      5.842121411       3.989815095      -2.125317105
                        -----------------------------------------
Total Dipole Moment    :      0.413717054       0.757208100      -0.481964981
                        -----------------------------------------
Magnitude (a.u.)       :      0.988340098
Magnitude (Debye)      :      2.512160885

Rotational constants in cm-1:             0.103162             0.036542             0.029756
Rotational constants in MHz :          3092.717334          1095.494354           892.061995

                             ****ORCA TERMINATED NORMALLY****
TOTAL RUN TIME: 0 days 0 hours 0 minutes 10 seconds 955 msec
