                         Program Version 6.0.1  -  RELEASE   -
|  1> ! pbe def2-sv(p) def2/J RI DEFGRID1 loosescf d4 GCP(DFT/SV(P)) printgap
|  2> %output
|  3>     printlevel normal
|  4> end
|  5> * xyz 0 1
|  6> C 1.2077894172 1.2598213853 0.0518429467
|  7> C 0.4351507634 -3.12181e-05 -0.3427224071
|  8> C 1.2090077048 -1.2591449032 0.0516801464
|  9> C -0.8913529354 -0.0005316973 0.3684217789
| 10> O -1.9679697655 -0.0001571102 -0.1564173137
| 11> H 0.6577252982 2.1529300092 -0.2352144498
| 12> H 2.1742897521 1.2738751688 -0.4460558814
| 13> H 1.3726962824 1.2840449977 1.1271327857
| 14> H 0.2548377374 -1.4999e-05 -1.4217451467
| 15> H 0.6598004079 -2.1527343881 -0.2355130919
| 16> H 1.3738658132 -1.2833755576 1.1269735236
| 17> H 2.1755604617 -1.2722168355 -0.4461613562
| 18> H -0.7933620003 -0.0013677873 1.4736257262
| 19> *
| 20>
| 21>                          ****END OF INPUT****

CARTESIAN COORDINATES (ANGSTROEM)
---------------------------------
  C      1.207789    1.259821    0.051843
  C      0.435151   -0.000031   -0.342722
  C      1.209008   -1.259145    0.051680
  C     -0.891353   -0.000532    0.368422
  O     -1.967970   -0.000157   -0.156417
  H      0.657725    2.152930   -0.235214
  H      2.174290    1.273875   -0.446056
  H      1.372696    1.284045    1.127133
  H      0.254838   -0.000015   -1.421745
  H      0.659800   -2.152734   -0.235513
  H      1.373866   -1.283376    1.126974
  H      2.175560   -1.272217   -0.446161
  H     -0.793362   -0.001368    1.473626

 Total Charge           Charge          ....    0
 Multiplicity           Mult            ....    1
 Number of Electrons    NEL             ....   40
 Basis Dimension        Dim             ....   86

ORBITAL ENERGIES
----------------

  NO   OCC          E(Eh)            E(eV)
   0   2.0000     -18.749053      -510.1877
   1   2.0000      -9.969193      -271.2755
   2   2.0000      -9.907702      -269.6023
   3   2.0000      -9.892110      -269.1780
   4   2.0000      -9.892102      -269.1778
   5   2.0000      -0.948200       -25.8018
   6   2.0000      -0.737954       -20.0808
   7   2.0000      -0.628281       -17.0964
   8   2.0000      -0.574158       -15.6236
   9   2.0000      -0.509152       -13.8547
  10   2.0000      -0.420686       -11.4474
  11   2.0000      -0.413819       -11.2606
  12   2.0000      -0.393061       -10.6957
  13   2.0000      -0.379398       -10.3239
  14   2.0000      -0.358137        -9.7454
  15   2.0000      -0.336973        -9.1695
  16   2.0000      -0.335730        -9.1357
  17   2.0000      -0.309321        -8.4170
  18   2.0000      -0.308918        -8.4061
  19   2.0000      -0.200881        -5.4662
  20   0.0000      -0.056860        -1.5472
  21   0.0000       0.035461         0.9650
  22   0.0000       0.058819         1.6005
  23   0.0000       0.085945         2.3387
  24   0.0000       0.088010         2.3949

MULLIKEN ATOMIC CHARGES
-----------------------
   0 C :   -0.269729
   1 C :   -0.158760
   2 C :   -0.269730
   3 C :    0.046820
   4 O :   -0.148620
   5 H :    0.119891
   6 H :    0.114380
   7 H :    0.103712
   8 H :    0.085209
   9 H :    0.119875
  10 H :    0.103716
  11 H :    0.114373
  12 H :    0.038862
Sum of atomic charges:   -0.0000000

LOEWDIN ATOMIC CHARGES
----------------------
   0 C :   -0.324505
   1 C :   -0.195193
   2 C :   -0.324521
   3 C :    0.009626
   4 O :   -0.109573
   5 H :    0.125552
   6 H :    0.125987
   7 H :    0.120489
   8 H :    0.125859
   9 H :    0.125546
  10 H :    0.120487
  11 H :    0.125986
  12 H :    0.074260

  Mayer bond orders larger than 0.100000
B(  0-C ,  1-C ) :   1.0798 B(  0-C ,  5-H ) :   0.9512 B(  0-C ,  6-H ) :   0.9477
B(  0-C ,  7-H ) :   0.9482 B(  1-C ,  2-C ) :   1.0797 B(  1-C ,  3-C ) :   0.9505
B(  1-C ,  8-H ) :   0.8932 B(  2-C ,  9-H ) :   0.9512 B(  2-C , 10-H ) :   0.9482
B(  2-C , 11-H ) :   0.9477 B(  3-C ,  4-O ) :   2.1975 B(  3-C , 12-H ) :   0.8942

Dispersion correction           -0.008387841
FINAL SINGLE POINT ENERGY      -231.919298262078

DIPOLE MOMENT
-------------

Method             : SCF
Type of density    : Electron Density
Multiplicity       :   1
Irrep              :   0
Energy             :  -231.9636680556370152 Eh
Relativity type    :
Basis              : AO
                                X                 Y                 Z
Electronic contribution:     -6.381350772      -0.001093233      -0.692504398
Nuclear contribution   :      7.359258329       0.001067750       0.882410204
                        -----------------------------------------
Total Dipole Moment    :      0.977907556      -0.000025483       0.189905806
                        -----------------------------------------
Magnitude (a.u.)       :      0.996176392
Magnitude (Debye)      :      2.532079161

Rotational constants in cm-1:             0.260004             0.125273             0.094807
Rotational constants in MHz :          7794.725343          3755.581775          2842.252902

                             ****ORCA TERMINATED NORMALLY****
TOTAL RUN TIME: 0 days 0 hours 0 minutes 12 seconds 896 msec
