                         Program Version 6.0.1  -  RELEASE   -
|  1> ! pbe def2-sv(p) def2/J RI DEFGRID1 loosescf d4 GCP(DFT/SV(P)) printgap
|  2> %output
|  3>     printlevel normal
|  4> end
|  5> * xyz 0 1
|  6> C 3.7410749958 -0.2700897273 -0.0977225517
|  7> C 2.2900332438 -0.1545696205 0.3596426682
|  8> H 2.2766096963 0.110744472 1.4226390636
|  9> C 1.5403505639 -1.4694991322 0.1738659286
| 10> C 0.0899143522 -1.3415561689 0.6285895099
| 11> C -0.6789918605 -0.2509139533 -0.1296383493
| 12> H -0.7018023199 -0.5178038072 -1.1942889066
| 13> C 0.0930441263 1.0783712989 0.0208101835
| 14> H 0.0621325901 1.3853826371 1.0724402344
| 15> C 1.5532324804 0.9262030236 -0.4227104178
| 16> O -0.4883618976 2.1591216917 -0.6784706167
| 17> C -2.1373257303 -0.1325969959 0.3740745874
| 18> C -3.0071843156 0.6793737651 -0.5876964229
| 19> C -2.8031775772 -1.4958166066 0.5803764264
| 20> H 4.2596045974 -1.0392886825 0.4701405639
| 21> H 3.7881835962 -0.5331773949 -1.1525803794
| 22> H 4.2635128984 0.6731652881 0.0441458458
| 23> H 1.5692473252 -1.7540287216 -0.8810564461
| 24> H 2.0287207942 -2.262326316 0.7447341794
| 25> H -0.3981187072 -2.3038455468 0.4788148465
| 26> H 0.0667880329 -1.111047611 1.6964575151
| 27> H 1.5727089074 0.6748395071 -1.4883639093
| 28> H 2.0493843357 1.8915714246 -0.2995781598
| 29> H -0.4428830704 1.962689744 -1.6216633723
| 30> H -2.1160971651 0.3865066397 1.3387722229
| 31> H -4.0288543335 0.7235541663 -0.2161912673
| 32> H -3.0238450228 0.2110512999 -1.5706287793
| 33> H -2.6382756229 1.6947027018 -0.6844574125
| 34> H -2.3648418997 -2.0416966525 1.4107051724
| 35> H -2.7259449435 -2.1007028815 -0.3209907633
| 36> H -3.8590004746 -1.3531776117 0.8006853721
| 37> *
| 38>
| 39>                          ****END OF INPUT****

CARTESIAN COORDINATES (ANGSTROEM)
---------------------------------
  C      3.741075   -0.270090   -0.097723
  C      2.290033   -0.154570    0.359643
  H      2.276610    0.110744    1.422639
  C      1.540351   -1.469499    0.173866
  C      0.089914   -1.341556    0.628590
  C     -0.678992   -0.250914   -0.129638
  H     -0.701802   -0.517804   -1.194289
  C      0.093044    1.078371    0.020810
  H      0.062133    1.385383    1.072440
  C      1.553232    0.926203   -0.422710
  O     -0.488362    2.159122   -0.678471
  C     -2.137326   -0.132597    0.374075
  C     -3.007184    0.679374   -0.587696
  C     -2.803178   -1.495817    0.580376
  H      4.259605   -1.039289    0.470141
  H      3.788184   -0.533177   -1.152580
  H      4.263513    0.673165    0.044146
  H      1.569247   -1.754029   -0.881056
  H      2.028721   -2.262326    0.744734
  H     -0.398119   -2.303846    0.478815
  H      0.066788   -1.111048    1.696458
  H      1.572709    0.674840   -1.488364
  H      2.049384    1.891571   -0.299578
  H     -0.442883    1.962690   -1.621663
  H     -2.116097    0.386507    1.338772
  H     -4.028854    0.723554   -0.216191
  H     -3.023845    0.211051   -1.570629
  H     -2.638276    1.694703   -0.684457
  H     -2.364842   -2.041697    1.410705
  H     -2.725945   -2.100703   -0.320991
  H     -3.859000   -1.353178    0.800685

 Total Charge           Charge          ....    0
 Multiplicity           Mult            ....    1
 Number of Electrons    NEL             ....   88
 Basis Dimension        Dim             ....  194

ORBITAL ENERGIES
----------------

  NO   OCC          E(Eh)            E(eV)
   0   2.0000     -18.739925      -509.9393
   1   2.0000      -9.933122      -270.2940
   2   2.0000      -9.893770      -269.2232
   3   2.0000      -9.890812      -269.1427
   4   2.0000      -9.888790      -269.0877
   5   2.0000      -9.882333      -268.9120
   6   2.0000      -9.881697      -268.8946
   7   2.0000      -9.880451      -268.8607
   8   2.0000      -9.873266      -268.6652
   9   2.0000      -9.867883      -268.5188
  10   2.0000      -9.857863      -268.2461
  11   2.0000      -0.921998       -25.0888
  12   2.0000      -0.759668       -20.6716
  13   2.0000      -0.721198       -19.6248
  14   2.0000      -0.669656       -18.2223
  15   2.0000      -0.655488       -17.8367
  16   2.0000      -0.604626       -16.4527
  17   2.0000      -0.600749       -16.3472
  18   2.0000      -0.549354       -14.9487
  19   2.0000      -0.533974       -14.5302
  20   2.0000      -0.506475       -13.7819
  21   2.0000      -0.494978       -13.4690
  22   2.0000      -0.449083       -12.2202
  23   2.0000      -0.422429       -11.4949
  24   2.0000      -0.402070       -10.9409
  25   2.0000      -0.401692       -10.9306
  26   2.0000      -0.391416       -10.6510
  27   2.0000      -0.382502       -10.4084
  28   2.0000      -0.362497        -9.8640
  29   2.0000      -0.360548        -9.8110
  30   2.0000      -0.348368        -9.4796
  31   2.0000      -0.343469        -9.3463
  32   2.0000      -0.331440        -9.0189
  33   2.0000      -0.323828        -8.8118
  34   2.0000      -0.311855        -8.4860
  35   2.0000      -0.302838        -8.2406
  36   2.0000      -0.299340        -8.1454
  37   2.0000      -0.292684        -7.9643
  38   2.0000      -0.284999        -7.7552
  39   2.0000      -0.281394        -7.6571
  40   2.0000      -0.275594        -7.4993
  41   2.0000      -0.263379        -7.1669
  42   2.0000      -0.251464        -6.8427
  43   2.0000      -0.203536        -5.5385
  44   0.0000       0.026252         0.7144
  45   0.0000       0.036815         1.0018
  46   0.0000       0.045138         1.2283
  47   0.0000       0.048539         1.3208
  48   0.0000       0.073492         1.9998

MULLIKEN ATOMIC CHARGES
-----------------------
   0 C :   -0.196171
   1 C :   -0.206421
   2 H :    0.064236
   3 C :   -0.090272
   4 C :   -0.120809
   5 C :   -0.158933
   6 H :    0.034165
   7 C :    0.076730
   8 H :    0.053899
   9 C :   -0.089132
  10 O :   -0.404790
  11 C :   -0.115454
  12 C :   -0.258945
  13 C :   -0.237130
  14 H :    0.095847
  15 H :    0.088709
  16 H :    0.096881
  17 H :    0.062878
  18 H :    0.077090
  19 H :    0.090295
  20 H :    0.071461
  21 H :    0.048455
  22 H :    0.084901
  23 H :    0.293658
  24 H :    0.061821
  25 H :    0.088859
  26 H :    0.077269
  27 H :    0.117955
  28 H :    0.106572
  29 H :    0.091106
  30 H :    0.095268
Sum of atomic charges:   -0.0000000

LOEWDIN ATOMIC CHARGES
----------------------
   0 C :   -0.326481
   1 C :   -0.154266
   2 H :    0.114913
   3 C :   -0.215592
   4 C :   -0.216723
   5 C :   -0.147725
   6 H :    0.107206
   7 C :   -0.047500
   8 H :    0.111524
   9 C :   -0.226872
  10 O :   -0.307938
  11 C :   -0.144149
  12 C :   -0.344496
  13 C :   -0.331719
  14 H :    0.117335
  15 H :    0.116105
  16 H :    0.117713
  17 H :    0.112879
  18 H :    0.115690
  19 H :    0.120285
  20 H :    0.116136
  21 H :    0.107959
  22 H :    0.118591
  23 H :    0.279892
  24 H :    0.114954
  25 H :    0.112799
  26 H :    0.109148
  27 H :    0.121331
  28 H :    0.115941
  29 H :    0.115678
  30 H :    0.117386

  Mayer bond orders larger than 0.100000
B(  0-C ,  1-C ) :   1.1109 B(  0-C , 14-H ) :   0.9480 B(  0-C , 15-H ) :   0.9460
B(  0-C , 16-H ) :   0.9489 B(  1-C ,  2-H ) :   0.8928 B(  1-C ,  3-C ) :   1.0921
B(  1-C ,  9-C ) :   1.0757 B(  3-C ,  4-C ) :   1.1441 B(  3-C , 17-H ) :   0.9025
B(  3-C , 18-H ) :   0.9113 B(  4-C ,  5-C ) :   1.0909 B(  4-C , 19-H ) :   0.8961
B(  4-C , 20-H ) :   0.9017 B(  5-C ,  6-H ) :   0.8664 B(  5-C ,  7-C ) :   1.0294
B(  5-C , 11-C ) :   1.0318 B(  7-C ,  8-H ) :   0.8770 B(  7-C ,  9-C ) :   1.0997
B(  7-C , 10-O ) :   1.0331 B(  9-C , 21-H ) :   0.8891 B(  9-C , 22-H ) :   0.9070
B( 10-O , 23-H ) :   0.8454 B( 11-C , 12-C ) :   1.1247 B( 11-C , 13-C ) :   1.1229
B( 11-C , 24-H ) :   0.8882 B( 12-C , 25-H ) :   0.9446 B( 12-C , 26-H ) :   0.9483
B( 12-C , 27-H ) :   0.9224 B( 13-C , 28-H ) :   0.9367 B( 13-C , 29-H ) :   0.9457
B( 13-C , 30-H ) :   0.9461

Dispersion correction           -0.031344600
FINAL SINGLE POINT ENERGY      -467.196646948608

DIPOLE MOMENT
-------------

Method             : SCF
Type of density    : Electron Density
Multiplicity       :   1
Irrep              :   0
Energy             :  -467.3098709481821516 Eh
Relativity type    :
Basis              : AO
                                X                 Y                 Z
Electronic contribution:      0.651346783       4.520059261      -0.233497636
Nuclear contribution   :     -0.347584640      -4.942944447       0.036593472
                        -----------------------------------------
Total Dipole Moment    :      0.303762143      -0.422885186      -0.196904164
                        -----------------------------------------
Magnitude (a.u.)       :      0.556663785
Magnitude (Debye)      :      1.414926895

Rotational constants in cm-1:             0.062142             0.023456             0.017999
Rotational constants in MHz :          1862.959733           703.205815           539.603833

                             ****ORCA TERMINATED NORMALLY****
TOTAL RUN TIME: 0 days 0 hours 0 minutes 11 seconds 905 msec
