                         Program Version 6.0.1  -  RELEASE   -
|  1> ! pbe def2-sv(p) def2/J RI DEFGRID1 loosescf d4 GCP(DFT/SV(P)) printgap
|  2> %output
|  3>     printlevel normal
|  4> end
|  5> * xyz 0 1
|  6> C 1.1965863349 1.2559661519 -0.0380130807
|  7> C 0.3996196971 1.162e-05 0.3205147894
|  8> C 1.1953715938 -1.2566303346 -0.0382750977
|  9> C -0.9091843422 0.0005720294 -0.4107726879
| 10> C -2.0945003037 0.0001787748 0.1680821068
| 11> H 0.6351604601 2.1501422761 0.2238460702
| 12> H 1.4052828173 1.2806621743 -1.1056833789
| 13> H 2.142871383 1.271205483 0.4983517079
| 14> H 0.2057082854 -2.93294e-05 1.3983671873
| 15> H 1.4039331668 -1.2814356987 -1.1059722769
| 16> H 2.1416881854 -1.2726347739 0.4979900316
| 17> H 0.6332158999 -2.1503471345 0.2236240867
| 18> H -0.82919592 0.0014305849 -1.4906245952
| 19> H -3.0100749722 0.0005209547 -0.3992114973
| 20> H -2.2009403148 -0.0006852679 1.2410080158
| 21> *
| 22>
| 23>                          ****END OF INPUT****

CARTESIAN COORDINATES (ANGSTROEM)
---------------------------------
  C      1.196586    1.255966   -0.038013
  C      0.399620    0.000012    0.320515
  C      1.195372   -1.256630   -0.038275
  C     -0.909184    0.000572   -0.410773
  C     -2.094500    0.000179    0.168082
  H      0.635160    2.150142    0.223846
  H      1.405283    1.280662   -1.105683
  H      2.142871    1.271205    0.498352
  H      0.205708   -0.000029    1.398367
  H      1.403933   -1.281436   -1.105972
  H      2.141688   -1.272635    0.497990
  H      0.633216   -2.150347    0.223624
  H     -0.829196    0.001431   -1.490625
  H     -3.010075    0.000521   -0.399211
  H     -2.200940   -0.000685    1.241008

 Total Charge           Charge          ....    0
 Multiplicity           Mult            ....    1
 Number of Electrons    NEL             ....   40
 Basis Dimension        Dim             ....   90

ORBITAL ENERGIES
----------------

  NO   OCC          E(Eh)            E(eV)
   0   2.0000      -9.898072      -269.3402
   1   2.0000      -9.888721      -269.0858
   2   2.0000      -9.875459      -268.7249
   3   2.0000      -9.875455      -268.7248
   4   2.0000      -9.871990      -268.6305
   5   2.0000      -0.735761       -20.0211
   6   2.0000      -0.659562       -17.9476
   7   2.0000      -0.611530       -16.6406
   8   2.0000      -0.536797       -14.6070
   9   2.0000      -0.491521       -13.3750
  10   2.0000      -0.412942       -11.2367
  11   2.0000      -0.406386       -11.0583
  12   2.0000      -0.373821       -10.1722
  13   2.0000      -0.366937        -9.9849
  14   2.0000      -0.341403        -9.2901
  15   2.0000      -0.332974        -9.0607
  16   2.0000      -0.301391        -8.2013
  17   2.0000      -0.291668        -7.9367
  18   2.0000      -0.282790        -7.6951
  19   2.0000      -0.225809        -6.1446
  20   0.0000      -0.012033        -0.3274
  21   0.0000       0.043924         1.1952
  22   0.0000       0.060308         1.6411
  23   0.0000       0.078838         2.1453
  24   0.0000       0.095939         2.6106

MULLIKEN ATOMIC CHARGES
-----------------------
   0 C :   -0.249326
   1 C :   -0.141347
   2 C :   -0.249252
   3 C :   -0.079896
   4 C :   -0.204411
   5 H :    0.107458
   6 H :    0.094310
   7 H :    0.100272
   8 H :    0.069064
   9 H :    0.094299
  10 H :    0.100260
  11 H :    0.107448
  12 H :    0.064498
  13 H :    0.095046
  14 H :    0.091577
Sum of atomic charges:   -0.0000000

LOEWDIN ATOMIC CHARGES
----------------------
   0 C :   -0.325800
   1 C :   -0.153424
   2 C :   -0.325787
   3 C :   -0.120768
   4 C :   -0.259681
   5 H :    0.120769
   6 H :    0.116737
   7 H :    0.118089
   8 H :    0.117692
   9 H :    0.116737
  10 H :    0.118083
  11 H :    0.120767
  12 H :    0.118429
  13 H :    0.119896
  14 H :    0.118260

  Mayer bond orders larger than 0.100000
B(  0-C ,  1-C ) :   1.0907 B(  0-C ,  5-H ) :   0.9530 B(  0-C ,  6-H ) :   0.9514
B(  0-C ,  7-H ) :   0.9489 B(  1-C ,  2-C ) :   1.0907 B(  1-C ,  3-C ) :   1.0401
B(  1-C ,  8-H ) :   0.9019 B(  2-C ,  9-H ) :   0.9514 B(  2-C , 10-H ) :   0.9489
B(  2-C , 11-H ) :   0.9530 B(  3-C ,  4-C ) :   2.0682 B(  3-C , 12-H ) :   0.9285
B(  4-C , 13-H ) :   0.9223 B(  4-C , 14-H ) :   0.9204

Dispersion correction           -0.010270325
FINAL SINGLE POINT ENERGY      -196.027634504321

DIPOLE MOMENT
-------------

Method             : SCF
Type of density    : Electron Density
Multiplicity       :   1
Irrep              :   0
Energy             :  -196.0755771576250481 Eh
Relativity type    :
Basis              : AO
                                X                 Y                 Z
Electronic contribution:     -2.235934177       0.001057546       0.029522996
Nuclear contribution   :      2.371346860      -0.001098337      -0.017172745
                        -----------------------------------------
Total Dipole Moment    :      0.135412683      -0.000040791       0.012350251
                        -----------------------------------------
Magnitude (a.u.)       :      0.135974722
Magnitude (Debye)      :      0.345620277

Rotational constants in cm-1:             0.253766             0.120141             0.092882
Rotational constants in MHz :          7607.726806          3601.735340          2784.538726

                             ****ORCA TERMINATED NORMALLY****
TOTAL RUN TIME: 0 days 0 hours 0 minutes 17 seconds 271 msec
