                         Program Version 6.0.1  -  RELEASE   -
|  1> ! pbe def2-sv(p) def2/J RI DEFGRID1 loosescf d4 GCP(DFT/SV(P)) printgap
|  2> %output
|  3>     printlevel normal
|  4> end
|  5> * xyz 0 1
|  6> C -3.2615187064 -0.3220537621 0.0397803252
|  7> C -1.8157427234 -0.4934017415 -0.436773537
|  8> H -1.833298182 -0.6405988079 -1.5226230258
|  9> C -1.1275087998 -1.6836447329 0.230219305
| 10> C 0.3791487676 -1.5843167721 0.016466319
| 11> C 0.9676203823 -0.3843925846 0.7813093385
| 12> H 1.2584925016 -0.725633131 1.7803775418
| 13> C -0.0884818888 0.7275723756 0.9677423676
| 14> C -1.0651891665 0.8004487846 -0.1752449098
| 15> O -1.2702887398 1.8049901171 -0.811126413
| 16> C 2.2095741623 0.1460351349 0.1028129469
| 17> C 3.4014607058 -0.0110136143 0.6575121043
| 18> C 2.0359747692 0.8502653164 -1.2077186166
| 19> H -3.7201167333 0.5299132183 -0.455882289
| 20> H -3.839497028 -1.2148186631 -0.1878373379
| 21> H -3.292048689 -0.1547748169 1.1148947171
| 22> H -1.349960014 -1.7020635267 1.2991702276
| 23> H -1.5084480011 -2.6121320724 -0.1997613544
| 24> H 0.874615953 -2.4988678483 0.3455817399
| 25> H 0.5677950813 -1.4776998107 -1.0531425965
| 26> H -0.6752249684 0.5100585307 1.8634816066
| 27> H 0.397625571 1.6938046773 1.1096399304
| 28> H 4.2997109677 0.3536341558 0.188812879
| 29> H 3.5320385273 -0.5122090351 1.6021117617
| 30> H 2.9928126968 1.2118522693 -1.574543382
| 31> H 1.6133451778 0.1826730522 -1.9576009277
| 32> H 1.3586319125 1.6959726224 -1.108973714
| 33> *
| 34>
| 35>                          ****END OF INPUT****

CARTESIAN COORDINATES (ANGSTROEM)
---------------------------------
  C     -3.261519   -0.322054    0.039780
  C     -1.815743   -0.493402   -0.436774
  H     -1.833298   -0.640599   -1.522623
  C     -1.127509   -1.683645    0.230219
  C      0.379149   -1.584317    0.016466
  C      0.967620   -0.384393    0.781309
  H      1.258493   -0.725633    1.780378
  C     -0.088482    0.727572    0.967742
  C     -1.065189    0.800449   -0.175245
  O     -1.270289    1.804990   -0.811126
  C      2.209574    0.146035    0.102813
  C      3.401461   -0.011014    0.657512
  C      2.035975    0.850265   -1.207719
  H     -3.720117    0.529913   -0.455882
  H     -3.839497   -1.214819   -0.187837
  H     -3.292049   -0.154775    1.114895
  H     -1.349960   -1.702064    1.299170
  H     -1.508448   -2.612132   -0.199761
  H      0.874616   -2.498868    0.345582
  H      0.567795   -1.477700   -1.053143
  H     -0.675225    0.510059    1.863482
  H      0.397626    1.693805    1.109640
  H      4.299711    0.353634    0.188813
  H      3.532039   -0.512209    1.602112
  H      2.992813    1.211852   -1.574543
  H      1.613345    0.182673   -1.957601
  H      1.358632    1.695973   -1.108974

 Total Charge           Charge          ....    0
 Multiplicity           Mult            ....    1
 Number of Electrons    NEL             ....   84
 Basis Dimension        Dim             ....  186

ORBITAL ENERGIES
----------------

  NO   OCC          E(Eh)            E(eV)
   0   2.0000     -18.740714      -509.9608
   1   2.0000      -9.970871      -271.3212
   2   2.0000      -9.908836      -269.6331
   3   2.0000      -9.902847      -269.4702
   4   2.0000      -9.901030      -269.4207
   5   2.0000      -9.895079      -269.2588
   6   2.0000      -9.894926      -269.2546
   7   2.0000      -9.893903      -269.2268
   8   2.0000      -9.888285      -269.0739
   9   2.0000      -9.879121      -268.8245
  10   2.0000      -9.874134      -268.6889
  11   2.0000      -0.940772       -25.5997
  12   2.0000      -0.774014       -21.0620
  13   2.0000      -0.730271       -19.8717
  14   2.0000      -0.683143       -18.5893
  15   2.0000      -0.662715       -18.0334
  16   2.0000      -0.618545       -16.8315
  17   2.0000      -0.603508       -16.4223
  18   2.0000      -0.555717       -15.1218
  19   2.0000      -0.534953       -14.5568
  20   2.0000      -0.476207       -12.9583
  21   2.0000      -0.468133       -12.7385
  22   2.0000      -0.440697       -11.9920
  23   2.0000      -0.424284       -11.5454
  24   2.0000      -0.410426       -11.1683
  25   2.0000      -0.399398       -10.8682
  26   2.0000      -0.389904       -10.6098
  27   2.0000      -0.380020       -10.3409
  28   2.0000      -0.370991       -10.0952
  29   2.0000      -0.357872        -9.7382
  30   2.0000      -0.352631        -9.5956
  31   2.0000      -0.350227        -9.5302
  32   2.0000      -0.336959        -9.1691
  33   2.0000      -0.326550        -8.8859
  34   2.0000      -0.324474        -8.8294
  35   2.0000      -0.319014        -8.6808
  36   2.0000      -0.305791        -8.3210
  37   2.0000      -0.290739        -7.9114
  38   2.0000      -0.281574        -7.6620
  39   2.0000      -0.277745        -7.5578
  40   2.0000      -0.220035        -5.9875
  41   2.0000      -0.192792        -5.2461
  42   0.0000      -0.054437        -1.4813
  43   0.0000      -0.012323        -0.3353
  44   0.0000       0.024507         0.6669
  45   0.0000       0.041556         1.1308
  46   0.0000       0.055093         1.4992

MULLIKEN ATOMIC CHARGES
-----------------------
   0 C :   -0.220161
   1 C :   -0.203366
   2 H :    0.086844
   3 C :   -0.089671
   4 C :   -0.099588
   5 C :   -0.136542
   6 H :    0.056963
   7 C :   -0.082001
   8 C :   -0.000925
   9 O :   -0.156870
  10 C :   -0.052413
  11 C :   -0.236617
  12 C :   -0.223662
  13 H :    0.118520
  14 H :    0.108022
  15 H :    0.095237
  16 H :    0.068779
  17 H :    0.088331
  18 H :    0.088246
  19 H :    0.081707
  20 H :    0.099177
  21 H :    0.102143
  22 H :    0.082016
  23 H :    0.082578
  24 H :    0.098707
  25 H :    0.110412
  26 H :    0.134133
Sum of atomic charges:    0.0000000

LOEWDIN ATOMIC CHARGES
----------------------
   0 C :   -0.316213
   1 C :   -0.174314
   2 H :    0.134375
   3 C :   -0.219356
   4 C :   -0.214698
   5 C :   -0.121780
   6 H :    0.122456
   7 C :   -0.236531
   8 C :    0.048638
   9 O :   -0.122955
  10 C :   -0.048569
  11 C :   -0.265578
  12 C :   -0.329659
  13 H :    0.127633
  14 H :    0.122714
  15 H :    0.117629
  16 H :    0.115261
  17 H :    0.122314
  18 H :    0.123691
  19 H :    0.118818
  20 H :    0.141566
  21 H :    0.132791
  22 H :    0.116946
  23 H :    0.115640
  24 H :    0.126804
  25 H :    0.126907
  26 H :    0.135468

  Mayer bond orders larger than 0.100000
B(  0-C ,  1-C ) :   1.1017 B(  0-C , 13-H ) :   0.9438 B(  0-C , 14-H ) :   0.9476
B(  0-C , 15-H ) :   0.9448 B(  1-C ,  2-H ) :   0.8726 B(  1-C ,  3-C ) :   1.0803
B(  1-C ,  8-C ) :   0.9393 B(  3-C ,  4-C ) :   1.1730 B(  3-C , 16-H ) :   0.8868
B(  3-C , 17-H ) :   0.9079 B(  4-C ,  5-C ) :   1.0868 B(  4-C , 18-H ) :   0.9115
B(  4-C , 19-H ) :   0.8973 B(  5-C ,  6-H ) :   0.8655 B(  5-C ,  7-C ) :   1.0547
B(  5-C , 10-C ) :   1.0205 B(  7-C ,  8-C ) :   1.0796 B(  7-C , 20-H ) :   0.8629
B(  7-C , 21-H ) :   0.8980 B(  8-C ,  9-O ) :   2.1663 B( 10-C , 11-C ) :   2.0363
B( 10-C , 12-C ) :   1.1265 B( 11-C , 22-H ) :   0.9050 B( 11-C , 23-H ) :   0.9091
B( 12-C , 24-H ) :   0.9329 B( 12-C , 25-H ) :   0.9181 B( 12-C , 26-H ) :   0.9096

Dispersion correction           -0.029197965
FINAL SINGLE POINT ENERGY      -464.825607467327

DIPOLE MOMENT
-------------

Method             : SCF
Type of density    : Electron Density
Multiplicity       :   1
Irrep              :   0
Energy             :  -464.9113129908956807 Eh
Relativity type    :
Basis              : AO
                                X                 Y                 Z
Electronic contribution:     -0.657230333       4.133158500      -0.742588816
Nuclear contribution   :      0.615809173      -5.002641097       1.154775140
                        -----------------------------------------
Total Dipole Moment    :     -0.041421161      -0.869482597       0.412186324
                        -----------------------------------------
Magnitude (a.u.)       :      0.963126817
Magnitude (Debye)      :      2.448073817

Rotational constants in cm-1:             0.067024             0.026151             0.021936
Rotational constants in MHz :          2009.343698           783.993679           657.616330

                             ****ORCA TERMINATED NORMALLY****
TOTAL RUN TIME: 0 days 0 hours 0 minutes 26 seconds 911 msec
