                         Program Version 6.0.1  -  RELEASE   -
|  1> ! pbe def2-sv(p) def2/J RI DEFGRID1 loosescf d4 GCP(DFT/SV(P)) printgap
|  2> %output
|  3>     printlevel normal
|  4> end
|  5> * xyz 0 1
|  6> C -1.6505535675 -1.2352295313 0.0085075674
|  7> C -0.9403683009 0.0234810237 -0.4850422404
|  8> H -0.9436580035 0.0750118882 -1.5792111092
|  9> C 0.5306169267 -0.009533004 -0.0341778784
| 10> F 1.2380543659 1.0201780759 -0.507050569
| 11> F 0.626415354 0.0399756482 1.3071621739
| 12> F 1.1591688897 -1.126886978 -0.4258033102
| 13> O -1.5399550111 1.2055067054 -0.0439032149
| 14> H -2.6949550219 -1.1927799028 -0.2874806344
| 15> H -1.5932746403 -1.2995375513 1.0940923738
| 16> H -1.1935718123 -2.1215956285 -0.4221224394
| 17> H -1.5709855088 1.2144179178 0.9222095003
| 18> *
| 19>
| 20>                          ****END OF INPUT****

CARTESIAN COORDINATES (ANGSTROEM)
---------------------------------
  C     -1.650554   -1.235230    0.008508
  C     -0.940368    0.023481   -0.485042
  H     -0.943658    0.075012   -1.579211
  C      0.530617   -0.009533   -0.034178
  F      1.238054    1.020178   -0.507051
  F      0.626415    0.039976    1.307162
  F      1.159169   -1.126887   -0.425803
  O     -1.539955    1.205507   -0.043903
  H     -2.694955   -1.192780   -0.287481
  H     -1.593275   -1.299538    1.094092
  H     -1.193572   -2.121596   -0.422122
  H     -1.570986    1.214418    0.922210

 Total Charge           Charge          ....    0
 Multiplicity           Mult            ....    1
 Number of Electrons    NEL             ....   58
 Basis Dimension        Dim             ....  108

ORBITAL ENERGIES
----------------

  NO   OCC          E(Eh)            E(eV)
   0   2.0000     -24.291264      -660.9989
   1   2.0000     -24.289104      -660.9401
   2   2.0000     -24.283393      -660.7847
   3   2.0000     -18.769934      -510.7559
   4   2.0000     -10.118336      -275.3339
   5   2.0000      -9.967947      -271.2416
   6   2.0000      -9.896560      -269.2991
   7   2.0000      -1.193009       -32.4634
   8   2.0000      -1.101493       -29.9732
   9   2.0000      -1.098050       -29.8795
  10   2.0000      -0.951494       -25.8915
  11   2.0000      -0.712310       -19.3829
  12   2.0000      -0.631199       -17.1758
  13   2.0000      -0.580910       -15.8074
  14   2.0000      -0.530112       -14.4251
  15   2.0000      -0.527441       -14.3524
  16   2.0000      -0.518417       -14.1068
  17   2.0000      -0.439641       -11.9632
  18   2.0000      -0.421089       -11.4584
  19   2.0000      -0.399570       -10.8729
  20   2.0000      -0.396812       -10.7978
  21   2.0000      -0.378958       -10.3120
  22   2.0000      -0.364919        -9.9299
  23   2.0000      -0.359119        -9.7721
  24   2.0000      -0.348945        -9.4953
  25   2.0000      -0.338004        -9.1976
  26   2.0000      -0.335500        -9.1294
  27   2.0000      -0.295802        -8.0492
  28   2.0000      -0.242028        -6.5859
  29   0.0000       0.024051         0.6545
  30   0.0000       0.053310         1.4506
  31   0.0000       0.069144         1.8815
  32   0.0000       0.093976         2.5572
  33   0.0000       0.104397         2.8408

MULLIKEN ATOMIC CHARGES
-----------------------
   0 C :   -0.273025
   1 C :   -0.024561
   2 H :    0.101616
   3 C :    0.383845
   4 F :   -0.128462
   5 F :   -0.153167
   6 F :   -0.139620
   7 O :   -0.414815
   8 H :    0.124613
   9 H :    0.103193
  10 H :    0.118701
  11 H :    0.301682
Sum of atomic charges:    0.0000000

LOEWDIN ATOMIC CHARGES
----------------------
   0 C :   -0.354884
   1 C :   -0.098831
   2 H :    0.131753
   3 C :    0.089443
   4 F :   -0.036965
   5 F :   -0.054463
   6 F :   -0.045460
   7 O :   -0.303955
   8 H :    0.131943
   9 H :    0.122402
  10 H :    0.132518
  11 H :    0.286498

  Mayer bond orders larger than 0.100000
B(  0-C ,  1-C ) :   1.0862 B(  0-C ,  8-H ) :   0.9427 B(  0-C ,  9-H ) :   0.9405
B(  0-C , 10-H ) :   0.9351 B(  1-C ,  2-H ) :   0.8857 B(  1-C ,  3-C ) :   0.9566
B(  1-C ,  7-O ) :   1.0423 B(  3-C ,  4-F ) :   1.1898 B(  3-C ,  5-F ) :   1.1309
B(  3-C ,  6-F ) :   1.1511 B(  7-O , 11-H ) :   0.8450

Dispersion correction           -0.008205920
FINAL SINGLE POINT ENERGY      -491.115722527488

DIPOLE MOMENT
-------------

Method             : SCF
Type of density    : Electron Density
Multiplicity       :   1
Irrep              :   0
Energy             :  -491.1875829818763464 Eh
Relativity type    :
Basis              : AO
                                X                 Y                 Z
Electronic contribution:      9.764297198       2.643418847       0.805395894
Nuclear contribution   :    -10.326330734      -3.039279290      -0.603120506
                        -----------------------------------------
Total Dipole Moment    :     -0.562033536      -0.395860443       0.202275389
                        -----------------------------------------
Magnitude (a.u.)       :      0.716590900
Magnitude (Debye)      :      1.821429317

Rotational constants in cm-1:             0.117737             0.080286             0.065812
Rotational constants in MHz :          3529.663073          2406.901613          1973.007586

                             ****ORCA TERMINATED NORMALLY****
TOTAL RUN TIME: 0 days 0 hours 0 minutes 7 seconds 350 msec
