                         Program Version 6.0.1  -  RELEASE   -
|  1> ! pbe def2-sv(p) def2/J RI DEFGRID1 loosescf d4 GCP(DFT/SV(P)) printgap
|  2> %output
|  3>     printlevel normal
|  4> end
|  5> * xyz 0 1
|  6> C -1.7913026591 0.7321741642 0.5764582372
|  7> C -0.7021792902 -0.3193648658 0.3646846044
|  8> C -1.0038322951 -1.1250321193 -0.8972742632
|  9> C 0.7021504072 0.3193198289 0.3646929672
| 10> C 1.7912492246 -0.7322586044 0.5764463352
| 11> C 1.0039168182 1.1251487168 -0.8971319699
| 12> H -2.7640788757 0.2531679279 0.6650453307
| 13> H -1.6072201614 1.3016737169 1.4849921645
| 14> H -1.8324956913 1.4243265235 -0.2610610763
| 15> H -0.7362784267 -1.006477879 1.2191710142
| 16> H -1.0824943043 -0.4729364159 -1.763279344
| 17> H -0.2311410197 -1.8655097949 -1.0858468382
| 18> H -1.9509027682 -1.6484429204 -0.7828750164
| 19> H 0.7362008727 1.0063184416 1.2192618496
| 20> H 1.6066058568 -1.3024261481 1.4844712696
| 21> H 1.8330205745 -1.423774218 -0.2615922092
| 22> H 2.7638988663 -0.2531548149 0.6660033597
| 23> H 1.0824669306 0.4731716641 -1.7632418177
| 24> H 1.9510650094 1.6484414566 -0.7826605227
| 25> H 0.2313268547 1.8657759447 -1.0855928124
| 26> *
| 27>
| 28>                          ****END OF INPUT****

CARTESIAN COORDINATES (ANGSTROEM)
---------------------------------
  C     -1.791303    0.732174    0.576458
  C     -0.702179   -0.319365    0.364685
  C     -1.003832   -1.125032   -0.897274
  C      0.702150    0.319320    0.364693
  C      1.791249   -0.732259    0.576446
  C      1.003917    1.125149   -0.897132
  H     -2.764079    0.253168    0.665045
  H     -1.607220    1.301674    1.484992
  H     -1.832496    1.424327   -0.261061
  H     -0.736278   -1.006478    1.219171
  H     -1.082494   -0.472936   -1.763279
  H     -0.231141   -1.865510   -1.085847
  H     -1.950903   -1.648443   -0.782875
  H      0.736201    1.006318    1.219262
  H      1.606606   -1.302426    1.484471
  H      1.833021   -1.423774   -0.261592
  H      2.763899   -0.253155    0.666003
  H      1.082467    0.473172   -1.763242
  H      1.951065    1.648441   -0.782661
  H      0.231327    1.865776   -1.085593

 Total Charge           Charge          ....    0
 Multiplicity           Mult            ....    1
 Number of Electrons    NEL             ....   50
 Basis Dimension        Dim             ....  112

ORBITAL ENERGIES
----------------

  NO   OCC          E(Eh)            E(eV)
   0   2.0000      -9.888372      -269.0763
   1   2.0000      -9.888368      -269.0762
   2   2.0000      -9.868224      -268.5280
   3   2.0000      -9.868176      -268.5267
   4   2.0000      -9.867815      -268.5169
   5   2.0000      -9.867809      -268.5167
   6   2.0000      -0.737906       -20.0794
   7   2.0000      -0.668842       -18.2001
   8   2.0000      -0.609453       -16.5841
   9   2.0000      -0.604010       -16.4360
  10   2.0000      -0.541457       -14.7338
  11   2.0000      -0.471993       -12.8436
  12   2.0000      -0.421734       -11.4760
  13   2.0000      -0.399095       -10.8599
  14   2.0000      -0.393816       -10.7163
  15   2.0000      -0.359162        -9.7733
  16   2.0000      -0.352607        -9.5949
  17   2.0000      -0.340690        -9.2706
  18   2.0000      -0.329623        -8.9695
  19   2.0000      -0.326550        -8.8859
  20   2.0000      -0.301772        -8.2116
  21   2.0000      -0.300881        -8.1874
  22   2.0000      -0.271469        -7.3870
  23   2.0000      -0.269282        -7.3275
  24   2.0000      -0.264700        -7.2029
  25   0.0000       0.030993         0.8434
  26   0.0000       0.066908         1.8207
  27   0.0000       0.067495         1.8366
  28   0.0000       0.074203         2.0192
  29   0.0000       0.093297         2.5387

MULLIKEN ATOMIC CHARGES
-----------------------
   0 C :   -0.239360
   1 C :   -0.149304
   2 C :   -0.260788
   3 C :   -0.149319
   4 C :   -0.239362
   5 C :   -0.260791
   6 H :    0.095627
   7 H :    0.094652
   8 H :    0.096499
   9 H :    0.064584
  10 H :    0.099974
  11 H :    0.101139
  12 H :    0.096971
  13 H :    0.064579
  14 H :    0.094656
  15 H :    0.096509
  16 H :    0.095632
  17 H :    0.099977
  18 H :    0.096976
  19 H :    0.101148
Sum of atomic charges:    0.0000000

LOEWDIN ATOMIC CHARGES
----------------------
   0 C :   -0.329488
   1 C :   -0.150350
   2 C :   -0.331485
   3 C :   -0.150356
   4 C :   -0.329479
   5 C :   -0.331480
   6 H :    0.117116
   7 H :    0.115484
   8 H :    0.114842
   9 H :    0.112218
  10 H :    0.117022
  11 H :    0.115893
  12 H :    0.118744
  13 H :    0.112218
  14 H :    0.115482
  15 H :    0.114840
  16 H :    0.117119
  17 H :    0.117021
  18 H :    0.118747
  19 H :    0.115893

  Mayer bond orders larger than 0.100000
B(  0-C ,  1-C ) :   1.1148 B(  0-C ,  6-H ) :   0.9500 B(  0-C ,  7-H ) :   0.9484
B(  0-C ,  8-H ) :   0.9441 B(  1-C ,  2-C ) :   1.1062 B(  1-C ,  3-C ) :   1.0400
B(  1-C ,  9-H ) :   0.9021 B(  2-C , 10-H ) :   0.9431 B(  2-C , 11-H ) :   0.9479
B(  2-C , 12-H ) :   0.9485 B(  3-C ,  4-C ) :   1.1148 B(  3-C ,  5-C ) :   1.1062
B(  3-C , 13-H ) :   0.9021 B(  4-C , 14-H ) :   0.9484 B(  4-C , 15-H ) :   0.9441
B(  4-C , 16-H ) :   0.9500 B(  5-C , 17-H ) :   0.9430 B(  5-C , 18-H ) :   0.9485
B(  5-C , 19-H ) :   0.9478

Dispersion correction           -0.015798167
FINAL SINGLE POINT ENERGY      -236.449021271661

DIPOLE MOMENT
-------------

Method             : SCF
Type of density    : Electron Density
Multiplicity       :   1
Irrep              :   0
Energy             :  -236.5163169785223545 Eh
Relativity type    :
Basis              : AO
                                X                 Y                 Z
Electronic contribution:      0.000029743      -0.000106466       1.016081290
Nuclear contribution   :     -0.000024657       0.000143993      -0.982446744
                        -----------------------------------------
Total Dipole Moment    :      0.000005086       0.000037527       0.033634546
                        -----------------------------------------
Magnitude (a.u.)       :      0.033634568
Magnitude (Debye)      :      0.085492277

Rotational constants in cm-1:             0.143805             0.084031             0.076589
Rotational constants in MHz :          4311.169770          2519.192550          2296.070090

                             ****ORCA TERMINATED NORMALLY****
TOTAL RUN TIME: 0 days 0 hours 0 minutes 3 seconds 989 msec
