                         Program Version 6.0.1  -  RELEASE   -
|  1> ! r2scan-3c def2/J RI DEFGRID2 scfconv6 printgap
|  2> %output
|  3>     printlevel normal
|  4> end
|  5> * xyz 0 1
|  6> C -3.5950629342 -0.494526007 -1.5355746034
|  7> N -2.4374133236 -0.1269287629 -0.7586044635
|  8> C -2.4265423199 -0.2169834456 0.5925558315
|  9> O -3.3590833468 -0.5754136204 1.2590248849
| 10> O -1.254207981 0.1140054245 1.1948867779
| 11> C -0.1972891022 0.662348166 0.4870959872
| 12> C -0.2409992438 1.9667478868 0.061705395
| 13> C 0.8589644559 2.5277489462 -0.6023946005
| 14> C 1.9812685136 1.7840710705 -0.8371405745
| 15> C 2.0575902252 0.4407254336 -0.413106769
| 16> C 0.9525143072 -0.139098696 0.263811223
| 17> C 1.0248969948 -1.481933749 0.6872939983
| 18> C 2.1478227171 -2.2231063334 0.4472673349
| 19> C 3.243138667 -1.6551215027 -0.2218787209
| 20> C 3.2000939233 -0.3548851672 -0.6411685302
| 21> H -4.387244798 -0.7565558424 -0.8367356064
| 22> H -3.3774916475 -1.353201385 -2.1740403439
| 23> H -3.9194090108 0.3424437802 -2.1564277031
| 24> H -1.5941229748 0.1267566438 -1.2499095335
| 25> H -1.1250524117 2.5580077517 0.2488818221
| 26> H 0.8059330511 3.5568740791 -0.923893467
| 27> H 2.8288494594 2.2153658888 -1.349073367
| 28> H 0.1792360039 -1.9047878733 1.2085999255
| 29> H 2.1999686601 -3.2512059651 0.7730164434
| 30> H 4.1227378373 -2.2556255548 -0.401345807
| 31> H 4.0425514439 0.0862427073 -1.154087646
| 32> *
| 33>
| 34>                          ****END OF INPUT****

CARTESIAN COORDINATES (ANGSTROEM)
---------------------------------
  C     -3.595063   -0.494526   -1.535575
  N     -2.437413   -0.126929   -0.758604
  C     -2.426542   -0.216983    0.592556
  O     -3.359083   -0.575414    1.259025
  O     -1.254208    0.114005    1.194887
  C     -0.197289    0.662348    0.487096
  C     -0.240999    1.966748    0.061705
  C      0.858964    2.527749   -0.602395
  C      1.981269    1.784071   -0.837141
  C      2.057590    0.440725   -0.413107
  C      0.952514   -0.139099    0.263811
  C      1.024897   -1.481934    0.687294
  C      2.147823   -2.223106    0.447267
  C      3.243139   -1.655122   -0.221879
  C      3.200094   -0.354885   -0.641169
  H     -4.387245   -0.756556   -0.836736
  H     -3.377492   -1.353201   -2.174040
  H     -3.919409    0.342444   -2.156428
  H     -1.594123    0.126757   -1.249910
  H     -1.125052    2.558008    0.248882
  H      0.805933    3.556874   -0.923893
  H      2.828849    2.215366   -1.349073
  H      0.179236   -1.904788    1.208600
  H      2.199969   -3.251206    0.773016
  H      4.122738   -2.255626   -0.401346
  H      4.042551    0.086243   -1.154088

 Total Charge           Charge          ....    0
 Multiplicity           Mult            ....    1
 Number of Electrons    NEL             ....  106
 Basis Dimension        Dim             ....  355

ORBITAL ENERGIES
----------------

  NO   OCC          E(Eh)            E(eV)
   0   2.0000     -19.005695      -517.1712
   1   2.0000     -18.914320      -514.6848
   2   2.0000     -14.193487      -386.2244
   3   2.0000     -10.175352      -276.8854
   4   2.0000     -10.113161      -275.1931
   5   2.0000     -10.067321      -273.9457
   6   2.0000     -10.061615      -273.7905
   7   2.0000     -10.061247      -273.7804
   8   2.0000     -10.053350      -273.5656
   9   2.0000     -10.052659      -273.5467
  10   2.0000     -10.049686      -273.4659
  11   2.0000     -10.049211      -273.4529
  12   2.0000     -10.048151      -273.4241
  13   2.0000     -10.047483      -273.4059
  14   2.0000     -10.046950      -273.3914
  15   2.0000      -1.083094       -29.4725
  16   2.0000      -0.990852       -26.9625
  17   2.0000      -0.898382       -24.4462
  18   2.0000      -0.860264       -23.4090
  19   2.0000      -0.808093       -21.9893
  20   2.0000      -0.757956       -20.6250
  21   2.0000      -0.729590       -19.8531
  22   2.0000      -0.707439       -19.2504
  23   2.0000      -0.683209       -18.5911
  24   2.0000      -0.624862       -17.0033
  25   2.0000      -0.602592       -16.3974
  26   2.0000      -0.599228       -16.3058
  27   2.0000      -0.560468       -15.2511
  28   2.0000      -0.541453       -14.7337
  29   2.0000      -0.503402       -13.6983
  30   2.0000      -0.486548       -13.2397
  31   2.0000      -0.478604       -13.0235
  32   2.0000      -0.459255       -12.4970
  33   2.0000      -0.446037       -12.1373
  34   2.0000      -0.426093       -11.5946
  35   2.0000      -0.412031       -11.2119
  36   2.0000      -0.408091       -11.1047
  37   2.0000      -0.403854       -10.9894
  38   2.0000      -0.392838       -10.6897
  39   2.0000      -0.389308       -10.5936
  40   2.0000      -0.379822       -10.3355
  41   2.0000      -0.372530       -10.1371
  42   2.0000      -0.365161        -9.9365
  43   2.0000      -0.354957        -9.6589
  44   2.0000      -0.327732        -8.9180
  45   2.0000      -0.323833        -8.8119
  46   2.0000      -0.317703        -8.6451
  47   2.0000      -0.284967        -7.7543
  48   2.0000      -0.271622        -7.3912
  49   2.0000      -0.249449        -6.7879
  50   2.0000      -0.246801        -6.7158
  51   2.0000      -0.234713        -6.3869
  52   2.0000      -0.212621        -5.7857
  53   0.0000      -0.081559        -2.2193
  54   0.0000      -0.051724        -1.4075
  55   0.0000      -0.014062        -0.3826
  56   0.0000       0.026612         0.7242
  57   0.0000       0.047319         1.2876

MULLIKEN ATOMIC CHARGES
-----------------------
   0 C :   -0.400446
   1 N :   -0.173990
   2 C :    0.330550
   3 O :   -0.437396
   4 O :   -0.138593
   5 C :    0.159413
   6 C :   -0.184895
   7 C :   -0.134230
   8 C :   -0.262881
   9 C :    0.174117
  10 C :    0.004733
  11 C :   -0.240111
  12 C :   -0.143591
  13 C :   -0.136658
  14 C :   -0.216570
  15 H :    0.197361
  16 H :    0.144551
  17 H :    0.143720
  18 H :    0.247306
  19 H :    0.161635
  20 H :    0.149753
  21 H :    0.146588
  22 H :    0.168855
  23 H :    0.148274
  24 H :    0.147364
  25 H :    0.145143
Sum of atomic charges:   -0.0000000

LOEWDIN ATOMIC CHARGES
----------------------
   0 C :   -0.110897
   1 N :   -0.627850
   2 C :    0.452966
   3 O :   -0.379266
   4 O :   -0.491312
   5 C :    0.196253
   6 C :   -0.131178
   7 C :   -0.156570
   8 C :   -0.146373
   9 C :   -0.054922
  10 C :   -0.027320
  11 C :   -0.122848
  12 C :   -0.155573
  13 C :   -0.156273
  14 C :   -0.141543
  15 H :    0.207621
  16 H :    0.168975
  17 H :    0.168593
  18 H :    0.278424
  19 H :    0.184901
  20 H :    0.171562
  21 H :    0.172633
  22 H :    0.187950
  23 H :    0.170385
  24 H :    0.169432
  25 H :    0.172232

  Mayer bond orders larger than 0.100000
B(  0-C ,  1-N ) :   0.8983 B(  0-C , 15-H ) :   0.9545 B(  0-C , 16-H ) :   0.9591
B(  0-C , 17-H ) :   0.9646 B(  1-N ,  2-C ) :   1.1405 B(  1-N , 18-H ) :   0.9164
B(  2-C ,  3-O ) :   1.9600 B(  2-C ,  4-O ) :   1.0239 B(  4-O ,  5-C ) :   0.8911
B(  5-C ,  6-C ) :   1.5124 B(  5-C , 10-C ) :   1.2928 B(  5-C , 11-C ) :  -0.1005
B(  6-C ,  7-C ) :   1.2173 B(  6-C , 19-H ) :   0.9349 B(  7-C ,  8-C ) :   1.4918
B(  7-C , 20-H ) :   0.9575 B(  8-C ,  9-C ) :   1.1760 B(  8-C , 21-H ) :   0.9473
B(  9-C , 10-C ) :   1.4043 B(  9-C , 14-C ) :   1.1856 B( 10-C , 11-C ) :   1.2887
B( 11-C , 12-C ) :   1.4794 B( 11-C , 22-H ) :   0.9596 B( 12-C , 13-C ) :   1.2577
B( 12-C , 23-H ) :   0.9538 B( 13-C , 14-C ) :   1.5112 B( 13-C , 24-H ) :   0.9488
B( 14-C , 25-H ) :   0.9507

Dispersion correction           -0.010992659
FINAL SINGLE POINT ENERGY      -668.974971435148

DIPOLE MOMENT
-------------

Method             : SCF
Type of density    : Electron Density
Multiplicity       :   1
Irrep              :   0
Energy             :  -668.9787009191583138 Eh
Relativity type    :
Basis              : AO
                                X                 Y                 Z
Electronic contribution:      1.341216008       0.924276904       5.898905024
Nuclear contribution   :     -0.291898668      -0.603912520      -7.487280588
                        -----------------------------------------
Total Dipole Moment    :      1.049317339       0.320364384      -1.588375564
                        -----------------------------------------
Magnitude (a.u.)       :      1.930449987
Magnitude (Debye)      :      4.906813915

Rotational constants in cm-1:             0.035103             0.014376             0.011936
Rotational constants in MHz :          1052.348992           430.988254           357.829225

                             ****ORCA TERMINATED NORMALLY****
TOTAL RUN TIME: 0 days 0 hours 0 minutes 43 seconds 160 msec
