                         Program Version 6.0.0  -   RELEASE  -
|  1> ! r2SCAN-3c DEF2-TZVP FREQ
|  2> * xyzfile 0 1 censo.xyz
|  3>
|  4>                          ****END OF INPUT****

CARTESIAN COORDINATES (ANGSTROEM)
---------------------------------
  C     -0.000011   -0.000046    0.498113
  Cl    -1.611594    0.536046   -0.066213
  Cl     0.342057   -1.663601   -0.066338
  Cl     1.269826    1.127711   -0.066575
  H     -0.000305   -0.000116    1.587853

 Total Charge           Charge          ....    0
 Multiplicity           Mult            ....    1
 Number of Electrons    NEL             ....   58
 Basis Dimension        Dim             ....  148

ORBITAL ENERGIES
----------------

  NO   OCC          E(Eh)            E(eV)
   0   2.0000    -101.214482     -2754.1861
   1   2.0000    -101.214472     -2754.1858
   2   2.0000    -101.214469     -2754.1857
   3   2.0000     -10.227171      -278.2955
   4   2.0000      -9.390636      -255.5322
   5   2.0000      -9.390627      -255.5319
   6   2.0000      -9.390623      -255.5318
   7   2.0000      -7.135981      -194.1799
   8   2.0000      -7.135975      -194.1797
   9   2.0000      -7.135971      -194.1796
  10   2.0000      -7.125205      -193.8867
  11   2.0000      -7.125195      -193.8864
  12   2.0000      -7.125192      -193.8863
  13   2.0000      -7.125074      -193.8831
  14   2.0000      -7.125061      -193.8828
  15   2.0000      -7.125059      -193.8827
  16   2.0000      -0.905598       -24.6426
  17   2.0000      -0.804941       -21.9036
  18   2.0000      -0.804909       -21.9027
  19   2.0000      -0.625603       -17.0235
  20   2.0000      -0.481852       -13.1119
  21   2.0000      -0.452711       -12.3189
  22   2.0000      -0.452687       -12.3182
  23   2.0000      -0.331922        -9.0320
  24   2.0000      -0.331897        -9.0314
  25   2.0000      -0.304531        -8.2867
  26   2.0000      -0.304507        -8.2860
  27   2.0000      -0.303292        -8.2530
  28   2.0000      -0.287013        -7.8100
  29   0.0000      -0.074668        -2.0318
  30   0.0000      -0.023747        -0.6462
  31   0.0000      -0.023690        -0.6446
  32   0.0000       0.048712         1.3255
  33   0.0000       0.167408         4.5554

MULLIKEN ATOMIC CHARGES
-----------------------
   0 C :    0.050559
   1 Cl:   -0.070197
   2 Cl:   -0.070142
   3 Cl:   -0.070161
   4 H :    0.159941
Sum of atomic charges:    0.0000000

LOEWDIN ATOMIC CHARGES
----------------------
   0 C :   -1.033343
   1 Cl:    0.307259
   2 Cl:    0.307287
   3 Cl:    0.307222
   4 H :    0.111575

  Mayer bond orders larger than 0.100000
B(  0-C ,  1-Cl) :   1.1090 B(  0-C ,  2-Cl) :   1.1091 B(  0-C ,  3-Cl) :   1.1090
B(  0-C ,  4-H ) :   0.9442

Dispersion correction           -0.001474146
FINAL SINGLE POINT ENERGY     -1419.231960828826

DIPOLE MOMENT
-------------

Method             : SCF
Type of density    : Electron Density
Multiplicity       :   1
Irrep              :   0
Energy             : -1419.2377148533500986 Eh
Relativity type    :
Basis              : AO
                                X                 Y                 Z
Electronic contribution:      0.000374604       0.000051774      -1.320781741
Nuclear contribution   :     -0.000420243      -0.000192718       1.770504770
                        -----------------------------------------
Total Dipole Moment    :     -0.000045638      -0.000140944       0.449723029
                        -----------------------------------------
Magnitude (a.u.)       :      0.449723053
Magnitude (Debye)      :      1.143105157

VIBRATIONAL FREQUENCIES
-----------------------

Scaling factor for frequencies =  1.000000000  (already applied!)

     0:       0.00 cm**-1
     1:       0.00 cm**-1
     2:       0.00 cm**-1
     3:       0.00 cm**-1
     4:       0.00 cm**-1
     5:       0.00 cm**-1
     6:     256.68 cm**-1
     7:     256.75 cm**-1
     8:     359.18 cm**-1
     9:     663.60 cm**-1
    10:     681.10 cm**-1
    11:     682.23 cm**-1
    12:    1225.44 cm**-1
    13:    1225.88 cm**-1
    14:    3130.54 cm**-1

IR SPECTRUM
-----------

 Mode   freq       eps      Int      T**2         TX        TY        TZ
       cm**-1   L/(mol*cm) km/mol    a.u.
----------------------------------------------------------------------------
  6:    256.68   0.000024    0.12  0.000029  ( 0.001138  0.005234  0.000026)
  7:    256.75   0.000023    0.12  0.000028  (-0.005199  0.000931  0.000014)
  8:    359.18   0.000023    0.11  0.000020  (-0.000038  0.000001 -0.004426)
  9:    663.60   0.001128    5.70  0.000531  ( 0.002001  0.000364  0.022943)
 10:    681.10   0.037789  190.97  0.017314  (-0.123093 -0.046498  0.000324)
 11:    682.23   0.037814  191.10  0.017297  ( 0.046491 -0.123026 -0.000068)
 12:   1225.44   0.004186   21.15  0.001066  ( 0.024421  0.021669  0.000029)
 13:   1225.88   0.004181   21.13  0.001064  ( 0.021629 -0.024422 -0.000014)
 14:   3130.54   0.000084    0.43  0.000008  ( 0.000036  0.000038  0.002895)

--------------------------
THERMOCHEMISTRY AT 298.15K
--------------------------

Temperature         ...   298.15 K
Pressure            ...     1.00 atm
Total Mass          ...   119.38 AMU
Quasi RRHO          ...     True
Cut-Off Frequency   ...     1.00 cm^-1

Throughout the following assumptions are being made:
  (1) The electronic state is orbitally nondegenerate
  (2) There are no thermally accessible electronically excited states
  (3) Hindered rotations indicated by low frequency modes are not
      treated as such but are treated as vibrations and this may
      cause some error
  (4) All equations used are the standard statistical mechanics
      equations for an ideal gas
  (5) All vibrations are strictly harmonic

freq.     256.68  E(vib)   ...       0.30
freq.     256.75  E(vib)   ...       0.30
freq.     359.18  E(vib)   ...       0.22
freq.     663.60  E(vib)   ...       0.08
freq.     681.10  E(vib)   ...       0.08
freq.     682.23  E(vib)   ...       0.08
freq.    1225.44  E(vib)   ...       0.01
freq.    1225.88  E(vib)   ...       0.01
freq.    3130.54  E(vib)   ...       0.00

------------
INNER ENERGY
------------

The inner energy is: U= E(el) + E(ZPE) + E(vib) + E(rot) + E(trans)
    E(el)   - is the total energy from the electronic structure calculation
              = E(kin-el) + E(nuc-el) + E(el-el) + E(nuc-nuc)
    E(ZPE)  - the the zero temperature vibrational energy from the frequency calculation
    E(vib)  - the the finite temperature correction to E(ZPE) due to population
              of excited vibrational states
    E(rot)  - is the rotational thermal energy
    E(trans)- is the translational thermal energy

Summary of contributions to the inner energy U:
Electronic energy                ...  -1419.23196083 Eh
Zero point energy                ...      0.01932203 Eh      12.12 kcal/mol
Thermal vibrational correction   ...      0.00170450 Eh       1.07 kcal/mol
Thermal rotational correction    ...      0.00141627 Eh       0.89 kcal/mol
Thermal translational correction ...      0.00141627 Eh       0.89 kcal/mol
-----------------------------------------------------------------------
Total thermal energy                  -1419.20810176 Eh

Summary of corrections to the electronic energy:
(perhaps to be used in another calculation)
Total thermal correction                  0.00453704 Eh       2.85 kcal/mol
Non-thermal (ZPE) correction              0.01932203 Eh      12.12 kcal/mol
-----------------------------------------------------------------------
Total correction                          0.02385907 Eh      14.97 kcal/mol

--------
ENTHALPY
--------

The enthalpy is H = U + kB*T
                kB is Boltzmann's constant
Total thermal energy              ...  -1419.20810176 Eh
Thermal Enthalpy correction       ...      0.00094421 Eh       0.59 kcal/mol
-----------------------------------------------------------------------
Total Enthalpy                    ...  -1419.20715755 Eh

Note: Only C1 symmetry has been detected, increase convergence thresholds
      if your molecule has a higher symmetry. Symmetry factor of 1.0 is
      used for the rotational entropy correction.

Note: Rotational entropy computed according to Herzberg
Infrared and Raman Spectra, Chapter V,1, Van Nostrand Reinhold, 1945
Point Group:  C1, Symmetry Number:   1
Rotational constants in cm-1:     0.105791     0.105747     0.054949

Vibrational entropy computed according to the QRRHO of S. Grimme
Chem.Eur.J. 2012 18 9955 using a reference frequency of 100.0 cm-1

-------
ENTROPY
-------

The entropy contributions are T*S = T*(S(el)+S(vib)+S(rot)+S(trans))
     S(el)   - electronic entropy
     S(vib)  - vibrational entropy
     S(rot)  - rotational entropy
     S(trans)- translational entropy
The entropies will be listed as multiplied by the temperature to get
units of energy

Electronic entropy                ...      0.00000000 Eh      0.00 kcal/mol
Vibrational entropy               ...      0.00265688 Eh      1.67 kcal/mol
Rotational entropy                ...      0.01300161 Eh      8.16 kcal/mol
Translational entropy             ...      0.01912210 Eh     12.00 kcal/mol
-----------------------------------------------------------------------
Final entropy term                ...      0.03478059 Eh     21.83 kcal/mol

In case the symmetry of your molecule has not been determined correctly
or in case you have a reason to use a different symmetry number we print
out the resulting rotational entropy values for sn=1,12:

 non-linear molecules -----------------------------------
|  sn= 1 | S(rot)=       0.01300161 Eh      8.16 kcal/mol|
|  sn= 2 | S(rot)=       0.01234715 Eh      7.75 kcal/mol|
|  sn= 3 | S(rot)=       0.01196432 Eh      7.51 kcal/mol|
|  sn= 4 | S(rot)=       0.01169269 Eh      7.34 kcal/mol|
|  sn= 5 | S(rot)=       0.01148201 Eh      7.21 kcal/mol|
|  sn= 6 | S(rot)=       0.01130986 Eh      7.10 kcal/mol|
|  sn= 7 | S(rot)=       0.01116432 Eh      7.01 kcal/mol|
|  sn= 8 | S(rot)=       0.01103824 Eh      6.93 kcal/mol|
|  sn= 9 | S(rot)=       0.01092703 Eh      6.86 kcal/mol|
|  sn=10 | S(rot)=       0.01082755 Eh      6.79 kcal/mol|
|  sn=11 | S(rot)=       0.01073756 Eh      6.74 kcal/mol|
|  sn=12 | S(rot)=       0.01065541 Eh      6.69 kcal/mol|
 linear molecules ---------------------------------------
|  Dinfh | S(rot)=       0.00806521 Eh      5.06 kcal/mol|
|  Cinfv | S(rot)=       0.00871966 Eh      5.47 kcal/mol|
 --------------------------------------------------------

-------------------
GIBBS FREE ENERGY
-------------------

The Gibbs free energy is G = H - T*S

Total enthalpy                    ...  -1419.20715755 Eh
Total entropy correction          ...     -0.03478059 Eh    -21.83 kcal/mol
-----------------------------------------------------------------------
Final Gibbs free energy         ...  -1419.24193813 Eh

For completeness - the Gibbs free energy minus the electronic energy
G-E(el)                           ...     -0.00997731 Eh     -6.26 kcal/mol

                             ****ORCA TERMINATED NORMALLY****
TOTAL RUN TIME: 0 days 0 hours 1 minutes 8 seconds 864 msec
