                         Program Version 6.0.0  -   RELEASE  -
|  1> ! r2SCAN-3c DEF2-TZVP FREQ
|  2> * xyzfile 0 1 vacuum_censo.xyz
|  3>
|  4>                          ****END OF INPUT****

CARTESIAN COORDINATES (ANGSTROEM)
---------------------------------
  C      0.000084    0.000038    0.487376
  Cl     0.088303   -1.697175   -0.063919
  Cl     1.425626    0.925129   -0.063879
  Cl    -1.514050    0.772031   -0.063954
  H      0.000031    0.000035    1.576735

 Total Charge           Charge          ....    0
 Multiplicity           Mult            ....    1
 Number of Electrons    NEL             ....   58
 Basis Dimension        Dim             ....  148

ORBITAL ENERGIES
----------------

  NO   OCC          E(Eh)            E(eV)
   0   2.0000    -101.214571     -2754.1885
   1   2.0000    -101.214544     -2754.1878
   2   2.0000    -101.214531     -2754.1874
   3   2.0000     -10.226381      -278.2740
   4   2.0000      -9.390769      -255.5358
   5   2.0000      -9.390742      -255.5351
   6   2.0000      -9.390730      -255.5347
   7   2.0000      -7.136103      -194.1832
   8   2.0000      -7.136076      -194.1825
   9   2.0000      -7.136061      -194.1821
  10   2.0000      -7.125343      -193.8904
  11   2.0000      -7.125317      -193.8897
  12   2.0000      -7.125307      -193.8895
  13   2.0000      -7.125200      -193.8866
  14   2.0000      -7.125173      -193.8858
  15   2.0000      -7.125161      -193.8855
  16   2.0000      -0.906451       -24.6658
  17   2.0000      -0.805599       -21.9215
  18   2.0000      -0.805562       -21.9204
  19   2.0000      -0.625131       -17.0107
  20   2.0000      -0.481794       -13.1103
  21   2.0000      -0.453385       -12.3372
  22   2.0000      -0.453362       -12.3366
  23   2.0000      -0.331968        -9.0333
  24   2.0000      -0.331960        -9.0331
  25   2.0000      -0.305182        -8.3044
  26   2.0000      -0.305164        -8.3039
  27   2.0000      -0.302179        -8.2227
  28   2.0000      -0.287332        -7.8187
  29   0.0000      -0.074264        -2.0208
  30   0.0000      -0.022095        -0.6012
  31   0.0000      -0.022041        -0.5998
  32   0.0000       0.048023         1.3068
  33   0.0000       0.167337         4.5535

MULLIKEN ATOMIC CHARGES
-----------------------
   0 C :    0.051395
   1 Cl:   -0.069811
   2 Cl:   -0.069704
   3 Cl:   -0.069848
   4 H :    0.157967
Sum of atomic charges:    0.0000000

LOEWDIN ATOMIC CHARGES
----------------------
   0 C :   -1.042091
   1 Cl:    0.310242
   2 Cl:    0.310393
   3 Cl:    0.310148
   4 H :    0.111308

  Mayer bond orders larger than 0.100000
B(  0-C ,  1-Cl) :   1.1098 B(  0-C ,  2-Cl) :   1.1100 B(  0-C ,  3-Cl) :   1.1097
B(  0-C ,  4-H ) :   0.9459

Dispersion correction           -0.001473977
FINAL SINGLE POINT ENERGY     -1419.232082483540

DIPOLE MOMENT
-------------

Method             : SCF
Type of density    : Electron Density
Multiplicity       :   1
Irrep              :   0
Energy             : -1419.2379113002411941 Eh
Relativity type    :
Basis              : AO
                                X                 Y                 Z
Electronic contribution:      0.000265181       0.000038521      -1.309431348
Nuclear contribution   :      0.000107243       0.000051937       1.753314443
                        -----------------------------------------
Total Dipole Moment    :      0.000372423       0.000090458       0.443883096
                        -----------------------------------------
Magnitude (a.u.)       :      0.443883261
Magnitude (Debye)      :      1.128261585

VIBRATIONAL FREQUENCIES
-----------------------

Scaling factor for frequencies =  1.000000000  (already applied!)

     0:       0.00 cm**-1
     1:       0.00 cm**-1
     2:       0.00 cm**-1
     3:       0.00 cm**-1
     4:       0.00 cm**-1
     5:       0.00 cm**-1
     6:     255.87 cm**-1
     7:     255.99 cm**-1
     8:     359.43 cm**-1
     9:     663.64 cm**-1
    10:     689.33 cm**-1
    11:     690.07 cm**-1
    12:    1232.25 cm**-1
    13:    1232.40 cm**-1
    14:    3131.57 cm**-1

IR SPECTRUM
-----------

 Mode   freq       eps      Int      T**2         TX        TY        TZ
       cm**-1   L/(mol*cm) km/mol    a.u.
----------------------------------------------------------------------------
  6:    255.87   0.000019    0.10  0.000023  (-0.003459 -0.003373 -0.000006)
  7:    255.99   0.000018    0.09  0.000022  ( 0.003458 -0.003161  0.000024)
  8:    359.43   0.000023    0.12  0.000020  ( 0.000198 -0.000051 -0.004507)
  9:    663.64   0.001069    5.40  0.000503  ( 0.002271 -0.000017 -0.022308)
 10:    689.33   0.038007  192.07  0.017206  (-0.050384  0.121110 -0.000166)
 11:    690.07   0.037978  191.93  0.017174  ( 0.120991  0.050355  0.000357)
 12:   1232.25   0.004120   20.82  0.001043  ( 0.012471 -0.029799 -0.000003)
 13:   1232.40   0.004140   20.92  0.001048  (-0.029883 -0.012458 -0.000025)
 14:   3131.57   0.000070    0.35  0.000007  ( 0.000007  0.000045  0.002634)

--------------------------
THERMOCHEMISTRY AT 298.15K
--------------------------

Temperature         ...   298.15 K
Pressure            ...     1.00 atm
Total Mass          ...   119.38 AMU
Quasi RRHO          ...     True
Cut-Off Frequency   ...     1.00 cm^-1

Throughout the following assumptions are being made:
  (1) The electronic state is orbitally nondegenerate
  (2) There are no thermally accessible electronically excited states
  (3) Hindered rotations indicated by low frequency modes are not
      treated as such but are treated as vibrations and this may
      cause some error
  (4) All equations used are the standard statistical mechanics
      equations for an ideal gas
  (5) All vibrations are strictly harmonic

freq.     255.87  E(vib)   ...       0.30
freq.     255.99  E(vib)   ...       0.30
freq.     359.43  E(vib)   ...       0.22
freq.     663.64  E(vib)   ...       0.08
freq.     689.33  E(vib)   ...       0.07
freq.     690.07  E(vib)   ...       0.07
freq.    1232.25  E(vib)   ...       0.01
freq.    1232.40  E(vib)   ...       0.01
freq.    3131.57  E(vib)   ...       0.00

------------
INNER ENERGY
------------

The inner energy is: U= E(el) + E(ZPE) + E(vib) + E(rot) + E(trans)
    E(el)   - is the total energy from the electronic structure calculation
              = E(kin-el) + E(nuc-el) + E(el-el) + E(nuc-nuc)
    E(ZPE)  - the the zero temperature vibrational energy from the frequency calculation
    E(vib)  - the the finite temperature correction to E(ZPE) due to population
              of excited vibrational states
    E(rot)  - is the rotational thermal energy
    E(trans)- is the translational thermal energy

Summary of contributions to the inner energy U:
Electronic energy                ...  -1419.23208248 Eh
Zero point energy                ...      0.01938844 Eh      12.17 kcal/mol
Thermal vibrational correction   ...      0.00169881 Eh       1.07 kcal/mol
Thermal rotational correction    ...      0.00141627 Eh       0.89 kcal/mol
Thermal translational correction ...      0.00141627 Eh       0.89 kcal/mol
-----------------------------------------------------------------------
Total thermal energy                  -1419.20816269 Eh

Summary of corrections to the electronic energy:
(perhaps to be used in another calculation)
Total thermal correction                  0.00453136 Eh       2.84 kcal/mol
Non-thermal (ZPE) correction              0.01938844 Eh      12.17 kcal/mol
-----------------------------------------------------------------------
Total correction                          0.02391979 Eh      15.01 kcal/mol

--------
ENTHALPY
--------

The enthalpy is H = U + kB*T
                kB is Boltzmann's constant
Total thermal energy              ...  -1419.20816269 Eh
Thermal Enthalpy correction       ...      0.00094421 Eh       0.59 kcal/mol
-----------------------------------------------------------------------
Total Enthalpy                    ...  -1419.20721848 Eh

Note: Rotational entropy computed according to Herzberg
Infrared and Raman Spectra, Chapter V,1, Van Nostrand Reinhold, 1945
Point Group:  Cs, Symmetry Number:   1
Rotational constants in cm-1:     0.105769     0.105761     0.054876

Vibrational entropy computed according to the QRRHO of S. Grimme
Chem.Eur.J. 2012 18 9955 using a reference frequency of 100.0 cm-1

-------
ENTROPY
-------

The entropy contributions are T*S = T*(S(el)+S(vib)+S(rot)+S(trans))
     S(el)   - electronic entropy
     S(vib)  - vibrational entropy
     S(rot)  - rotational entropy
     S(trans)- translational entropy
The entropies will be listed as multiplied by the temperature to get
units of energy

Electronic entropy                ...      0.00000000 Eh      0.00 kcal/mol
Vibrational entropy               ...      0.00265092 Eh      1.66 kcal/mol
Rotational entropy                ...      0.01300227 Eh      8.16 kcal/mol
Translational entropy             ...      0.01912210 Eh     12.00 kcal/mol
-----------------------------------------------------------------------
Final entropy term                ...      0.03477529 Eh     21.82 kcal/mol

In case the symmetry of your molecule has not been determined correctly
or in case you have a reason to use a different symmetry number we print
out the resulting rotational entropy values for sn=1,12:

 non-linear molecules -----------------------------------
|  sn= 1 | S(rot)=       0.01300227 Eh      8.16 kcal/mol|
|  sn= 2 | S(rot)=       0.01234782 Eh      7.75 kcal/mol|
|  sn= 3 | S(rot)=       0.01196498 Eh      7.51 kcal/mol|
|  sn= 4 | S(rot)=       0.01169336 Eh      7.34 kcal/mol|
|  sn= 5 | S(rot)=       0.01148267 Eh      7.21 kcal/mol|
|  sn= 6 | S(rot)=       0.01131053 Eh      7.10 kcal/mol|
|  sn= 7 | S(rot)=       0.01116498 Eh      7.01 kcal/mol|
|  sn= 8 | S(rot)=       0.01103890 Eh      6.93 kcal/mol|
|  sn= 9 | S(rot)=       0.01092769 Eh      6.86 kcal/mol|
|  sn=10 | S(rot)=       0.01082822 Eh      6.79 kcal/mol|
|  sn=11 | S(rot)=       0.01073823 Eh      6.74 kcal/mol|
|  sn=12 | S(rot)=       0.01065607 Eh      6.69 kcal/mol|
 linear molecules ---------------------------------------
|  Dinfh | S(rot)=       0.00806646 Eh      5.06 kcal/mol|
|  Cinfv | S(rot)=       0.00872092 Eh      5.47 kcal/mol|
 --------------------------------------------------------

-------------------
GIBBS FREE ENERGY
-------------------

The Gibbs free energy is G = H - T*S

Total enthalpy                    ...  -1419.20721848 Eh
Total entropy correction          ...     -0.03477529 Eh    -21.82 kcal/mol
-----------------------------------------------------------------------
Final Gibbs free energy         ...  -1419.24199378 Eh

For completeness - the Gibbs free energy minus the electronic energy
G-E(el)                           ...     -0.00991129 Eh     -6.22 kcal/mol

                             ****ORCA TERMINATED NORMALLY****
TOTAL RUN TIME: 0 days 0 hours 1 minutes 10 seconds 278 msec
