                         Program Version 6.0.1  -  RELEASE   -
|  1> ! pbe def2-sv(p) def2/J RI DEFGRID1 loosescf d4 GCP(DFT/SV(P)) printgap
|  2> %output
|  3>     printlevel normal
|  4> end
|  5> * xyz 0 1
|  6> C -2.2043639483 -0.900491122 -0.1826516574
|  7> C -1.1493766955 -0.330973834 0.7844143371
|  8> H -1.642331826 -0.3169946132 1.7668950001
|  9> C -0.7328525807 1.1282607839 0.5012261521
| 10> H -1.5911204488 1.6648321078 0.082796664
| 11> C 0.4559645313 1.2608712902 -0.4775319644
| 12> H 0.8097117585 2.2996317445 -0.4026042528
| 13> C 1.593229943 0.3221303082 -0.0243664765
| 14> H 2.3520055126 0.2802248025 -0.8178781909
| 15> C 1.069369203 -1.1091981145 0.1590198516
| 16> H 1.8332220443 -1.6913044508 0.7040859632
| 17> O -0.0511431872 -1.2107607464 0.9867863899
| 18> O 0.8669628059 -1.6361102472 -1.118311593
| 19> O 2.1553687525 0.7314399383 1.204780156
| 20> O 0.1161281091 1.0744068329 -1.8142754792
| 21> O -0.4266363702 1.7735552083 1.7131873231
| 22> O -1.7300466739 -0.9892014659 -1.5089076665
| 23> H -3.0841344524 -0.248566574 -0.1256455058
| 24> H -2.4828379145 -1.9004672727 0.1801655216
| 25> H 0.3032391002 -2.4151941003 -1.0460094228
| 26> H 2.582228608 1.5869335008 1.0781596113
| 27> H -0.2115934012 0.1651244334 -1.9244601579
| 28> H 0.3660584861 1.3467587868 2.0755712525
| 29> H -2.4714488639 -1.1129712774 -2.1089793038
| 30> *
| 31>
| 32>                          ****END OF INPUT****

CARTESIAN COORDINATES (ANGSTROEM)
---------------------------------
  C     -2.204364   -0.900491   -0.182652
  C     -1.149377   -0.330974    0.784414
  H     -1.642332   -0.316995    1.766895
  C     -0.732853    1.128261    0.501226
  H     -1.591120    1.664832    0.082797
  C      0.455965    1.260871   -0.477532
  H      0.809712    2.299632   -0.402604
  C      1.593230    0.322130   -0.024366
  H      2.352006    0.280225   -0.817878
  C      1.069369   -1.109198    0.159020
  H      1.833222   -1.691304    0.704086
  O     -0.051143   -1.210761    0.986786
  O      0.866963   -1.636110   -1.118312
  O      2.155369    0.731440    1.204780
  O      0.116128    1.074407   -1.814275
  O     -0.426636    1.773555    1.713187
  O     -1.730047   -0.989201   -1.508908
  H     -3.084134   -0.248567   -0.125646
  H     -2.482838   -1.900467    0.180166
  H      0.303239   -2.415194   -1.046009
  H      2.582229    1.586934    1.078160
  H     -0.211593    0.165124   -1.924460
  H      0.366058    1.346759    2.075571
  H     -2.471449   -1.112971   -2.108979

 Total Charge           Charge          ....    0
 Multiplicity           Mult            ....    1
 Number of Electrons    NEL             ....   96
 Basis Dimension        Dim             ....  192

ORBITAL ENERGIES
----------------

  NO   OCC          E(Eh)            E(eV)
   0   2.0000     -18.776273      -510.9284
   1   2.0000     -18.770689      -510.7764
   2   2.0000     -18.770282      -510.7653
   3   2.0000     -18.758728      -510.4509
   4   2.0000     -18.733609      -509.7674
   5   2.0000     -18.725442      -509.5452
   6   2.0000      -9.985249      -271.7124
   7   2.0000      -9.948800      -270.7206
   8   2.0000      -9.947619      -270.6885
   9   2.0000      -9.940310      -270.4896
  10   2.0000      -9.935031      -270.3459
  11   2.0000      -9.932252      -270.2703
  12   2.0000      -0.984450       -26.7883
  13   2.0000      -0.949509       -25.8375
  14   2.0000      -0.944236       -25.6940
  15   2.0000      -0.920476       -25.0474
  16   2.0000      -0.912259       -24.8238
  17   2.0000      -0.903075       -24.5739
  18   2.0000      -0.704280       -19.1644
  19   2.0000      -0.684833       -18.6352
  20   2.0000      -0.624833       -17.0026
  21   2.0000      -0.581968       -15.8362
  22   2.0000      -0.577134       -15.7046
  23   2.0000      -0.522555       -14.2195
  24   2.0000      -0.506655       -13.7868
  25   2.0000      -0.484727       -13.1901
  26   2.0000      -0.470229       -12.7956
  27   2.0000      -0.460790       -12.5387
  28   2.0000      -0.431506       -11.7419
  29   2.0000      -0.426042       -11.5932
  30   2.0000      -0.416126       -11.3234
  31   2.0000      -0.413951       -11.2642
  32   2.0000      -0.389162       -10.5896
  33   2.0000      -0.370786       -10.0896
  34   2.0000      -0.361725        -9.8430
  35   2.0000      -0.343975        -9.3600
  36   2.0000      -0.333903        -9.0860
  37   2.0000      -0.324657        -8.8344
  38   2.0000      -0.313966        -8.5434
  39   2.0000      -0.302656        -8.2357
  40   2.0000      -0.266645        -7.2558
  41   2.0000      -0.263599        -7.1729
  42   2.0000      -0.253769        -6.9054
  43   2.0000      -0.241062        -6.5596
  44   2.0000      -0.238241        -6.4829
  45   2.0000      -0.231421        -6.2973
  46   2.0000      -0.210243        -5.7210
  47   2.0000      -0.186126        -5.0647
  48   0.0000       0.003591         0.0977
  49   0.0000       0.016384         0.4458
  50   0.0000       0.048206         1.3118
  51   0.0000       0.058164         1.5827
  52   0.0000       0.062880         1.7110

MULLIKEN ATOMIC CHARGES
-----------------------
   0 C :    0.015024
   1 C :    0.041789
   2 H :    0.083565
   3 C :    0.059883
   4 H :    0.068219
   5 C :    0.044263
   6 H :    0.059939
   7 C :    0.005248
   8 H :    0.087315
   9 C :    0.197543
  10 H :    0.067432
  11 O :   -0.314321
  12 O :   -0.396296
  13 O :   -0.415408
  14 O :   -0.429264
  15 O :   -0.436445
  16 O :   -0.435472
  17 H :    0.083974
  18 H :    0.080712
  19 H :    0.298486
  20 H :    0.311994
  21 H :    0.315802
  22 H :    0.292648
  23 H :    0.313369
Sum of atomic charges:   -0.0000000

LOEWDIN ATOMIC CHARGES
----------------------
   0 C :   -0.136535
   1 C :   -0.070418
   2 H :    0.128030
   3 C :   -0.070427
   4 H :    0.117131
   5 C :   -0.081179
   6 H :    0.107995
   7 C :   -0.091058
   8 H :    0.115403
   9 C :    0.000106
  10 H :    0.098743
  11 O :   -0.139829
  12 O :   -0.306238
  13 O :   -0.307213
  14 O :   -0.320467
  15 O :   -0.326295
  16 O :   -0.325711
  17 H :    0.108802
  18 H :    0.101583
  19 H :    0.279677
  20 H :    0.292385
  21 H :    0.264219
  22 H :    0.267506
  23 H :    0.293792

  Mayer bond orders larger than 0.100000
B(  0-C ,  1-C ) :   1.0666 B(  0-C , 16-O ) :   1.0515 B(  0-C , 17-H ) :   0.9116
B(  0-C , 18-H ) :   0.9105 B(  1-C ,  2-H ) :   0.8834 B(  1-C ,  3-C ) :   0.9890
B(  1-C , 11-O ) :   0.9892 B(  3-C ,  4-H ) :   0.8918 B(  3-C ,  5-C ) :   0.9676
B(  3-C , 15-O ) :   1.0320 B(  5-C ,  6-H ) :   0.8994 B(  5-C ,  7-C ) :   0.9698
B(  5-C , 14-O ) :   1.1043 B(  7-C ,  8-H ) :   0.8932 B(  7-C ,  9-C ) :   0.9939
B(  7-C , 13-O ) :   1.0257 B(  9-C , 10-H ) :   0.8985 B(  9-C , 11-O ) :   1.0695
B(  9-C , 12-O ) :   1.1135 B( 12-O , 19-H ) :   0.8298 B( 13-O , 20-H ) :   0.8409
B( 13-O , 22-H ) :   0.1043 B( 14-O , 21-H ) :   0.7860 B( 15-O , 22-H ) :   0.8157
B( 16-O , 23-H ) :   0.8397

Dispersion correction           -0.026542192
FINAL SINGLE POINT ENERGY      -685.696344924286

DIPOLE MOMENT
-------------

Method             : SCF
Type of density    : Electron Density
Multiplicity       :   1
Irrep              :   0
Energy             :  -685.8303829559508813 Eh
Relativity type    :
Basis              : AO
                                X                 Y                 Z
Electronic contribution:      2.401668364      -0.363783492       0.282615236
Nuclear contribution   :     -3.023071122      -0.324649974      -0.512595896
                        -----------------------------------------
Total Dipole Moment    :     -0.621402758      -0.688433466      -0.229980660
                        -----------------------------------------
Magnitude (a.u.)       :      0.955496274
Magnitude (Debye)      :      2.428678517

Rotational constants in cm-1:             0.041025             0.031098             0.027418
Rotational constants in MHz :          1229.906727           932.297526           821.975280

                             ****ORCA TERMINATED NORMALLY****
TOTAL RUN TIME: 0 days 0 hours 0 minutes 8 seconds 265 msec
