                         Program Version 6.0.1  -  RELEASE   -
|  1> ! pbe def2-sv(p) def2/J RI DEFGRID1 loosescf d4 GCP(DFT/SV(P)) printgap
|  2> %output
|  3>     printlevel normal
|  4> end
|  5> * xyz 0 1
|  6> C -2.4922904793 -0.4478072448 -0.2738164799
|  7> C -1.0844789972 -0.1779055801 0.2677887097
|  8> H -1.0755654378 -0.3610202285 1.353851294
|  9> C -0.6324464696 1.2749086463 0.0219598523
| 10> H -1.2768378958 1.7407483237 -0.7374807473
| 11> C 0.8224731826 1.2977409254 -0.5148918812
| 12> H 1.2249482488 2.3118826034 -0.3970449141
| 13> C 1.6745996283 0.3247305708 0.318297571
| 14> H 2.6937720016 0.2869851977 -0.0805672152
| 15> C 1.0897744065 -1.1045591574 0.175467605
| 16> H 1.0587751137 -1.569227735 1.1822461186
| 17> O -0.220326332 -1.1026752462 -0.3676255064
| 18> O 1.8926782 -1.8171520579 -0.6956532364
| 19> O 1.774815875 0.7271492683 1.6537902579
| 20> O 0.8679620435 1.0188411807 -1.882922225
| 21> O -0.7438608131 1.9545256623 1.2562448114
| 22> O -2.9289541441 -1.7404893035 0.0341189212
| 23> H -2.4854211396 -0.2846801919 -1.3613577686
| 24> H -3.197970723 0.2416695406 0.1922973146
| 25> H 1.5095025677 -2.6903659815 -0.8430893258
| 26> H 0.9069770105 1.0404263367 1.955576582
| 27> H 0.7005553053 0.0744650296 -2.0074386852
| 28> H -0.5793703072 2.894905604 1.1201404227
| 29> H -2.2587883751 -2.3581806497 -0.2827357886
| 30> *
| 31>
| 32>                          ****END OF INPUT****

CARTESIAN COORDINATES (ANGSTROEM)
---------------------------------
  C     -2.492290   -0.447807   -0.273816
  C     -1.084479   -0.177906    0.267789
  H     -1.075565   -0.361020    1.353851
  C     -0.632446    1.274909    0.021960
  H     -1.276838    1.740748   -0.737481
  C      0.822473    1.297741   -0.514892
  H      1.224948    2.311883   -0.397045
  C      1.674600    0.324731    0.318298
  H      2.693772    0.286985   -0.080567
  C      1.089774   -1.104559    0.175468
  H      1.058775   -1.569228    1.182246
  O     -0.220326   -1.102675   -0.367626
  O      1.892678   -1.817152   -0.695653
  O      1.774816    0.727149    1.653790
  O      0.867962    1.018841   -1.882922
  O     -0.743861    1.954526    1.256245
  O     -2.928954   -1.740489    0.034119
  H     -2.485421   -0.284680   -1.361358
  H     -3.197971    0.241670    0.192297
  H      1.509503   -2.690366   -0.843089
  H      0.906977    1.040426    1.955577
  H      0.700555    0.074465   -2.007439
  H     -0.579370    2.894906    1.120140
  H     -2.258788   -2.358181   -0.282736

 Total Charge           Charge          ....    0
 Multiplicity           Mult            ....    1
 Number of Electrons    NEL             ....   96
 Basis Dimension        Dim             ....  192

ORBITAL ENERGIES
----------------

  NO   OCC          E(Eh)            E(eV)
   0   2.0000     -18.792093      -511.3589
   1   2.0000     -18.784938      -511.1642
   2   2.0000     -18.776064      -510.9227
   3   2.0000     -18.750875      -510.2372
   4   2.0000     -18.750458      -510.2259
   5   2.0000     -18.745830      -510.1000
   6   2.0000      -9.994490      -271.9639
   7   2.0000      -9.956433      -270.9283
   8   2.0000      -9.955803      -270.9112
   9   2.0000      -9.947961      -270.6978
  10   2.0000      -9.941697      -270.5273
  11   2.0000      -9.941313      -270.5169
  12   2.0000      -1.001720       -27.2582
  13   2.0000      -0.961830       -26.1727
  14   2.0000      -0.940361       -25.5885
  15   2.0000      -0.934098       -25.4181
  16   2.0000      -0.923878       -25.1400
  17   2.0000      -0.922191       -25.0941
  18   2.0000      -0.712857       -19.3978
  19   2.0000      -0.688217       -18.7273
  20   2.0000      -0.629118       -17.1192
  21   2.0000      -0.595630       -16.2079
  22   2.0000      -0.575742       -15.6667
  23   2.0000      -0.527121       -14.3437
  24   2.0000      -0.519036       -14.1237
  25   2.0000      -0.502831       -13.6827
  26   2.0000      -0.492561       -13.4033
  27   2.0000      -0.469345       -12.7715
  28   2.0000      -0.455503       -12.3949
  29   2.0000      -0.448148       -12.1947
  30   2.0000      -0.416137       -11.3237
  31   2.0000      -0.393206       -10.6997
  32   2.0000      -0.391492       -10.6531
  33   2.0000      -0.380840       -10.3632
  34   2.0000      -0.366727        -9.9792
  35   2.0000      -0.357657        -9.7323
  36   2.0000      -0.340246        -9.2586
  37   2.0000      -0.328175        -8.9301
  38   2.0000      -0.318951        -8.6791
  39   2.0000      -0.315018        -8.5721
  40   2.0000      -0.289579        -7.8798
  41   2.0000      -0.276078        -7.5125
  42   2.0000      -0.269350        -7.3294
  43   2.0000      -0.256847        -6.9892
  44   2.0000      -0.245948        -6.6926
  45   2.0000      -0.228123        -6.2076
  46   2.0000      -0.216233        -5.8840
  47   2.0000      -0.205918        -5.6033
  48   0.0000       0.002590         0.0705
  49   0.0000       0.015937         0.4337
  50   0.0000       0.037527         1.0212
  51   0.0000       0.048991         1.3331
  52   0.0000       0.057829         1.5736

MULLIKEN ATOMIC CHARGES
-----------------------
   0 C :    0.066789
   1 C :    0.006439
   2 H :    0.071732
   3 C :    0.015749
   4 H :    0.072343
   5 C :    0.023004
   6 H :    0.067360
   7 C :    0.044365
   8 H :    0.094041
   9 C :    0.175074
  10 H :    0.062104
  11 O :   -0.335288
  12 O :   -0.375383
  13 O :   -0.423611
  14 O :   -0.409193
  15 O :   -0.412560
  16 O :   -0.427808
  17 H :    0.076825
  18 H :    0.100029
  19 H :    0.304179
  20 H :    0.297235
  21 H :    0.299229
  22 H :    0.312840
  23 H :    0.294506
Sum of atomic charges:   -0.0000000

LOEWDIN ATOMIC CHARGES
----------------------
   0 C :   -0.125315
   1 C :   -0.074565
   2 H :    0.111121
   3 C :   -0.081069
   4 H :    0.108795
   5 C :   -0.082153
   6 H :    0.112362
   7 C :   -0.084516
   8 H :    0.126912
   9 C :   -0.006074
  10 H :    0.090064
  11 O :   -0.168335
  12 O :   -0.288964
  13 O :   -0.316656
  14 O :   -0.308859
  15 O :   -0.306699
  16 O :   -0.330710
  17 H :    0.100725
  18 H :    0.122857
  19 H :    0.288523
  20 H :    0.267863
  21 H :    0.273184
  22 H :    0.293277
  23 H :    0.278232

  Mayer bond orders larger than 0.100000
B(  0-C ,  1-C ) :   1.0586 B(  0-C , 16-O ) :   1.0824 B(  0-C , 17-H ) :   0.9032
B(  0-C , 18-H ) :   0.9202 B(  1-C ,  2-H ) :   0.8649 B(  1-C ,  3-C ) :   0.9817
B(  1-C , 11-O ) :   1.0098 B(  3-C ,  4-H ) :   0.8882 B(  3-C ,  5-C ) :   0.9634
B(  3-C , 15-O ) :   1.0218 B(  5-C ,  6-H ) :   0.8949 B(  5-C ,  7-C ) :   1.0006
B(  5-C , 14-O ) :   1.0681 B(  7-C ,  8-H ) :   0.8899 B(  7-C ,  9-C ) :   0.9413
B(  7-C , 13-O ) :   1.0778 B(  9-C , 10-H ) :   0.8960 B(  9-C , 11-O ) :   0.9776
B(  9-C , 12-O ) :   1.1557 B( 12-O , 19-H ) :   0.8412 B( 13-O , 20-H ) :   0.8073
B( 14-O , 21-H ) :   0.8313 B( 15-O , 20-H ) :   0.1124 B( 15-O , 22-H ) :   0.8392
B( 16-O , 23-H ) :   0.8446

Dispersion correction           -0.024946537
FINAL SINGLE POINT ENERGY      -685.695657967677

DIPOLE MOMENT
-------------

Method             : SCF
Type of density    : Electron Density
Multiplicity       :   1
Irrep              :   0
Energy             :  -685.8287361195173162 Eh
Relativity type    :
Basis              : AO
                                X                 Y                 Z
Electronic contribution:      2.224870299      -1.229396644      -0.217730115
Nuclear contribution   :     -2.598056628       1.231303056       0.088530389
                        -----------------------------------------
Total Dipole Moment    :     -0.373186330       0.001906412      -0.129199726
                        -----------------------------------------
Magnitude (a.u.)       :      0.394923081
Magnitude (Debye)      :      1.003814698

Rotational constants in cm-1:             0.038293             0.027528             0.021864
Rotational constants in MHz :          1148.004022           825.266934           655.459020

                             ****ORCA TERMINATED NORMALLY****
TOTAL RUN TIME: 0 days 0 hours 6 minutes 0 seconds 60 msec
