                         Program Version 6.0.1  -  RELEASE   -
|  1> ! pbe def2-sv(p) def2/J RI DEFGRID1 loosescf d4 GCP(DFT/SV(P)) printgap
|  2> %output
|  3>     printlevel normal
|  4> end
|  5> * xyz 0 1
|  6> C -3.4319591657 -0.3645139697 1.7290143186
|  7> N -2.3395429845 -0.0606120395 0.83851139
|  8> C -2.4086508038 -0.3125554802 -0.4900900603
|  9> O -3.353518765 -0.8082079056 -1.041285556
| 10> O -1.3065107563 0.0229427191 -1.2103785248
| 11> C -0.2137611394 0.6408612083 -0.6224135843
| 12> C -0.2034205399 2.0012465912 -0.4423780435
| 13> C 0.926120052 2.631188063 0.0993405997
| 14> C 2.0233789223 1.8995207891 0.4574013197
| 15> C 2.0445035586 0.4993964237 0.2849148072
| 16> C 0.9087843427 -0.1512777545 -0.265249656
| 17> C 0.927518706 -1.5503227235 -0.4392072128
| 18> C 2.0282202767 -2.2771071242 -0.08081152
| 19> C 3.1533081264 -1.6390481256 0.4641321414
| 20> C 3.1620153687 -0.28388907 0.6424162572
| 21> H -4.2325239163 -0.7928630128 1.1287190079
| 22> H -3.7916199184 0.5419196185 2.2198975373
| 23> H -3.1216780818 -1.0856875436 2.4874751901
| 24> H -1.5023867924 0.342859701 1.2297131697
| 25> H -1.0681717053 2.5811086037 -0.7281934819
| 26> H 0.9154420682 3.7027983423 0.2287613802
| 27> H 2.8936630339 2.383487388 0.8755420764
| 28> H 0.0601813749 -2.0303481816 -0.8674585084
| 29> H 2.0394766812 -3.3481826904 -0.21686333
| 30> H 4.0144967521 -2.2294990645 0.7399974024
| 31> H 4.0274532314 0.2109541778 1.0589296897
| 32> *
| 33>
| 34>                          ****END OF INPUT****

CARTESIAN COORDINATES (ANGSTROEM)
---------------------------------
  C     -3.431959   -0.364514    1.729014
  N     -2.339543   -0.060612    0.838511
  C     -2.408651   -0.312555   -0.490090
  O     -3.353519   -0.808208   -1.041286
  O     -1.306511    0.022943   -1.210379
  C     -0.213761    0.640861   -0.622414
  C     -0.203421    2.001247   -0.442378
  C      0.926120    2.631188    0.099341
  C      2.023379    1.899521    0.457401
  C      2.044504    0.499396    0.284915
  C      0.908784   -0.151278   -0.265250
  C      0.927519   -1.550323   -0.439207
  C      2.028220   -2.277107   -0.080812
  C      3.153308   -1.639048    0.464132
  C      3.162015   -0.283889    0.642416
  H     -4.232524   -0.792863    1.128719
  H     -3.791620    0.541920    2.219898
  H     -3.121678   -1.085688    2.487475
  H     -1.502387    0.342860    1.229713
  H     -1.068172    2.581109   -0.728193
  H      0.915442    3.702798    0.228761
  H      2.893663    2.383487    0.875542
  H      0.060181   -2.030348   -0.867459
  H      2.039477   -3.348183   -0.216863
  H      4.014497   -2.229499    0.739997
  H      4.027453    0.210954    1.058930

 Total Charge           Charge          ....    0
 Multiplicity           Mult            ....    1
 Number of Electrons    NEL             ....  106
 Basis Dimension        Dim             ....  232

ORBITAL ENERGIES
----------------

  NO   OCC          E(Eh)            E(eV)
   0   2.0000     -18.803869      -511.6793
   1   2.0000     -18.714229      -509.2401
   2   2.0000     -14.020258      -381.5106
   3   2.0000     -10.023617      -272.7565
   4   2.0000      -9.967336      -271.2250
   5   2.0000      -9.920460      -269.9494
   6   2.0000      -9.917951      -269.8812
   7   2.0000      -9.917594      -269.8714
   8   2.0000      -9.909448      -269.6498
   9   2.0000      -9.908608      -269.6269
  10   2.0000      -9.906195      -269.5613
  11   2.0000      -9.905512      -269.5427
  12   2.0000      -9.904983      -269.5283
  13   2.0000      -9.904274      -269.5090
  14   2.0000      -9.903926      -269.4995
  15   2.0000      -1.013084       -27.5674
  16   2.0000      -0.921263       -25.0688
  17   2.0000      -0.839656       -22.8482
  18   2.0000      -0.807553       -21.9746
  19   2.0000      -0.758327       -20.6351
  20   2.0000      -0.709599       -19.3092
  21   2.0000      -0.682530       -18.5726
  22   2.0000      -0.663337       -18.0503
  23   2.0000      -0.641922       -17.4676
  24   2.0000      -0.589729       -16.0474
  25   2.0000      -0.567764       -15.4497
  26   2.0000      -0.566933       -15.4270
  27   2.0000      -0.534984       -14.5577
  28   2.0000      -0.515219       -14.0198
  29   2.0000      -0.477732       -12.9998
  30   2.0000      -0.462611       -12.5883
  31   2.0000      -0.456803       -12.4303
  32   2.0000      -0.437898       -11.9158
  33   2.0000      -0.425333       -11.5739
  34   2.0000      -0.408335       -11.1114
  35   2.0000      -0.393677       -10.7125
  36   2.0000      -0.391064       -10.6414
  37   2.0000      -0.382758       -10.4154
  38   2.0000      -0.372070       -10.1245
  39   2.0000      -0.367907       -10.0113
  40   2.0000      -0.362657        -9.8684
  41   2.0000      -0.354970        -9.6592
  42   2.0000      -0.349592        -9.5129
  43   2.0000      -0.337157        -9.1745
  44   2.0000      -0.314500        -8.5580
  45   2.0000      -0.311063        -8.4645
  46   2.0000      -0.304882        -8.2962
  47   2.0000      -0.266394        -7.2490
  48   2.0000      -0.258808        -7.0425
  49   2.0000      -0.240911        -6.5555
  50   2.0000      -0.225286        -6.1304
  51   2.0000      -0.217506        -5.9186
  52   2.0000      -0.205525        -5.5926
  53   0.0000      -0.082617        -2.2481
  54   0.0000      -0.054199        -1.4748
  55   0.0000      -0.016841        -0.4583
  56   0.0000       0.026832         0.7301
  57   0.0000       0.035501         0.9660

MULLIKEN ATOMIC CHARGES
-----------------------
   0 C :   -0.180208
   1 N :   -0.333429
   2 C :    0.201454
   3 O :   -0.193563
   4 O :   -0.211493
   5 C :    0.071398
   6 C :   -0.122379
   7 C :   -0.038471
   8 C :   -0.111669
   9 C :    0.140873
  10 C :    0.116878
  11 C :   -0.139487
  12 C :   -0.036577
  13 C :   -0.033880
  14 C :   -0.130744
  15 H :    0.140451
  16 H :    0.112836
  17 H :    0.114547
  18 H :    0.248855
  19 H :    0.052325
  20 H :    0.060544
  21 H :    0.042602
  22 H :    0.067202
  23 H :    0.059777
  24 H :    0.058442
  25 H :    0.043718
Sum of atomic charges:   -0.0000000

LOEWDIN ATOMIC CHARGES
----------------------
   0 C :   -0.257721
   1 N :   -0.193820
   2 C :    0.026564
   3 O :   -0.181543
   4 O :   -0.040405
   5 C :    0.023123
   6 C :   -0.141825
   7 C :   -0.120980
   8 C :   -0.114554
   9 C :   -0.023771
  10 C :   -0.040542
  11 C :   -0.108969
  12 C :   -0.117291
  13 C :   -0.119033
  14 C :   -0.108857
  15 H :    0.138768
  16 H :    0.116395
  17 H :    0.117195
  18 H :    0.238689
  19 H :    0.135629
  20 H :    0.129056
  21 H :    0.126818
  22 H :    0.135703
  23 H :    0.128101
  24 H :    0.127009
  25 H :    0.126260

  Mayer bond orders larger than 0.100000
B(  0-C ,  1-N ) :   1.0267 B(  0-C , 15-H ) :   0.9347 B(  0-C , 16-H ) :   0.9583
B(  0-C , 17-H ) :   0.9588 B(  1-N ,  2-C ) :   1.1916 B(  1-N , 18-H ) :   0.8373
B(  2-C ,  3-O ) :   2.0997 B(  2-C ,  4-O ) :   1.0340 B(  4-O ,  5-C ) :   1.0627
B(  5-C ,  6-C ) :   1.4633 B(  5-C , 10-C ) :   1.2205 B(  6-C ,  7-C ) :   1.2130
B(  6-C , 19-H ) :   0.9644 B(  7-C ,  8-C ) :   1.4396 B(  7-C , 20-H ) :   0.9621
B(  8-C ,  9-C ) :   1.2352 B(  8-C , 21-H ) :   0.9678 B(  9-C , 10-C ) :   1.2503
B(  9-C , 14-C ) :   1.2401 B( 10-C , 11-C ) :   1.2646 B( 11-C , 12-C ) :   1.4416
B( 11-C , 22-H ) :   0.9602 B( 12-C , 13-C ) :   1.2549 B( 12-C , 23-H ) :   0.9635
B( 13-C , 14-C ) :   1.4616 B( 13-C , 24-H ) :   0.9622 B( 14-C , 25-H ) :   0.9654

Dispersion correction           -0.033085630
FINAL SINGLE POINT ENERGY      -667.732377561482

DIPOLE MOMENT
-------------

Method             : SCF
Type of density    : Electron Density
Multiplicity       :   1
Irrep              :   0
Energy             :  -667.8077500962615431 Eh
Relativity type    :
Basis              : AO
                                X                 Y                 Z
Electronic contribution:      0.916504840       0.293655712      -6.187154817
Nuclear contribution   :      0.137982811       0.247486249       7.623470423
                        -----------------------------------------
Total Dipole Moment    :      1.054487652       0.541141962       1.436315606
                        -----------------------------------------
Magnitude (a.u.)       :      1.862197989
Magnitude (Debye)      :      4.733331124

Rotational constants in cm-1:             0.033953             0.014848             0.012232
Rotational constants in MHz :          1017.871774           445.125172           366.718617

                             ****ORCA TERMINATED NORMALLY****
TOTAL RUN TIME: 0 days 0 hours 0 minutes 17 seconds 828 msec
