                         Program Version 6.0.1  -  RELEASE   -
|  1> ! r2scan-3c def2/J RI DEFGRID2 scfconv6 printgap
|  2> %output
|  3>     printlevel normal
|  4> end
|  5> * xyz 0 1
|  6> C -2.5641508292 -0.6670946715 -0.3215434015
|  7> C -1.188616314 -0.2863522592 0.2328519563
|  8> H -1.243202754 -0.2342425345 1.3304619701
|  9> C -0.7174597815 1.0723246496 -0.3000357533
| 10> H -0.7120507626 1.0449886946 -1.4025437324
| 11> C 0.7170364039 1.3419802615 0.1741646211
| 12> H 0.7219583448 1.4344354575 1.2729094407
| 13> C 1.6158735457 0.1677842486 -0.2150354477
| 14> H 1.6598173632 0.098047236 -1.3158934669
| 15> C 1.0103719656 -1.1385009644 0.3354211934
| 16> H 1.0206800002 -1.0980560884 1.4384610715
| 17> O -0.2908534631 -1.317686211 -0.15101612
| 18> O 1.7788861136 -2.2341021673 -0.028894643
| 19> O 2.9016262229 0.3853084523 0.3104006952
| 20> O 1.1471438138 2.5473112112 -0.4090571588
| 21> O -1.5932319057 2.0631331437 0.158865553
| 22> O -3.0421804049 -1.8536573392 0.2450085752
| 23> H -2.4868378087 -0.7575849865 -1.4143100603
| 24> H -3.275743732 0.1204903021 -0.0721458394
| 25> H 1.5140209046 -2.5012688756 -0.9181395144
| 26> H 3.3600848042 -0.4646013046 0.3374728675
| 27> H 2.0940289971 2.6263764164 -0.2417022187
| 28> H -1.1793341719 2.9156999338 -0.0298468344
| 29> H -2.3524455748 -2.5217641415 0.1484469537
| 30> *
| 31>
| 32>                          ****END OF INPUT****

CARTESIAN COORDINATES (ANGSTROEM)
---------------------------------
  C     -2.564151   -0.667095   -0.321543
  C     -1.188616   -0.286352    0.232852
  H     -1.243203   -0.234243    1.330462
  C     -0.717460    1.072325   -0.300036
  H     -0.712051    1.044989   -1.402544
  C      0.717036    1.341980    0.174165
  H      0.721958    1.434435    1.272909
  C      1.615874    0.167784   -0.215035
  H      1.659817    0.098047   -1.315893
  C      1.010372   -1.138501    0.335421
  H      1.020680   -1.098056    1.438461
  O     -0.290853   -1.317686   -0.151016
  O      1.778886   -2.234102   -0.028895
  O      2.901626    0.385308    0.310401
  O      1.147144    2.547311   -0.409057
  O     -1.593232    2.063133    0.158866
  O     -3.042180   -1.853657    0.245009
  H     -2.486838   -0.757585   -1.414310
  H     -3.275744    0.120490   -0.072146
  H      1.514021   -2.501269   -0.918140
  H      3.360085   -0.464601    0.337473
  H      2.094029    2.626376   -0.241702
  H     -1.179334    2.915700   -0.029847
  H     -2.352446   -2.521764    0.148447

 Total Charge           Charge          ....    0
 Multiplicity           Mult            ....    1
 Number of Electrons    NEL             ....   96
 Basis Dimension        Dim             ....  318

ORBITAL ENERGIES
----------------

  NO   OCC          E(Eh)            E(eV)
   0   2.0000     -18.988457      -516.7022
   1   2.0000     -18.985000      -516.6081
   2   2.0000     -18.972365      -516.2643
   3   2.0000     -18.968628      -516.1626
   4   2.0000     -18.963125      -516.0129
   5   2.0000     -18.950564      -515.6711
   6   2.0000     -10.153157      -276.2815
   7   2.0000     -10.100339      -274.8442
   8   2.0000     -10.098567      -274.7960
   9   2.0000     -10.098311      -274.7890
  10   2.0000     -10.098091      -274.7830
  11   2.0000     -10.081090      -274.3204
  12   2.0000      -1.069915       -29.1139
  13   2.0000      -1.023852       -27.8604
  14   2.0000      -1.014967       -27.6186
  15   2.0000      -1.001249       -27.2454
  16   2.0000      -0.994432       -27.0599
  17   2.0000      -0.987667       -26.8758
  18   2.0000      -0.761567       -20.7233
  19   2.0000      -0.744848       -20.2683
  20   2.0000      -0.661162       -17.9911
  21   2.0000      -0.628260       -17.0958
  22   2.0000      -0.599500       -16.3132
  23   2.0000      -0.575850       -15.6697
  24   2.0000      -0.538020       -14.6403
  25   2.0000      -0.523424       -14.2431
  26   2.0000      -0.497322       -13.5328
  27   2.0000      -0.483783       -13.1644
  28   2.0000      -0.475682       -12.9440
  29   2.0000      -0.468310       -12.7434
  30   2.0000      -0.446477       -12.1493
  31   2.0000      -0.428079       -11.6486
  32   2.0000      -0.423167       -11.5150
  33   2.0000      -0.398394       -10.8409
  34   2.0000      -0.388497       -10.5715
  35   2.0000      -0.373771       -10.1708
  36   2.0000      -0.362947        -9.8763
  37   2.0000      -0.359907        -9.7936
  38   2.0000      -0.343788        -9.3550
  39   2.0000      -0.330457        -8.9922
  40   2.0000      -0.323533        -8.8038
  41   2.0000      -0.295815        -8.0495
  42   2.0000      -0.289451        -7.8764
  43   2.0000      -0.275787        -7.5046
  44   2.0000      -0.258169        -7.0251
  45   2.0000      -0.247787        -6.7426
  46   2.0000      -0.242970        -6.6115
  47   2.0000      -0.237689        -6.4679
  48   0.0000       0.025244         0.6869
  49   0.0000       0.041659         1.1336
  50   0.0000       0.067848         1.8462
  51   0.0000       0.075325         2.0497
  52   0.0000       0.083961         2.2847

MULLIKEN ATOMIC CHARGES
-----------------------
   0 C :   -0.266684
   1 C :   -0.075971
   2 H :    0.184758
   3 C :    0.030385
   4 H :    0.169019
   5 C :   -0.033502
   6 H :    0.173190
   7 C :    0.108213
   8 H :    0.165646
   9 C :   -0.161539
  10 H :    0.161032
  11 O :   -0.215608
  12 O :   -0.386407
  13 O :   -0.443368
  14 O :   -0.446030
  15 O :   -0.440460
  16 O :   -0.410283
  17 H :    0.138084
  18 H :    0.167830
  19 H :    0.323971
  20 H :    0.312886
  21 H :    0.316816
  22 H :    0.317416
  23 H :    0.310605
Sum of atomic charges:    0.0000000

LOEWDIN ATOMIC CHARGES
----------------------
   0 C :    0.044273
   1 C :    0.121274
   2 H :    0.190881
   3 C :    0.113751
   4 H :    0.183183
   5 C :    0.105661
   6 H :    0.185924
   7 C :    0.106111
   8 H :    0.182375
   9 C :    0.293247
  10 H :    0.196294
  11 O :   -0.690171
  12 O :   -0.494785
  13 O :   -0.575768
  14 O :   -0.573757
  15 O :   -0.570899
  16 O :   -0.584402
  17 H :    0.166983
  18 H :    0.196586
  19 H :    0.281861
  20 H :    0.282556
  21 H :    0.282508
  22 H :    0.283478
  23 H :    0.272837

  Mayer bond orders larger than 0.100000
B(  0-C ,  1-C ) :   0.9477 B(  0-C , 16-O ) :   1.0021 B(  0-C , 17-H ) :   0.9914
B(  0-C , 18-H ) :   0.9603 B(  1-C ,  2-H ) :   0.9511 B(  1-C ,  3-C ) :   0.8609
B(  1-C , 11-O ) :   0.7800 B(  3-C ,  4-H ) :   0.9641 B(  3-C ,  5-C ) :   0.8607
B(  3-C , 15-O ) :   0.8540 B(  5-C ,  6-H ) :   0.9929 B(  5-C ,  7-C ) :   0.8614
B(  5-C , 14-O ) :   0.9072 B(  7-C ,  8-H ) :   0.9466 B(  7-C ,  9-C ) :   0.7745
B(  7-C , 13-O ) :   0.8816 B(  9-C , 10-H ) :   1.0049 B(  9-C , 11-O ) :   0.9760
B(  9-C , 12-O ) :   1.0875 B( 12-O , 19-H ) :   0.8718 B( 13-O , 20-H ) :   0.8727
B( 14-O , 21-H ) :   0.8789 B( 15-O , 22-H ) :   0.8771 B( 16-O , 23-H ) :   0.8754

Dispersion correction           -0.007991681
FINAL SINGLE POINT ENERGY      -687.079927772423

DIPOLE MOMENT
-------------

Method             : SCF
Type of density    : Electron Density
Multiplicity       :   1
Irrep              :   0
Energy             :  -687.0915103008192091 Eh
Relativity type    :
Basis              : AO
                                X                 Y                 Z
Electronic contribution:      1.773710532      -0.694402451       0.344923093
Nuclear contribution   :     -0.811320776       0.615487177      -0.811377048
                        -----------------------------------------
Total Dipole Moment    :      0.962389756      -0.078915274      -0.466453955
                        -----------------------------------------
Magnitude (a.u.)       :      1.072380975
Magnitude (Debye)      :      2.725775818

Rotational constants in cm-1:             0.039254             0.026266             0.016435
Rotational constants in MHz :          1176.793713           787.435382           492.709433

                             ****ORCA TERMINATED NORMALLY****
TOTAL RUN TIME: 0 days 0 hours 0 minutes 36 seconds 752 msec
