                         Program Version 6.0.1  -  RELEASE   -
|  1> ! r2scan-3c def2/J RI DEFGRID2 scfconv6 printgap
|  2> %output
|  3>     printlevel normal
|  4> end
|  5> * xyz 0 1
|  6> C 2.562534963 2.7024334163 1.032149542
|  7> C 2.3140833427 1.7604153544 -0.1449471204
|  8> C 3.1505765181 0.4606211874 -0.0298925442
|  9> C 2.0988704302 -0.6037431352 0.0623899578
| 10> C 2.2014158895 -1.9737017675 0.1789308906
| 11> C 1.032579215 -2.7157775497 0.2452785971
| 12> C -0.2114924179 -2.1062614464 0.1975159766
| 13> C -0.3213139352 -0.7266340555 0.0787738659
| 14> C 0.8562533358 0.0171703292 0.0115265363
| 15> O 0.9251591779 1.3636003436 -0.1047114275
| 16> O -1.4945618181 0.0058600714 0.0251552032
| 17> C -2.7368801571 -0.5347272212 0.0264440633
| 18> O -3.0234379954 -1.7040557636 0.0734388555
| 19> N -3.6339355818 0.4757663498 -0.0351321779
| 20> C -5.0557185364 0.2514660437 -0.0561975516
| 21> C 2.5554639589 2.4744892571 -1.474197387
| 22> H 3.5958332893 3.0391566205 1.0320717322
| 23> H 1.9069693572 3.5662347653 0.9582597814
| 24> H 2.3530673419 2.189926698 1.9683617353
| 25> H 3.7900669977 0.3186490003 -0.9029232045
| 26> H 3.7870712898 0.4726282249 0.8568001173
| 27> H 3.1678092351 -2.4525127942 0.2169134509
| 28> H 1.0837481795 -3.7895943915 0.3363564685
| 29> H -1.1066439045 -2.7023626771 0.2499519207
| 30> H -3.2798309995 1.4177606295 -0.0747339286
| 31> H -5.2156926429 -0.8240928967 -0.0038266233
| 32> H -5.4963984491 0.637465321 -0.9776888193
| 33> H -5.5364672695 0.7304787927 0.7990548452
| 34> H 3.5880149543 2.807172993 -1.5398324136
| 35> H 1.8982158052 3.3363987074 -1.5548140595
| 36> H 2.3432512 1.8007018058 -2.3012893629
| 37> *
| 38>
| 39>                          ****END OF INPUT****

CARTESIAN COORDINATES (ANGSTROEM)
---------------------------------
  C      2.562535    2.702433    1.032150
  C      2.314083    1.760415   -0.144947
  C      3.150577    0.460621   -0.029893
  C      2.098870   -0.603743    0.062390
  C      2.201416   -1.973702    0.178931
  C      1.032579   -2.715778    0.245279
  C     -0.211492   -2.106261    0.197516
  C     -0.321314   -0.726634    0.078774
  C      0.856253    0.017170    0.011527
  O      0.925159    1.363600   -0.104711
  O     -1.494562    0.005860    0.025155
  C     -2.736880   -0.534727    0.026444
  O     -3.023438   -1.704056    0.073439
  N     -3.633936    0.475766   -0.035132
  C     -5.055719    0.251466   -0.056198
  C      2.555464    2.474489   -1.474197
  H      3.595833    3.039157    1.032072
  H      1.906969    3.566235    0.958260
  H      2.353067    2.189927    1.968362
  H      3.790067    0.318649   -0.902923
  H      3.787071    0.472628    0.856800
  H      3.167809   -2.452513    0.216913
  H      1.083748   -3.789594    0.336356
  H     -1.106644   -2.702363    0.249952
  H     -3.279831    1.417761   -0.074734
  H     -5.215693   -0.824093   -0.003827
  H     -5.496398    0.637465   -0.977689
  H     -5.536467    0.730479    0.799055
  H      3.588015    2.807173   -1.539832
  H      1.898216    3.336399   -1.554814
  H      2.343251    1.800702   -2.301289

 Total Charge           Charge          ....    0
 Multiplicity           Mult            ....    1
 Number of Electrons    NEL             ....  118
 Basis Dimension        Dim             ....  399

ORBITAL ENERGIES
----------------

  NO   OCC          E(Eh)            E(eV)
   0   2.0000     -19.006007      -517.1797
   1   2.0000     -18.979184      -516.4499
   2   2.0000     -18.919629      -514.8293
   3   2.0000     -14.188909      -386.0998
   4   2.0000     -10.175796      -276.8975
   5   2.0000     -10.105549      -274.9860
   6   2.0000     -10.097753      -274.7738
   7   2.0000     -10.086613      -274.4707
   8   2.0000     -10.065929      -273.9079
   9   2.0000     -10.043194      -273.2892
  10   2.0000     -10.036533      -273.1080
  11   2.0000     -10.028176      -272.8805
  12   2.0000     -10.027119      -272.8518
  13   2.0000     -10.027058      -272.8501
  14   2.0000     -10.024594      -272.7831
  15   2.0000     -10.023760      -272.7604
  16   2.0000      -1.081603       -29.4319
  17   2.0000      -1.039509       -28.2865
  18   2.0000      -0.989732       -26.9320
  19   2.0000      -0.898995       -24.4629
  20   2.0000      -0.821801       -22.3623
  21   2.0000      -0.783588       -21.3225
  22   2.0000      -0.737326       -20.0637
  23   2.0000      -0.721352       -19.6290
  24   2.0000      -0.677061       -18.4238
  25   2.0000      -0.667749       -18.1704
  26   2.0000      -0.655090       -17.8259
  27   2.0000      -0.605918       -16.4879
  28   2.0000      -0.578955       -15.7542
  29   2.0000      -0.553953       -15.0738
  30   2.0000      -0.542347       -14.7580
  31   2.0000      -0.519182       -14.1277
  32   2.0000      -0.478898       -13.0315
  33   2.0000      -0.455757       -12.4018
  34   2.0000      -0.451162       -12.2767
  35   2.0000      -0.446098       -12.1390
  36   2.0000      -0.442217       -12.0333
  37   2.0000      -0.432579       -11.7711
  38   2.0000      -0.418239       -11.3809
  39   2.0000      -0.406670       -11.0661
  40   2.0000      -0.403824       -10.9886
  41   2.0000      -0.387287       -10.5386
  42   2.0000      -0.381873       -10.3913
  43   2.0000      -0.373675       -10.1682
  44   2.0000      -0.366489        -9.9727
  45   2.0000      -0.361643        -9.8408
  46   2.0000      -0.357823        -9.7368
  47   2.0000      -0.347691        -9.4612
  48   2.0000      -0.339404        -9.2356
  49   2.0000      -0.333264        -9.0686
  50   2.0000      -0.325440        -8.8557
  51   2.0000      -0.314724        -8.5641
  52   2.0000      -0.306169        -8.3313
  53   2.0000      -0.297849        -8.1049
  54   2.0000      -0.285146        -7.7592
  55   2.0000      -0.242514        -6.5991
  56   2.0000      -0.236302        -6.4301
  57   2.0000      -0.212866        -5.7924
  58   2.0000      -0.187094        -5.0911
  59   0.0000      -0.026284        -0.7152
  60   0.0000      -0.009839        -0.2677
  61   0.0000       0.033213         0.9038
  62   0.0000       0.049301         1.3416
  63   0.0000       0.070390         1.9154

MULLIKEN ATOMIC CHARGES
-----------------------
   0 C :   -0.493966
   1 C :    0.309281
   2 C :   -0.467246
   3 C :    0.240522
   4 C :   -0.280292
   5 C :   -0.183705
   6 C :   -0.228440
   7 C :   -0.044763
   8 C :    0.105336
   9 O :   -0.171180
  10 O :   -0.121578
  11 C :    0.340480
  12 O :   -0.484245
  13 N :   -0.147416
  14 C :   -0.398524
  15 C :   -0.493792
  16 H :    0.157055
  17 H :    0.159351
  18 H :    0.158439
  19 H :    0.171119
  20 H :    0.171088
  21 H :    0.148210
  22 H :    0.145508
  23 H :    0.201722
  24 H :    0.250379
  25 H :    0.194987
  26 H :    0.143375
  27 H :    0.143341
  28 H :    0.157054
  29 H :    0.159326
  30 H :    0.158575
Sum of atomic charges:    0.0000000

LOEWDIN ATOMIC CHARGES
----------------------
   0 C :   -0.368782
   1 C :    0.102707
   2 C :   -0.219103
   3 C :   -0.056734
   4 C :   -0.161635
   5 C :   -0.175935
   6 C :   -0.127217
   7 C :    0.225733
   8 C :    0.237382
   9 O :   -0.632418
  10 O :   -0.477008
  11 C :    0.464003
  12 O :   -0.421698
  13 N :   -0.608255
  14 C :   -0.110390
  15 C :   -0.368753
  16 H :    0.160895
  17 H :    0.164602
  18 H :    0.165668
  19 H :    0.174906
  20 H :    0.174880
  21 H :    0.169095
  22 H :    0.167823
  23 H :    0.208055
  24 H :    0.278190
  25 H :    0.205989
  26 H :    0.168343
  27 H :    0.168467
  28 H :    0.160851
  29 H :    0.164618
  30 H :    0.165722

  Mayer bond orders larger than 0.100000
B(  0-C ,  1-C ) :   0.9621 B(  0-C , 16-H ) :   0.9766 B(  0-C , 17-H ) :   0.9726
B(  0-C , 18-H ) :   0.9655 B(  1-C ,  2-C ) :   0.8918 B(  1-C ,  8-C ) :   0.1446
B(  1-C ,  9-O ) :   0.6393 B(  1-C , 15-C ) :   0.9628 B(  2-C ,  3-C ) :   0.6820
B(  2-C , 19-H ) :   0.9669 B(  2-C , 20-H ) :   0.9658 B(  3-C ,  4-C ) :   1.2660
B(  3-C ,  7-C ) :  -0.1150 B(  3-C ,  8-C ) :   1.4099 B(  4-C ,  5-C ) :   1.4015
B(  4-C , 21-H ) :   0.9420 B(  5-C ,  6-C ) :   1.3467 B(  5-C , 22-H ) :   0.9634
B(  6-C ,  7-C ) :   1.3867 B(  6-C , 23-H ) :   0.9395 B(  7-C ,  8-C ) :   1.4256
B(  7-C , 10-O ) :   0.9147 B(  8-C ,  9-O ) :   1.1349 B( 10-O , 11-C ) :   1.0860
B( 11-C , 12-O ) :   1.8235 B( 11-C , 13-N ) :   1.2522 B( 13-N , 14-C ) :   0.9017
B( 13-N , 24-H ) :   0.9093 B( 14-C , 25-H ) :   0.9609 B( 14-C , 26-H ) :   0.9610
B( 14-C , 27-H ) :   0.9614 B( 15-C , 28-H ) :   0.9768 B( 15-C , 29-H ) :   0.9724
B( 15-C , 30-H ) :   0.9652

Dispersion correction           -0.011765424
FINAL SINGLE POINT ENERGY      -746.589407698928

DIPOLE MOMENT
-------------

Method             : SCF
Type of density    : Electron Density
Multiplicity       :   1
Irrep              :   0
Energy             :  -746.5981975154829797 Eh
Relativity type    :
Basis              : AO
                                X                 Y                 Z
Electronic contribution:     -5.966581570      -8.632559154       0.804563581
Nuclear contribution   :      6.380516595       9.893481441      -0.879666177
                        -----------------------------------------
Total Dipole Moment    :      0.413935026       1.260922287      -0.075102596
                        -----------------------------------------
Magnitude (a.u.)       :      1.329250774
Magnitude (Debye)      :      3.378686959

Rotational constants in cm-1:             0.029976             0.010812             0.008398
Rotational constants in MHz :           898.666693           324.128195           251.772067

                             ****ORCA TERMINATED NORMALLY****
TOTAL RUN TIME: 0 days 0 hours 1 minutes 21 seconds 246 msec
