                         Program Version 6.0.1  -  RELEASE   -
|  1> ! pbe def2-sv(p) def2/J RI DEFGRID1 loosescf d4 GCP(DFT/SV(P)) printgap
|  2> %output
|  3>     printlevel normal
|  4> end
|  5> * xyz 0 1
|  6> C -3.235372047 1.0285242329 0.0101519192
|  7> C -1.9046769745 0.3388615645 -0.00806724
|  8> C -1.8147447998 -1.0454422134 -0.0047145672
|  9> C -0.5761691333 -1.6566049986 -0.0004286204
| 10> C 0.6040630328 -0.9248941987 0.0012618955
| 11> C 0.529936956 0.4747431439 -0.0013260444
| 12> C -0.7296365308 1.0705903562 -0.0058190233
| 13> O 1.5668302225 1.359449713 -0.0012515375
| 14> C 2.899992777 0.9021048859 0.0005204073
| 15> O 1.8135711612 -1.5803739033 0.0036070275
| 16> H -3.1768082782 1.9946382171 -0.4846202969
| 17> H -3.9914139907 0.422447012 -0.48345135
| 18> H -3.5553380146 1.1951069675 1.039166126
| 19> H -2.7089248625 -1.6501319731 -0.0066985437
| 20> H -0.5111510635 -2.7377713765 0.0002126857
| 21> H -0.7563872701 2.1493497783 -0.0085054896
| 22> H 3.5116090021 1.8041186679 -0.0004850739
| 23> H 3.1249314213 0.3088042374 -0.8884086585
| 24> H 3.1235189106 0.3117758364 0.8917986026
| 25> H 1.6473551659 -2.5303598814 0.0039560694
| 26> *
| 27>
| 28>                          ****END OF INPUT****

CARTESIAN COORDINATES (ANGSTROEM)
---------------------------------
  C     -3.235372    1.028524    0.010152
  C     -1.904677    0.338862   -0.008067
  C     -1.814745   -1.045442   -0.004715
  C     -0.576169   -1.656605   -0.000429
  C      0.604063   -0.924894    0.001262
  C      0.529937    0.474743   -0.001326
  C     -0.729637    1.070590   -0.005819
  O      1.566830    1.359450   -0.001252
  C      2.899993    0.902105    0.000520
  O      1.813571   -1.580374    0.003607
  H     -3.176808    1.994638   -0.484620
  H     -3.991414    0.422447   -0.483451
  H     -3.555338    1.195107    1.039166
  H     -2.708925   -1.650132   -0.006699
  H     -0.511151   -2.737771    0.000213
  H     -0.756387    2.149350   -0.008505
  H      3.511609    1.804119   -0.000485
  H      3.124931    0.308804   -0.888409
  H      3.123519    0.311776    0.891799
  H      1.647355   -2.530360    0.003956

 Total Charge           Charge          ....    0
 Multiplicity           Mult            ....    1
 Number of Electrons    NEL             ....   74
 Basis Dimension        Dim             ....  160

ORBITAL ENERGIES
----------------

  NO   OCC          E(Eh)            E(eV)
   0   2.0000     -18.780131      -511.0333
   1   2.0000     -18.776401      -510.9318
   2   2.0000      -9.948307      -270.7072
   3   2.0000      -9.944800      -270.6118
   4   2.0000      -9.924458      -270.0582
   5   2.0000      -9.890503      -269.1343
   6   2.0000      -9.888827      -269.0887
   7   2.0000      -9.880055      -268.8500
   8   2.0000      -9.877377      -268.7771
   9   2.0000      -9.877116      -268.7700
  10   2.0000      -0.967974       -26.3399
  11   2.0000      -0.950587       -25.8668
  12   2.0000      -0.769279       -20.9331
  13   2.0000      -0.688712       -18.7408
  14   2.0000      -0.676592       -18.4110
  15   2.0000      -0.617208       -16.7951
  16   2.0000      -0.607864       -16.5408
  17   2.0000      -0.557575       -15.1724
  18   2.0000      -0.516416       -14.0524
  19   2.0000      -0.495438       -13.4815
  20   2.0000      -0.449031       -12.2188
  21   2.0000      -0.438961       -11.9447
  22   2.0000      -0.410235       -11.1631
  23   2.0000      -0.407564       -11.0904
  24   2.0000      -0.379564       -10.3285
  25   2.0000      -0.374393       -10.1877
  26   2.0000      -0.371690       -10.1142
  27   2.0000      -0.350627        -9.5411
  28   2.0000      -0.349481        -9.5099
  29   2.0000      -0.330054        -8.9812
  30   2.0000      -0.308808        -8.4031
  31   2.0000      -0.302667        -8.2360
  32   2.0000      -0.299485        -8.1494
  33   2.0000      -0.269026        -7.3206
  34   2.0000      -0.265291        -7.2189
  35   2.0000      -0.202274        -5.5041
  36   2.0000      -0.170850        -4.6491
  37   0.0000      -0.024109        -0.6560
  38   0.0000      -0.008708        -0.2370
  39   0.0000       0.020966         0.5705
  40   0.0000       0.047489         1.2922
  41   0.0000       0.065514         1.7827

MULLIKEN ATOMIC CHARGES
-----------------------
   0 C :   -0.225200
   1 C :    0.087433
   2 C :   -0.123050
   3 C :   -0.164432
   4 C :    0.143035
   5 C :    0.188557
   6 C :   -0.230653
   7 O :   -0.265502
   8 C :   -0.097705
   9 O :   -0.355136
  10 H :    0.105150
  11 H :    0.102538
  12 H :    0.116741
  13 H :    0.028051
  14 H :    0.019612
  15 H :    0.027807
  16 H :    0.111846
  17 H :    0.107919
  18 H :    0.107855
  19 H :    0.315134
Sum of atomic charges:    0.0000000

LOEWDIN ATOMIC CHARGES
----------------------
   0 C :   -0.321041
   1 C :   -0.061258
   2 C :   -0.142314
   3 C :   -0.168058
   4 C :   -0.012284
   5 C :    0.013064
   6 C :   -0.139099
   7 O :   -0.091227
   8 C :   -0.205687
   9 O :   -0.248151
  10 H :    0.125707
  11 H :    0.124499
  12 H :    0.131628
  13 H :    0.119729
  14 H :    0.118883
  15 H :    0.128200
  16 H :    0.113428
  17 H :    0.109159
  18 H :    0.109126
  19 H :    0.295697

  Mayer bond orders larger than 0.100000
B(  0-C ,  1-C ) :   1.0975 B(  0-C , 10-H ) :   0.9437 B(  0-C , 11-H ) :   0.9438
B(  0-C , 12-H ) :   0.9338 B(  1-C ,  2-C ) :   1.3664 B(  1-C ,  6-C ) :   1.3471
B(  2-C ,  3-C ) :   1.3401 B(  2-C , 13-H ) :   0.9675 B(  3-C ,  4-C ) :   1.3234
B(  3-C , 14-H ) :   0.9515 B(  4-C ,  5-C ) :   1.3146 B(  4-C ,  9-O ) :   1.1433
B(  5-C ,  6-C ) :   1.3542 B(  5-C ,  7-O ) :   1.1572 B(  6-C , 15-H ) :   0.9675
B(  7-O ,  8-C ) :   0.9718 B(  8-C , 16-H ) :   0.9573 B(  8-C , 17-H ) :   0.9497
B(  8-C , 18-H ) :   0.9496 B(  9-O , 19-H ) :   0.8403

Dispersion correction           -0.020179695
FINAL SINGLE POINT ENERGY      -460.300081383747

DIPOLE MOMENT
-------------

Method             : SCF
Type of density    : Electron Density
Multiplicity       :   1
Irrep              :   0
Energy             :  -460.3686529781890613 Eh
Relativity type    :
Basis              : AO
                                X                 Y                 Z
Electronic contribution:      3.219446069      -1.861816544      -0.036299383
Nuclear contribution   :     -3.038939798       1.186304603       0.059105878
                        -----------------------------------------
Total Dipole Moment    :      0.180506271      -0.675511941       0.022806495
                        -----------------------------------------
Magnitude (a.u.)       :      0.699584900
Magnitude (Debye)      :      1.778203500

Rotational constants in cm-1:             0.084493             0.033348             0.024127
Rotational constants in MHz :          2533.029190           999.754763           723.317085

                             ****ORCA TERMINATED NORMALLY****
TOTAL RUN TIME: 0 days 0 hours 0 minutes 6 seconds 5 msec
