                         Program Version 6.0.1  -  RELEASE   -
|  1> ! pbe def2-sv(p) def2/J RI DEFGRID1 loosescf d4 GCP(DFT/SV(P)) printgap
|  2> %output
|  3>     printlevel normal
|  4> end
|  5> * xyz 0 1
|  6> C -2.1502459752 -0.9529761063 -0.222689747
|  7> C -1.1456012452 -0.3609631401 0.7833614892
|  8> H -1.6756589426 -0.3739646452 1.746185567
|  9> C -0.7548136261 1.1151709124 0.5410136269
| 10> H -1.6278399093 1.6589807792 0.1625770247
| 11> C 0.4177037346 1.2963695561 -0.4456710222
| 12> H 0.798779936 2.3175898349 -0.292976114
| 13> C 1.5568554329 0.3165045481 -0.0807665708
| 14> H 2.271068075 0.2822845579 -0.9158506803
| 15> C 1.0694813903 -1.1307849678 0.1549530866
| 16> H 1.8655287842 -1.6591060713 0.6948417818
| 17> O -0.0293387864 -1.1982353856 1.025663064
| 18> O 0.8818517801 -1.8238761025 -1.0319474985
| 19> O 2.1884434724 0.7229700328 1.1172461343
| 20> O 0.0564571072 1.2416782155 -1.79437506
| 21> O -0.4292245687 1.7108078889 1.7716136051
| 22> O -1.6852550912 -0.8871603093 -1.5650467856
| 23> H -3.0902214994 -0.3970638423 -0.1309271704
| 24> H -2.3183063771 -1.9988905154 0.0581055015
| 25> H 0.0482367923 -1.5373442832 -1.4411469198
| 26> H 2.6243801381 1.570548212 0.9700923883
| 27> H -0.5356200388 0.4881775264 -1.9381463974
| 28> H 0.3707519618 1.2725218913 2.1031208951
| 29> H -2.3384375122 -1.2884381641 -2.1481152046
| 30> *
| 31>
| 32>                          ****END OF INPUT****

CARTESIAN COORDINATES (ANGSTROEM)
---------------------------------
  C     -2.150246   -0.952976   -0.222690
  C     -1.145601   -0.360963    0.783361
  H     -1.675659   -0.373965    1.746186
  C     -0.754814    1.115171    0.541014
  H     -1.627840    1.658981    0.162577
  C      0.417704    1.296370   -0.445671
  H      0.798780    2.317590   -0.292976
  C      1.556855    0.316505   -0.080767
  H      2.271068    0.282285   -0.915851
  C      1.069481   -1.130785    0.154953
  H      1.865529   -1.659106    0.694842
  O     -0.029339   -1.198235    1.025663
  O      0.881852   -1.823876   -1.031947
  O      2.188443    0.722970    1.117246
  O      0.056457    1.241678   -1.794375
  O     -0.429225    1.710808    1.771614
  O     -1.685255   -0.887160   -1.565047
  H     -3.090221   -0.397064   -0.130927
  H     -2.318306   -1.998891    0.058106
  H      0.048237   -1.537344   -1.441147
  H      2.624380    1.570548    0.970092
  H     -0.535620    0.488178   -1.938146
  H      0.370752    1.272522    2.103121
  H     -2.338438   -1.288438   -2.148115

 Total Charge           Charge          ....    0
 Multiplicity           Mult            ....    1
 Number of Electrons    NEL             ....   96
 Basis Dimension        Dim             ....  192

ORBITAL ENERGIES
----------------

  NO   OCC          E(Eh)            E(eV)
   0   2.0000     -18.816317      -512.0180
   1   2.0000     -18.766395      -510.6596
   2   2.0000     -18.765998      -510.6488
   3   2.0000     -18.740573      -509.9569
   4   2.0000     -18.739469      -509.9269
   5   2.0000     -18.737985      -509.8865
   6   2.0000      -9.977252      -271.4948
   7   2.0000      -9.964891      -271.1585
   8   2.0000      -9.955836      -270.9121
   9   2.0000      -9.943955      -270.5888
  10   2.0000      -9.937944      -270.4252
  11   2.0000      -9.935845      -270.3681
  12   2.0000      -0.988258       -26.8919
  13   2.0000      -0.970906       -26.4197
  14   2.0000      -0.940493       -25.5921
  15   2.0000      -0.924505       -25.1571
  16   2.0000      -0.917404       -24.9638
  17   2.0000      -0.901029       -24.5182
  18   2.0000      -0.712641       -19.3919
  19   2.0000      -0.682477       -18.5711
  20   2.0000      -0.633984       -17.2516
  21   2.0000      -0.587883       -15.9971
  22   2.0000      -0.581742       -15.8300
  23   2.0000      -0.538165       -14.6442
  24   2.0000      -0.505830       -13.7643
  25   2.0000      -0.487561       -13.2672
  26   2.0000      -0.472656       -12.8616
  27   2.0000      -0.465873       -12.6770
  28   2.0000      -0.447915       -12.1884
  29   2.0000      -0.442251       -12.0343
  30   2.0000      -0.424100       -11.5403
  31   2.0000      -0.413924       -11.2634
  32   2.0000      -0.403734       -10.9862
  33   2.0000      -0.372876       -10.1465
  34   2.0000      -0.364631        -9.9221
  35   2.0000      -0.351418        -9.5626
  36   2.0000      -0.339198        -9.2301
  37   2.0000      -0.322966        -8.7884
  38   2.0000      -0.304390        -8.2829
  39   2.0000      -0.300808        -8.1854
  40   2.0000      -0.281719        -7.6660
  41   2.0000      -0.274863        -7.4794
  42   2.0000      -0.267386        -7.2759
  43   2.0000      -0.249541        -6.7903
  44   2.0000      -0.244155        -6.6438
  45   2.0000      -0.223353        -6.0778
  46   2.0000      -0.209649        -5.7048
  47   2.0000      -0.192493        -5.2380
  48   0.0000      -0.013760        -0.3744
  49   0.0000       0.018232         0.4961
  50   0.0000       0.045131         1.2281
  51   0.0000       0.051163         1.3922
  52   0.0000       0.067372         1.8333

MULLIKEN ATOMIC CHARGES
-----------------------
   0 C :    0.020798
   1 C :    0.013753
   2 H :    0.090696
   3 C :    0.056006
   4 H :    0.070670
   5 C :    0.040583
   6 H :    0.061638
   7 C :    0.000647
   8 H :    0.082870
   9 C :    0.207191
  10 H :    0.073144
  11 O :   -0.303228
  12 O :   -0.409060
  13 O :   -0.416723
  14 O :   -0.418016
  15 O :   -0.430841
  16 O :   -0.452535
  17 H :    0.095762
  18 H :    0.104806
  19 H :    0.283958
  20 H :    0.307930
  21 H :    0.288756
  22 H :    0.296469
  23 H :    0.334727
Sum of atomic charges:   -0.0000000

LOEWDIN ATOMIC CHARGES
----------------------
   0 C :   -0.135487
   1 C :   -0.076017
   2 H :    0.132530
   3 C :   -0.070598
   4 H :    0.116022
   5 C :   -0.083932
   6 H :    0.109372
   7 C :   -0.098446
   8 H :    0.112413
   9 C :   -0.000087
  10 H :    0.112848
  11 O :   -0.138414
  12 O :   -0.320281
  13 O :   -0.310804
  14 O :   -0.325108
  15 O :   -0.321184
  16 O :   -0.317293
  17 H :    0.115303
  18 H :    0.116820
  19 H :    0.257011
  20 H :    0.289425
  21 H :    0.258763
  22 H :    0.270523
  23 H :    0.306621

  Mayer bond orders larger than 0.100000
B(  0-C ,  1-C ) :   1.0652 B(  0-C , 16-O ) :   0.9775 B(  0-C , 17-H ) :   0.9131
B(  0-C , 18-H ) :   0.9121 B(  1-C ,  2-H ) :   0.8812 B(  1-C ,  3-C ) :   0.9815
B(  1-C , 11-O ) :   1.0289 B(  3-C ,  4-H ) :   0.8947 B(  3-C ,  5-C ) :   0.9789
B(  3-C , 15-O ) :   1.0423 B(  5-C ,  6-H ) :   0.8972 B(  5-C ,  7-C ) :   0.9495
B(  5-C , 14-O ) :   1.0916 B(  7-C ,  8-H ) :   0.8946 B(  7-C ,  9-C ) :   0.9764
B(  7-C , 13-O ) :   1.0118 B(  9-C , 10-H ) :   0.8985 B(  9-C , 11-O ) :   1.0354
B(  9-C , 12-O ) :   1.1406 B( 12-O , 19-H ) :   0.7937 B( 13-O , 20-H ) :   0.8411
B( 14-O , 21-H ) :   0.8009 B( 15-O , 22-H ) :   0.8154 B( 16-O , 19-H ) :   0.1153
B( 16-O , 21-H ) :   0.1124 B( 16-O , 23-H ) :   0.8297

Dispersion correction           -0.026490289
FINAL SINGLE POINT ENERGY      -685.699002238543

DIPOLE MOMENT
-------------

Method             : SCF
Type of density    : Electron Density
Multiplicity       :   1
Irrep              :   0
Energy             :  -685.8346404162875842 Eh
Relativity type    :
Basis              : AO
                                X                 Y                 Z
Electronic contribution:      2.246882018      -0.514343578       0.583427299
Nuclear contribution   :     -3.369735607       0.311100153      -1.069297343
                        -----------------------------------------
Total Dipole Moment    :     -1.122853589      -0.203243425      -0.485870044
                        -----------------------------------------
Magnitude (a.u.)       :      1.240232950
Magnitude (Debye)      :      3.152421632

Rotational constants in cm-1:             0.039813             0.030918             0.027626
Rotational constants in MHz :          1193.577839           926.894929           828.211168

                             ****ORCA TERMINATED NORMALLY****
TOTAL RUN TIME: 0 days 0 hours 1 minutes 26 seconds 162 msec
