                         Program Version 6.0.1  -  RELEASE   -
|  1> ! pbe def2-sv(p) def2/J RI DEFGRID1 loosescf d4 GCP(DFT/SV(P)) printgap
|  2> %output
|  3>     printlevel normal
|  4> end
|  5> * xyz 0 1
|  6> C -2.3158764446 -0.9751091 -0.4110661433
|  7> C -0.9716019903 -0.5551300232 0.2019641367
|  8> H -0.9592683516 -0.8171724369 1.2739273019
|  9> C -0.7507333298 0.9716580514 0.1018527897
| 10> H -1.5046723297 1.4078991278 -0.5674730826
| 11> C 0.6505777368 1.2457256289 -0.4893590507
| 12> H 0.9035420963 2.3051210172 -0.3620194986
| 13> C 1.6909199502 0.3929686455 0.2682881882
| 14> H 2.6797897362 0.5372428654 -0.1824109329
| 15> C 1.3204081257 -1.114910309 0.1304217422
| 16> H 1.3178958893 -1.5710483199 1.133018821
| 17> O 0.0397996351 -1.2683594807 -0.4724958653
| 18> O 2.2258360679 -1.8327873644 -0.6183381957
| 19> O 1.8127812969 0.7901120633 1.605212146
| 20> O 0.6723887041 1.0019466812 -1.8696787242
| 21> O -0.8880443884 1.498882656 1.4085999335
| 22> O -3.3825070027 -0.2069567937 0.0693488343
| 23> H -2.4680052356 -2.0462665767 -0.2252754596
| 24> H -2.2848913502 -0.8129253014 -1.4910636238
| 25> H 2.2249267097 -1.5026949437 -1.5260817013
| 26> H 0.9239389873 0.9105499378 1.9762691346
| 27> H 0.3589176791 0.0959387438 -2.0102588
| 28> H -0.9111761316 2.4613392458 1.3626497863
| 29> H -3.4201683167 -0.2808779327 1.0301283735
| 30> *
| 31>
| 32>                          ****END OF INPUT****

CARTESIAN COORDINATES (ANGSTROEM)
---------------------------------
  C     -2.315876   -0.975109   -0.411066
  C     -0.971602   -0.555130    0.201964
  H     -0.959268   -0.817172    1.273927
  C     -0.750733    0.971658    0.101853
  H     -1.504672    1.407899   -0.567473
  C      0.650578    1.245726   -0.489359
  H      0.903542    2.305121   -0.362019
  C      1.690920    0.392969    0.268288
  H      2.679790    0.537243   -0.182411
  C      1.320408   -1.114910    0.130422
  H      1.317896   -1.571048    1.133019
  O      0.039800   -1.268359   -0.472496
  O      2.225836   -1.832787   -0.618338
  O      1.812781    0.790112    1.605212
  O      0.672389    1.001947   -1.869679
  O     -0.888044    1.498883    1.408600
  O     -3.382507   -0.206957    0.069349
  H     -2.468005   -2.046267   -0.225275
  H     -2.284891   -0.812925   -1.491064
  H      2.224927   -1.502695   -1.526082
  H      0.923939    0.910550    1.976269
  H      0.358918    0.095939   -2.010259
  H     -0.911176    2.461339    1.362650
  H     -3.420168   -0.280878    1.030128

 Total Charge           Charge          ....    0
 Multiplicity           Mult            ....    1
 Number of Electrons    NEL             ....   96
 Basis Dimension        Dim             ....  192

ORBITAL ENERGIES
----------------

  NO   OCC          E(Eh)            E(eV)
   0   2.0000     -18.790222      -511.3079
   1   2.0000     -18.787528      -511.2346
   2   2.0000     -18.764065      -510.5962
   3   2.0000     -18.763885      -510.5913
   4   2.0000     -18.758035      -510.4321
   5   2.0000     -18.743019      -510.0235
   6   2.0000      -9.989275      -271.8220
   7   2.0000      -9.960011      -271.0257
   8   2.0000      -9.955411      -270.9005
   9   2.0000      -9.948010      -270.6991
  10   2.0000      -9.946397      -270.6552
  11   2.0000      -9.937761      -270.4202
  12   2.0000      -0.997539       -27.1444
  13   2.0000      -0.962341       -26.1866
  14   2.0000      -0.942977       -25.6597
  15   2.0000      -0.938087       -25.5266
  16   2.0000      -0.926858       -25.2211
  17   2.0000      -0.921323       -25.0705
  18   2.0000      -0.710801       -19.3419
  19   2.0000      -0.686141       -18.6708
  20   2.0000      -0.625602       -17.0235
  21   2.0000      -0.601272       -16.3614
  22   2.0000      -0.576902       -15.6983
  23   2.0000      -0.542245       -14.7552
  24   2.0000      -0.513844       -13.9824
  25   2.0000      -0.499155       -13.5827
  26   2.0000      -0.478777       -13.0282
  27   2.0000      -0.469249       -12.7689
  28   2.0000      -0.463509       -12.6127
  29   2.0000      -0.451515       -12.2864
  30   2.0000      -0.415009       -11.2930
  31   2.0000      -0.409223       -11.1355
  32   2.0000      -0.385955       -10.5024
  33   2.0000      -0.380608       -10.3569
  34   2.0000      -0.359992        -9.7959
  35   2.0000      -0.359064        -9.7706
  36   2.0000      -0.342305        -9.3146
  37   2.0000      -0.327726        -8.9179
  38   2.0000      -0.315966        -8.5979
  39   2.0000      -0.311351        -8.4723
  40   2.0000      -0.291336        -7.9277
  41   2.0000      -0.279824        -7.6144
  42   2.0000      -0.264515        -7.1978
  43   2.0000      -0.261757        -7.1228
  44   2.0000      -0.247913        -6.7461
  45   2.0000      -0.236747        -6.4422
  46   2.0000      -0.219747        -5.9796
  47   2.0000      -0.198819        -5.4101
  48   0.0000       0.000148         0.0040
  49   0.0000       0.017656         0.4805
  50   0.0000       0.020254         0.5511
  51   0.0000       0.033837         0.9207
  52   0.0000       0.055396         1.5074

MULLIKEN ATOMIC CHARGES
-----------------------
   0 C :    0.076623
   1 C :   -0.027280
   2 H :    0.064056
   3 C :    0.009655
   4 H :    0.088576
   5 C :    0.025297
   6 H :    0.070169
   7 C :    0.038485
   8 H :    0.077329
   9 C :    0.188576
  10 H :    0.066145
  11 O :   -0.306547
  12 O :   -0.370941
  13 O :   -0.425845
  14 O :   -0.422036
  15 O :   -0.417326
  16 O :   -0.422734
  17 H :    0.092851
  18 H :    0.087833
  19 H :    0.296665
  20 H :    0.294431
  21 H :    0.300437
  22 H :    0.313298
  23 H :    0.302281
Sum of atomic charges:   -0.0000000

LOEWDIN ATOMIC CHARGES
----------------------
   0 C :   -0.122762
   1 C :   -0.076438
   2 H :    0.104521
   3 C :   -0.086377
   4 H :    0.114423
   5 C :   -0.085315
   6 H :    0.113104
   7 C :   -0.094799
   8 H :    0.118529
   9 C :   -0.001782
  10 H :    0.104658
  11 O :   -0.155879
  12 O :   -0.281639
  13 O :   -0.320441
  14 O :   -0.315413
  15 O :   -0.308406
  16 O :   -0.322084
  17 H :    0.104286
  18 H :    0.115371
  19 H :    0.282084
  20 H :    0.265683
  21 H :    0.267398
  22 H :    0.294083
  23 H :    0.287194

  Mayer bond orders larger than 0.100000
B(  0-C ,  1-C ) :   1.0500 B(  0-C , 16-O ) :   1.0701 B(  0-C , 17-H ) :   0.9197
B(  0-C , 18-H ) :   0.9130 B(  1-C ,  2-H ) :   0.8685 B(  1-C ,  3-C ) :   0.9800
B(  1-C , 11-O ) :   1.0202 B(  3-C ,  4-H ) :   0.8920 B(  3-C ,  5-C ) :   0.9878
B(  3-C , 15-O ) :   1.0140 B(  5-C ,  6-H ) :   0.8944 B(  5-C ,  7-C ) :   0.9645
B(  5-C , 14-O ) :   1.0409 B(  7-C ,  8-H ) :   0.8976 B(  7-C ,  9-C ) :   0.9375
B(  7-C , 13-O ) :   1.0718 B(  9-C , 10-H ) :   0.8898 B(  9-C , 11-O ) :   0.9687
B(  9-C , 12-O ) :   1.1535 B( 12-O , 19-H ) :   0.8410 B( 13-O , 20-H ) :   0.8074
B( 14-O , 21-H ) :   0.8198 B( 15-O , 20-H ) :   0.1139 B( 15-O , 22-H ) :   0.8395
B( 16-O , 23-H ) :   0.8479

Dispersion correction           -0.025139187
FINAL SINGLE POINT ENERGY      -685.690445612620

DIPOLE MOMENT
-------------

Method             : SCF
Type of density    : Electron Density
Multiplicity       :   1
Irrep              :   0
Energy             :  -685.8237404968277815 Eh
Relativity type    :
Basis              : AO
                                X                 Y                 Z
Electronic contribution:      2.128160592      -0.327615995      -0.172438843
Nuclear contribution   :     -2.937961345       0.644367529       0.387789837
                        -----------------------------------------
Total Dipole Moment    :     -0.809800753       0.316751535       0.215350994
                        -----------------------------------------
Magnitude (a.u.)       :      0.895815185
Magnitude (Debye)      :      2.276981245

Rotational constants in cm-1:             0.042992             0.025667             0.021637
Rotational constants in MHz :          1288.864307           769.470792           648.671195

                             ****ORCA TERMINATED NORMALLY****
TOTAL RUN TIME: 0 days 0 hours 0 minutes 27 seconds 344 msec
