                         Program Version 6.0.1  -  RELEASE   -
|  1> ! pbe def2-sv(p) def2/J RI DEFGRID1 loosescf d4 GCP(DFT/SV(P)) printgap
|  2> %output
|  3>     printlevel normal
|  4> end
|  5> * xyz 0 1
|  6> C 2.4531916436 -1.2011572825 0.0012815721
|  7> C 1.7022423184 0.1051872871 -4.95964e-05
|  8> O 2.2700099234 1.1733842941 -0.001208678
|  9> C 0.21577384 0.0276369845 -8.953e-07
| 10> C -0.5138239307 1.2190177275 0.0006284617
| 11> C -1.8947080895 1.1692322364 0.000670249
| 12> C -2.5030130058 -0.0786562097 7.27679e-05
| 13> N -1.8267077874 -1.2151760104 -0.0006473314
| 14> C -0.5082919761 -1.1654412646 -0.000694177
| 15> H 3.5215636316 -1.0005378082 0.0029007193
| 16> H 2.1960551971 -1.7808087008 -0.8826528629
| 17> H 2.1932208766 -1.7810415003 0.8842010502
| 18> H 0.0225642598 2.1570021344 0.0010838824
| 19> H -2.4861894671 2.0714532537 0.0011746439
| 20> H -3.580491079 -0.1789405003 0.0001758159
| 21> H -0.018884824 -2.1297567116 -0.0014427052
| 22> *
| 23>
| 24>                          ****END OF INPUT****

CARTESIAN COORDINATES (ANGSTROEM)
---------------------------------
  C      2.453192   -1.201157    0.001282
  C      1.702242    0.105187   -0.000050
  O      2.270010    1.173384   -0.001209
  C      0.215774    0.027637   -0.000001
  C     -0.513824    1.219018    0.000628
  C     -1.894708    1.169232    0.000670
  C     -2.503013   -0.078656    0.000073
  N     -1.826708   -1.215176   -0.000647
  C     -0.508292   -1.165441   -0.000694
  H      3.521564   -1.000538    0.002901
  H      2.196055   -1.780809   -0.882653
  H      2.193221   -1.781042    0.884201
  H      0.022564    2.157002    0.001084
  H     -2.486189    2.071453    0.001175
  H     -3.580491   -0.178941    0.000176
  H     -0.018885   -2.129757   -0.001443

 Total Charge           Charge          ....    0
 Multiplicity           Mult            ....    1
 Number of Electrons    NEL             ....   64
 Basis Dimension        Dim             ....  140

ORBITAL ENERGIES
----------------

  NO   OCC          E(Eh)            E(eV)
   0   2.0000     -18.750701      -510.2325
   1   2.0000     -13.994995      -380.8232
   2   2.0000      -9.985437      -271.7176
   3   2.0000      -9.941244      -270.5150
   4   2.0000      -9.939027      -270.4547
   5   2.0000      -9.921032      -269.9650
   6   2.0000      -9.918358      -269.8923
   7   2.0000      -9.914559      -269.7889
   8   2.0000      -9.894630      -269.2466
   9   2.0000      -0.951164       -25.8825
  10   2.0000      -0.874428       -23.7944
  11   2.0000      -0.742856       -20.2141
  12   2.0000      -0.713993       -19.4287
  13   2.0000      -0.671336       -18.2680
  14   2.0000      -0.595200       -16.1962
  15   2.0000      -0.574031       -15.6202
  16   2.0000      -0.510071       -13.8798
  17   2.0000      -0.474304       -12.9065
  18   2.0000      -0.454235       -12.3604
  19   2.0000      -0.422324       -11.4920
  20   2.0000      -0.414274       -11.2730
  21   2.0000      -0.410320       -11.1654
  22   2.0000      -0.379729       -10.3330
  23   2.0000      -0.375398       -10.2151
  24   2.0000      -0.363928        -9.9030
  25   2.0000      -0.351861        -9.5746
  26   2.0000      -0.335459        -9.1283
  27   2.0000      -0.333835        -9.0841
  28   2.0000      -0.273859        -7.4521
  29   2.0000      -0.256194        -6.9714
  30   2.0000      -0.222634        -6.0582
  31   2.0000      -0.206837        -5.6283
  32   0.0000      -0.100277        -2.7287
  33   0.0000      -0.065844        -1.7917
  34   0.0000      -0.012071        -0.3285
  35   0.0000       0.041292         1.1236
  36   0.0000       0.053497         1.4557

MULLIKEN ATOMIC CHARGES
-----------------------
   0 C :   -0.247058
   1 C :   -0.007888
   2 O :   -0.145748
   3 C :    0.026375
   4 C :   -0.051487
   5 C :   -0.057268
   6 C :   -0.049336
   7 N :   -0.044064
   8 C :   -0.103832
   9 H :    0.120762
  10 H :    0.130709
  11 H :    0.130666
  12 H :    0.080717
  13 H :    0.070590
  14 H :    0.078698
  15 H :    0.068161
Sum of atomic charges:    0.0000000

LOEWDIN ATOMIC CHARGES
----------------------
   0 C :   -0.361882
   1 C :    0.045103
   2 O :   -0.117288
   3 C :   -0.097506
   4 C :   -0.061966
   5 C :   -0.136552
   6 C :   -0.063731
   7 N :   -0.070835
   8 C :   -0.066182
   9 H :    0.137551
  10 H :    0.143804
  11 H :    0.143721
  12 H :    0.137818
  13 H :    0.132352
  14 H :    0.118380
  15 H :    0.117213

  Mayer bond orders larger than 0.100000
B(  0-C ,  1-C ) :   1.1270 B(  0-C ,  9-H ) :   0.9294 B(  0-C , 10-H ) :   0.9152
B(  0-C , 11-H ) :   0.9154 B(  1-C ,  2-O ) :   2.1813 B(  1-C ,  3-C ) :   0.9144
B(  3-C ,  4-C ) :   1.3961 B(  3-C ,  8-C ) :   1.3335 B(  4-C ,  5-C ) :   1.4017
B(  4-C , 12-H ) :   0.9490 B(  5-C ,  6-C ) :   1.3541 B(  5-C , 13-H ) :   0.9509
B(  6-C ,  7-N ) :   1.5444 B(  6-C , 14-H ) :   0.9527 B(  7-N ,  8-C ) :   1.5624
B(  8-C , 15-H ) :   0.9380

Dispersion correction           -0.016413378
FINAL SINGLE POINT ENERGY      -400.086010694243

DIPOLE MOMENT
-------------

Method             : SCF
Type of density    : Electron Density
Multiplicity       :   1
Irrep              :   0
Energy             :  -400.1315225601480279 Eh
Relativity type    :
Basis              : AO
                                X                 Y                 Z
Electronic contribution:     -2.039892350       2.326082454      -0.003979898
Nuclear contribution   :      1.757180527      -2.468531291       0.005082704
                        -----------------------------------------
Total Dipole Moment    :     -0.282711823      -0.142448837       0.001102806
                        -----------------------------------------
Magnitude (a.u.)       :      0.316573629
Magnitude (Debye)      :      0.804666216

Rotational constants in cm-1:             0.126335             0.041685             0.031527
Rotational constants in MHz :          3787.433406          1249.675611           945.168962

                             ****ORCA TERMINATED NORMALLY****
TOTAL RUN TIME: 0 days 0 hours 0 minutes 13 seconds 787 msec
