                         Program Version 6.0.1  -  RELEASE   -
|  1> ! pbe def2-sv(p) def2/J RI DEFGRID1 loosescf d4 GCP(DFT/SV(P)) printgap
|  2> %output
|  3>     printlevel normal
|  4> end
|  5> * xyz 0 1
|  6> C -2.5619032001 -0.6925140448 -0.2952696817
|  7> C -1.1723954295 -0.3081218049 0.2258017541
|  8> H -1.1910162942 -0.2941310826 1.3300195553
|  9> C -0.7221042327 1.0644401983 -0.2914753064
| 10> H -0.7625025132 1.0664769399 -1.3866664127
| 11> C 0.7249312982 1.3665883503 0.1458804702
| 12> H 0.7480128972 1.5253366012 1.2391171665
| 13> C 1.65242334 0.1920625883 -0.1740265702
| 14> H 1.8032191004 0.1609450245 -1.2656612751
| 15> C 1.0256868551 -1.1434754786 0.287865489
| 16> H 1.0253716137 -1.1653775423 1.391490589
| 17> O -0.2756534718 -1.3115075755 -0.2122396867
| 18> O 1.7966680059 -2.2183375909 -0.1233714708
| 19> O 2.869855832 0.3793755767 0.4932489197
| 20> O 1.1928548473 2.5081928145 -0.5183136737
| 21> O -1.5801347296 2.1014521126 0.1140022791
| 22> O -3.0442539747 -1.8505026187 0.3230927867
| 23> H -2.4982370327 -0.821323994 -1.3841780039
| 24> H -3.2704516045 0.1066109537 -0.0704845285
| 25> H 1.6030300134 -2.3884720137 -1.0539840433
| 26> H 3.3943530602 -0.4258182751 0.3928692406
| 27> H 0.498696275 3.179664801 -0.4767294364
| 28> H -1.6402317595 2.1055215713 1.0777530003
| 29> H -2.3859904933 -2.5454393124 0.1996469114
| 30> *
| 31>
| 32>                          ****END OF INPUT****

CARTESIAN COORDINATES (ANGSTROEM)
---------------------------------
  C     -2.561903   -0.692514   -0.295270
  C     -1.172395   -0.308122    0.225802
  H     -1.191016   -0.294131    1.330020
  C     -0.722104    1.064440   -0.291475
  H     -0.762503    1.066477   -1.386666
  C      0.724931    1.366588    0.145880
  H      0.748013    1.525337    1.239117
  C      1.652423    0.192063   -0.174027
  H      1.803219    0.160945   -1.265661
  C      1.025687   -1.143475    0.287865
  H      1.025372   -1.165378    1.391491
  O     -0.275653   -1.311508   -0.212240
  O      1.796668   -2.218338   -0.123371
  O      2.869856    0.379376    0.493249
  O      1.192855    2.508193   -0.518314
  O     -1.580135    2.101452    0.114002
  O     -3.044254   -1.850503    0.323093
  H     -2.498237   -0.821324   -1.384178
  H     -3.270452    0.106611   -0.070485
  H      1.603030   -2.388472   -1.053984
  H      3.394353   -0.425818    0.392869
  H      0.498696    3.179665   -0.476729
  H     -1.640232    2.105522    1.077753
  H     -2.385990   -2.545439    0.199647

 Total Charge           Charge          ....    0
 Multiplicity           Mult            ....    1
 Number of Electrons    NEL             ....   96
 Basis Dimension        Dim             ....  192

ORBITAL ENERGIES
----------------

  NO   OCC          E(Eh)            E(eV)
   0   2.0000     -18.790722      -511.3215
   1   2.0000     -18.776541      -510.9357
   2   2.0000     -18.775983      -510.9205
   3   2.0000     -18.751829      -510.2632
   4   2.0000     -18.749588      -510.2022
   5   2.0000     -18.748419      -510.1704
   6   2.0000      -9.996413      -272.0162
   7   2.0000      -9.955569      -270.9048
   8   2.0000      -9.952951      -270.8336
   9   2.0000      -9.947805      -270.6935
  10   2.0000      -9.944857      -270.6133
  11   2.0000      -9.937656      -270.4174
  12   2.0000      -1.001545       -27.2534
  13   2.0000      -0.959713       -26.1151
  14   2.0000      -0.943565       -25.6757
  15   2.0000      -0.932934       -25.3864
  16   2.0000      -0.924102       -25.1461
  17   2.0000      -0.918765       -25.0009
  18   2.0000      -0.711124       -19.3507
  19   2.0000      -0.696768       -18.9600
  20   2.0000      -0.620741       -16.8912
  21   2.0000      -0.600377       -16.3371
  22   2.0000      -0.566171       -15.4063
  23   2.0000      -0.547019       -14.8851
  24   2.0000      -0.515246       -14.0206
  25   2.0000      -0.494579       -13.4582
  26   2.0000      -0.483503       -13.1568
  27   2.0000      -0.467348       -12.7172
  28   2.0000      -0.452554       -12.3146
  29   2.0000      -0.449441       -12.2299
  30   2.0000      -0.421977       -11.4826
  31   2.0000      -0.399829       -10.8799
  32   2.0000      -0.394372       -10.7314
  33   2.0000      -0.382318       -10.4034
  34   2.0000      -0.367784       -10.0079
  35   2.0000      -0.359998        -9.7960
  36   2.0000      -0.334670        -9.1068
  37   2.0000      -0.329295        -8.9606
  38   2.0000      -0.309441        -8.4203
  39   2.0000      -0.301627        -8.2077
  40   2.0000      -0.291161        -7.9229
  41   2.0000      -0.286951        -7.8083
  42   2.0000      -0.267035        -7.2664
  43   2.0000      -0.247272        -6.7286
  44   2.0000      -0.243381        -6.6227
  45   2.0000      -0.228593        -6.2203
  46   2.0000      -0.222848        -6.0640
  47   2.0000      -0.204166        -5.5557
  48   0.0000       0.004192         0.1141
  49   0.0000       0.021045         0.5727
  50   0.0000       0.030002         0.8164
  51   0.0000       0.043805         1.1920
  52   0.0000       0.053286         1.4500

MULLIKEN ATOMIC CHARGES
-----------------------
   0 C :    0.115150
   1 C :   -0.041270
   2 H :    0.047739
   3 C :    0.023551
   4 H :    0.070083
   5 C :    0.096048
   6 H :    0.040646
   7 C :    0.059960
   8 H :    0.044963
   9 C :    0.163423
  10 H :    0.059208
  11 O :   -0.314089
  12 O :   -0.385080
  13 O :   -0.401695
  14 O :   -0.398988
  15 O :   -0.413577
  16 O :   -0.428132
  17 H :    0.070471
  18 H :    0.086850
  19 H :    0.303734
  20 H :    0.300075
  21 H :    0.299528
  22 H :    0.302433
  23 H :    0.298967
Sum of atomic charges:    0.0000000

LOEWDIN ATOMIC CHARGES
----------------------
   0 C :   -0.124798
   1 C :   -0.083690
   2 H :    0.100098
   3 C :   -0.083885
   4 H :    0.120219
   5 C :   -0.072673
   6 H :    0.098767
   7 C :   -0.085926
   8 H :    0.102942
   9 C :   -0.007611
  10 H :    0.098979
  11 O :   -0.153511
  12 O :   -0.293138
  13 O :   -0.310701
  14 O :   -0.313262
  15 O :   -0.304180
  16 O :   -0.331703
  17 H :    0.102208
  18 H :    0.118449
  19 H :    0.289315
  20 H :    0.283447
  21 H :    0.281538
  22 H :    0.287096
  23 H :    0.282019

  Mayer bond orders larger than 0.100000
B(  0-C ,  1-C ) :   1.0467 B(  0-C , 16-O ) :   1.0846 B(  0-C , 17-H ) :   0.9041
B(  0-C , 18-H ) :   0.9121 B(  1-C ,  2-H ) :   0.8685 B(  1-C ,  3-C ) :   0.9802
B(  1-C , 11-O ) :   0.9685 B(  3-C ,  4-H ) :   0.8623 B(  3-C ,  5-C ) :   1.0089
B(  3-C , 15-O ) :   1.0105 B(  5-C ,  6-H ) :   0.8670 B(  5-C ,  7-C ) :   0.9993
B(  5-C , 14-O ) :   1.1095 B(  7-C ,  8-H ) :   0.8609 B(  7-C ,  9-C ) :   0.9853
B(  7-C , 13-O ) :   1.0896 B(  9-C , 10-H ) :   0.8784 B(  9-C , 11-O ) :   1.0047
B(  9-C , 12-O ) :   1.1151 B( 12-O , 19-H ) :   0.8435 B( 13-O , 20-H ) :   0.8364
B( 14-O , 21-H ) :   0.8351 B( 15-O , 22-H ) :   0.8449 B( 16-O , 23-H ) :   0.8461

Dispersion correction           -0.023620150
FINAL SINGLE POINT ENERGY      -685.698267426486

DIPOLE MOMENT
-------------

Method             : SCF
Type of density    : Electron Density
Multiplicity       :   1
Irrep              :   0
Energy             :  -685.8287418549580252 Eh
Relativity type    :
Basis              : AO
                                X                 Y                 Z
Electronic contribution:      2.398597385      -0.713690745      -0.086933891
Nuclear contribution   :     -2.496093550       0.467034488      -0.005254235
                        -----------------------------------------
Total Dipole Moment    :     -0.097496165      -0.246656258      -0.092188126
                        -----------------------------------------
Magnitude (a.u.)       :      0.280790780
Magnitude (Debye)      :      0.713713443

Rotational constants in cm-1:             0.038790             0.026149             0.016477
Rotational constants in MHz :          1162.888785           783.934531           493.957952

                             ****ORCA TERMINATED NORMALLY****
TOTAL RUN TIME: 0 days 0 hours 0 minutes 13 seconds 720 msec
