                         Program Version 6.0.1  -  RELEASE   -
|  1> ! r2scan-3c def2/J RI DEFGRID2 scfconv6 printgap
|  2> %output
|  3>     printlevel normal
|  4> end
|  5> * xyz 0 1
|  6> C -0.2012106562 -2.3173013561 -0.1285172549
|  7> C 0.4969555597 -1.0018362572 -0.0478527387
|  8> C 1.8891934611 -0.9646555911 -0.0455598483
|  9> C 2.5901025253 0.2244828093 0.0218895165
| 10> C 1.9111811495 1.4328201911 0.0797889197
| 11> C 0.5332941244 1.4309815722 0.0694175799
| 12> C -0.1697227717 0.2288428996 0.0119640941
| 13> N -1.6063650138 0.3267842251 0.0140813846
| 14> O -2.0903239972 1.4039664995 -0.2707975641
| 15> O -2.2595545653 -0.6539171676 0.303631432
| 16> H -0.7017877244 -2.5371637086 0.8134708801
| 17> H -0.9719013005 -2.3100725956 -0.8969893706
| 18> H 0.5111187868 -3.10994607 -0.3436995047
| 19> H 2.4308460243 -1.8975023308 -0.0973078496
| 20> H 3.6695182026 0.2102928662 0.0274401608
| 21> H 2.4522896395 2.3642928314 0.1322609715
| 22> H -0.0279926675 2.3521440753 0.1111372755
| 23> *
| 24>
| 25>                          ****END OF INPUT****

CARTESIAN COORDINATES (ANGSTROEM)
---------------------------------
  C     -0.201211   -2.317301   -0.128517
  C      0.496956   -1.001836   -0.047853
  C      1.889193   -0.964656   -0.045560
  C      2.590103    0.224483    0.021890
  C      1.911181    1.432820    0.079789
  C      0.533294    1.430982    0.069418
  C     -0.169723    0.228843    0.011964
  N     -1.606365    0.326784    0.014081
  O     -2.090324    1.403966   -0.270798
  O     -2.259555   -0.653917    0.303631
  H     -0.701788   -2.537164    0.813471
  H     -0.971901   -2.310073   -0.896989
  H      0.511119   -3.109946   -0.343700
  H      2.430846   -1.897502   -0.097308
  H      3.669518    0.210293    0.027440
  H      2.452290    2.364293    0.132261
  H     -0.027993    2.352144    0.111137

 Total Charge           Charge          ....    0
 Multiplicity           Mult            ....    1
 Number of Electrons    NEL             ....   72
 Basis Dimension        Dim             ....  240

ORBITAL ENERGIES
----------------

  NO   OCC          E(Eh)            E(eV)
   0   2.0000     -18.980326      -516.4809
   1   2.0000     -18.977510      -516.4043
   2   2.0000     -14.392730      -391.6461
   3   2.0000     -10.100314      -274.8435
   4   2.0000     -10.081223      -274.3240
   5   2.0000     -10.063929      -273.8534
   6   2.0000     -10.063542      -273.8429
   7   2.0000     -10.058671      -273.7103
   8   2.0000     -10.058552      -273.7071
   9   2.0000     -10.039298      -273.1832
  10   2.0000      -1.205568       -32.8052
  11   2.0000      -1.026416       -27.9302
  12   2.0000      -0.867094       -23.5948
  13   2.0000      -0.784102       -21.3365
  14   2.0000      -0.766387       -20.8545
  15   2.0000      -0.694938       -18.9102
  16   2.0000      -0.657148       -17.8819
  17   2.0000      -0.594054       -16.1650
  18   2.0000      -0.566989       -15.4286
  19   2.0000      -0.523079       -14.2337
  20   2.0000      -0.512766       -13.9531
  21   2.0000      -0.485449       -13.2097
  22   2.0000      -0.476240       -12.9591
  23   2.0000      -0.453331       -12.3358
  24   2.0000      -0.429736       -11.6937
  25   2.0000      -0.406870       -11.0715
  26   2.0000      -0.404432       -11.0052
  27   2.0000      -0.374984       -10.2038
  28   2.0000      -0.357573        -9.7301
  29   2.0000      -0.350869        -9.5476
  30   2.0000      -0.338475        -9.2104
  31   2.0000      -0.289231        -7.8704
  32   2.0000      -0.276284        -7.5181
  33   2.0000      -0.270376        -7.3573
  34   2.0000      -0.254914        -6.9365
  35   2.0000      -0.250867        -6.8264
  36   0.0000      -0.116594        -3.1727
  37   0.0000      -0.053665        -1.4603
  38   0.0000      -0.032950        -0.8966
  39   0.0000       0.068160         1.8547
  40   0.0000       0.075874         2.0646

MULLIKEN ATOMIC CHARGES
-----------------------
   0 C :   -0.536540
   1 C :    0.024255
   2 C :   -0.191507
   3 C :   -0.114358
   4 C :   -0.140950
   5 C :   -0.194825
   6 C :    0.087729
   7 N :    0.353501
   8 O :   -0.220623
   9 O :   -0.216538
  10 H :    0.189374
  11 H :    0.177018
  12 H :    0.143704
  13 H :    0.153361
  14 H :    0.150626
  15 H :    0.153648
  16 H :    0.182125
Sum of atomic charges:   -0.0000000

LOEWDIN ATOMIC CHARGES
----------------------
   0 C :   -0.359877
   1 C :   -0.019418
   2 C :   -0.155289
   3 C :   -0.129419
   4 C :   -0.159898
   5 C :   -0.068365
   6 C :    0.193334
   7 N :   -0.493198
   8 O :   -0.023247
   9 O :   -0.026221
  10 H :    0.184676
  11 H :    0.181962
  12 H :    0.155325
  13 H :    0.173720
  14 H :    0.171678
  15 H :    0.172998
  16 H :    0.201238

  Mayer bond orders larger than 0.100000
B(  0-C ,  1-C ) :   0.8705 B(  0-C , 10-H ) :   0.9528 B(  0-C , 11-H ) :   0.9695
B(  0-C , 12-H ) :   0.9807 B(  1-C ,  2-C ) :   1.3434 B(  1-C ,  6-C ) :   1.4297
B(  2-C ,  3-C ) :   1.4375 B(  2-C , 13-H ) :   0.9319 B(  3-C ,  4-C ) :   1.3796
B(  3-C , 14-H ) :   0.9457 B(  4-C ,  5-C ) :   1.3529 B(  4-C , 15-H ) :   0.9549
B(  5-C ,  6-C ) :   1.3657 B(  5-C , 16-H ) :   0.9376 B(  6-C ,  7-N ) :   0.9548
B(  7-N ,  8-O ) :   1.8375 B(  7-N ,  9-O ) :   1.7910 B(  8-O ,  9-O ) :   0.2517

Dispersion correction           -0.006031786
FINAL SINGLE POINT ENERGY      -475.971866994385

DIPOLE MOMENT
-------------

Method             : SCF
Type of density    : Electron Density
Multiplicity       :   1
Irrep              :   0
Energy             :  -475.9767665152785980 Eh
Relativity type    :
Basis              : AO
                                X                 Y                 Z
Electronic contribution:     -5.179030846       4.296250665       0.242442729
Nuclear contribution   :      6.833666759      -4.610365458      -0.237438789
                        -----------------------------------------
Total Dipole Moment    :      1.654635913      -0.314114794       0.005003939
                        -----------------------------------------
Magnitude (a.u.)       :      1.684195104
Magnitude (Debye)      :      4.280883746

Rotational constants in cm-1:             0.076879             0.042759             0.027902
Rotational constants in MHz :          2304.786714          1281.871327           836.495363

                             ****ORCA TERMINATED NORMALLY****
TOTAL RUN TIME: 0 days 0 hours 0 minutes 22 seconds 403 msec
