                         Program Version 6.0.1  -  RELEASE   -
|  1> ! r2scan-3c def2/J RI DEFGRID2 scfconv6 printgap
|  2> %output
|  3>     printlevel normal
|  4> end
|  5> * xyz 0 1
|  6> C -2.8092425279 0.799987959 0.6907863156
|  7> O -2.101482988 0.5113335663 -0.4927510909
|  8> C -0.8316212394 -0.000488327 -0.269519148
|  9> C -0.6386275897 -1.3743713012 -0.204037026
| 10> C 0.6417043208 -1.8681087837 -0.0232557437
| 11> C 1.7184385875 -1.0125750916 0.0962361192
| 12> C 1.5318609052 0.3690029461 0.0334006684
| 13> C 0.2422771589 0.8658037135 -0.1478911615
| 14> N 2.5924217075 1.2325335413 0.2205287339
| 15> H -2.2863759416 1.5487449088 1.2975180657
| 16> H -2.9581838399 -0.1013780056 1.2969190522
| 17> H -3.7761324458 1.1934443809 0.3816575953
| 18> H -1.4835934472 -2.0368969583 -0.3074032929
| 19> H 0.8018198422 -2.9353304948 0.0226278859
| 20> H 2.7149291965 -1.4059486409 0.236992259
| 21> H 0.074897753 1.9316833725 -0.2062146464
| 22> H 3.5104357019 0.8517281952 0.0577714326
| 23> H 2.464923409 2.172979974 -0.1166390833
| 24> *
| 25>
| 26>                          ****END OF INPUT****

CARTESIAN COORDINATES (ANGSTROEM)
---------------------------------
  C     -2.809243    0.799988    0.690786
  O     -2.101483    0.511334   -0.492751
  C     -0.831621   -0.000488   -0.269519
  C     -0.638628   -1.374371   -0.204037
  C      0.641704   -1.868109   -0.023256
  C      1.718439   -1.012575    0.096236
  C      1.531861    0.369003    0.033401
  C      0.242277    0.865804   -0.147891
  N      2.592422    1.232534    0.220529
  H     -2.286376    1.548745    1.297518
  H     -2.958184   -0.101378    1.296919
  H     -3.776132    1.193444    0.381658
  H     -1.483593   -2.036897   -0.307403
  H      0.801820   -2.935330    0.022628
  H      2.714929   -1.405949    0.236992
  H      0.074898    1.931683   -0.206215
  H      3.510436    0.851728    0.057771
  H      2.464923    2.172980   -0.116639

 Total Charge           Charge          ....    0
 Multiplicity           Mult            ....    1
 Number of Electrons    NEL             ....   66
 Basis Dimension        Dim             ....  226

ORBITAL ENERGIES
----------------

  NO   OCC          E(Eh)            E(eV)
   0   2.0000     -18.961258      -515.9621
   1   2.0000     -14.170254      -385.5922
   2   2.0000     -10.082764      -274.3659
   3   2.0000     -10.075095      -274.1573
   4   2.0000     -10.073571      -274.1158
   5   2.0000     -10.031755      -272.9779
   6   2.0000     -10.023646      -272.7573
   7   2.0000     -10.023381      -272.7500
   8   2.0000     -10.017627      -272.5935
   9   2.0000      -1.011291       -27.5186
  10   2.0000      -0.892698       -24.2915
  11   2.0000      -0.803697       -21.8697
  12   2.0000      -0.714665       -19.4470
  13   2.0000      -0.696992       -18.9661
  14   2.0000      -0.649395       -17.6709
  15   2.0000      -0.578529       -15.7426
  16   2.0000      -0.563384       -15.3305
  17   2.0000      -0.498483       -13.5644
  18   2.0000      -0.488488       -13.2924
  19   2.0000      -0.453528       -12.3411
  20   2.0000      -0.432785       -11.7767
  21   2.0000      -0.423669       -11.5286
  22   2.0000      -0.422475       -11.4961
  23   2.0000      -0.392845       -10.6899
  24   2.0000      -0.386179       -10.5085
  25   2.0000      -0.357192        -9.7197
  26   2.0000      -0.338752        -9.2179
  27   2.0000      -0.326658        -8.8888
  28   2.0000      -0.308770        -8.4020
  29   2.0000      -0.280550        -7.6342
  30   2.0000      -0.232842        -6.3360
  31   2.0000      -0.222804        -6.0628
  32   2.0000      -0.185441        -5.0461
  33   0.0000      -0.024564        -0.6684
  34   0.0000      -0.008080        -0.2199
  35   0.0000       0.070506         1.9186
  36   0.0000       0.079208         2.1554
  37   0.0000       0.089573         2.4374

MULLIKEN ATOMIC CHARGES
-----------------------
   0 C :   -0.271000
   1 O :   -0.235278
   2 C :    0.232348
   3 C :   -0.310297
   4 C :   -0.099438
   5 C :   -0.384898
   6 C :    0.552671
   7 C :   -0.481287
   8 N :   -0.531300
   9 H :    0.136938
  10 H :    0.139846
  11 H :    0.145349
  12 H :    0.158848
  13 H :    0.147294
  14 H :    0.137785
  15 H :    0.149506
  16 H :    0.256035
  17 H :    0.256877
Sum of atomic charges:   -0.0000000

LOEWDIN ATOMIC CHARGES
----------------------
   0 C :   -0.051029
   1 O :   -0.710721
   2 C :    0.176399
   3 C :   -0.172510
   4 C :   -0.146815
   5 C :   -0.175416
   6 C :    0.130309
   7 C :   -0.133065
   8 N :   -0.605816
   9 H :    0.159198
  10 H :    0.160273
  11 H :    0.173596
  12 H :    0.177079
  13 H :    0.167864
  14 H :    0.167817
  15 H :    0.179488
  16 H :    0.251686
  17 H :    0.251663

  Mayer bond orders larger than 0.100000
B(  0-C ,  1-O ) :   0.8713 B(  0-C ,  9-H ) :   0.9653 B(  0-C , 10-H ) :   0.9657
B(  0-C , 11-H ) :   0.9738 B(  1-O ,  2-C ) :   0.9699 B(  2-C ,  3-C ) :   1.4432
B(  2-C ,  7-C ) :   1.4866 B(  3-C ,  4-C ) :   1.3767 B(  3-C , 12-H ) :   0.9395
B(  4-C ,  5-C ) :   1.4379 B(  4-C , 13-H ) :   0.9451 B(  5-C ,  6-C ) :   1.3332
B(  5-C , 14-H ) :   0.9471 B(  6-C ,  7-C ) :   1.2625 B(  6-C ,  8-N ) :   0.9366
B(  7-C , 15-H ) :   0.9188 B(  8-N , 16-H ) :   0.9271 B(  8-N , 17-H ) :   0.9269

Dispersion correction           -0.005743384
FINAL SINGLE POINT ENERGY      -402.025067822375

DIPOLE MOMENT
-------------

Method             : SCF
Type of density    : Electron Density
Multiplicity       :   1
Irrep              :   0
Energy             :  -402.0290563067791254 Eh
Relativity type    :
Basis              : AO
                                X                 Y                 Z
Electronic contribution:      1.489246729      -0.808923161      -2.256769948
Nuclear contribution   :     -0.896242446       1.157991797       2.492469427
                        -----------------------------------------
Total Dipole Moment    :      0.593004283       0.349068636       0.235699480
                        -----------------------------------------
Magnitude (a.u.)       :      0.727363209
Magnitude (Debye)      :      1.848810350

Rotational constants in cm-1:             0.103225             0.040553             0.030717
Rotational constants in MHz :          3094.613379          1215.751981           920.885440

                             ****ORCA TERMINATED NORMALLY****
TOTAL RUN TIME: 0 days 0 hours 0 minutes 45 seconds 287 msec
