                         Program Version 6.0.1  -  RELEASE   -
|  1> ! r2scan-3c def2/J RI DEFGRID2 scfconv6 printgap
|  2> %output
|  3>     printlevel normal
|  4> end
|  5> * xyz 0 1
|  6> C 2.8468337036 0.7111515751 -0.0487449168
|  7> C 1.9328003202 -0.5021357956 0.0470775907
|  8> C 0.4574018215 -0.2103281659 0.017216567
|  9> C -0.0790872039 1.0624461133 -0.1515871014
| 10> C -1.4562541502 1.2128825924 -0.1655787076
| 11> C -2.2583204446 0.0945584714 -0.0121283138
| 12> C -1.6297185174 -1.1306881039 0.1495123946
| 13> N -0.319703576 -1.2797802938 0.164403158
| 14> H 2.7010352686 1.2368607125 -0.9899058618
| 15> H 3.8852869986 0.3917162421 0.0015464329
| 16> H 2.6648614141 1.4014033866 0.7722526198
| 17> H 2.1386276381 -1.0489114059 0.9708428195
| 18> H 2.1472561889 -1.1911292096 -0.7744545127
| 19> H 0.5584730525 1.9233697165 -0.2700830885
| 20> H -1.8958290018 2.192140005 -0.294822693
| 21> H -3.3345583382 0.169595191 -0.0172891224
| 22> H -2.2016196199 -2.0417658914 0.2743518338
| 23> *
| 24>
| 25>                          ****END OF INPUT****

CARTESIAN COORDINATES (ANGSTROEM)
---------------------------------
  C      2.846834    0.711152   -0.048745
  C      1.932800   -0.502136    0.047078
  C      0.457402   -0.210328    0.017217
  C     -0.079087    1.062446   -0.151587
  C     -1.456254    1.212883   -0.165579
  C     -2.258320    0.094558   -0.012128
  C     -1.629719   -1.130688    0.149512
  N     -0.319704   -1.279780    0.164403
  H      2.701035    1.236861   -0.989906
  H      3.885287    0.391716    0.001546
  H      2.664861    1.401403    0.772253
  H      2.138628   -1.048911    0.970843
  H      2.147256   -1.191129   -0.774455
  H      0.558473    1.923370   -0.270083
  H     -1.895829    2.192140   -0.294823
  H     -3.334558    0.169595   -0.017289
  H     -2.201620   -2.041766    0.274352

 Total Charge           Charge          ....    0
 Multiplicity           Mult            ....    1
 Number of Electrons    NEL             ....   58
 Basis Dimension        Dim             ....  202

ORBITAL ENERGIES
----------------

  NO   OCC          E(Eh)            E(eV)
   0   2.0000     -14.147660      -384.9774
   1   2.0000     -10.071786      -274.0672
   2   2.0000     -10.063631      -273.8453
   3   2.0000     -10.051185      -273.5067
   4   2.0000     -10.039585      -273.1910
   5   2.0000     -10.039320      -273.1838
   6   2.0000     -10.031865      -272.9809
   7   2.0000     -10.023957      -272.7657
   8   2.0000      -0.913833       -24.8667
   9   2.0000      -0.771859       -21.0034
  10   2.0000      -0.764557       -20.8047
  11   2.0000      -0.704154       -19.1610
  12   2.0000      -0.622457       -16.9379
  13   2.0000      -0.594293       -16.1715
  14   2.0000      -0.559033       -15.2121
  15   2.0000      -0.485409       -13.2086
  16   2.0000      -0.456269       -12.4157
  17   2.0000      -0.428219       -11.6524
  18   2.0000      -0.427060       -11.6209
  19   2.0000      -0.405035       -11.0216
  20   2.0000      -0.372689       -10.1414
  21   2.0000      -0.370702       -10.0873
  22   2.0000      -0.355855        -9.6833
  23   2.0000      -0.327583        -8.9140
  24   2.0000      -0.322520        -8.7762
  25   2.0000      -0.317221        -8.6320
  26   2.0000      -0.267238        -7.2719
  27   2.0000      -0.237411        -6.4603
  28   2.0000      -0.219455        -5.9717
  29   0.0000      -0.051347        -1.3972
  30   0.0000      -0.034249        -0.9320
  31   0.0000       0.081754         2.2246
  32   0.0000       0.099689         2.7127
  33   0.0000       0.108353         2.9484

MULLIKEN ATOMIC CHARGES
-----------------------
   0 C :   -0.497564
   1 C :   -0.351032
   2 C :    0.240879
   3 C :   -0.185758
   4 C :   -0.191824
   5 C :   -0.098924
   6 C :   -0.113617
   7 N :   -0.178688
   8 H :    0.150467
   9 H :    0.152107
  10 H :    0.155433
  11 H :    0.167495
  12 H :    0.167221
  13 H :    0.153890
  14 H :    0.147666
  15 H :    0.149249
  16 H :    0.133000
Sum of atomic charges:   -0.0000000

LOEWDIN ATOMIC CHARGES
----------------------
   0 C :   -0.422378
   1 C :   -0.257854
   2 C :    0.137333
   3 C :   -0.147763
   4 C :   -0.121672
   5 C :   -0.158756
   6 C :    0.085351
   7 N :   -0.618015
   8 H :    0.151878
   9 H :    0.154793
  10 H :    0.152820
  11 H :    0.175464
  12 H :    0.174817
  13 H :    0.172657
  14 H :    0.168535
  15 H :    0.169156
  16 H :    0.183634

  Mayer bond orders larger than 0.100000
B(  0-C ,  1-C ) :   0.8409 B(  0-C ,  8-H ) :   0.9779 B(  0-C ,  9-H ) :   0.9699
B(  0-C , 10-H ) :   0.9851 B(  1-C ,  2-C ) :   0.9678 B(  1-C , 11-H ) :   0.9659
B(  1-C , 12-H ) :   0.9528 B(  2-C ,  3-C ) :   1.4440 B(  2-C ,  7-N ) :   1.2654
B(  3-C ,  4-C ) :   1.4163 B(  3-C , 13-H ) :   0.9138 B(  4-C ,  5-C ) :   1.4022
B(  4-C , 14-H ) :   0.9548 B(  5-C ,  6-C ) :   1.3508 B(  5-C , 15-H ) :   0.9363
B(  6-C ,  7-N ) :   1.4980 B(  6-C , 16-H ) :   0.9820

Dispersion correction           -0.005195299
FINAL SINGLE POINT ENERGY      -326.818663017144

DIPOLE MOMENT
-------------

Method             : SCF
Type of density    : Electron Density
Multiplicity       :   1
Irrep              :   0
Energy             :  -326.8209136045425112 Eh
Relativity type    :
Basis              : AO
                                X                 Y                 Z
Electronic contribution:     -6.338721058      -2.186474516       0.217566705
Nuclear contribution   :      6.249764598       2.838709633      -0.306406537
                        -----------------------------------------
Total Dipole Moment    :     -0.088956460       0.652235117      -0.088839832
                        -----------------------------------------
Magnitude (a.u.)       :      0.664241233
Magnitude (Debye)      :      1.688367038

Rotational constants in cm-1:             0.166361             0.051288             0.039787
Rotational constants in MHz :          4987.362595          1537.586768          1192.779388

                             ****ORCA TERMINATED NORMALLY****
TOTAL RUN TIME: 0 days 0 hours 0 minutes 16 seconds 709 msec
