                         Program Version 6.0.1  -  RELEASE   -
|  1> ! pbe def2-sv(p) def2/J RI DEFGRID1 loosescf d4 GCP(DFT/SV(P)) printgap
|  2> %output
|  3>     printlevel normal
|  4> end
|  5> * xyz 0 1
|  6> C -3.4079923607 0.5689243451 -0.4088914322
|  7> C -2.1549917989 0.2788717842 0.4141668393
|  8> H -2.4354379752 0.2816670425 1.4721495657
|  9> C -1.0741955733 1.3478963041 0.1992241575
| 10> C -0.1300171044 0.9790724996 -0.9425390752
| 11> C 0.677238349 -0.2894572093 -0.6179780061
| 12> H 0.7760052506 -0.879013616 -1.5403594714
| 13> C -0.1174082772 -1.1868360876 0.3142980308
| 14> O 0.3817442773 -1.9068336885 1.1417953582
| 15> C -1.6040598611 -1.1172955622 0.0648785694
| 16> C 2.1118280741 -0.0631127998 -0.1015958683
| 17> C 3.0243909996 0.4546593158 -1.211035248
| 18> C 2.1727295343 0.8559215432 1.1150522168
| 19> H -4.1390656219 -0.2265599152 -0.2828987402
| 20> H -3.8633146572 1.5044518901 -0.0915045273
| 21> H -3.1647089678 0.6475038137 -1.4664451122
| 22> H -1.5493444258 2.3079828623 -0.0117852364
| 23> H -0.4938911355 1.4599813913 1.115224772
| 24> H -0.7149303425 0.8261820947 -1.851706715
| 25> H 0.5507894975 1.8077447718 -1.1371776769
| 26> H -1.7737269261 -1.3134605292 -0.995825762
| 27> H -2.1122942571 -1.8863198389 0.6472404512
| 28> H 2.4771222943 -1.0479245386 0.2107870278
| 29> H 4.045687231 0.5351128757 -0.8464342284
| 30> H 2.7106471603 1.4393781012 -1.5510391119
| 31> H 3.0197482914 -0.2203039481 -2.0644155104
| 32> H 3.1957955222 0.9124428765 1.4806784521
| 33> H 1.5511389521 0.4644966769 1.9163783828
| 34> H 1.8479318028 1.8640169291 0.867671939
| 35> *
| 36>
| 37>                          ****END OF INPUT****

CARTESIAN COORDINATES (ANGSTROEM)
---------------------------------
  C     -3.407992    0.568924   -0.408891
  C     -2.154992    0.278872    0.414167
  H     -2.435438    0.281667    1.472150
  C     -1.074196    1.347896    0.199224
  C     -0.130017    0.979072   -0.942539
  C      0.677238   -0.289457   -0.617978
  H      0.776005   -0.879014   -1.540359
  C     -0.117408   -1.186836    0.314298
  O      0.381744   -1.906834    1.141795
  C     -1.604060   -1.117296    0.064879
  C      2.111828   -0.063113   -0.101596
  C      3.024391    0.454659   -1.211035
  C      2.172730    0.855922    1.115052
  H     -4.139066   -0.226560   -0.282899
  H     -3.863315    1.504452   -0.091505
  H     -3.164709    0.647504   -1.466445
  H     -1.549344    2.307983   -0.011785
  H     -0.493891    1.459981    1.115225
  H     -0.714930    0.826182   -1.851707
  H      0.550789    1.807745   -1.137178
  H     -1.773727   -1.313461   -0.995826
  H     -2.112294   -1.886320    0.647240
  H      2.477122   -1.047925    0.210787
  H      4.045687    0.535113   -0.846434
  H      2.710647    1.439378   -1.551039
  H      3.019748   -0.220304   -2.064416
  H      3.195796    0.912443    1.480678
  H      1.551139    0.464497    1.916378
  H      1.847932    1.864017    0.867672

 Total Charge           Charge          ....    0
 Multiplicity           Mult            ....    1
 Number of Electrons    NEL             ....   86
 Basis Dimension        Dim             ....  190

ORBITAL ENERGIES
----------------

  NO   OCC          E(Eh)            E(eV)
   0   2.0000     -18.734616      -509.7948
   1   2.0000      -9.967620      -271.2327
   2   2.0000      -9.906816      -269.5782
   3   2.0000      -9.898376      -269.3485
   4   2.0000      -9.894348      -269.2389
   5   2.0000      -9.892449      -269.1872
   6   2.0000      -9.888795      -269.0878
   7   2.0000      -9.888711      -269.0855
   8   2.0000      -9.880719      -268.8680
   9   2.0000      -9.872623      -268.6477
  10   2.0000      -9.869909      -268.5739
  11   2.0000      -0.937743       -25.5173
  12   2.0000      -0.768326       -20.9072
  13   2.0000      -0.727919       -19.8077
  14   2.0000      -0.674870       -18.3642
  15   2.0000      -0.655547       -17.8383
  16   2.0000      -0.615697       -16.7540
  17   2.0000      -0.609147       -16.5757
  18   2.0000      -0.562211       -15.2985
  19   2.0000      -0.515699       -14.0329
  20   2.0000      -0.497206       -13.5297
  21   2.0000      -0.453596       -12.3430
  22   2.0000      -0.447520       -12.1776
  23   2.0000      -0.429902       -11.6982
  24   2.0000      -0.410965       -11.1829
  25   2.0000      -0.401701       -10.9309
  26   2.0000      -0.388154       -10.5622
  27   2.0000      -0.374999       -10.2043
  28   2.0000      -0.359935        -9.7943
  29   2.0000      -0.350951        -9.5499
  30   2.0000      -0.348860        -9.4930
  31   2.0000      -0.346718        -9.4347
  32   2.0000      -0.341004        -9.2792
  33   2.0000      -0.335741        -9.1360
  34   2.0000      -0.330142        -8.9836
  35   2.0000      -0.316479        -8.6118
  36   2.0000      -0.299720        -8.1558
  37   2.0000      -0.292882        -7.9697
  38   2.0000      -0.288307        -7.8452
  39   2.0000      -0.278380        -7.5751
  40   2.0000      -0.271717        -7.3938
  41   2.0000      -0.267049        -7.2668
  42   2.0000      -0.188952        -5.1417
  43   0.0000      -0.047229        -1.2852
  44   0.0000       0.025369         0.6903
  45   0.0000       0.042479         1.1559
  46   0.0000       0.050323         1.3694
  47   0.0000       0.063186         1.7194

MULLIKEN ATOMIC CHARGES
-----------------------
   0 C :   -0.243177
   1 C :   -0.202677
   2 H :    0.080663
   3 C :   -0.115634
   4 C :   -0.126588
   5 C :   -0.146073
   6 H :    0.091137
   7 C :   -0.014131
   8 O :   -0.149165
   9 C :   -0.042355
  10 C :   -0.142925
  11 C :   -0.235882
  12 C :   -0.264404
  13 H :    0.105131
  14 H :    0.103655
  15 H :    0.097544
  16 H :    0.081880
  17 H :    0.092594
  18 H :    0.074786
  19 H :    0.099541
  20 H :    0.081697
  21 H :    0.087427
  22 H :    0.082506
  23 H :    0.099774
  24 H :    0.093791
  25 H :    0.094850
  26 H :    0.099512
  27 H :    0.118023
  28 H :    0.098497
Sum of atomic charges:   -0.0000000

LOEWDIN ATOMIC CHARGES
----------------------
   0 C :   -0.329846
   1 C :   -0.142429
   2 H :    0.121966
   3 C :   -0.223390
   4 C :   -0.216630
   5 C :   -0.163057
   6 H :    0.141265
   7 C :    0.047933
   8 O :   -0.118025
   9 C :   -0.236445
  10 C :   -0.147072
  11 C :   -0.329284
  12 C :   -0.332619
  13 H :    0.120286
  14 H :    0.119169
  15 H :    0.115686
  16 H :    0.119810
  17 H :    0.121819
  18 H :    0.117719
  19 H :    0.121621
  20 H :    0.133579
  21 H :    0.129886
  22 H :    0.123533
  23 H :    0.119627
  24 H :    0.113340
  25 H :    0.115789
  26 H :    0.120889
  27 H :    0.121074
  28 H :    0.113807

  Mayer bond orders larger than 0.100000
B(  0-C ,  1-C ) :   1.1145 B(  0-C , 13-H ) :   0.9483 B(  0-C , 14-H ) :   0.9456
B(  0-C , 15-H ) :   0.9454 B(  1-C ,  2-H ) :   0.8983 B(  1-C ,  3-C ) :   1.0979
B(  1-C ,  9-C ) :   1.0761 B(  3-C ,  4-C ) :   1.1852 B(  3-C , 16-H ) :   0.9137
B(  3-C , 17-H ) :   0.8913 B(  4-C ,  5-C ) :   1.0533 B(  4-C , 18-H ) :   0.8884
B(  4-C , 19-H ) :   0.9086 B(  5-C ,  6-H ) :   0.8508 B(  5-C ,  7-C ) :   0.9222
B(  5-C , 10-C ) :   1.0603 B(  7-C ,  8-O ) :   2.1885 B(  7-C ,  9-C ) :   1.0857
B(  9-C , 20-H ) :   0.8689 B(  9-C , 21-H ) :   0.8885 B( 10-C , 11-C ) :   1.1129
B( 10-C , 12-C ) :   1.1233 B( 10-C , 22-H ) :   0.8823 B( 11-C , 23-H ) :   0.9493
B( 11-C , 24-H ) :   0.9407 B( 11-C , 25-H ) :   0.9488 B( 12-C , 26-H ) :   0.9451
B( 12-C , 27-H ) :   0.9391 B( 12-C , 28-H ) :   0.9372

Dispersion correction           -0.030682479
FINAL SINGLE POINT ENERGY      -466.029416085313

DIPOLE MOMENT
-------------

Method             : SCF
Type of density    : Electron Density
Multiplicity       :   1
Irrep              :   0
Energy             :  -466.1255110845017953 Eh
Relativity type    :
Basis              : AO
                                X                 Y                 Z
Electronic contribution:     -0.352403332      -7.300628209       3.237312100
Nuclear contribution   :     -0.061743138       7.924899798      -3.857181749
                        -----------------------------------------
Total Dipole Moment    :     -0.414146471       0.624271589      -0.619869650
                        -----------------------------------------
Magnitude (a.u.)       :      0.972353176
Magnitude (Debye)      :      2.471525358

Rotational constants in cm-1:             0.062053             0.025288             0.021783
Rotational constants in MHz :          1860.307392           758.116075           653.042924

                             ****ORCA TERMINATED NORMALLY****
TOTAL RUN TIME: 0 days 0 hours 0 minutes 18 seconds 269 msec
