                         Program Version 6.0.1  -  RELEASE   -
|  1> ! r2scan-3c def2/J RI DEFGRID2 scfconv6 printgap
|  2> %output
|  3>     printlevel normal
|  4> end
|  5> * xyz 0 1
|  6> C -3.3868399103 -0.0487298659 0.197870163
|  7> O -2.222454013 0.0717284263 -0.607086741
|  8> C -1.0459583131 -0.0105035258 0.0344652592
|  9> O -0.9656049089 -0.1769724116 1.2232748503
| 10> C 0.0964852594 0.1350937155 -0.94808445
| 11> C 0.9666372363 -1.1303206611 -0.9706050233
| 12> C 1.7686007961 -1.2937865657 0.316174941
| 13> C 2.6367475 -0.0643460675 0.5608218055
| 14> C 1.754866704 1.1751261921 0.6657273767
| 15> C 0.9526006893 1.366465706 -0.6170312549
| 16> H -3.4012607182 -1.0180734747 0.7002832842
| 17> H -4.2347792222 0.0458793258 -0.4752657348
| 18> H -3.4070073411 0.7381208864 0.9546274382
| 19> H -0.3608936917 0.2720110171 -1.9335128839
| 20> H 0.3339999176 -2.0060162531 -1.1332963932
| 21> H 1.653510268 -1.0513668167 -1.8172842823
| 22> H 1.0843894178 -1.4204167504 1.1556348863
| 23> H 2.3909338612 -2.1883952085 0.2446169173
| 24> H 3.2098541657 -0.1914333205 1.4808804373
| 25> H 3.3450712263 0.0562872766 -0.2634603018
| 26> H 1.0706637583 1.0563446244 1.5063263678
| 27> H 2.3672762478 2.0612094943 0.8461582764
| 28> H 0.3101078846 2.24587841 -0.5310650808
| 29> H 1.6389039798 1.5333515795 -1.4513197548
| 30> *
| 31>
| 32>                          ****END OF INPUT****

CARTESIAN COORDINATES (ANGSTROEM)
---------------------------------
  C     -3.386840   -0.048730    0.197870
  O     -2.222454    0.071728   -0.607087
  C     -1.045958   -0.010504    0.034465
  O     -0.965605   -0.176972    1.223275
  C      0.096485    0.135094   -0.948084
  C      0.966637   -1.130321   -0.970605
  C      1.768601   -1.293787    0.316175
  C      2.636747   -0.064346    0.560822
  C      1.754867    1.175126    0.665727
  C      0.952601    1.366466   -0.617031
  H     -3.401261   -1.018073    0.700283
  H     -4.234779    0.045879   -0.475266
  H     -3.407007    0.738121    0.954627
  H     -0.360894    0.272011   -1.933513
  H      0.334000   -2.006016   -1.133296
  H      1.653510   -1.051367   -1.817284
  H      1.084389   -1.420417    1.155635
  H      2.390934   -2.188395    0.244617
  H      3.209854   -0.191433    1.480880
  H      3.345071    0.056287   -0.263460
  H      1.070664    1.056345    1.506326
  H      2.367276    2.061209    0.846158
  H      0.310108    2.245878   -0.531065
  H      1.638904    1.533352   -1.451320

 Total Charge           Charge          ....    0
 Multiplicity           Mult            ....    1
 Number of Electrons    NEL             ....   78
 Basis Dimension        Dim             ....  270

ORBITAL ENERGIES
----------------

  NO   OCC          E(Eh)            E(eV)
   0   2.0000     -18.997868      -516.9583
   1   2.0000     -18.933957      -515.2192
   2   2.0000     -10.151243      -276.2294
   3   2.0000     -10.084043      -274.4008
   4   2.0000     -10.045660      -273.3563
   5   2.0000     -10.031306      -272.9657
   6   2.0000     -10.031279      -272.9650
   7   2.0000     -10.017519      -272.5906
   8   2.0000     -10.015746      -272.5423
   9   2.0000     -10.015708      -272.5413
  10   2.0000      -1.073778       -29.2190
  11   2.0000      -0.983500       -26.7624
  12   2.0000      -0.805642       -21.9226
  13   2.0000      -0.732322       -19.9275
  14   2.0000      -0.709014       -19.2933
  15   2.0000      -0.687749       -18.7146
  16   2.0000      -0.592661       -16.1271
  17   2.0000      -0.574305       -15.6276
  18   2.0000      -0.539991       -14.6939
  19   2.0000      -0.518491       -14.1088
  20   2.0000      -0.458155       -12.4670
  21   2.0000      -0.454435       -12.3658
  22   2.0000      -0.452219       -12.3055
  23   2.0000      -0.433580       -11.7983
  24   2.0000      -0.411696       -11.2028
  25   2.0000      -0.408902       -11.1268
  26   2.0000      -0.393607       -10.7106
  27   2.0000      -0.364446        -9.9171
  28   2.0000      -0.347926        -9.4676
  29   2.0000      -0.346983        -9.4419
  30   2.0000      -0.343929        -9.3588
  31   2.0000      -0.336846        -9.1660
  32   2.0000      -0.317574        -8.6416
  33   2.0000      -0.310275        -8.4430
  34   2.0000      -0.295766        -8.0482
  35   2.0000      -0.275431        -7.4949
  36   2.0000      -0.267863        -7.2889
  37   2.0000      -0.267649        -7.2831
  38   2.0000      -0.231763        -6.3066
  39   0.0000      -0.016562        -0.4507
  40   0.0000       0.063321         1.7231
  41   0.0000       0.085626         2.3300
  42   0.0000       0.102527         2.7899
  43   0.0000       0.112770         3.0686

MULLIKEN ATOMIC CHARGES
-----------------------
   0 C :   -0.308679
   1 O :   -0.177467
   2 C :    0.264568
   3 O :   -0.421789
   4 C :    0.074482
   5 C :   -0.378951
   6 C :   -0.272346
   7 C :   -0.338915
   8 C :   -0.272448
   9 C :   -0.378944
  10 H :    0.159511
  11 H :    0.150108
  12 H :    0.159827
  13 H :    0.172618
  14 H :    0.144115
  15 H :    0.160947
  16 H :    0.186062
  17 H :    0.145769
  18 H :    0.150130
  19 H :    0.144366
  20 H :    0.186180
  21 H :    0.145727
  22 H :    0.144138
  23 H :    0.160992
Sum of atomic charges:    0.0000000

LOEWDIN ATOMIC CHARGES
----------------------
   0 C :   -0.048459
   1 O :   -0.608954
   2 C :    0.361790
   3 O :   -0.434069
   4 C :   -0.156729
   5 C :   -0.270423
   6 C :   -0.298602
   7 C :   -0.299461
   8 C :   -0.298614
   9 C :   -0.270458
  10 H :    0.175806
  11 H :    0.175266
  12 H :    0.176002
  13 H :    0.184804
  14 H :    0.162501
  15 H :    0.160647
  16 H :    0.176063
  17 H :    0.153160
  18 H :    0.155951
  19 H :    0.151356
  20 H :    0.176126
  21 H :    0.153146
  22 H :    0.162511
  23 H :    0.160641

  Mayer bond orders larger than 0.100000
B(  0-C ,  1-O ) :   0.8579 B(  0-C , 10-H ) :   0.9633 B(  0-C , 11-H ) :   0.9694
B(  0-C , 12-H ) :   0.9634 B(  1-O ,  2-C ) :   1.0646 B(  2-C ,  3-O ) :   1.8048
B(  2-C ,  4-C ) :   0.9131 B(  4-C ,  5-C ) :   0.9042 B(  4-C ,  9-C ) :   0.9041
B(  4-C , 13-H ) :   0.9317 B(  5-C ,  6-C ) :   0.9081 B(  5-C , 14-H ) :   0.9434
B(  5-C , 15-H ) :   0.9854 B(  6-C ,  7-C ) :   0.9045 B(  6-C , 16-H ) :   0.9813
B(  6-C , 17-H ) :   0.9373 B(  7-C ,  8-C ) :   0.9046 B(  7-C , 18-H ) :   0.9462
B(  7-C , 19-H ) :   1.0121 B(  8-C ,  9-C ) :   0.9080 B(  8-C , 20-H ) :   0.9813
B(  8-C , 21-H ) :   0.9373 B(  9-C , 22-H ) :   0.9434 B(  9-C , 23-H ) :   0.9854

Dispersion correction           -0.007839944
FINAL SINGLE POINT ENERGY      -463.634203122124

DIPOLE MOMENT
-------------

Method             : SCF
Type of density    : Electron Density
Multiplicity       :   1
Irrep              :   0
Energy             :  -463.6398013850114239 Eh
Relativity type    :
Basis              : AO
                                X                 Y                 Z
Electronic contribution:     -5.834862535      -0.051302100       0.136986117
Nuclear contribution   :      5.582457903       0.123573095      -0.663226853
                        -----------------------------------------
Total Dipole Moment    :     -0.252404632       0.072270995      -0.526240736
                        -----------------------------------------
Magnitude (a.u.)       :      0.588099062
Magnitude (Debye)      :      1.494829020

Rotational constants in cm-1:             0.089695             0.028384             0.027611
Rotational constants in MHz :          2688.987718           850.920086           827.744771

                             ****ORCA TERMINATED NORMALLY****
TOTAL RUN TIME: 0 days 0 hours 0 minutes 25 seconds 50 msec
