                         Program Version 6.0.1  -  RELEASE   -
|  1> ! pbe def2-sv(p) def2/J RI DEFGRID1 loosescf d4 GCP(DFT/SV(P)) printgap
|  2> %output
|  3>     printlevel normal
|  4> end
|  5> * xyz 0 1
|  6> C -2.4460565372 -1.1073193184 0.5032781375
|  7> C -1.7168333669 0.0919520835 -0.030239267
|  8> C -2.3706344543 1.1477969764 -0.5029683134
|  9> C -0.2448375786 0.0380003318 -0.018045863
| 10> C 0.5041111213 1.1829052261 0.2503997303
| 11> C 1.8853281225 1.1403705147 0.264154382
| 12> C 2.5485620783 -0.0481129873 0.0086096583
| 13> C 1.8175284033 -1.1936945669 -0.2550342932
| 14> C 0.4355111037 -1.1534229428 -0.2625467237
| 15> H -1.9837864899 -1.4579877157 1.4243592101
| 16> H -3.4876120093 -0.8645250068 0.6977673085
| 17> H -2.4188124819 -1.9223980842 -0.2196598893
| 18> H -1.8606586143 1.9971873814 -0.9235532859
| 19> H -3.4469186383 1.1895750569 -0.507419629
| 20> H -0.0055293195 2.1094881485 0.4696838169
| 21> H 2.4479052077 2.0375431426 0.4791730313
| 22> H 3.6280906644 -0.0819323498 0.0186696581
| 23> H 2.3271167332 -2.1254879181 -0.454806899
| 24> H -0.1176303268 -2.0549789096 -0.4790273461
| 25> *
| 26>
| 27>                          ****END OF INPUT****

CARTESIAN COORDINATES (ANGSTROEM)
---------------------------------
  C     -2.446057   -1.107319    0.503278
  C     -1.716833    0.091952   -0.030239
  C     -2.370634    1.147797   -0.502968
  C     -0.244838    0.038000   -0.018046
  C      0.504111    1.182905    0.250400
  C      1.885328    1.140371    0.264154
  C      2.548562   -0.048113    0.008610
  C      1.817528   -1.193695   -0.255034
  C      0.435511   -1.153423   -0.262547
  H     -1.983786   -1.457988    1.424359
  H     -3.487612   -0.864525    0.697767
  H     -2.418812   -1.922398   -0.219660
  H     -1.860659    1.997187   -0.923553
  H     -3.446919    1.189575   -0.507420
  H     -0.005529    2.109488    0.469684
  H      2.447905    2.037543    0.479173
  H      3.628091   -0.081932    0.018670
  H      2.327117   -2.125488   -0.454807
  H     -0.117630   -2.054979   -0.479027

 Total Charge           Charge          ....    0
 Multiplicity           Mult            ....    1
 Number of Electrons    NEL             ....   64
 Basis Dimension        Dim             ....  146

ORBITAL ENERGIES
----------------

  NO   OCC          E(Eh)            E(eV)
   0   2.0000      -9.905319      -269.5374
   1   2.0000      -9.903394      -269.4850
   2   2.0000      -9.892160      -269.1794
   3   2.0000      -9.891293      -269.1558
   4   2.0000      -9.891098      -269.1505
   5   2.0000      -9.890834      -269.1433
   6   2.0000      -9.890107      -269.1235
   7   2.0000      -9.884263      -268.9645
   8   2.0000      -9.874439      -268.6971
   9   2.0000      -0.781753       -21.2726
  10   2.0000      -0.727813       -19.8048
  11   2.0000      -0.670754       -18.2522
  12   2.0000      -0.658021       -17.9057
  13   2.0000      -0.616292       -16.7701
  14   2.0000      -0.550864       -14.9898
  15   2.0000      -0.538917       -14.6647
  16   2.0000      -0.491191       -13.3660
  17   2.0000      -0.454391       -12.3646
  18   2.0000      -0.413371       -11.2484
  19   2.0000      -0.410155       -11.1609
  20   2.0000      -0.394490       -10.7346
  21   2.0000      -0.383179       -10.4268
  22   2.0000      -0.375733       -10.2242
  23   2.0000      -0.362319        -9.8592
  24   2.0000      -0.338086        -9.1998
  25   2.0000      -0.329922        -8.9776
  26   2.0000      -0.323030        -8.7901
  27   2.0000      -0.298468        -8.1217
  28   2.0000      -0.292629        -7.9628
  29   2.0000      -0.251155        -6.8343
  30   2.0000      -0.229676        -6.2498
  31   2.0000      -0.204861        -5.5746
  32   0.0000      -0.053800        -1.4640
  33   0.0000      -0.034612        -0.9418
  34   0.0000       0.008700         0.2367
  35   0.0000       0.040909         1.1132
  36   0.0000       0.061146         1.6639

MULLIKEN ATOMIC CHARGES
-----------------------
   0 C :   -0.222699
   1 C :   -0.059651
   2 C :   -0.231755
   3 C :    0.142172
   4 C :   -0.124343
   5 C :   -0.046089
   6 C :   -0.049324
   7 C :   -0.043121
   8 C :   -0.128858
   9 H :    0.114206
  10 H :    0.103105
  11 H :    0.122546
  12 H :    0.094950
  13 H :    0.085604
  14 H :    0.046924
  15 H :    0.052021
  16 H :    0.053239
  17 H :    0.051345
  18 H :    0.039729
Sum of atomic charges:    0.0000000

LOEWDIN ATOMIC CHARGES
----------------------
   0 C :   -0.321444
   1 C :   -0.048014
   2 C :   -0.250138
   3 C :   -0.029719
   4 C :   -0.111791
   5 C :   -0.121209
   6 C :   -0.125216
   7 C :   -0.120752
   8 C :   -0.118154
   9 H :    0.129280
  10 H :    0.126887
  11 H :    0.132312
  12 H :    0.120773
  13 H :    0.119056
  14 H :    0.124995
  15 H :    0.123711
  16 H :    0.123255
  17 H :    0.123425
  18 H :    0.122743

  Mayer bond orders larger than 0.100000
B(  0-C ,  1-C ) :   1.1200 B(  0-C ,  9-H ) :   0.9358 B(  0-C , 10-H ) :   0.9386
B(  0-C , 11-H ) :   0.9182 B(  1-C ,  2-C ) :   1.9948 B(  1-C ,  3-C ) :   1.0186
B(  2-C , 12-H ) :   0.9060 B(  2-C , 13-H ) :   0.9056 B(  3-C ,  4-C ) :   1.3718
B(  3-C ,  8-C ) :   1.3609 B(  4-C ,  5-C ) :   1.3761 B(  4-C , 14-H ) :   0.9574
B(  5-C ,  6-C ) :   1.3712 B(  5-C , 15-H ) :   0.9631 B(  6-C ,  7-C ) :   1.3779
B(  6-C , 16-H ) :   0.9655 B(  7-C ,  8-C ) :   1.3771 B(  7-C , 17-H ) :   0.9623
B(  8-C , 18-H ) :   0.9571

Dispersion correction           -0.019943050
FINAL SINGLE POINT ENERGY      -348.165217946123

DIPOLE MOMENT
-------------

Method             : SCF
Type of density    : Electron Density
Multiplicity       :   1
Irrep              :   0
Energy             :  -348.2150781798738990 Eh
Relativity type    :
Basis              : AO
                                X                 Y                 Z
Electronic contribution:      4.602337662       0.964762707      -0.429689870
Nuclear contribution   :     -4.613758033      -1.100955958       0.473949558
                        -----------------------------------------
Total Dipole Moment    :     -0.011420372      -0.136193251       0.044259687
                        -----------------------------------------
Magnitude (a.u.)       :      0.143659133
Magnitude (Debye)      :      0.365152497

Rotational constants in cm-1:             0.120698             0.040381             0.031846
Rotational constants in MHz :          3618.422158          1210.581584           954.721409

                             ****ORCA TERMINATED NORMALLY****
TOTAL RUN TIME: 0 days 0 hours 0 minutes 14 seconds 167 msec
