                         Program Version 6.0.1  -  RELEASE   -
|  1> ! pbe def2-sv(p) def2/J RI DEFGRID1 loosescf d4 GCP(DFT/SV(P)) printgap
|  2> %output
|  3>     printlevel normal
|  4> end
|  5> * xyz 0 1
|  6> C -2.2823546706 -0.9956179799 -0.2351297423
|  7> C -1.2234024529 -0.1331202174 0.5161047495
|  8> H -1.6820305305 0.3172869295 1.4052269582
|  9> C -0.6542717878 1.0053652481 -0.3490477093
| 10> H -0.5598699727 0.6830482777 -1.3964681542
| 11> C 0.7485385605 1.3459237438 0.171473501
| 12> H 0.6876598319 1.5163650048 1.2587260487
| 13> C 1.6686917149 0.1469966648 -0.0945126285
| 14> H 1.9491504316 0.1592898413 -1.158242079
| 15> C 0.8969915691 -1.1595645425 0.1688884299
| 16> H 1.5553773884 -1.8465543088 0.7227502818
| 17> O -0.1946110783 -0.9624754905 1.0334310046
| 18> O 0.5045456752 -1.6851386544 -1.0564595775
| 19> O 2.8058336513 0.1724632152 0.7223647286
| 20> O 1.2829236623 2.474457348 -0.4680576738
| 21> O -1.4382538953 2.1758799645 -0.2637594587
| 22> O -2.0694344145 -2.3703966795 -0.0406448865
| 23> H -2.2179509572 -0.8370621024 -1.3150853537
| 24> H -3.2901549516 -0.7156353316 0.1031425895
| 25> H -0.1828603096 -2.3558830637 -0.9008343463
| 26> H 3.2345979635 1.0276304633 0.5942202501
| 27> H 0.5846284917 3.1410592449 -0.4961777432
| 28> H -2.2981057419 2.0151670036 -0.664694933
| 29> H -1.8448670124 -2.5082809564 0.8896978071
| 30> *
| 31>
| 32>                          ****END OF INPUT****

CARTESIAN COORDINATES (ANGSTROEM)
---------------------------------
  C     -2.282355   -0.995618   -0.235130
  C     -1.223402   -0.133120    0.516105
  H     -1.682031    0.317287    1.405227
  C     -0.654272    1.005365   -0.349048
  H     -0.559870    0.683048   -1.396468
  C      0.748539    1.345924    0.171474
  H      0.687660    1.516365    1.258726
  C      1.668692    0.146997   -0.094513
  H      1.949150    0.159290   -1.158242
  C      0.896992   -1.159565    0.168888
  H      1.555377   -1.846554    0.722750
  O     -0.194611   -0.962475    1.033431
  O      0.504546   -1.685139   -1.056460
  O      2.805834    0.172463    0.722365
  O      1.282924    2.474457   -0.468058
  O     -1.438254    2.175880   -0.263759
  O     -2.069434   -2.370397   -0.040645
  H     -2.217951   -0.837062   -1.315085
  H     -3.290155   -0.715635    0.103143
  H     -0.182860   -2.355883   -0.900834
  H      3.234598    1.027630    0.594220
  H      0.584628    3.141059   -0.496178
  H     -2.298106    2.015167   -0.664695
  H     -1.844867   -2.508281    0.889698

 Total Charge           Charge          ....    0
 Multiplicity           Mult            ....    1
 Number of Electrons    NEL             ....   96
 Basis Dimension        Dim             ....  192

ORBITAL ENERGIES
----------------

  NO   OCC          E(Eh)            E(eV)
   0   2.0000     -18.776941      -510.9465
   1   2.0000     -18.773296      -510.8474
   2   2.0000     -18.770332      -510.7667
   3   2.0000     -18.754815      -510.3445
   4   2.0000     -18.749344      -510.1956
   5   2.0000     -18.745671      -510.0956
   6   2.0000      -9.982960      -271.6502
   7   2.0000      -9.952657      -270.8256
   8   2.0000      -9.949718      -270.7456
   9   2.0000      -9.946465      -270.6571
  10   2.0000      -9.939273      -270.4614
  11   2.0000      -9.934851      -270.3410
  12   2.0000      -0.990612       -26.9559
  13   2.0000      -0.954721       -25.9793
  14   2.0000      -0.943077       -25.6624
  15   2.0000      -0.932264       -25.3682
  16   2.0000      -0.916137       -24.9293
  17   2.0000      -0.909619       -24.7520
  18   2.0000      -0.710111       -19.3231
  19   2.0000      -0.692634       -18.8475
  20   2.0000      -0.629183       -17.1209
  21   2.0000      -0.584185       -15.8965
  22   2.0000      -0.572385       -15.5754
  23   2.0000      -0.511734       -13.9250
  24   2.0000      -0.509328       -13.8595
  25   2.0000      -0.500804       -13.6276
  26   2.0000      -0.485889       -13.2217
  27   2.0000      -0.452839       -12.3224
  28   2.0000      -0.442794       -12.0490
  29   2.0000      -0.432982       -11.7820
  30   2.0000      -0.417292       -11.3551
  31   2.0000      -0.400011       -10.8848
  32   2.0000      -0.391849       -10.6628
  33   2.0000      -0.388520       -10.5722
  34   2.0000      -0.365787        -9.9536
  35   2.0000      -0.359286        -9.7767
  36   2.0000      -0.340411        -9.2631
  37   2.0000      -0.325691        -8.8625
  38   2.0000      -0.308249        -8.3879
  39   2.0000      -0.300720        -8.1830
  40   2.0000      -0.283620        -7.7177
  41   2.0000      -0.273901        -7.4532
  42   2.0000      -0.256449        -6.9783
  43   2.0000      -0.240056        -6.5322
  44   2.0000      -0.233819        -6.3625
  45   2.0000      -0.229296        -6.2395
  46   2.0000      -0.218100        -5.9348
  47   2.0000      -0.210829        -5.7369
  48   0.0000      -0.003325        -0.0905
  49   0.0000       0.022518         0.6127
  50   0.0000       0.040979         1.1151
  51   0.0000       0.048258         1.3132
  52   0.0000       0.062546         1.7020

MULLIKEN ATOMIC CHARGES
-----------------------
   0 C :    0.041249
   1 C :    0.027750
   2 H :    0.075552
   3 C :   -0.013521
   4 H :    0.076099
   5 C :    0.026536
   6 H :    0.058668
   7 C :    0.113191
   8 H :    0.074108
   9 C :    0.159191
  10 H :    0.072685
  11 O :   -0.317475
  12 O :   -0.414430
  13 O :   -0.412618
  14 O :   -0.422598
  15 O :   -0.418745
  16 O :   -0.432793
  17 H :    0.089085
  18 H :    0.081160
  19 H :    0.304289
  20 H :    0.308749
  21 H :    0.306978
  22 H :    0.310046
  23 H :    0.306843
Sum of atomic charges:   -0.0000000

LOEWDIN ATOMIC CHARGES
----------------------
   0 C :   -0.144429
   1 C :   -0.083821
   2 H :    0.117456
   3 C :   -0.085172
   4 H :    0.108434
   5 C :   -0.074252
   6 H :    0.106172
   7 C :   -0.071841
   8 H :    0.113066
   9 C :    0.007789
  10 H :    0.103556
  11 O :   -0.141772
  12 O :   -0.314891
  13 O :   -0.314751
  14 O :   -0.323551
  15 O :   -0.319371
  16 O :   -0.318417
  17 H :    0.110953
  18 H :    0.100113
  19 H :    0.274887
  20 H :    0.290811
  21 H :    0.284813
  22 H :    0.291689
  23 H :    0.282532

  Mayer bond orders larger than 0.100000
B(  0-C ,  1-C ) :   1.0170 B(  0-C , 16-O ) :   1.0574 B(  0-C , 17-H ) :   0.9241
B(  0-C , 18-H ) :   0.9179 B(  1-C ,  2-H ) :   0.8841 B(  1-C ,  3-C ) :   0.9860
B(  1-C , 11-O ) :   1.0331 B(  3-C ,  4-H ) :   0.8803 B(  3-C ,  5-C ) :   1.0466
B(  3-C , 15-O ) :   1.0550 B(  5-C ,  6-H ) :   0.8580 B(  5-C ,  7-C ) :   1.0510
B(  5-C , 14-O ) :   1.0915 B(  7-C ,  8-H ) :   0.8777 B(  7-C ,  9-C ) :   0.9854
B(  7-C , 13-O ) :   1.0937 B(  9-C , 10-H ) :   0.8905 B(  9-C , 11-O ) :   1.0373
B(  9-C , 12-O ) :   1.1126 B( 12-O , 19-H ) :   0.7908 B( 13-O , 20-H ) :   0.8460
B( 14-O , 21-H ) :   0.8313 B( 15-O , 22-H ) :   0.8469 B( 16-O , 19-H ) :   0.1087
B( 16-O , 23-H ) :   0.8295

Dispersion correction           -0.025097264
FINAL SINGLE POINT ENERGY      -685.691626742770

DIPOLE MOMENT
-------------

Method             : SCF
Type of density    : Electron Density
Multiplicity       :   1
Irrep              :   0
Energy             :  -685.8250167195585618 Eh
Relativity type    :
Basis              : AO
                                X                 Y                 Z
Electronic contribution:      2.614860315      -0.128102515       0.988054791
Nuclear contribution   :     -3.799922663       0.556661802      -0.899605127
                        -----------------------------------------
Total Dipole Moment    :     -1.185062348       0.428559287       0.088449663
                        -----------------------------------------
Magnitude (a.u.)       :      1.263273198
Magnitude (Debye)      :      3.210985289

Rotational constants in cm-1:             0.043423             0.028023             0.019513
Rotational constants in MHz :          1301.786578           840.123325           584.974608

                             ****ORCA TERMINATED NORMALLY****
TOTAL RUN TIME: 0 days 0 hours 0 minutes 8 seconds 38 msec
