                         Program Version 6.0.0  -   RELEASE  -
|  1> ! r2SCAN-3c DEF2-TZVP FREQ
|  2> * xyzfile 0 1 censo.xyz
|  3>
|  4>                          ****END OF INPUT****

CARTESIAN COORDINATES (ANGSTROEM)
---------------------------------
  C     -2.927329   -0.000850   -0.014537
  C     -1.423554    0.001048    0.010786
  C     -0.695599    1.194687    0.008454
  C      0.695184    1.202951   -0.004287
  C      1.414897   -0.000038   -0.015818
  C      0.693899   -1.202992   -0.004149
  C     -0.696160   -1.193771    0.008881
  N      2.807600   -0.001236   -0.096082
  H     -3.331341    0.922328    0.410492
  H     -3.307543   -0.082900   -1.040296
  H     -3.333132   -0.846210    0.549155
  H     -1.227626    2.142828    0.021060
  H      1.233890    2.147087   -0.001215
  H      1.232181   -2.147390   -0.001092
  H     -1.229000   -2.141546    0.021618
  H      3.239444   -0.836641    0.274206
  H      3.240827    0.834055    0.272835

 Total Charge           Charge          ....    0
 Multiplicity           Mult            ....    1
 Number of Electrons    NEL             ....   58
 Basis Dimension        Dim             ....  302

ORBITAL ENERGIES
----------------

  NO   OCC          E(Eh)            E(eV)
   0   2.0000     -14.166395      -385.4872
   1   2.0000     -10.068075      -273.9663
   2   2.0000     -10.029390      -272.9136
   3   2.0000     -10.027300      -272.8567
   4   2.0000     -10.027247      -272.8553
   5   2.0000     -10.025284      -272.8019
   6   2.0000     -10.025040      -272.7952
   7   2.0000     -10.023048      -272.7410
   8   2.0000      -0.884254       -24.0618
   9   2.0000      -0.802914       -21.8484
  10   2.0000      -0.718499       -19.5513
  11   2.0000      -0.705408       -19.1951
  12   2.0000      -0.637243       -17.3403
  13   2.0000      -0.576839       -15.6966
  14   2.0000      -0.545912       -14.8550
  15   2.0000      -0.482769       -13.1368
  16   2.0000      -0.476770       -12.9736
  17   2.0000      -0.427007       -11.6194
  18   2.0000      -0.404270       -11.0008
  19   2.0000      -0.390773       -10.6335
  20   2.0000      -0.381984       -10.3943
  21   2.0000      -0.380252       -10.3472
  22   2.0000      -0.346703        -9.4343
  23   2.0000      -0.344504        -9.3744
  24   2.0000      -0.317497        -8.6395
  25   2.0000      -0.299714        -8.1556
  26   2.0000      -0.275356        -7.4928
  27   2.0000      -0.228542        -6.2190
  28   2.0000      -0.180137        -4.9018
  29   0.0000      -0.028648        -0.7796
  30   0.0000      -0.009043        -0.2461
  31   0.0000       0.044299         1.2054
  32   0.0000       0.063384         1.7248
  33   0.0000       0.080438         2.1888

MULLIKEN ATOMIC CHARGES
-----------------------
   0 C :   -0.349867
   1 C :    0.131814
   2 C :   -0.150707
   3 C :   -0.256010
   4 C :    0.327217
   5 C :   -0.255323
   6 C :   -0.152157
   7 N :   -0.444478
   8 H :    0.107192
   9 H :    0.115543
  10 H :    0.108758
  11 H :    0.095088
  12 H :    0.086574
  13 H :    0.086674
  14 H :    0.095812
  15 H :    0.226945
  16 H :    0.226925
Sum of atomic charges:    0.0000000

LOEWDIN ATOMIC CHARGES
----------------------
   0 C :   -0.260299
   1 C :   -0.190927
   2 C :   -0.122144
   3 C :   -0.137955
   4 C :   -0.250583
   5 C :   -0.137582
   6 C :   -0.121084
   7 N :   -0.049739
   8 H :    0.124755
   9 H :    0.127274
  10 H :    0.125145
  11 H :    0.143826
  12 H :    0.139912
  13 H :    0.139942
  14 H :    0.144122
  15 H :    0.162663
  16 H :    0.162674

  Mayer bond orders larger than 0.100000
B(  0-C ,  1-C ) :   0.9082 B(  0-C ,  8-H ) :   0.9864 B(  0-C ,  9-H ) :   0.9559
B(  0-C , 10-H ) :   0.9831 B(  1-C ,  2-C ) :   1.3516 B(  1-C ,  6-C ) :   1.3406
B(  2-C ,  3-C ) :   1.4470 B(  2-C , 11-H ) :   0.9775 B(  3-C ,  4-C ) :   1.3371
B(  3-C , 12-H ) :   0.9781 B(  4-C ,  5-C ) :   1.3331 B(  4-C ,  7-N ) :   1.0456
B(  5-C ,  6-C ) :   1.4519 B(  5-C , 13-H ) :   0.9780 B(  6-C , 14-H ) :   0.9794
B(  7-N , 15-H ) :   0.9220 B(  7-N , 16-H ) :   0.9220

Dispersion correction           -0.005274102
FINAL SINGLE POINT ENERGY      -326.855235157278

DIPOLE MOMENT
-------------

Method             : SCF
Type of density    : Electron Density
Multiplicity       :   1
Irrep              :   0
Energy             :  -326.8571436272314372 Eh
Relativity type    :
Basis              : AO
                                X                 Y                 Z
Electronic contribution:      3.701707115       0.002064654      -0.167271944
Nuclear contribution   :     -3.292522807      -0.006824607       0.550846927
                        -----------------------------------------
Total Dipole Moment    :      0.409184308      -0.004759952       0.383574983
                        -----------------------------------------
Magnitude (a.u.)       :      0.560878082
Magnitude (Debye)      :      1.425638787

VIBRATIONAL FREQUENCIES
-----------------------

Scaling factor for frequencies =  1.000000000  (already applied!)

     0:       0.00 cm**-1
     1:       0.00 cm**-1
     2:       0.00 cm**-1
     3:       0.00 cm**-1
     4:       0.00 cm**-1
     5:       0.00 cm**-1
     6:      77.39 cm**-1
     7:     140.29 cm**-1
     8:     305.63 cm**-1
     9:     323.40 cm**-1
    10:     350.49 cm**-1
    11:     417.46 cm**-1
    12:     421.61 cm**-1
    13:     471.18 cm**-1
    14:     505.12 cm**-1
    15:     653.69 cm**-1
    16:     663.01 cm**-1
    17:     724.22 cm**-1
    18:     757.73 cm**-1
    19:     812.78 cm**-1
    20:     821.51 cm**-1
    21:     851.38 cm**-1
    22:     921.00 cm**-1
    23:     925.17 cm**-1
    24:    1000.33 cm**-1
    25:    1034.16 cm**-1
    26:    1054.64 cm**-1
    27:    1102.22 cm**-1
    28:    1152.00 cm**-1
    29:    1201.11 cm**-1
    30:    1233.06 cm**-1
    31:    1303.42 cm**-1
    32:    1333.46 cm**-1
    33:    1357.09 cm**-1
    34:    1401.24 cm**-1
    35:    1454.55 cm**-1
    36:    1479.01 cm**-1
    37:    1492.97 cm**-1
    38:    1543.42 cm**-1
    39:    1609.88 cm**-1
    40:    1646.79 cm**-1
    41:    1662.76 cm**-1
    42:    2998.83 cm**-1
    43:    3061.91 cm**-1
    44:    3095.38 cm**-1
    45:    3138.68 cm**-1
    46:    3139.38 cm**-1
    47:    3154.59 cm**-1
    48:    3158.21 cm**-1
    49:    3522.67 cm**-1
    50:    3626.60 cm**-1

IR SPECTRUM
-----------

 Mode   freq       eps      Int      T**2         TX        TY        TZ
       cm**-1   L/(mol*cm) km/mol    a.u.
----------------------------------------------------------------------------
  6:     77.39   0.000081    0.41  0.000328  (-0.001287 -0.017575  0.004165)
  7:    140.29   0.000841    4.25  0.001871  ( 0.017254 -0.000644 -0.039663)
  8:    305.63   0.000395    2.00  0.000404  ( 0.000710  0.020083 -0.000053)
  9:    323.40   0.000309    1.56  0.000298  ( 0.017275 -0.000028 -0.000218)
 10:    350.49   0.003789   19.15  0.003374  ( 0.000186 -0.058084  0.000013)
 11:    417.46   0.000074    0.37  0.000055  (-0.000345 -0.007399  0.000574)
 12:    421.61   0.000008    0.04  0.000006  ( 0.000645 -0.002253  0.000285)
 13:    471.18   0.000487    2.46  0.000322  ( 0.016045 -0.000251 -0.008048)
 14:    505.12   0.009079   45.88  0.005609  ( 0.026195 -0.000143 -0.070162)
 15:    653.69   0.060121  303.83  0.028701  (-0.149337  0.000130  0.079996)
 16:    663.01   0.000024    0.12  0.000011  ( 0.001851  0.002568 -0.001093)
 17:    724.22   0.001109    5.61  0.000478  ( 0.021665 -0.000131  0.002935)
 18:    757.73   0.000129    0.65  0.000053  ( 0.005733 -0.000369 -0.004497)
 19:    812.78   0.000063    0.32  0.000024  ( 0.000478  0.004713 -0.001306)
 20:    821.51   0.013266   67.04  0.005039  ( 0.022064 -0.000119 -0.067471)
 21:    851.38   0.000547    2.77  0.000201  (-0.002260  0.000005  0.013982)
 22:    921.00   0.000092    0.47  0.000031  (-0.001784  0.000038  0.005293)
 23:    925.17   0.000001    0.00  0.000000  ( 0.000121 -0.000363 -0.000422)
 24:   1000.33   0.000041    0.21  0.000013  ( 0.003256  0.001513  0.000178)
 25:   1034.16   0.000060    0.30  0.000018  ( 0.000518  0.000088  0.004226)
 26:   1054.64   0.001851    9.35  0.000548  ( 0.019324  0.000102  0.013202)
 27:   1102.22   0.000864    4.37  0.000245  ( 0.001099  0.015601  0.000041)
 28:   1152.00   0.001752    8.85  0.000475  (-0.000157 -0.021783 -0.000012)
 29:   1201.11   0.001493    7.55  0.000388  ( 0.019696 -0.000050  0.000273)
 30:   1233.06   0.000106    0.54  0.000027  (-0.004887 -0.000575 -0.001616)
 31:   1303.42   0.013045   65.93  0.003123  ( 0.055884 -0.000380  0.000353)
 32:   1333.46   0.000781    3.95  0.000183  (-0.000489  0.013511 -0.000029)
 33:   1357.09   0.000776    3.92  0.000178  ( 0.000423  0.013351 -0.000005)
 34:   1401.24   0.000011    0.06  0.000002  (-0.001559 -0.000070  0.000203)
 35:   1454.55   0.000120    0.61  0.000026  ( 0.000509  0.005051 -0.000205)
 36:   1479.01   0.001277    6.46  0.000270  ( 0.002749  0.000788 -0.016166)
 37:   1492.97   0.001764    8.91  0.000369  (-0.000988  0.019165  0.000637)
 38:   1543.42   0.019979  100.97  0.004040  ( 0.063554  0.000115 -0.000698)
 39:   1609.88   0.000594    3.00  0.000115  ( 0.001399 -0.010636 -0.000066)
 40:   1646.79   0.002580   13.04  0.000489  ( 0.019924  0.000041 -0.009586)
 41:   1662.76   0.020921  105.73  0.003927  ( 0.060243 -0.000030  0.017244)
 42:   2998.83   0.009706   49.05  0.001010  ( 0.031215  0.000518  0.005950)
 43:   3061.91   0.004039   20.41  0.000412  ( 0.007257  0.000373 -0.018944)
 44:   3095.38   0.003424   17.31  0.000345  (-0.000940  0.018556  0.000198)
 45:   3138.68   0.001325    6.70  0.000132  (-0.011070 -0.003029  0.000055)
 46:   3139.38   0.004550   22.99  0.000452  ( 0.021227 -0.001301 -0.000094)
 47:   3154.59   0.008081   40.84  0.000799  ( 0.000522 -0.028269  0.000010)
 48:   3158.21   0.000214    1.08  0.000021  ( 0.004242  0.001758  0.000151)
 49:   3522.67   0.002381   12.03  0.000211  ( 0.013476 -0.000006  0.005416)
 50:   3626.60   0.002325   11.75  0.000200  (-0.000028 -0.014145  0.000011)

--------------------------
THERMOCHEMISTRY AT 298.15K
--------------------------

Temperature         ...   298.15 K
Pressure            ...     1.00 atm
Total Mass          ...   107.16 AMU
Quasi RRHO          ...     True
Cut-Off Frequency   ...     1.00 cm^-1

Throughout the following assumptions are being made:
  (1) The electronic state is orbitally nondegenerate
  (2) There are no thermally accessible electronically excited states
  (3) Hindered rotations indicated by low frequency modes are not
      treated as such but are treated as vibrations and this may
      cause some error
  (4) All equations used are the standard statistical mechanics
      equations for an ideal gas
  (5) All vibrations are strictly harmonic

freq.      77.39  E(vib)   ...       0.49
freq.     140.29  E(vib)   ...       0.41
freq.     305.63  E(vib)   ...       0.26
freq.     323.40  E(vib)   ...       0.25
freq.     350.49  E(vib)   ...       0.23
freq.     417.46  E(vib)   ...       0.18
freq.     421.61  E(vib)   ...       0.18
freq.     471.18  E(vib)   ...       0.15
freq.     505.12  E(vib)   ...       0.14
freq.     653.69  E(vib)   ...       0.08
freq.     663.01  E(vib)   ...       0.08
freq.     724.22  E(vib)   ...       0.06
freq.     757.73  E(vib)   ...       0.06
freq.     812.78  E(vib)   ...       0.05
freq.     821.51  E(vib)   ...       0.05
freq.     851.38  E(vib)   ...       0.04
freq.     921.00  E(vib)   ...       0.03
freq.     925.17  E(vib)   ...       0.03
freq.    1000.33  E(vib)   ...       0.02
freq.    1034.16  E(vib)   ...       0.02
freq.    1054.64  E(vib)   ...       0.02
freq.    1102.22  E(vib)   ...       0.02
freq.    1152.00  E(vib)   ...       0.01
freq.    1201.11  E(vib)   ...       0.01
freq.    1233.06  E(vib)   ...       0.01
freq.    1303.42  E(vib)   ...       0.01
freq.    1333.46  E(vib)   ...       0.01
freq.    1357.09  E(vib)   ...       0.01
freq.    1401.24  E(vib)   ...       0.00
freq.    1454.55  E(vib)   ...       0.00
freq.    1479.01  E(vib)   ...       0.00
freq.    1492.97  E(vib)   ...       0.00
freq.    1543.42  E(vib)   ...       0.00
freq.    1609.88  E(vib)   ...       0.00
freq.    1646.79  E(vib)   ...       0.00
freq.    1662.76  E(vib)   ...       0.00
freq.    2998.83  E(vib)   ...       0.00
freq.    3061.91  E(vib)   ...       0.00
freq.    3095.38  E(vib)   ...       0.00
freq.    3138.68  E(vib)   ...       0.00
freq.    3139.38  E(vib)   ...       0.00
freq.    3154.59  E(vib)   ...       0.00
freq.    3158.21  E(vib)   ...       0.00
freq.    3522.67  E(vib)   ...       0.00
freq.    3626.60  E(vib)   ...       0.00

------------
INNER ENERGY
------------

The inner energy is: U= E(el) + E(ZPE) + E(vib) + E(rot) + E(trans)
    E(el)   - is the total energy from the electronic structure calculation
              = E(kin-el) + E(nuc-el) + E(el-el) + E(nuc-nuc)
    E(ZPE)  - the the zero temperature vibrational energy from the frequency calculation
    E(vib)  - the the finite temperature correction to E(ZPE) due to population
              of excited vibrational states
    E(rot)  - is the rotational thermal energy
    E(trans)- is the translational thermal energy

Summary of contributions to the inner energy U:
Electronic energy                ...   -326.85523516 Eh
Zero point energy                ...      0.14375564 Eh      90.21 kcal/mol
Thermal vibrational correction   ...      0.00466138 Eh       2.93 kcal/mol
Thermal rotational correction    ...      0.00141627 Eh       0.89 kcal/mol
Thermal translational correction ...      0.00141627 Eh       0.89 kcal/mol
-----------------------------------------------------------------------
Total thermal energy                   -326.70398560 Eh

Summary of corrections to the electronic energy:
(perhaps to be used in another calculation)
Total thermal correction                  0.00749392 Eh       4.70 kcal/mol
Non-thermal (ZPE) correction              0.14375564 Eh      90.21 kcal/mol
-----------------------------------------------------------------------
Total correction                          0.15124956 Eh      94.91 kcal/mol

--------
ENTHALPY
--------

The enthalpy is H = U + kB*T
                kB is Boltzmann's constant
Total thermal energy              ...   -326.70398560 Eh
Thermal Enthalpy correction       ...      0.00094421 Eh       0.59 kcal/mol
-----------------------------------------------------------------------
Total Enthalpy                    ...   -326.70304139 Eh

Note: Only C1 symmetry has been detected, increase convergence thresholds
      if your molecule has a higher symmetry. Symmetry factor of 1.0 is
      used for the rotational entropy correction.

Note: Rotational entropy computed according to Herzberg
Infrared and Raman Spectra, Chapter V,1, Van Nostrand Reinhold, 1945
Point Group:  C1, Symmetry Number:   1
Rotational constants in cm-1:     0.182447     0.048515     0.038647

Vibrational entropy computed according to the QRRHO of S. Grimme
Chem.Eur.J. 2012 18 9955 using a reference frequency of 100.0 cm-1

-------
ENTROPY
-------

The entropy contributions are T*S = T*(S(el)+S(vib)+S(rot)+S(trans))
     S(el)   - electronic entropy
     S(vib)  - vibrational entropy
     S(rot)  - rotational entropy
     S(trans)- translational entropy
The entropies will be listed as multiplied by the temperature to get
units of energy

Electronic entropy                ...      0.00000000 Eh      0.00 kcal/mol
Vibrational entropy               ...      0.00748563 Eh      4.70 kcal/mol
Rotational entropy                ...      0.01327831 Eh      8.33 kcal/mol
Translational entropy             ...      0.01896913 Eh     11.90 kcal/mol
-----------------------------------------------------------------------
Final entropy term                ...      0.03973307 Eh     24.93 kcal/mol

In case the symmetry of your molecule has not been determined correctly
or in case you have a reason to use a different symmetry number we print
out the resulting rotational entropy values for sn=1,12:

 non-linear molecules -----------------------------------
|  sn= 1 | S(rot)=       0.01327831 Eh      8.33 kcal/mol|
|  sn= 2 | S(rot)=       0.01262386 Eh      7.92 kcal/mol|
|  sn= 3 | S(rot)=       0.01224102 Eh      7.68 kcal/mol|
|  sn= 4 | S(rot)=       0.01196940 Eh      7.51 kcal/mol|
|  sn= 5 | S(rot)=       0.01175871 Eh      7.38 kcal/mol|
|  sn= 6 | S(rot)=       0.01158657 Eh      7.27 kcal/mol|
|  sn= 7 | S(rot)=       0.01144102 Eh      7.18 kcal/mol|
|  sn= 8 | S(rot)=       0.01131494 Eh      7.10 kcal/mol|
|  sn= 9 | S(rot)=       0.01120374 Eh      7.03 kcal/mol|
|  sn=10 | S(rot)=       0.01110426 Eh      6.97 kcal/mol|
|  sn=11 | S(rot)=       0.01101427 Eh      6.91 kcal/mol|
|  sn=12 | S(rot)=       0.01093211 Eh      6.86 kcal/mol|
 linear molecules ---------------------------------------
|  Dinfh | S(rot)=       0.00839750 Eh      5.27 kcal/mol|
|  Cinfv | S(rot)=       0.00905196 Eh      5.68 kcal/mol|

                             ****ORCA TERMINATED NORMALLY****
TOTAL RUN TIME: 0 days 0 hours 14 minutes 15 seconds 828 msec
