                         Program Version 6.0.0  -   RELEASE  -
|  1> ! r2SCAN-3c DEF2-TZVP FREQ
|  2> * xyzfile 0 1 vacuum_censo.xyz
|  3>
|  4>                          ****END OF INPUT****

CARTESIAN COORDINATES (ANGSTROEM)
---------------------------------
  C     -2.925844    0.000084    0.014434
  C     -1.421483   -0.000071   -0.012436
  C     -0.695043   -1.192507   -0.009329
  C      0.693597   -1.201160    0.002931
  C      1.412113   -0.000030    0.010845
  C      0.693537    1.201120    0.002825
  C     -0.695050    1.192435   -0.009468
  N      2.808495    0.000052    0.089195
  H     -3.332157   -0.887905   -0.478135
  H     -3.304379    0.006087    1.043817
  H     -3.332266    0.882310   -0.488366
  H     -1.226291   -2.140794   -0.018296
  H      1.227954   -2.147527    0.008567
  H      1.227893    2.147490    0.008419
  H     -1.226335    2.140709   -0.018529
  H      3.245261    0.831114   -0.280091
  H      3.245315   -0.831243   -0.279504

 Total Charge           Charge          ....    0
 Multiplicity           Mult            ....    1
 Number of Electrons    NEL             ....   58
 Basis Dimension        Dim             ....  302

ORBITAL ENERGIES
----------------

  NO   OCC          E(Eh)            E(eV)
   0   2.0000     -14.165595      -385.4654
   1   2.0000     -10.067877      -273.9609
   2   2.0000     -10.028991      -272.9027
   3   2.0000     -10.026752      -272.8418
   4   2.0000     -10.026703      -272.8405
   5   2.0000     -10.024721      -272.7865
   6   2.0000     -10.024702      -272.7860
   7   2.0000     -10.022972      -272.7389
   8   2.0000      -0.883303       -24.0359
   9   2.0000      -0.803815       -21.8729
  10   2.0000      -0.718976       -19.5643
  11   2.0000      -0.705974       -19.2105
  12   2.0000      -0.637695       -17.3526
  13   2.0000      -0.576726       -15.6935
  14   2.0000      -0.546445       -14.8695
  15   2.0000      -0.483295       -13.1511
  16   2.0000      -0.476051       -12.9540
  17   2.0000      -0.426549       -11.6070
  18   2.0000      -0.404353       -11.0030
  19   2.0000      -0.391005       -10.6398
  20   2.0000      -0.382463       -10.4073
  21   2.0000      -0.380581       -10.3561
  22   2.0000      -0.346682        -9.4337
  23   2.0000      -0.344323        -9.3695
  24   2.0000      -0.317349        -8.6355
  25   2.0000      -0.299944        -8.1619
  26   2.0000      -0.275212        -7.4889
  27   2.0000      -0.228847        -6.2272
  28   2.0000      -0.180448        -4.9102
  29   0.0000      -0.028305        -0.7702
  30   0.0000      -0.008785        -0.2391
  31   0.0000       0.045033         1.2254
  32   0.0000       0.063253         1.7212
  33   0.0000       0.081079         2.2063

MULLIKEN ATOMIC CHARGES
-----------------------
   0 C :   -0.350608
   1 C :    0.130629
   2 C :   -0.149628
   3 C :   -0.256951
   4 C :    0.330002
   5 C :   -0.256943
   6 C :   -0.149714
   7 N :   -0.446155
   8 H :    0.108024
   9 H :    0.115698
  10 H :    0.108139
  11 H :    0.095324
  12 H :    0.087102
  13 H :    0.087116
  14 H :    0.095379
  15 H :    0.226301
  16 H :    0.226287
Sum of atomic charges:    0.0000000

LOEWDIN ATOMIC CHARGES
----------------------
   0 C :   -0.259832
   1 C :   -0.191052
   2 C :   -0.121725
   3 C :   -0.137475
   4 C :   -0.248546
   5 C :   -0.137442
   6 C :   -0.121646
   7 N :   -0.050784
   8 H :    0.124838
   9 H :    0.127238
  10 H :    0.124868
  11 H :    0.144157
  12 H :    0.140371
  13 H :    0.140376
  14 H :    0.144179
  15 H :    0.161238
  16 H :    0.161236

  Mayer bond orders larger than 0.100000
B(  0-C ,  1-C ) :   0.9081 B(  0-C ,  8-H ) :   0.9852 B(  0-C ,  9-H ) :   0.9557
B(  0-C , 10-H ) :   0.9849 B(  1-C ,  2-C ) :   1.3473 B(  1-C ,  6-C ) :   1.3465
B(  2-C ,  3-C ) :   1.4498 B(  2-C , 11-H ) :   0.9786 B(  3-C ,  4-C ) :   1.3373
B(  3-C , 12-H ) :   0.9783 B(  4-C ,  5-C ) :   1.3370 B(  4-C ,  7-N ) :   1.0408
B(  5-C ,  6-C ) :   1.4502 B(  5-C , 13-H ) :   0.9783 B(  6-C , 14-H ) :   0.9787
B(  7-N , 15-H ) :   0.9230 B(  7-N , 16-H ) :   0.9230

Dispersion correction           -0.005276187
FINAL SINGLE POINT ENERGY      -326.855309133945

DIPOLE MOMENT
-------------

Method             : SCF
Type of density    : Electron Density
Multiplicity       :   1
Irrep              :   0
Energy             :  -326.8572072693016821 Eh
Relativity type    :
Basis              : AO
                                X                 Y                 Z
Electronic contribution:      3.690542704      -0.000053433       0.150028662
Nuclear contribution   :     -3.287705888       0.000272005      -0.528999693
                        -----------------------------------------
Total Dipole Moment    :      0.402836816       0.000218572      -0.378971030
                        -----------------------------------------
Magnitude (a.u.)       :      0.553079189
Magnitude (Debye)      :      1.405815578

VIBRATIONAL FREQUENCIES
-----------------------

Scaling factor for frequencies =  1.000000000  (already applied!)

     0:       0.00 cm**-1
     1:       0.00 cm**-1
     2:       0.00 cm**-1
     3:       0.00 cm**-1
     4:       0.00 cm**-1
     5:       0.00 cm**-1
     6:      64.19 cm**-1
     7:     142.14 cm**-1
     8:     303.16 cm**-1
     9:     308.90 cm**-1
    10:     323.28 cm**-1
    11:     413.65 cm**-1
    12:     418.50 cm**-1
    13:     471.21 cm**-1
    14:     504.38 cm**-1
    15:     639.57 cm**-1
    16:     663.55 cm**-1
    17:     723.54 cm**-1
    18:     757.06 cm**-1
    19:     812.85 cm**-1
    20:     820.64 cm**-1
    21:     853.03 cm**-1
    22:     921.73 cm**-1
    23:     925.64 cm**-1
    24:     999.69 cm**-1
    25:    1035.86 cm**-1
    26:    1055.20 cm**-1
    27:    1097.26 cm**-1
    28:    1152.02 cm**-1
    29:    1203.00 cm**-1
    30:    1234.39 cm**-1
    31:    1297.48 cm**-1
    32:    1337.68 cm**-1
    33:    1362.11 cm**-1
    34:    1401.00 cm**-1
    35:    1456.14 cm**-1
    36:    1480.50 cm**-1
    37:    1492.90 cm**-1
    38:    1545.78 cm**-1
    39:    1617.57 cm**-1
    40:    1651.34 cm**-1
    41:    1663.12 cm**-1
    42:    3000.54 cm**-1
    43:    3064.84 cm**-1
    44:    3095.55 cm**-1
    45:    3141.09 cm**-1
    46:    3141.45 cm**-1
    47:    3156.89 cm**-1
    48:    3160.47 cm**-1
    49:    3545.72 cm**-1
    50:    3646.75 cm**-1

IR SPECTRUM
-----------

 Mode   freq       eps      Int      T**2         TX        TY        TZ
       cm**-1   L/(mol*cm) km/mol    a.u.
----------------------------------------------------------------------------
  6:     64.19   0.000087    0.44  0.000424  (-0.000691  0.020559 -0.000659)
  7:    142.14   0.000818    4.13  0.001795  ( 0.016827 -0.000117  0.038882)
  8:    303.16   0.002371   11.98  0.002441  (-0.000000  0.049402 -0.000008)
  9:    308.90   0.001962    9.92  0.001983  ( 0.000085  0.044525 -0.000002)
 10:    323.28   0.000316    1.60  0.000305  ( 0.017458  0.000072  0.000218)
 11:    413.65   0.000021    0.11  0.000016  ( 0.000025 -0.004001  0.000042)
 12:    418.50   0.000011    0.05  0.000008  ( 0.000050  0.002805 -0.000020)
 13:    471.21   0.000564    2.85  0.000373  ( 0.017245  0.000022  0.008723)
 14:    504.38   0.009630   48.67  0.005958  (-0.028926  0.000002 -0.071564)
 15:    639.57   0.060095  303.70  0.029322  (-0.150615 -0.000026 -0.081469)
 16:    663.55   0.000013    0.07  0.000006  ( 0.000006 -0.002462  0.000008)
 17:    723.54   0.000794    4.02  0.000343  ( 0.017964 -0.000008 -0.004466)
 18:    757.06   0.000043    0.22  0.000018  ( 0.002523  0.000028  0.003388)
 19:    812.85   0.000033    0.17  0.000013  (-0.000044  0.003548 -0.000122)
 20:    820.64   0.012675   64.05  0.004820  (-0.019440 -0.000030 -0.066647)
 21:    853.03   0.000410    2.07  0.000150  ( 0.000080 -0.000005 -0.012243)
 22:    921.73   0.000087    0.44  0.000029  (-0.001021  0.000016 -0.005322)
 23:    925.64   0.000000    0.00  0.000000  ( 0.000009 -0.000193  0.000036)
 24:    999.69   0.000009    0.05  0.000003  (-0.000227  0.001662  0.000010)
 25:   1035.86   0.000063    0.32  0.000019  (-0.000297 -0.000003  0.004351)
 26:   1055.20   0.001875    9.48  0.000555  (-0.019654 -0.000066  0.012974)
 27:   1097.26   0.000659    3.33  0.000187  ( 0.000073 -0.013690 -0.000003)
 28:   1152.02   0.001836    9.28  0.000497  ( 0.000016 -0.022303 -0.000001)
 29:   1203.00   0.001524    7.70  0.000395  ( 0.019884  0.000001 -0.000201)
 30:   1234.39   0.000126    0.63  0.000032  ( 0.005374 -0.000040 -0.001692)
 31:   1297.48   0.013538   68.41  0.003256  (-0.057059 -0.000020  0.000605)
 32:   1337.68   0.000489    2.47  0.000114  (-0.000034 -0.010679  0.000005)
 33:   1362.11   0.000996    5.03  0.000228  (-0.000021  0.015105 -0.000004)
 34:   1401.00   0.000010    0.05  0.000002  (-0.001476 -0.000040 -0.000194)
 35:   1456.14   0.000205    1.04  0.000044  (-0.000019 -0.006631  0.000013)
 36:   1480.50   0.001274    6.44  0.000269  ( 0.002849 -0.000148  0.016139)
 37:   1492.90   0.001713    8.66  0.000358  (-0.000155 -0.018924 -0.000055)
 38:   1545.78   0.020069  101.42  0.004052  (-0.063651  0.000011 -0.000423)
 39:   1617.57   0.000588    2.97  0.000114  ( 0.000108  0.010654  0.000011)
 40:   1651.34   0.001129    5.70  0.000213  ( 0.007301 -0.000003  0.012650)
 41:   1663.12   0.021372  108.01  0.004010  ( 0.061479 -0.000005 -0.015184)
 42:   3000.54   0.009634   48.69  0.001002  ( 0.031110  0.000004 -0.005845)
 43:   3064.84   0.004035   20.39  0.000411  ( 0.007314  0.000012  0.018902)
 44:   3095.55   0.003460   17.48  0.000349  (-0.000116 -0.018676 -0.000045)
 45:   3141.09   0.000086    0.43  0.000009  (-0.001427  0.002552 -0.000008)
 46:   3141.45   0.005757   29.09  0.000572  ( 0.023914  0.000129  0.000086)
 47:   3156.89   0.008124   41.06  0.000803  ( 0.000041  0.028339 -0.000003)
 48:   3160.47   0.000133    0.67  0.000013  ( 0.003613 -0.000143 -0.000113)
 49:   3545.72   0.002521   12.74  0.000222  ( 0.013883 -0.000001 -0.005398)
 50:   3646.75   0.002264   11.44  0.000194  (-0.000001  0.013918 -0.000006)

--------------------------
THERMOCHEMISTRY AT 298.15K
--------------------------

Temperature         ...   298.15 K
Pressure            ...     1.00 atm
Total Mass          ...   107.16 AMU
Quasi RRHO          ...     True
Cut-Off Frequency   ...     1.00 cm^-1

Throughout the following assumptions are being made:
  (1) The electronic state is orbitally nondegenerate
  (2) There are no thermally accessible electronically excited states
  (3) Hindered rotations indicated by low frequency modes are not
      treated as such but are treated as vibrations and this may
      cause some error
  (4) All equations used are the standard statistical mechanics
      equations for an ideal gas
  (5) All vibrations are strictly harmonic

freq.      64.19  E(vib)   ...       0.51
freq.     142.14  E(vib)   ...       0.41
freq.     303.16  E(vib)   ...       0.26
freq.     308.90  E(vib)   ...       0.26
freq.     323.28  E(vib)   ...       0.25
freq.     413.65  E(vib)   ...       0.19
freq.     418.50  E(vib)   ...       0.18
freq.     471.21  E(vib)   ...       0.15
freq.     504.38  E(vib)   ...       0.14
freq.     639.57  E(vib)   ...       0.09
freq.     663.55  E(vib)   ...       0.08
freq.     723.54  E(vib)   ...       0.06
freq.     757.06  E(vib)   ...       0.06
freq.     812.85  E(vib)   ...       0.05
freq.     820.64  E(vib)   ...       0.05
freq.     853.03  E(vib)   ...       0.04
freq.     921.73  E(vib)   ...       0.03
freq.     925.64  E(vib)   ...       0.03
freq.     999.69  E(vib)   ...       0.02
freq.    1035.86  E(vib)   ...       0.02
freq.    1055.20  E(vib)   ...       0.02
freq.    1097.26  E(vib)   ...       0.02
freq.    1152.02  E(vib)   ...       0.01
freq.    1203.00  E(vib)   ...       0.01
freq.    1234.39  E(vib)   ...       0.01
freq.    1297.48  E(vib)   ...       0.01
freq.    1337.68  E(vib)   ...       0.01
freq.    1362.11  E(vib)   ...       0.01
freq.    1401.00  E(vib)   ...       0.00
freq.    1456.14  E(vib)   ...       0.00
freq.    1480.50  E(vib)   ...       0.00
freq.    1492.90  E(vib)   ...       0.00
freq.    1545.78  E(vib)   ...       0.00
freq.    1617.57  E(vib)   ...       0.00
freq.    1651.34  E(vib)   ...       0.00
freq.    1663.12  E(vib)   ...       0.00
freq.    3000.54  E(vib)   ...       0.00
freq.    3064.84  E(vib)   ...       0.00
freq.    3095.55  E(vib)   ...       0.00
freq.    3141.09  E(vib)   ...       0.00
freq.    3141.45  E(vib)   ...       0.00
freq.    3156.89  E(vib)   ...       0.00
freq.    3160.47  E(vib)   ...       0.00
freq.    3545.72  E(vib)   ...       0.00
freq.    3646.75  E(vib)   ...       0.00

------------
INNER ENERGY
------------

The inner energy is: U= E(el) + E(ZPE) + E(vib) + E(rot) + E(trans)
    E(el)   - is the total energy from the electronic structure calculation
              = E(kin-el) + E(nuc-el) + E(el-el) + E(nuc-nuc)
    E(ZPE)  - the the zero temperature vibrational energy from the frequency calculation
    E(vib)  - the the finite temperature correction to E(ZPE) due to population
              of excited vibrational states
    E(rot)  - is the rotational thermal energy
    E(trans)- is the translational thermal energy

Summary of contributions to the inner energy U:
Electronic energy                ...   -326.85530913 Eh
Zero point energy                ...      0.14375995 Eh      90.21 kcal/mol
Thermal vibrational correction   ...      0.00474964 Eh       2.98 kcal/mol
Thermal rotational correction    ...      0.00141627 Eh       0.89 kcal/mol
Thermal translational correction ...      0.00141627 Eh       0.89 kcal/mol
-----------------------------------------------------------------------
Total thermal energy                   -326.70396700 Eh

Summary of corrections to the electronic energy:
(perhaps to be used in another calculation)
Total thermal correction                  0.00758219 Eh       4.76 kcal/mol
Non-thermal (ZPE) correction              0.14375995 Eh      90.21 kcal/mol
-----------------------------------------------------------------------
Total correction                          0.15134214 Eh      94.97 kcal/mol

--------
ENTHALPY
--------

The enthalpy is H = U + kB*T
                kB is Boltzmann's constant
Total thermal energy              ...   -326.70396700 Eh
Thermal Enthalpy correction       ...      0.00094421 Eh       0.59 kcal/mol
-----------------------------------------------------------------------
Total Enthalpy                    ...   -326.70302279 Eh

Note: Only C1 symmetry has been detected, increase convergence thresholds
      if your molecule has a higher symmetry. Symmetry factor of 1.0 is
      used for the rotational entropy correction.

Note: Rotational entropy computed according to Herzberg
Infrared and Raman Spectra, Chapter V,1, Van Nostrand Reinhold, 1945
Point Group:  C1, Symmetry Number:   1
Rotational constants in cm-1:     0.182918     0.048551     0.038690

Vibrational entropy computed according to the QRRHO of S. Grimme
Chem.Eur.J. 2012 18 9955 using a reference frequency of 100.0 cm-1

-------
ENTROPY
-------

The entropy contributions are T*S = T*(S(el)+S(vib)+S(rot)+S(trans))
     S(el)   - electronic entropy
     S(vib)  - vibrational entropy
     S(rot)  - rotational entropy
     S(trans)- translational entropy
The entropies will be listed as multiplied by the temperature to get
units of energy

Electronic entropy                ...      0.00000000 Eh      0.00 kcal/mol
Vibrational entropy               ...      0.00765463 Eh      4.80 kcal/mol
Rotational entropy                ...      0.01327622 Eh      8.33 kcal/mol
Translational entropy             ...      0.01896913 Eh     11.90 kcal/mol
-----------------------------------------------------------------------
Final entropy term                ...      0.03989997 Eh     25.04 kcal/mol

In case the symmetry of your molecule has not been determined correctly
or in case you have a reason to use a different symmetry number we print
out the resulting rotational entropy values for sn=1,12:

 non-linear molecules -----------------------------------
|  sn= 1 | S(rot)=       0.01327622 Eh      8.33 kcal/mol|
|  sn= 2 | S(rot)=       0.01262176 Eh      7.92 kcal/mol|
|  sn= 3 | S(rot)=       0.01223893 Eh      7.68 kcal/mol|
|  sn= 4 | S(rot)=       0.01196731 Eh      7.51 kcal/mol|
|  sn= 5 | S(rot)=       0.01175662 Eh      7.38 kcal/mol|
|  sn= 6 | S(rot)=       0.01158448 Eh      7.27 kcal/mol|
|  sn= 7 | S(rot)=       0.01143893 Eh      7.18 kcal/mol|
|  sn= 8 | S(rot)=       0.01131285 Eh      7.10 kcal/mol|
|  sn= 9 | S(rot)=       0.01120164 Eh      7.03 kcal/mol|
|  sn=10 | S(rot)=       0.01110216 Eh      6.97 kcal/mol|
|  sn=11 | S(rot)=       0.01101217 Eh      6.91 kcal/mol|
|  sn=12 | S(rot)=       0.01093002 Eh      6.86 kcal/mol|
 linear molecules ---------------------------------------
|  Dinfh | S(rot)=       0.00839644 Eh      5.27 kcal/mol|
|  Cinfv | S(rot)=       0.00905090 Eh      5.68 kcal/mol|

                             ****ORCA TERMINATED NORMALLY****
TOTAL RUN TIME: 0 days 0 hours 14 minutes 6 seconds 441 msec
