                         Program Version 6.0.1  -  RELEASE   -
|  1> ! pbe def2-sv(p) def2/J RI DEFGRID1 loosescf d4 GCP(DFT/SV(P)) printgap
|  2> %output
|  3>     printlevel normal
|  4> end
|  5> * xyz 0 1
|  6> C 1.9536104762 2.3615215901 1.3287592914
|  7> C 1.5279429711 1.7016684705 0.0184434796
|  8> C 2.5816811957 0.6777362937 -0.4753161991
|  9> C 1.8690655618 -0.6330595828 -0.3294659233
| 10> C 2.2907475622 -1.9252747265 -0.5547433561
| 11> C 1.3965776591 -2.9622367317 -0.3255500392
| 12> C 0.1105432412 -2.7049269957 0.115077388
| 13> C -0.3268977585 -1.4030890436 0.3430888588
| 14> C 0.5768893583 -0.3682264934 0.1166348061
| 15> O 0.3192998689 0.9522147355 0.2777116401
| 16> O -1.5860520452 -1.2144379835 0.8692147938
| 17> C -2.4025694666 -0.1954927671 0.4767103311
| 18> O -3.2823457954 0.1771881219 1.2046387889
| 19> N -2.204468403 0.259218195 -0.7813485512
| 20> C -2.940137379 1.3815828536 -1.3054232488
| 21> C 1.2005278623 2.7521285764 -1.0403212524
| 22> H 2.8441994907 2.9650518759 1.1748486224
| 23> H 1.1520682686 2.9957721576 1.6984002512
| 24> H 2.1615214328 1.5997787624 2.0769543292
| 25> H 2.863322811 0.8622981044 -1.5143748502
| 26> H 3.4874164415 0.7154278858 0.1310581465
| 27> H 3.2944817012 -2.1239370328 -0.8966317068
| 28> H 1.7054236682 -3.9824824686 -0.4901881483
| 29> H -0.5810105561 -3.5099651574 0.3045969333
| 30> H -1.4348518638 -0.0936011152 -1.3268511946
| 31> H -2.2847978038 2.2433256776 -1.4507969907
| 32> H -3.7108569142 1.6337637355 -0.5796479549
| 33> H -3.4071193048 1.1181763279 -2.2558612617
| 34> H 0.4025743121 3.3976850205 -0.6822814818
| 35> H 0.8728780926 2.2714802018 -1.9600711777
| 36> H 2.0783185043 3.3572077077 -1.2499833045
| 37> *
| 38>
| 39>                          ****END OF INPUT****

CARTESIAN COORDINATES (ANGSTROEM)
---------------------------------
  C      1.953610    2.361522    1.328759
  C      1.527943    1.701668    0.018443
  C      2.581681    0.677736   -0.475316
  C      1.869066   -0.633060   -0.329466
  C      2.290748   -1.925275   -0.554743
  C      1.396578   -2.962237   -0.325550
  C      0.110543   -2.704927    0.115077
  C     -0.326898   -1.403089    0.343089
  C      0.576889   -0.368226    0.116635
  O      0.319300    0.952215    0.277712
  O     -1.586052   -1.214438    0.869215
  C     -2.402569   -0.195493    0.476710
  O     -3.282346    0.177188    1.204639
  N     -2.204468    0.259218   -0.781349
  C     -2.940137    1.381583   -1.305423
  C      1.200528    2.752129   -1.040321
  H      2.844199    2.965052    1.174849
  H      1.152068    2.995772    1.698400
  H      2.161521    1.599779    2.076954
  H      2.863323    0.862298   -1.514375
  H      3.487416    0.715428    0.131058
  H      3.294482   -2.123937   -0.896632
  H      1.705424   -3.982482   -0.490188
  H     -0.581011   -3.509965    0.304597
  H     -1.434852   -0.093601   -1.326851
  H     -2.284798    2.243326   -1.450797
  H     -3.710857    1.633764   -0.579648
  H     -3.407119    1.118176   -2.255861
  H      0.402574    3.397685   -0.682281
  H      0.872878    2.271480   -1.960071
  H      2.078319    3.357208   -1.249983

 Total Charge           Charge          ....    0
 Multiplicity           Mult            ....    1
 Number of Electrons    NEL             ....  118
 Basis Dimension        Dim             ....  254

ORBITAL ENERGIES
----------------

  NO   OCC          E(Eh)            E(eV)
   0   2.0000     -18.800023      -511.5746
   1   2.0000     -18.795130      -511.4415
   2   2.0000     -18.705200      -508.9944
   3   2.0000     -14.015774      -381.3886
   4   2.0000     -10.017894      -272.6008
   5   2.0000      -9.972996      -271.3790
   6   2.0000      -9.959576      -271.0138
   7   2.0000      -9.955011      -270.8896
   8   2.0000      -9.915635      -269.8182
   9   2.0000      -9.909437      -269.6495
  10   2.0000      -9.908159      -269.6147
  11   2.0000      -9.899954      -269.3914
  12   2.0000      -9.898015      -269.3387
  13   2.0000      -9.896851      -269.3070
  14   2.0000      -9.894123      -269.2328
  15   2.0000      -9.889285      -269.1011
  16   2.0000      -1.008840       -27.4519
  17   2.0000      -0.987023       -26.8583
  18   2.0000      -0.914575       -24.8869
  19   2.0000      -0.834844       -22.7173
  20   2.0000      -0.783856       -21.3298
  21   2.0000      -0.746818       -20.3219
  22   2.0000      -0.703581       -19.1454
  23   2.0000      -0.677208       -18.4278
  24   2.0000      -0.639266       -17.3953
  25   2.0000      -0.636379       -17.3168
  26   2.0000      -0.625738       -17.0272
  27   2.0000      -0.582301       -15.8452
  28   2.0000      -0.561545       -15.2804
  29   2.0000      -0.530401       -14.4330
  30   2.0000      -0.524813       -14.2809
  31   2.0000      -0.514073       -13.9886
  32   2.0000      -0.461544       -12.5592
  33   2.0000      -0.446319       -12.1449
  34   2.0000      -0.440601       -11.9894
  35   2.0000      -0.436636       -11.8815
  36   2.0000      -0.429216       -11.6795
  37   2.0000      -0.413701       -11.2574
  38   2.0000      -0.401248       -10.9185
  39   2.0000      -0.383990       -10.4489
  40   2.0000      -0.377120       -10.2619
  41   2.0000      -0.374229       -10.1833
  42   2.0000      -0.368682       -10.0324
  43   2.0000      -0.362502        -9.8642
  44   2.0000      -0.361617        -9.8401
  45   2.0000      -0.348913        -9.4944
  46   2.0000      -0.347429        -9.4540
  47   2.0000      -0.341802        -9.3009
  48   2.0000      -0.333208        -9.0670
  49   2.0000      -0.328045        -8.9266
  50   2.0000      -0.320587        -8.7236
  51   2.0000      -0.311335        -8.4719
  52   2.0000      -0.297329        -8.0907
  53   2.0000      -0.286190        -7.7876
  54   2.0000      -0.272153        -7.4057
  55   2.0000      -0.218163        -5.9365
  56   2.0000      -0.215400        -5.8613
  57   2.0000      -0.209565        -5.7026
  58   2.0000      -0.193269        -5.2591
  59   0.0000      -0.042613        -1.1595
  60   0.0000      -0.027637        -0.7520
  61   0.0000       0.012700         0.3456
  62   0.0000       0.029009         0.7894
  63   0.0000       0.044095         1.1999

MULLIKEN ATOMIC CHARGES
-----------------------
   0 C :   -0.196344
   1 C :   -0.086164
   2 C :   -0.005991
   3 C :   -0.017927
   4 C :   -0.160632
   5 C :   -0.043027
   6 C :   -0.136277
   7 C :    0.107056
   8 C :    0.112114
   9 O :   -0.250981
  10 O :   -0.199732
  11 C :    0.195242
  12 O :   -0.190404
  13 N :   -0.318934
  14 C :   -0.183651
  15 C :   -0.211716
  16 H :    0.103948
  17 H :    0.114666
  18 H :    0.111288
  19 H :    0.092232
  20 H :    0.095906
  21 H :    0.034001
  22 H :    0.053894
  23 H :    0.050220
  24 H :    0.243752
  25 H :    0.108518
  26 H :    0.139174
  27 H :    0.111710
  28 H :    0.118189
  29 H :    0.101465
  30 H :    0.108406
Sum of atomic charges:    0.0000000

LOEWDIN ATOMIC CHARGES
----------------------
   0 C :   -0.326740
   1 C :    0.015520
   2 C :   -0.198876
   3 C :   -0.066326
   4 C :   -0.131243
   5 C :   -0.135081
   6 C :   -0.132417
   7 C :   -0.007452
   8 C :    0.000044
   9 O :   -0.071708
  10 O :   -0.035610
  11 C :    0.028157
  12 O :   -0.178019
  13 N :   -0.182488
  14 C :   -0.258255
  15 C :   -0.328293
  16 H :    0.124994
  17 H :    0.128398
  18 H :    0.127317
  19 H :    0.131368
  20 H :    0.134107
  21 H :    0.124967
  22 H :    0.125968
  23 H :    0.136339
  24 H :    0.233881
  25 H :    0.112124
  26 H :    0.138290
  27 H :    0.116322
  28 H :    0.127099
  29 H :    0.120119
  30 H :    0.127494

  Mayer bond orders larger than 0.100000
B(  0-C ,  1-C ) :   1.1014 B(  0-C , 16-H ) :   0.9395 B(  0-C , 17-H ) :   0.9391
B(  0-C , 18-H ) :   0.9370 B(  1-C ,  2-C ) :   1.0546 B(  1-C ,  9-O ) :   0.9360
B(  1-C , 15-C ) :   1.1030 B(  2-C ,  3-C ) :   1.0641 B(  2-C , 19-H ) :   0.8771
B(  2-C , 20-H ) :   0.8809 B(  3-C ,  4-C ) :   1.3825 B(  3-C ,  8-C ) :   1.3434
B(  4-C ,  5-C ) :   1.3054 B(  4-C , 21-H ) :   0.9848 B(  5-C ,  6-C ) :   1.3427
B(  5-C , 22-H ) :   0.9655 B(  6-C ,  7-C ) :   1.3793 B(  6-C , 23-H ) :   0.9721
B(  7-C ,  8-C ) :   1.2927 B(  7-C , 10-O ) :   1.0681 B(  8-C ,  9-O ) :   1.1224
B( 10-O , 11-C ) :   1.0370 B( 11-C , 12-O ) :   2.1044 B( 11-C , 13-N ) :   1.1968
B( 13-N , 14-C ) :   1.0358 B( 13-N , 24-H ) :   0.8425 B( 14-C , 25-H ) :   0.9510
B( 14-C , 26-H ) :   0.9355 B( 14-C , 27-H ) :   0.9594 B( 15-C , 28-H ) :   0.9376
B( 15-C , 29-H ) :   0.9370 B( 15-C , 30-H ) :   0.9401

Dispersion correction           -0.037677707
FINAL SINGLE POINT ENERGY      -745.169750807220

DIPOLE MOMENT
-------------

Method             : SCF
Type of density    : Electron Density
Multiplicity       :   1
Irrep              :   0
Energy             :  -745.2715648335779406 Eh
Relativity type    :
Basis              : AO
                                X                 Y                 Z
Electronic contribution:     -7.077298914     -12.039351961       5.124389914
Nuclear contribution   :      8.780181628      12.618532446      -6.556181734
                        -----------------------------------------
Total Dipole Moment    :      1.702882714       0.579180485      -1.431791820
                        -----------------------------------------
Magnitude (a.u.)       :      2.298975291
Magnitude (Debye)      :      5.843530797

Rotational constants in cm-1:             0.022219             0.017065             0.011451
Rotational constants in MHz :           666.101008           511.606583           343.297153

                             ****ORCA TERMINATED NORMALLY****
TOTAL RUN TIME: 0 days 0 hours 0 minutes 27 seconds 673 msec
