                         Program Version 6.0.1  -  RELEASE   -
|  1> ! r2scan-3c def2/J RI DEFGRID2 scfconv6 printgap
|  2> %output
|  3>     printlevel normal
|  4> end
|  5> * xyz 0 1
|  6> C -3.6967637423 0.0375608963 -0.1122520358
|  7> C -2.2252117175 0.0191283128 0.2902252169
|  8> H -2.1450582122 -0.3829350176 1.3065532196
|  9> C -1.6251289246 1.4235992257 0.2733991839
| 10> C -0.1508568388 1.3834860928 0.6581639694
| 11> C 0.651519728 0.5059680664 -0.3167155814
| 12> H 0.4726620356 0.8942987305 -1.3277349747
| 13> C 0.0453361272 -0.8837848318 -0.2793013566
| 14> O 0.6309094417 -1.8921805964 0.0245667589
| 15> C -1.4221304301 -0.8897083902 -0.6495841897
| 16> C 2.1695837368 0.5726807088 -0.0644479296
| 17> C 2.5776672922 0.0507025867 1.3115170257
| 18> C 2.9223842736 -0.1835749121 -1.1586450263
| 19> H -4.1128500535 -0.9667603935 -0.0903704975
| 20> H -4.2694561345 0.6609842897 0.5705653124
| 21> H -3.8118790193 0.4353514442 -1.1185330161
| 22> H -1.7354596282 1.8547798876 -0.7248954412
| 23> H -2.1683751804 2.0619547673 0.9735144828
| 24> H 0.2660745768 2.3930054272 0.6542629365
| 25> H -0.0563554271 0.9843158687 1.6694278596
| 26> H -1.5295142748 -0.5288722309 -1.6752588123
| 27> H -1.7962552544 -1.9138214934 -0.6000775331
| 28> H 2.4520526738 1.6324831898 -0.1257266112
| 29> H 2.1350481713 0.6452975067 2.1068489089
| 30> H 3.6592157094 0.1018002339 1.4160205326
| 31> H 2.269706187 -0.9835613505 1.4290008213
| 32> H 2.6519876413 0.1898447356 -2.1448767421
| 33> H 2.6885971422 -1.2432286965 -1.1110362979
| 34> H 3.9953546615 -0.0618795206 -1.0299290839
| 35> *
| 36>
| 37>                          ****END OF INPUT****

CARTESIAN COORDINATES (ANGSTROEM)
---------------------------------
  C     -3.696764    0.037561   -0.112252
  C     -2.225212    0.019128    0.290225
  H     -2.145058   -0.382935    1.306553
  C     -1.625129    1.423599    0.273399
  C     -0.150857    1.383486    0.658164
  C      0.651520    0.505968   -0.316716
  H      0.472662    0.894299   -1.327735
  C      0.045336   -0.883785   -0.279301
  O      0.630909   -1.892181    0.024567
  C     -1.422130   -0.889708   -0.649584
  C      2.169584    0.572681   -0.064448
  C      2.577667    0.050703    1.311517
  C      2.922384   -0.183575   -1.158645
  H     -4.112850   -0.966760   -0.090370
  H     -4.269456    0.660984    0.570565
  H     -3.811879    0.435351   -1.118533
  H     -1.735460    1.854780   -0.724895
  H     -2.168375    2.061955    0.973514
  H      0.266075    2.393005    0.654263
  H     -0.056355    0.984316    1.669428
  H     -1.529514   -0.528872   -1.675259
  H     -1.796255   -1.913821   -0.600078
  H      2.452053    1.632483   -0.125727
  H      2.135048    0.645298    2.106849
  H      3.659216    0.101800    1.416021
  H      2.269706   -0.983561    1.429001
  H      2.651988    0.189845   -2.144877
  H      2.688597   -1.243229   -1.111036
  H      3.995355   -0.061880   -1.029929

 Total Charge           Charge          ....    0
 Multiplicity           Mult            ....    1
 Number of Electrons    NEL             ....   86
 Basis Dimension        Dim             ....  304

ORBITAL ENERGIES
----------------

  NO   OCC          E(Eh)            E(eV)
   0   2.0000     -18.935195      -515.2528
   1   2.0000     -10.113500      -275.2023
   2   2.0000     -10.048486      -273.4332
   3   2.0000     -10.041409      -273.2406
   4   2.0000     -10.039038      -273.1761
   5   2.0000     -10.034872      -273.0628
   6   2.0000     -10.034034      -273.0399
   7   2.0000     -10.033628      -273.0289
   8   2.0000     -10.025412      -272.8053
   9   2.0000     -10.007137      -272.3080
  10   2.0000     -10.005162      -272.2543
  11   2.0000      -1.008081       -27.4313
  12   2.0000      -0.817136       -22.2354
  13   2.0000      -0.774045       -21.0628
  14   2.0000      -0.722086       -19.6490
  15   2.0000      -0.699165       -19.0253
  16   2.0000      -0.651792       -17.7362
  17   2.0000      -0.643176       -17.5017
  18   2.0000      -0.581792       -15.8314
  19   2.0000      -0.555372       -15.1124
  20   2.0000      -0.539401       -14.6779
  21   2.0000      -0.490840       -13.3564
  22   2.0000      -0.451391       -12.2830
  23   2.0000      -0.446167       -12.1408
  24   2.0000      -0.418717       -11.3939
  25   2.0000      -0.417605       -11.3636
  26   2.0000      -0.408210       -11.1080
  27   2.0000      -0.394233       -10.7276
  28   2.0000      -0.385892       -10.5007
  29   2.0000      -0.373379       -10.1602
  30   2.0000      -0.368980       -10.0405
  31   2.0000      -0.360297        -9.8042
  32   2.0000      -0.344793        -9.3823
  33   2.0000      -0.343069        -9.3354
  34   2.0000      -0.332076        -9.0362
  35   2.0000      -0.322418        -8.7734
  36   2.0000      -0.318603        -8.6696
  37   2.0000      -0.305394        -8.3102
  38   2.0000      -0.297609        -8.0984
  39   2.0000      -0.292930        -7.9710
  40   2.0000      -0.286805        -7.8044
  41   2.0000      -0.277502        -7.5512
  42   2.0000      -0.203004        -5.5240
  43   0.0000      -0.045043        -1.2257
  44   0.0000       0.072860         1.9826
  45   0.0000       0.082701         2.2504
  46   0.0000       0.097231         2.6458
  47   0.0000       0.107616         2.9284

MULLIKEN ATOMIC CHARGES
-----------------------
   0 C :   -0.491909
   1 C :   -0.016511
   2 H :    0.165880
   3 C :   -0.363296
   4 C :   -0.346186
   5 C :   -0.123147
   6 H :    0.174748
   7 C :    0.225424
   8 O :   -0.357319
   9 C :   -0.371315
  10 C :    0.085001
  11 C :   -0.571451
  12 C :   -0.561776
  13 H :    0.152784
  14 H :    0.149929
  15 H :    0.150820
  16 H :    0.159096
  17 H :    0.151229
  18 H :    0.156153
  19 H :    0.170212
  20 H :    0.171884
  21 H :    0.169470
  22 H :    0.152192
  23 H :    0.144591
  24 H :    0.142831
  25 H :    0.200041
  26 H :    0.141899
  27 H :    0.192597
  28 H :    0.146127
Sum of atomic charges:    0.0000000

LOEWDIN ATOMIC CHARGES
----------------------
   0 C :   -0.409624
   1 C :   -0.218537
   2 H :    0.162879
   3 C :   -0.292035
   4 C :   -0.270975
   5 C :   -0.197564
   6 H :    0.180736
   7 C :    0.236516
   8 O :   -0.470269
   9 C :   -0.260999
  10 C :   -0.223770
  11 C :   -0.409916
  12 C :   -0.409114
  13 H :    0.156046
  14 H :    0.155287
  15 H :    0.154445
  16 H :    0.159310
  17 H :    0.161518
  18 H :    0.162867
  19 H :    0.165078
  20 H :    0.174995
  21 H :    0.178375
  22 H :    0.157224
  23 H :    0.150233
  24 H :    0.153021
  25 H :    0.178042
  26 H :    0.150384
  27 H :    0.173433
  28 H :    0.152416

  Mayer bond orders larger than 0.100000
B(  0-C ,  1-C ) :   0.8930 B(  0-C , 13-H ) :   0.9754 B(  0-C , 14-H ) :   0.9739
B(  0-C , 15-H ) :   0.9970 B(  1-C ,  2-H ) :   0.9395 B(  1-C ,  3-C ) :   0.9144
B(  1-C ,  9-C ) :   0.8933 B(  3-C ,  4-C ) :   0.8840 B(  3-C , 16-H ) :   1.0159
B(  3-C , 17-H ) :   0.9480 B(  4-C ,  5-C ) :   0.8548 B(  4-C , 18-H ) :   0.9496
B(  4-C , 19-H ) :   0.9891 B(  5-C ,  6-H ) :   0.9735 B(  5-C ,  7-C ) :   0.8770
B(  5-C , 10-C ) :   0.8749 B(  7-C ,  8-O ) :   1.9703 B(  7-C ,  9-C ) :   0.9189
B(  9-C , 20-H ) :   0.9942 B(  9-C , 21-H ) :   0.9548 B( 10-C , 11-C ) :   0.8443
B( 10-C , 12-C ) :   0.8692 B( 10-C , 22-H ) :   0.9929 B( 11-C , 23-H ) :   0.9759
B( 11-C , 24-H ) :   0.9718 B( 11-C , 25-H ) :   0.9767 B( 12-C , 26-H ) :   0.9790
B( 12-C , 27-H ) :   0.9775 B( 12-C , 28-H ) :   0.9748

Dispersion correction           -0.010220740
FINAL SINGLE POINT ENERGY      -467.007608902690

DIPOLE MOMENT
-------------

Method             : SCF
Type of density    : Electron Density
Multiplicity       :   1
Irrep              :   0
Energy             :  -467.0104547870108718 Eh
Relativity type    :
Basis              : AO
                                X                 Y                 Z
Electronic contribution:      0.305892106      -4.429177094      -0.333706916
Nuclear contribution   :     -0.961177922       5.388016070       0.167128063
                        -----------------------------------------
Total Dipole Moment    :     -0.655285816       0.958838977      -0.166578853
                        -----------------------------------------
Magnitude (a.u.)       :      1.173251976
Magnitude (Debye)      :      2.982169525

Rotational constants in cm-1:             0.071338             0.023134             0.020382
Rotational constants in MHz :          2138.649566           693.547653           611.037675

                             ****ORCA TERMINATED NORMALLY****
TOTAL RUN TIME: 0 days 0 hours 0 minutes 39 seconds 870 msec
