                         Program Version 6.0.1  -  RELEASE   -
|  1> ! pbe def2-sv(p) def2/J RI DEFGRID1 loosescf d4 GCP(DFT/SV(P)) printgap
|  2> %output
|  3>     printlevel normal
|  4> end
|  5> * xyz 0 1
|  6> C -2.3546115708 -0.798914163 -0.1178828439
|  7> C -1.0074231518 -0.2664956489 0.3970331159
|  8> H -1.1393981677 0.0418162009 1.4491472244
|  9> C -0.5516407494 0.9464879437 -0.4187921383
| 10> H -0.6147920733 0.692110723 -1.484060831
| 11> C 0.9083675608 1.3496571128 -0.0929296195
| 12> H 0.8991467088 2.1543360128 0.6581283235
| 13> C 1.740447509 0.1795498016 0.4829333001
| 14> H 2.7839509071 0.3475156072 0.1950619833
| 15> C 1.2126084088 -1.117025128 -0.1361749799
| 16> H 1.7800595184 -1.990204708 0.214948934
| 17> O -0.0843115756 -1.3570416513 0.3699446758
| 18> O 1.27093938 -1.1034663145 -1.5213657266
| 19> O 1.6877262686 0.1288241721 1.8814751389
| 20> O 1.5670841715 1.7734856421 -1.2686853959
| 21> O -1.4280946472 2.0331870514 -0.2586568357
| 22> O -2.8610067974 -1.7997509089 0.7180798689
| 23> H -2.2112076889 -1.1736546103 -1.1407062885
| 24> H -3.089774761 0.0082857974 -0.1295155018
| 25> H 1.4116001382 -0.1992727005 -1.8412677481
| 26> H 1.0018542631 -0.5000103022 2.1422592333
| 27> H 1.1011248665 2.5383248852 -1.6274264719
| 28> H -1.5275933211 2.2326644189 0.6804765205
| 29> H -2.1904845315 -2.4913771329 0.7795582559
| 30> *
| 31>
| 32>                          ****END OF INPUT****

CARTESIAN COORDINATES (ANGSTROEM)
---------------------------------
  C     -2.354612   -0.798914   -0.117883
  C     -1.007423   -0.266496    0.397033
  H     -1.139398    0.041816    1.449147
  C     -0.551641    0.946488   -0.418792
  H     -0.614792    0.692111   -1.484061
  C      0.908368    1.349657   -0.092930
  H      0.899147    2.154336    0.658128
  C      1.740448    0.179550    0.482933
  H      2.783951    0.347516    0.195062
  C      1.212608   -1.117025   -0.136175
  H      1.780060   -1.990205    0.214949
  O     -0.084312   -1.357042    0.369945
  O      1.270939   -1.103466   -1.521366
  O      1.687726    0.128824    1.881475
  O      1.567084    1.773486   -1.268685
  O     -1.428095    2.033187   -0.258657
  O     -2.861007   -1.799751    0.718080
  H     -2.211208   -1.173655   -1.140706
  H     -3.089775    0.008286   -0.129516
  H      1.411600   -0.199273   -1.841268
  H      1.001854   -0.500010    2.142259
  H      1.101125    2.538325   -1.627426
  H     -1.527593    2.232664    0.680477
  H     -2.190485   -2.491377    0.779558

 Total Charge           Charge          ....    0
 Multiplicity           Mult            ....    1
 Number of Electrons    NEL             ....   96
 Basis Dimension        Dim             ....  192

ORBITAL ENERGIES
----------------

  NO   OCC          E(Eh)            E(eV)
   0   2.0000     -18.784815      -511.1608
   1   2.0000     -18.782106      -511.0871
   2   2.0000     -18.772211      -510.8178
   3   2.0000     -18.763971      -510.5936
   4   2.0000     -18.761788      -510.5342
   5   2.0000     -18.745423      -510.0889
   6   2.0000      -9.994282      -271.9582
   7   2.0000      -9.958680      -270.9895
   8   2.0000      -9.957495      -270.9572
   9   2.0000      -9.955308      -270.8977
  10   2.0000      -9.953555      -270.8500
  11   2.0000      -9.932899      -270.2879
  12   2.0000      -0.992724       -27.0134
  13   2.0000      -0.961207       -26.1558
  14   2.0000      -0.948016       -25.7968
  15   2.0000      -0.940375       -25.5889
  16   2.0000      -0.929761       -25.3001
  17   2.0000      -0.914842       -24.8941
  18   2.0000      -0.716050       -19.4847
  19   2.0000      -0.698019       -18.9941
  20   2.0000      -0.622950       -16.9513
  21   2.0000      -0.610733       -16.6189
  22   2.0000      -0.568169       -15.4607
  23   2.0000      -0.541205       -14.7269
  24   2.0000      -0.516998       -14.0682
  25   2.0000      -0.508602       -13.8398
  26   2.0000      -0.483748       -13.1634
  27   2.0000      -0.478574       -13.0227
  28   2.0000      -0.456371       -12.4185
  29   2.0000      -0.442970       -12.0538
  30   2.0000      -0.408284       -11.1100
  31   2.0000      -0.398576       -10.8458
  32   2.0000      -0.391417       -10.6510
  33   2.0000      -0.387663       -10.5488
  34   2.0000      -0.381478       -10.3805
  35   2.0000      -0.360140        -9.7999
  36   2.0000      -0.343032        -9.3344
  37   2.0000      -0.329768        -8.9735
  38   2.0000      -0.323329        -8.7982
  39   2.0000      -0.298128        -8.1125
  40   2.0000      -0.291343        -7.9278
  41   2.0000      -0.273509        -7.4426
  42   2.0000      -0.269002        -7.3199
  43   2.0000      -0.261361        -7.1120
  44   2.0000      -0.241765        -6.5787
  45   2.0000      -0.233426        -6.3518
  46   2.0000      -0.227368        -6.1870
  47   2.0000      -0.211972        -5.7681
  48   0.0000       0.008535         0.2322
  49   0.0000       0.010504         0.2858
  50   0.0000       0.027568         0.7502
  51   0.0000       0.048567         1.3216
  52   0.0000       0.054011         1.4697

MULLIKEN ATOMIC CHARGES
-----------------------
   0 C :    0.095183
   1 C :   -0.016601
   2 H :    0.043390
   3 C :    0.036459
   4 H :    0.060239
   5 C :    0.048136
   6 H :    0.061838
   7 C :    0.028022
   8 H :    0.096408
   9 C :    0.160731
  10 H :    0.079628
  11 O :   -0.332380
  12 O :   -0.391539
  13 O :   -0.411283
  14 O :   -0.413856
  15 O :   -0.413476
  16 O :   -0.429826
  17 H :    0.075773
  18 H :    0.084628
  19 H :    0.309183
  20 H :    0.310209
  21 H :    0.315341
  22 H :    0.303060
  23 H :    0.300733
Sum of atomic charges:   -0.0000000

LOEWDIN ATOMIC CHARGES
----------------------
   0 C :   -0.126817
   1 C :   -0.086935
   2 H :    0.096438
   3 C :   -0.089011
   4 H :    0.118367
   5 C :   -0.081301
   6 H :    0.110011
   7 C :   -0.087177
   8 H :    0.124458
   9 C :   -0.009229
  10 H :    0.108009
  11 O :   -0.156869
  12 O :   -0.301890
  13 O :   -0.307811
  14 O :   -0.311635
  15 O :   -0.308180
  16 O :   -0.332970
  17 H :    0.103956
  18 H :    0.115314
  19 H :    0.275894
  20 H :    0.283971
  21 H :    0.295543
  22 H :    0.285126
  23 H :    0.282738

  Mayer bond orders larger than 0.100000
B(  0-C ,  1-C ) :   1.0487 B(  0-C , 16-O ) :   1.0813 B(  0-C , 17-H ) :   0.9055
B(  0-C , 18-H ) :   0.9124 B(  1-C ,  2-H ) :   0.8677 B(  1-C ,  3-C ) :   1.0278
B(  1-C , 11-O ) :   0.9469 B(  3-C ,  4-H ) :   0.8511 B(  3-C ,  5-C ) :   1.0038
B(  3-C , 15-O ) :   1.0161 B(  5-C ,  6-H ) :   0.8641 B(  5-C ,  7-C ) :   0.9610
B(  5-C , 14-O ) :   1.0275 B(  7-C ,  8-H ) :   0.8859 B(  7-C ,  9-C ) :   1.0557
B(  7-C , 13-O ) :   1.0732 B(  9-C , 10-H ) :   0.9052 B(  9-C , 11-O ) :   1.0134
B(  9-C , 12-O ) :   1.1447 B( 12-O , 19-H ) :   0.8044 B( 13-O , 20-H ) :   0.8299
B( 14-O , 19-H ) :   0.1024 B( 14-O , 21-H ) :   0.8398 B( 15-O , 22-H ) :   0.8449
B( 16-O , 23-H ) :   0.8449

Dispersion correction           -0.024984023
FINAL SINGLE POINT ENERGY      -685.691988088220

DIPOLE MOMENT
-------------

Method             : SCF
Type of density    : Electron Density
Multiplicity       :   1
Irrep              :   0
Energy             :  -685.8251171908917740 Eh
Relativity type    :
Basis              : AO
                                X                 Y                 Z
Electronic contribution:      1.816903988      -0.756052716       0.219024017
Nuclear contribution   :     -1.682240922       1.553052374      -0.098176812
                        -----------------------------------------
Total Dipole Moment    :      0.134663067       0.796999658       0.120847205
                        -----------------------------------------
Magnitude (a.u.)       :      0.817280028
Magnitude (Debye)      :      2.077360740

Rotational constants in cm-1:             0.041066             0.025952             0.021656
Rotational constants in MHz :          1231.124553           778.023221           649.234191

                             ****ORCA TERMINATED NORMALLY****
TOTAL RUN TIME: 0 days 0 hours 0 minutes 8 seconds 419 msec
