                         Program Version 6.0.1  -  RELEASE   -
|  1> ! r2scan-3c def2/J RI DEFGRID2 scfconv6 printgap
|  2> %output
|  3>     printlevel normal
|  4> end
|  5> * xyz 0 1
|  6> C 3.6875936976 -0.3703917462 -0.0490174341
|  7> C 2.2139121894 -0.3051431111 0.342257667
|  8> H 2.1386377039 -0.3636879522 1.434627662
|  9> C 1.429801734 -1.4700585682 -0.2596745808
| 10> C -0.0412146371 -1.3893183442 0.1356680401
| 11> C -0.6677801649 -0.0806343976 -0.3456749896
| 12> H -0.5396654486 -0.0103152339 -1.43160905
| 13> C 0.1059330245 1.1003603118 0.2574937083
| 14> H 0.0141563935 1.0743973907 1.35656058
| 15> C 1.5891525996 1.0112860537 -0.1154970907
| 16> O -0.4626097678 2.3006376607 -0.2330799829
| 17> C -2.1805313648 0.0305879286 -0.0677994262
| 18> C -2.9808512602 -0.8426018726 -1.0329804
| 19> C -2.5664556194 -0.3054721763 1.3713368127
| 20> H 4.131205059 -1.3034981663 0.2908056844
| 21> H 3.7959988764 -0.3132692333 -1.1300692506
| 22> H 4.2407927856 0.4542772492 0.3951352869
| 23> H 1.5197628788 -1.4405321337 -1.3480140814
| 24> H 1.8532227994 -2.4160937301 0.0852060888
| 25> H -0.5807111741 -2.2339830826 -0.2943299371
| 26> H -0.1176331424 -1.4547490137 1.222335267
| 27> H 1.6776312245 1.1009295843 -1.2010971777
| 28> H 2.1263656618 1.852364124 0.334741893
| 29> H 0.0828661473 3.0388587148 0.0579990611
| 30> H -2.4459541771 1.0750063763 -0.2580705467
| 31> H -4.0467700241 -0.69139303 -0.877702944
| 32> H -2.764108714 -1.8971331108 -0.8769906044
| 33> H -2.7478169839 -0.5909268298 -2.0649546492
| 34> H -1.9798668007 0.2714098846 2.0813760191
| 35> H -2.4242712364 -1.3638582988 1.5769415845
| 36> H -3.6160809664 -0.0694345061 1.5333031444
| 37> *
| 38>
| 39>                          ****END OF INPUT****

CARTESIAN COORDINATES (ANGSTROEM)
---------------------------------
  C      3.687594   -0.370392   -0.049017
  C      2.213912   -0.305143    0.342258
  H      2.138638   -0.363688    1.434628
  C      1.429802   -1.470059   -0.259675
  C     -0.041215   -1.389318    0.135668
  C     -0.667780   -0.080634   -0.345675
  H     -0.539665   -0.010315   -1.431609
  C      0.105933    1.100360    0.257494
  H      0.014156    1.074397    1.356561
  C      1.589153    1.011286   -0.115497
  O     -0.462610    2.300638   -0.233080
  C     -2.180531    0.030588   -0.067799
  C     -2.980851   -0.842602   -1.032980
  C     -2.566456   -0.305472    1.371337
  H      4.131205   -1.303498    0.290806
  H      3.795999   -0.313269   -1.130069
  H      4.240793    0.454277    0.395135
  H      1.519763   -1.440532   -1.348014
  H      1.853223   -2.416094    0.085206
  H     -0.580711   -2.233983   -0.294330
  H     -0.117633   -1.454749    1.222335
  H      1.677631    1.100930   -1.201097
  H      2.126366    1.852364    0.334742
  H      0.082866    3.038859    0.057999
  H     -2.445954    1.075006   -0.258071
  H     -4.046770   -0.691393   -0.877703
  H     -2.764109   -1.897133   -0.876991
  H     -2.747817   -0.590927   -2.064955
  H     -1.979867    0.271410    2.081376
  H     -2.424271   -1.363858    1.576942
  H     -3.616081   -0.069435    1.533303

 Total Charge           Charge          ....    0
 Multiplicity           Mult            ....    1
 Number of Electrons    NEL             ....   88
 Basis Dimension        Dim             ....  314

ORBITAL ENERGIES
----------------

  NO   OCC          E(Eh)            E(eV)
   0   2.0000     -18.944546      -515.5073
   1   2.0000     -10.075092      -274.1572
   2   2.0000     -10.034188      -273.0441
   3   2.0000     -10.024783      -272.7882
   4   2.0000     -10.023688      -272.7584
   5   2.0000     -10.022467      -272.7252
   6   2.0000     -10.021930      -272.7106
   7   2.0000     -10.021864      -272.7088
   8   2.0000     -10.017131      -272.5800
   9   2.0000     -10.008908      -272.3562
  10   2.0000     -10.007961      -272.3305
  11   2.0000      -0.984745       -26.7963
  12   2.0000      -0.806221       -21.9384
  13   2.0000      -0.765236       -20.8231
  14   2.0000      -0.710959       -19.3462
  15   2.0000      -0.698047       -18.9948
  16   2.0000      -0.643548       -17.5118
  17   2.0000      -0.642051       -17.4711
  18   2.0000      -0.583559       -15.8795
  19   2.0000      -0.562783       -15.3141
  20   2.0000      -0.529759       -14.4155
  21   2.0000      -0.507201       -13.8016
  22   2.0000      -0.473294       -12.8790
  23   2.0000      -0.439834       -11.9685
  24   2.0000      -0.430971       -11.7273
  25   2.0000      -0.418201       -11.3798
  26   2.0000      -0.411746       -11.2042
  27   2.0000      -0.390408       -10.6235
  28   2.0000      -0.377865       -10.2822
  29   2.0000      -0.367727       -10.0064
  30   2.0000      -0.360392        -9.8068
  31   2.0000      -0.352312        -9.5869
  32   2.0000      -0.349440        -9.5087
  33   2.0000      -0.342130        -9.3098
  34   2.0000      -0.330011        -8.9801
  35   2.0000      -0.312528        -8.5043
  36   2.0000      -0.309736        -8.4284
  37   2.0000      -0.305073        -8.3015
  38   2.0000      -0.294752        -8.0206
  39   2.0000      -0.290489        -7.9046
  40   2.0000      -0.281608        -7.6630
  41   2.0000      -0.268457        -7.3051
  42   2.0000      -0.255102        -6.9417
  43   2.0000      -0.229037        -6.2324
  44   0.0000       0.062889         1.7113
  45   0.0000       0.080715         2.1964
  46   0.0000       0.087165         2.3719
  47   0.0000       0.101672         2.7666
  48   0.0000       0.112577         3.0634

MULLIKEN ATOMIC CHARGES
-----------------------
   0 C :   -0.503341
   1 C :   -0.026496
   2 H :    0.159328
   3 C :   -0.342158
   4 C :   -0.386192
   5 C :   -0.068149
   6 H :    0.176134
   7 C :   -0.035423
   8 H :    0.154607
   9 C :   -0.385703
  10 O :   -0.430369
  11 C :   -0.022839
  12 C :   -0.514096
  13 C :   -0.534350
  14 H :    0.148011
  15 H :    0.151609
  16 H :    0.146529
  17 H :    0.157197
  18 H :    0.147569
  19 H :    0.153664
  20 H :    0.166773
  21 H :    0.177562
  22 H :    0.130792
  23 H :    0.282415
  24 H :    0.191492
  25 H :    0.147565
  26 H :    0.150232
  27 H :    0.148456
  28 H :    0.153915
  29 H :    0.154272
  30 H :    0.150998
Sum of atomic charges:   -0.0000000

LOEWDIN ATOMIC CHARGES
----------------------
   0 C :   -0.412338
   1 C :   -0.232760
   2 H :    0.158583
   3 C :   -0.291295
   4 C :   -0.286082
   5 C :   -0.184166
   6 H :    0.172956
   7 C :    0.067256
   8 H :    0.165113
   9 C :   -0.270630
  10 O :   -0.619652
  11 C :   -0.229299
  12 C :   -0.413610
  13 C :   -0.414501
  14 H :    0.153463
  15 H :    0.154514
  16 H :    0.152873
  17 H :    0.159462
  18 H :    0.157913
  19 H :    0.161010
  20 H :    0.162442
  21 H :    0.168749
  22 H :    0.156850
  23 H :    0.266662
  24 H :    0.180076
  25 H :    0.153162
  26 H :    0.149916
  27 H :    0.153602
  28 H :    0.152819
  29 H :    0.152649
  30 H :    0.154263

  Mayer bond orders larger than 0.100000
B(  0-C ,  1-C ) :   0.8827 B(  0-C , 14-H ) :   0.9760 B(  0-C , 15-H ) :   0.9960
B(  0-C , 16-H ) :   0.9783 B(  1-C ,  2-H ) :   0.9493 B(  1-C ,  3-C ) :   0.9196
B(  1-C ,  9-C ) :   0.9051 B(  3-C ,  4-C ) :   0.8920 B(  3-C , 17-H ) :   1.0164
B(  3-C , 18-H ) :   0.9459 B(  4-C ,  5-C ) :   0.8578 B(  4-C , 19-H ) :   0.9465
B(  4-C , 20-H ) :   0.9892 B(  5-C ,  6-H ) :   1.0172 B(  5-C ,  7-C ) :   0.9646
B(  5-C , 11-C ) :   0.8360 B(  7-C ,  8-H ) :   0.9795 B(  7-C ,  9-C ) :   0.8621
B(  7-C , 10-O ) :   0.8464 B(  9-C , 21-H ) :   1.0318 B(  9-C , 22-H ) :   0.9409
B( 10-O , 23-H ) :   0.9046 B( 11-C , 12-C ) :   0.8940 B( 11-C , 13-C ) :   0.8481
B( 11-C , 24-H ) :   0.9821 B( 12-C , 25-H ) :   0.9758 B( 12-C , 26-H ) :   0.9873
B( 12-C , 27-H ) :   0.9845 B( 13-C , 28-H ) :   0.9821 B( 13-C , 29-H ) :   0.9799
B( 13-C , 30-H ) :   0.9737

Dispersion correction           -0.010802363
FINAL SINGLE POINT ENERGY      -468.209443300573

DIPOLE MOMENT
-------------

Method             : SCF
Type of density    : Electron Density
Multiplicity       :   1
Irrep              :   0
Energy             :  -468.2138388515465977 Eh
Relativity type    :
Basis              : AO
                                X                 Y                 Z
Electronic contribution:      0.215701735       4.914838782      -0.543516092
Nuclear contribution   :      0.291248019      -4.920902774       0.827937398
                        -----------------------------------------
Total Dipole Moment    :      0.506949754      -0.006063992       0.284421306
                        -----------------------------------------
Magnitude (a.u.)       :      0.581317731
Magnitude (Debye)      :      1.477592246

Rotational constants in cm-1:             0.059768             0.023188             0.019345
Rotational constants in MHz :          1791.788733           695.170654           579.943522

                             ****ORCA TERMINATED NORMALLY****
TOTAL RUN TIME: 0 days 0 hours 0 minutes 39 seconds 273 msec
