                         Program Version 6.0.0  -   RELEASE  -
|  1> ! r2SCAN-3c DEF2-TZVP FREQ
|  2> * xyzfile 0 1 censo.xyz
|  3>
|  4>                          ****END OF INPUT****

CARTESIAN COORDINATES (ANGSTROEM)
---------------------------------
  C      1.863116   -1.434523   -0.000246
  C      0.556842   -0.705237    0.000174
  C     -0.657901   -1.389877    0.000260
  C     -1.851883   -0.681883    0.000096
  N     -1.914250    0.656671    0.000063
  C     -0.742082    1.309461    0.000119
  C      0.511105    0.700352    0.000086
  C      1.761570    1.525077   -0.000161
  H      2.462802   -1.162617    0.876000
  H      1.711396   -2.515913    0.003467
  H      2.458695   -1.168320   -0.881089
  H     -0.673175   -2.475749    0.000425
  H     -2.801068   -1.213744    0.000232
  H     -0.800188    2.397287   -0.000043
  H      1.525661    2.591969    0.000414
  H      2.378496    1.307859    0.879213
  H      2.377625    1.308614   -0.880342

 Total Charge           Charge          ....    0
 Multiplicity           Mult            ....    1
 Number of Electrons    NEL             ....   58
 Basis Dimension        Dim             ....  302

ORBITAL ENERGIES
----------------

  NO   OCC          E(Eh)            E(eV)
   0   2.0000     -14.150623      -385.0580
   1   2.0000     -10.061349      -273.7832
   2   2.0000     -10.061138      -273.7775
   3   2.0000     -10.059700      -273.7383
   4   2.0000     -10.049043      -273.4484
   5   2.0000     -10.042301      -273.2649
   6   2.0000     -10.039284      -273.1828
   7   2.0000     -10.039189      -273.1802
   8   2.0000      -0.899660       -24.4810
   9   2.0000      -0.796071       -21.6622
  10   2.0000      -0.743996       -20.2451
  11   2.0000      -0.688859       -18.7448
  12   2.0000      -0.661169       -17.9913
  13   2.0000      -0.583515       -15.8782
  14   2.0000      -0.561412       -15.2768
  15   2.0000      -0.467444       -12.7198
  16   2.0000      -0.465998       -12.6804
  17   2.0000      -0.423999       -11.5376
  18   2.0000      -0.418473       -11.3872
  19   2.0000      -0.384387       -10.4597
  20   2.0000      -0.381655       -10.3854
  21   2.0000      -0.373454       -10.1622
  22   2.0000      -0.368809       -10.0358
  23   2.0000      -0.354324        -9.6417
  24   2.0000      -0.352525        -9.5927
  25   2.0000      -0.319440        -8.6924
  26   2.0000      -0.252881        -6.8812
  27   2.0000      -0.235252        -6.4015
  28   2.0000      -0.220917        -6.0115
  29   0.0000      -0.050623        -1.3775
  30   0.0000      -0.035077        -0.9545
  31   0.0000       0.037922         1.0319
  32   0.0000       0.071436         1.9439
  33   0.0000       0.080723         2.1966

MULLIKEN ATOMIC CHARGES
-----------------------
   0 C :   -0.344976
   1 C :    0.005473
   2 C :   -0.114051
   3 C :   -0.018797
   4 N :   -0.261242
   5 C :   -0.061505
   6 C :    0.114121
   7 C :   -0.329731
   8 H :    0.120430
   9 H :    0.113787
  10 H :    0.120656
  11 H :    0.099406
  12 H :    0.110079
  13 H :    0.099880
  14 H :    0.113220
  15 H :    0.116634
  16 H :    0.116617
Sum of atomic charges:    0.0000000

LOEWDIN ATOMIC CHARGES
----------------------
   0 C :   -0.244372
   1 C :   -0.137710
   2 C :   -0.131112
   3 C :   -0.210421
   4 N :    0.116050
   5 C :   -0.184184
   6 C :   -0.159372
   7 C :   -0.249646
   8 H :    0.133267
   9 H :    0.128035
  10 H :    0.133358
  11 H :    0.145292
  12 H :    0.134640
  13 H :    0.136773
  14 H :    0.129048
  15 H :    0.130163
  16 H :    0.130193

  Mayer bond orders larger than 0.100000
B(  0-C ,  1-C ) :   0.9530 B(  0-C ,  8-H ) :   0.9653 B(  0-C ,  9-H ) :   0.9800
B(  0-C , 10-H ) :   0.9651 B(  1-C ,  2-C ) :   1.3897 B(  1-C ,  6-C ) :   1.2786
B(  2-C ,  3-C ) :   1.3891 B(  2-C , 11-H ) :   0.9651 B(  3-C ,  4-N ) :   1.4529
B(  3-C , 12-H ) :   0.9814 B(  4-N ,  5-C ) :   1.4688 B(  5-C ,  6-C ) :   1.3662
B(  5-C , 13-H ) :   0.9928 B(  6-C ,  7-C ) :   0.9329 B(  7-C , 14-H ) :   0.9773
B(  7-C , 15-H ) :   0.9674 B(  7-C , 16-H ) :   0.9672

Dispersion correction           -0.005391419
FINAL SINGLE POINT ENERGY      -326.848434442456

DIPOLE MOMENT
-------------

Method             : SCF
Type of density    : Electron Density
Multiplicity       :   1
Irrep              :   0
Energy             :  -326.8511879321958418 Eh
Relativity type    :
Basis              : AO
                                X                 Y                 Z
Electronic contribution:     -7.049579414       0.455213594       0.001499937
Nuclear contribution   :      8.158491936      -0.879944145      -0.001859741
                        -----------------------------------------
Total Dipole Moment    :      1.108912522      -0.424730551      -0.000359804
                        -----------------------------------------
Magnitude (a.u.)       :      1.187469222
Magnitude (Debye)      :      3.018306893

VIBRATIONAL FREQUENCIES
-----------------------

Scaling factor for frequencies =  1.000000000  (already applied!)

     0:       0.00 cm**-1
     1:       0.00 cm**-1
     2:       0.00 cm**-1
     3:       0.00 cm**-1
     4:       0.00 cm**-1
     5:       0.00 cm**-1
     6:     144.43 cm**-1
     7:     179.37 cm**-1
     8:     191.76 cm**-1
     9:     254.81 cm**-1
    10:     301.19 cm**-1
    11:     410.16 cm**-1
    12:     421.41 cm**-1
    13:     515.14 cm**-1
    14:     538.98 cm**-1
    15:     610.59 cm**-1
    16:     750.80 cm**-1
    17:     769.33 cm**-1
    18:     824.99 cm**-1
    19:     853.39 cm**-1
    20:     929.00 cm**-1
    21:     973.35 cm**-1
    22:    1000.40 cm**-1
    23:    1020.41 cm**-1
    24:    1037.67 cm**-1
    25:    1067.01 cm**-1
    26:    1082.56 cm**-1
    27:    1198.10 cm**-1
    28:    1215.15 cm**-1
    29:    1260.42 cm**-1
    30:    1279.45 cm**-1
    31:    1329.20 cm**-1
    32:    1396.56 cm**-1
    33:    1405.35 cm**-1
    34:    1430.42 cm**-1
    35:    1466.25 cm**-1
    36:    1477.27 cm**-1
    37:    1481.53 cm**-1
    38:    1486.27 cm**-1
    39:    1511.33 cm**-1
    40:    1584.04 cm**-1
    41:    1626.67 cm**-1
    42:    3001.93 cm**-1
    43:    3004.31 cm**-1
    44:    3058.91 cm**-1
    45:    3063.72 cm**-1
    46:    3101.21 cm**-1
    47:    3107.90 cm**-1
    48:    3124.39 cm**-1
    49:    3137.35 cm**-1
    50:    3163.39 cm**-1

IR SPECTRUM
-----------

 Mode   freq       eps      Int      T**2         TX        TY        TZ
       cm**-1   L/(mol*cm) km/mol    a.u.
----------------------------------------------------------------------------
  6:    144.43   0.000005    0.02  0.000010  (-0.000115  0.000168 -0.003224)
  7:    179.37   0.000202    1.02  0.000351  (-0.000027 -0.000124 -0.018729)
  8:    191.76   0.000083    0.42  0.000136  (-0.000028  0.000109  0.011643)
  9:    254.81   0.000081    0.41  0.000099  (-0.000034  0.000033  0.009965)
 10:    301.19   0.000030    0.15  0.000031  (-0.005086 -0.002177  0.000006)
 11:    410.16   0.000066    0.33  0.000050  (-0.002912 -0.006466  0.000002)
 12:    421.41   0.000868    4.39  0.000643  (-0.000005 -0.000058 -0.025351)
 13:    515.14   0.000604    3.05  0.000366  (-0.014658  0.012292 -0.000057)
 14:    538.98   0.001174    5.93  0.000680  ( 0.000058  0.000009 -0.026076)
 15:    610.59   0.000268    1.35  0.000137  ( 0.011308 -0.003012 -0.000015)
 16:    750.80   0.001355    6.85  0.000563  ( 0.000031 -0.000006  0.023729)
 17:    769.33   0.000218    1.10  0.000089  (-0.006841  0.006466  0.000022)
 18:    824.99   0.003534   17.86  0.001337  ( 0.000006 -0.000035  0.036560)
 19:    853.39   0.001663    8.40  0.000608  (-0.022128  0.010878  0.000040)
 20:    929.00   0.000051    0.26  0.000017  (-0.000012 -0.000017 -0.004149)
 21:    973.35   0.000001    0.00  0.000000  (-0.000010  0.000030  0.000541)
 22:   1000.40   0.000826    4.17  0.000258  ( 0.015971 -0.001570  0.000004)
 23:   1020.41   0.000532    2.69  0.000163  ( 0.011792 -0.004866 -0.000025)
 24:   1037.67   0.000884    4.47  0.000266  ( 0.000054  0.000001 -0.016309)
 25:   1067.01   0.000000    0.00  0.000000  (-0.000017  0.000051  0.000292)
 26:   1082.56   0.001567    7.92  0.000452  ( 0.019402 -0.008672 -0.000000)
 27:   1198.10   0.000287    1.45  0.000075  ( 0.007480 -0.004331 -0.000014)
 28:   1215.15   0.001779    8.99  0.000457  (-0.020980  0.004085 -0.000004)
 29:   1260.42   0.000305    1.54  0.000075  (-0.005396 -0.006808  0.000029)
 30:   1279.45   0.000049    0.25  0.000012  ( 0.001743  0.002968  0.000004)
 31:   1329.20   0.000356    1.80  0.000084  (-0.002654 -0.008744 -0.000004)
 32:   1396.56   0.000280    1.42  0.000063  ( 0.004932 -0.006190 -0.000028)
 33:   1405.35   0.001389    7.02  0.000308  ( 0.016537  0.005908 -0.000035)
 34:   1430.42   0.001229    6.21  0.000268  ( 0.008177  0.014187  0.000029)
 35:   1466.25   0.000019    0.10  0.000004  ( 0.000076  0.000032  0.002006)
 36:   1477.27   0.004977   25.15  0.001051  ( 0.010746  0.030592 -0.000092)
 37:   1481.53   0.003921   19.81  0.000826  (-0.000032  0.000156 -0.028737)
 38:   1486.27   0.001216    6.14  0.000255  ( 0.004728  0.015257  0.000402)
 39:   1511.33   0.002134   10.78  0.000441  ( 0.020987 -0.000298 -0.000008)
 40:   1584.04   0.001474    7.45  0.000290  (-0.006177  0.015883 -0.000009)
 41:   1626.67   0.007246   36.62  0.001390  ( 0.031244 -0.020343 -0.000007)
 42:   3001.93   0.006821   34.47  0.000709  (-0.025400 -0.007995  0.000032)
 43:   3004.31   0.002429   12.27  0.000252  (-0.012115  0.010271  0.000055)
 44:   3058.91   0.005202   26.29  0.000531  ( 0.000076 -0.000013  0.023037)
 45:   3063.72   0.000108    0.55  0.000011  ( 0.000063 -0.000035  0.003319)
 46:   3101.21   0.002933   14.82  0.000295  (-0.005008  0.016434 -0.000003)
 47:   3107.90   0.002968   15.00  0.000298  ( 0.002772  0.017040 -0.000009)
 48:   3124.39   0.006802   34.38  0.000679  ( 0.004796  0.025621  0.000002)
 49:   3137.35   0.002739   13.84  0.000272  ( 0.016184  0.003252  0.000001)
 50:   3163.39   0.004375   22.11  0.000432  ( 0.007455  0.019391 -0.000003)

--------------------------
THERMOCHEMISTRY AT 298.15K
--------------------------

Temperature         ...   298.15 K
Pressure            ...     1.00 atm
Total Mass          ...   107.16 AMU
Quasi RRHO          ...     True
Cut-Off Frequency   ...     1.00 cm^-1

Throughout the following assumptions are being made:
  (1) The electronic state is orbitally nondegenerate
  (2) There are no thermally accessible electronically excited states
  (3) Hindered rotations indicated by low frequency modes are not
      treated as such but are treated as vibrations and this may
      cause some error
  (4) All equations used are the standard statistical mechanics
      equations for an ideal gas
  (5) All vibrations are strictly harmonic

freq.     144.43  E(vib)   ...       0.41
freq.     179.37  E(vib)   ...       0.37
freq.     191.76  E(vib)   ...       0.36
freq.     254.81  E(vib)   ...       0.30
freq.     301.19  E(vib)   ...       0.26
freq.     410.16  E(vib)   ...       0.19
freq.     421.41  E(vib)   ...       0.18
freq.     515.14  E(vib)   ...       0.13
freq.     538.98  E(vib)   ...       0.12
freq.     610.59  E(vib)   ...       0.10
freq.     750.80  E(vib)   ...       0.06
freq.     769.33  E(vib)   ...       0.06
freq.     824.99  E(vib)   ...       0.04
freq.     853.39  E(vib)   ...       0.04
freq.     929.00  E(vib)   ...       0.03
freq.     973.35  E(vib)   ...       0.03
freq.    1000.40  E(vib)   ...       0.02
freq.    1020.41  E(vib)   ...       0.02
freq.    1037.67  E(vib)   ...       0.02
freq.    1067.01  E(vib)   ...       0.02
freq.    1082.56  E(vib)   ...       0.02
freq.    1198.10  E(vib)   ...       0.01
freq.    1215.15  E(vib)   ...       0.01
freq.    1260.42  E(vib)   ...       0.01
freq.    1279.45  E(vib)   ...       0.01
freq.    1329.20  E(vib)   ...       0.01
freq.    1396.56  E(vib)   ...       0.00
freq.    1405.35  E(vib)   ...       0.00
freq.    1430.42  E(vib)   ...       0.00
freq.    1466.25  E(vib)   ...       0.00
freq.    1477.27  E(vib)   ...       0.00
freq.    1481.53  E(vib)   ...       0.00
freq.    1486.27  E(vib)   ...       0.00
freq.    1511.33  E(vib)   ...       0.00
freq.    1584.04  E(vib)   ...       0.00
freq.    1626.67  E(vib)   ...       0.00
freq.    3001.93  E(vib)   ...       0.00
freq.    3004.31  E(vib)   ...       0.00
freq.    3058.91  E(vib)   ...       0.00
freq.    3063.72  E(vib)   ...       0.00
freq.    3101.21  E(vib)   ...       0.00
freq.    3107.90  E(vib)   ...       0.00
freq.    3124.39  E(vib)   ...       0.00
freq.    3137.35  E(vib)   ...       0.00
freq.    3163.39  E(vib)   ...       0.00

------------
INNER ENERGY
------------

The inner energy is: U= E(el) + E(ZPE) + E(vib) + E(rot) + E(trans)
    E(el)   - is the total energy from the electronic structure calculation
              = E(kin-el) + E(nuc-el) + E(el-el) + E(nuc-nuc)
    E(ZPE)  - the the zero temperature vibrational energy from the frequency calculation
    E(vib)  - the the finite temperature correction to E(ZPE) due to population
              of excited vibrational states
    E(rot)  - is the rotational thermal energy
    E(trans)- is the translational thermal energy

Summary of contributions to the inner energy U:
Electronic energy                ...   -326.84843444 Eh
Zero point energy                ...      0.14304137 Eh      89.76 kcal/mol
Thermal vibrational correction   ...      0.00455842 Eh       2.86 kcal/mol
Thermal rotational correction    ...      0.00141627 Eh       0.89 kcal/mol
Thermal translational correction ...      0.00141627 Eh       0.89 kcal/mol
-----------------------------------------------------------------------
Total thermal energy                   -326.69800211 Eh

Summary of corrections to the electronic energy:
(perhaps to be used in another calculation)
Total thermal correction                  0.00739096 Eh       4.64 kcal/mol
Non-thermal (ZPE) correction              0.14304137 Eh      89.76 kcal/mol
-----------------------------------------------------------------------
Total correction                          0.15043233 Eh      94.40 kcal/mol

--------
ENTHALPY
--------

The enthalpy is H = U + kB*T
                kB is Boltzmann's constant
Total thermal energy              ...   -326.69800211 Eh
Thermal Enthalpy correction       ...      0.00094421 Eh       0.59 kcal/mol
-----------------------------------------------------------------------
Total Enthalpy                    ...   -326.69705790 Eh

Note: Only C1 symmetry has been detected, increase convergence thresholds
      if your molecule has a higher symmetry. Symmetry factor of 1.0 is
      used for the rotational entropy correction.

Note: Rotational entropy computed according to Herzberg
Infrared and Raman Spectra, Chapter V,1, Van Nostrand Reinhold, 1945
Point Group:  C1, Symmetry Number:   1
Rotational constants in cm-1:     0.108163     0.072918     0.044268

Vibrational entropy computed according to the QRRHO of S. Grimme
Chem.Eur.J. 2012 18 9955 using a reference frequency of 100.0 cm-1

-------
ENTROPY
-------

The entropy contributions are T*S = T*(S(el)+S(vib)+S(rot)+S(trans))
     S(el)   - electronic entropy
     S(vib)  - vibrational entropy
     S(rot)  - rotational entropy
     S(trans)- translational entropy
The entropies will be listed as multiplied by the temperature to get
units of energy

Electronic entropy                ...      0.00000000 Eh      0.00 kcal/mol
Vibrational entropy               ...      0.00739233 Eh      4.64 kcal/mol
Rotational entropy                ...      0.01326866 Eh      8.33 kcal/mol
Translational entropy             ...      0.01896913 Eh     11.90 kcal/mol
-----------------------------------------------------------------------
Final entropy term                ...      0.03963012 Eh     24.87 kcal/mol

In case the symmetry of your molecule has not been determined correctly
or in case you have a reason to use a different symmetry number we print
out the resulting rotational entropy values for sn=1,12:

 non-linear molecules -----------------------------------
|  sn= 1 | S(rot)=       0.01326866 Eh      8.33 kcal/mol|
|  sn= 2 | S(rot)=       0.01261420 Eh      7.92 kcal/mol|
|  sn= 3 | S(rot)=       0.01223137 Eh      7.68 kcal/mol|
|  sn= 4 | S(rot)=       0.01195975 Eh      7.50 kcal/mol|
|  sn= 5 | S(rot)=       0.01174906 Eh      7.37 kcal/mol|
|  sn= 6 | S(rot)=       0.01157691 Eh      7.26 kcal/mol|
|  sn= 7 | S(rot)=       0.01143137 Eh      7.17 kcal/mol|
|  sn= 8 | S(rot)=       0.01130529 Eh      7.09 kcal/mol|
|  sn= 9 | S(rot)=       0.01119408 Eh      7.02 kcal/mol|
|  sn=10 | S(rot)=       0.01109460 Eh      6.96 kcal/mol|
|  sn=11 | S(rot)=       0.01100461 Eh      6.91 kcal/mol|
|  sn=12 | S(rot)=       0.01092246 Eh      6.85 kcal/mol|
 linear molecules ---------------------------------------
|  Dinfh | S(rot)=       0.00826928 Eh      5.19 kcal/mol|
|  Cinfv | S(rot)=       0.00892373 Eh      5.60 kcal/mol|

                             ****ORCA TERMINATED NORMALLY****
TOTAL RUN TIME: 0 days 0 hours 13 minutes 16 seconds 981 msec
