                         Program Version 6.0.0  -   RELEASE  -
|  1> ! r2SCAN-3c DEF2-TZVP FREQ
|  2> * xyzfile 0 1 vacuum_censo.xyz
|  3>
|  4>                          ****END OF INPUT****

CARTESIAN COORDINATES (ANGSTROEM)
---------------------------------
  C      1.863814   -1.440017   -0.000064
  C      0.556113   -0.705366   -0.000024
  C     -0.657998   -1.388736   -0.000002
  C     -1.851982   -0.676926   -0.000009
  N     -1.909650    0.656452   -0.000035
  C     -0.743526    1.307028   -0.000056
  C      0.512270    0.698341   -0.000056
  C      1.763929    1.526077   -0.000115
  H      2.463382   -1.180046   -0.879860
  H      2.464014   -1.179082    0.879008
  H      1.709463   -2.521038    0.000573
  H     -0.673603   -2.474905    0.000020
  H     -2.804865   -1.203860    0.000001
  H     -0.804120    2.396103   -0.000057
  H      2.382362    1.317754    0.880455
  H      2.382203    1.317822   -0.880817
  H      1.525397    2.592280   -0.000050

 Total Charge           Charge          ....    0
 Multiplicity           Mult            ....    1
 Number of Electrons    NEL             ....   58
 Basis Dimension        Dim             ....  302

ORBITAL ENERGIES
----------------

  NO   OCC          E(Eh)            E(eV)
   0   2.0000     -14.149792      -385.0354
   1   2.0000     -10.061191      -273.7789
   2   2.0000     -10.060983      -273.7733
   3   2.0000     -10.059638      -273.7367
   4   2.0000     -10.049329      -273.4561
   5   2.0000     -10.042199      -273.2621
   6   2.0000     -10.039379      -273.1854
   7   2.0000     -10.039185      -273.1801
   8   2.0000      -0.902149       -24.5487
   9   2.0000      -0.795963       -21.6593
  10   2.0000      -0.743482       -20.2312
  11   2.0000      -0.688407       -18.7325
  12   2.0000      -0.661355       -17.9964
  13   2.0000      -0.584144       -15.8954
  14   2.0000      -0.561320       -15.2743
  15   2.0000      -0.467617       -12.7245
  16   2.0000      -0.466284       -12.6882
  17   2.0000      -0.423806       -11.5323
  18   2.0000      -0.417927       -11.3724
  19   2.0000      -0.384051       -10.4506
  20   2.0000      -0.381610       -10.3841
  21   2.0000      -0.372820       -10.1449
  22   2.0000      -0.367985       -10.0134
  23   2.0000      -0.355540        -9.6747
  24   2.0000      -0.352469        -9.5912
  25   2.0000      -0.319728        -8.7002
  26   2.0000      -0.253723        -6.9041
  27   2.0000      -0.235147        -6.3987
  28   2.0000      -0.220450        -5.9987
  29   0.0000      -0.049653        -1.3511
  30   0.0000      -0.035597        -0.9686
  31   0.0000       0.038339         1.0433
  32   0.0000       0.071412         1.9432
  33   0.0000       0.080599         2.1932

MULLIKEN ATOMIC CHARGES
-----------------------
   0 C :   -0.346748
   1 C :    0.005220
   2 C :   -0.114463
   3 C :   -0.018410
   4 N :   -0.259063
   5 C :   -0.061366
   6 C :    0.114433
   7 C :   -0.331707
   8 H :    0.120895
   9 H :    0.120860
  10 H :    0.113685
  11 H :    0.099799
  12 H :    0.109717
  13 H :    0.099542
  14 H :    0.117127
  15 H :    0.117124
  16 H :    0.113355
Sum of atomic charges:   -0.0000000

LOEWDIN ATOMIC CHARGES
----------------------
   0 C :   -0.244406
   1 C :   -0.137796
   2 C :   -0.130222
   3 C :   -0.211757
   4 N :    0.119115
   5 C :   -0.186296
   6 C :   -0.157599
   7 C :   -0.250014
   8 H :    0.132801
   9 H :    0.132788
  10 H :    0.127705
  11 H :    0.145297
  12 H :    0.134752
  13 H :    0.137000
  14 H :    0.129878
  15 H :    0.129884
  16 H :    0.128871

  Mayer bond orders larger than 0.100000
B(  0-C ,  1-C ) :   0.9539 B(  0-C ,  8-H ) :   0.9652 B(  0-C ,  9-H ) :   0.9652
B(  0-C , 10-H ) :   0.9801 B(  1-C ,  2-C ) :   1.3916 B(  1-C ,  6-C ) :   1.2819
B(  2-C ,  3-C ) :   1.3863 B(  2-C , 11-H ) :   0.9652 B(  3-C ,  4-N ) :   1.4543
B(  3-C , 12-H ) :   0.9814 B(  4-N ,  5-C ) :   1.4727 B(  5-C ,  6-C ) :   1.3623
B(  5-C , 13-H ) :   0.9926 B(  6-C ,  7-C ) :   0.9341 B(  7-C , 14-H ) :   0.9670
B(  7-C , 15-H ) :   0.9670 B(  7-C , 16-H ) :   0.9776

Dispersion correction           -0.005388001
FINAL SINGLE POINT ENERGY      -326.848567002182

DIPOLE MOMENT
-------------

Method             : SCF
Type of density    : Electron Density
Multiplicity       :   1
Irrep              :   0
Energy             :  -326.8513327721287283 Eh
Relativity type    :
Basis              : AO
                                X                 Y                 Z
Electronic contribution:     -7.057729591       0.459009262       0.000221935
Nuclear contribution   :      8.155106449      -0.880633541      -0.000276486
                        -----------------------------------------
Total Dipole Moment    :      1.097376858      -0.421624279      -0.000054551
                        -----------------------------------------
Magnitude (a.u.)       :      1.175586239
Magnitude (Debye)      :      2.988102751

VIBRATIONAL FREQUENCIES
-----------------------

Scaling factor for frequencies =  1.000000000  (already applied!)

     0:       0.00 cm**-1
     1:       0.00 cm**-1
     2:       0.00 cm**-1
     3:       0.00 cm**-1
     4:       0.00 cm**-1
     5:       0.00 cm**-1
     6:     133.91 cm**-1
     7:     174.25 cm**-1
     8:     183.24 cm**-1
     9:     253.81 cm**-1
    10:     299.59 cm**-1
    11:     409.54 cm**-1
    12:     423.03 cm**-1
    13:     513.70 cm**-1
    14:     536.18 cm**-1
    15:     610.21 cm**-1
    16:     750.40 cm**-1
    17:     768.58 cm**-1
    18:     827.62 cm**-1
    19:     850.90 cm**-1
    20:     933.32 cm**-1
    21:     975.73 cm**-1
    22:     999.21 cm**-1
    23:    1017.52 cm**-1
    24:    1037.14 cm**-1
    25:    1066.21 cm**-1
    26:    1086.55 cm**-1
    27:    1198.63 cm**-1
    28:    1218.02 cm**-1
    29:    1257.46 cm**-1
    30:    1296.31 cm**-1
    31:    1329.38 cm**-1
    32:    1396.90 cm**-1
    33:    1406.10 cm**-1
    34:    1433.26 cm**-1
    35:    1467.66 cm**-1
    36:    1478.08 cm**-1
    37:    1482.49 cm**-1
    38:    1484.76 cm**-1
    39:    1516.03 cm**-1
    40:    1593.45 cm**-1
    41:    1626.07 cm**-1
    42:    3002.56 cm**-1
    43:    3006.12 cm**-1
    44:    3059.75 cm**-1
    45:    3065.52 cm**-1
    46:    3100.42 cm**-1
    47:    3106.77 cm**-1
    48:    3110.96 cm**-1
    49:    3129.65 cm**-1
    50:    3160.22 cm**-1

IR SPECTRUM
-----------

 Mode   freq       eps      Int      T**2         TX        TY        TZ
       cm**-1   L/(mol*cm) km/mol    a.u.
----------------------------------------------------------------------------
  6:    133.91   0.000000    0.00  0.000000  ( 0.000018 -0.000032  0.000214)
  7:    174.25   0.000246    1.24  0.000441  (-0.000000  0.000023  0.020988)
  8:    183.24   0.000027    0.14  0.000046  ( 0.000006 -0.000017 -0.006780)
  9:    253.81   0.000084    0.42  0.000103  ( 0.000007 -0.000008 -0.010146)
 10:    299.59   0.000032    0.16  0.000033  ( 0.005302  0.002169 -0.000001)
 11:    409.54   0.000065    0.33  0.000049  (-0.002830 -0.006424 -0.000001)
 12:    423.03   0.000894    4.52  0.000660  ( 0.000001  0.000014  0.025683)
 13:    513.70   0.000618    3.12  0.000375  ( 0.014849 -0.012450  0.000009)
 14:    536.18   0.001143    5.78  0.000665  (-0.000006 -0.000000  0.025791)
 15:    610.21   0.000252    1.27  0.000129  (-0.011006  0.002799  0.000002)
 16:    750.40   0.001271    6.42  0.000529  (-0.000005 -0.000001 -0.022989)
 17:    768.58   0.000267    1.35  0.000108  (-0.007867  0.006822  0.000003)
 18:    827.62   0.003559   17.99  0.001342  (-0.000002  0.000007 -0.036634)
 19:    850.90   0.001614    8.16  0.000592  ( 0.021842 -0.010721 -0.000009)
 20:    933.32   0.000052    0.26  0.000018  (-0.000001  0.000003  0.004187)
 21:    975.73   0.000002    0.01  0.000001  ( 0.000002 -0.000002 -0.000746)
 22:    999.21   0.000937    4.74  0.000293  (-0.016978  0.002113 -0.000001)
 23:   1017.52   0.000539    2.73  0.000165  (-0.011687  0.005370  0.000004)
 24:   1037.14   0.000897    4.53  0.000270  ( 0.000008  0.000003 -0.016427)
 25:   1066.21   0.000000    0.00  0.000000  ( 0.000001 -0.000008 -0.000225)
 26:   1086.55   0.001294    6.54  0.000372  ( 0.017625 -0.007815 -0.000000)
 27:   1198.63   0.000053    0.27  0.000014  (-0.001570  0.003353  0.000002)
 28:   1218.02   0.002136   10.80  0.000547  ( 0.022807 -0.005209 -0.000000)
 29:   1257.46   0.000281    1.42  0.000070  ( 0.004644  0.006941 -0.000004)
 30:   1296.31   0.000025    0.13  0.000006  (-0.002048 -0.001350 -0.000000)
 31:   1329.38   0.000442    2.24  0.000104  (-0.003172 -0.009685 -0.000000)
 32:   1396.90   0.000302    1.53  0.000067  (-0.004947  0.006555  0.000004)
 33:   1406.10   0.001218    6.16  0.000270  (-0.015602 -0.005189  0.000005)
 34:   1433.26   0.001146    5.79  0.000250  ( 0.008990  0.012992  0.000003)
 35:   1467.66   0.000012    0.06  0.000003  ( 0.000016  0.000011  0.001598)
 36:   1478.08   0.005174   26.15  0.001092  (-0.011523 -0.030977 -0.000007)
 37:   1482.49   0.003859   19.50  0.000812  (-0.000013 -0.000082  0.028501)
 38:   1484.76   0.001170    5.91  0.000246  ( 0.004583  0.014996  0.000132)
 39:   1516.03   0.002056   10.39  0.000423  (-0.020525  0.001423  0.000002)
 40:   1593.45   0.002142   10.83  0.000420  (-0.008008  0.018853 -0.000001)
 41:   1626.07   0.006788   34.30  0.001303  (-0.031099  0.018315  0.000000)
 42:   3002.56   0.006199   31.32  0.000644  ( 0.023712  0.009053 -0.000006)
 43:   3006.12   0.003019   15.26  0.000313  (-0.015074  0.009284  0.000008)
 44:   3059.75   0.004711   23.81  0.000480  (-0.000012 -0.000002 -0.021919)
 45:   3065.52   0.000596    3.01  0.000061  (-0.000010  0.000005 -0.007789)
 46:   3100.42   0.002515   12.71  0.000253  (-0.005093  0.015072 -0.000002)
 47:   3106.77   0.002823   14.27  0.000284  (-0.002910 -0.016586  0.000003)
 48:   3110.96   0.007832   39.58  0.000786  ( 0.004364  0.027687 -0.000000)
 49:   3129.65   0.003166   16.00  0.000316  ( 0.016954  0.005312 -0.000000)
 50:   3160.22   0.004169   21.07  0.000412  ( 0.006530  0.019210 -0.000001)

--------------------------
THERMOCHEMISTRY AT 298.15K
--------------------------

Temperature         ...   298.15 K
Pressure            ...     1.00 atm
Total Mass          ...   107.16 AMU
Quasi RRHO          ...     True
Cut-Off Frequency   ...     1.00 cm^-1

Throughout the following assumptions are being made:
  (1) The electronic state is orbitally nondegenerate
  (2) There are no thermally accessible electronically excited states
  (3) Hindered rotations indicated by low frequency modes are not
      treated as such but are treated as vibrations and this may
      cause some error
  (4) All equations used are the standard statistical mechanics
      equations for an ideal gas
  (5) All vibrations are strictly harmonic

freq.     133.91  E(vib)   ...       0.42
freq.     174.25  E(vib)   ...       0.38
freq.     183.24  E(vib)   ...       0.37
freq.     253.81  E(vib)   ...       0.30
freq.     299.59  E(vib)   ...       0.26
freq.     409.54  E(vib)   ...       0.19
freq.     423.03  E(vib)   ...       0.18
freq.     513.70  E(vib)   ...       0.13
freq.     536.18  E(vib)   ...       0.12
freq.     610.21  E(vib)   ...       0.10
freq.     750.40  E(vib)   ...       0.06
freq.     768.58  E(vib)   ...       0.06
freq.     827.62  E(vib)   ...       0.04
freq.     850.90  E(vib)   ...       0.04
freq.     933.32  E(vib)   ...       0.03
freq.     975.73  E(vib)   ...       0.03
freq.     999.21  E(vib)   ...       0.02
freq.    1017.52  E(vib)   ...       0.02
freq.    1037.14  E(vib)   ...       0.02
freq.    1066.21  E(vib)   ...       0.02
freq.    1086.55  E(vib)   ...       0.02
freq.    1198.63  E(vib)   ...       0.01
freq.    1218.02  E(vib)   ...       0.01
freq.    1257.46  E(vib)   ...       0.01
freq.    1296.31  E(vib)   ...       0.01
freq.    1329.38  E(vib)   ...       0.01
freq.    1396.90  E(vib)   ...       0.00
freq.    1406.10  E(vib)   ...       0.00
freq.    1433.26  E(vib)   ...       0.00
freq.    1467.66  E(vib)   ...       0.00
freq.    1478.08  E(vib)   ...       0.00
freq.    1482.49  E(vib)   ...       0.00
freq.    1484.76  E(vib)   ...       0.00
freq.    1516.03  E(vib)   ...       0.00
freq.    1593.45  E(vib)   ...       0.00
freq.    1626.07  E(vib)   ...       0.00
freq.    3002.56  E(vib)   ...       0.00
freq.    3006.12  E(vib)   ...       0.00
freq.    3059.75  E(vib)   ...       0.00
freq.    3065.52  E(vib)   ...       0.00
freq.    3100.42  E(vib)   ...       0.00
freq.    3106.77  E(vib)   ...       0.00
freq.    3110.96  E(vib)   ...       0.00
freq.    3129.65  E(vib)   ...       0.00
freq.    3160.22  E(vib)   ...       0.00

------------
INNER ENERGY
------------

The inner energy is: U= E(el) + E(ZPE) + E(vib) + E(rot) + E(trans)
    E(el)   - is the total energy from the electronic structure calculation
              = E(kin-el) + E(nuc-el) + E(el-el) + E(nuc-nuc)
    E(ZPE)  - the the zero temperature vibrational energy from the frequency calculation
    E(vib)  - the the finite temperature correction to E(ZPE) due to population
              of excited vibrational states
    E(rot)  - is the rotational thermal energy
    E(trans)- is the translational thermal energy

Summary of contributions to the inner energy U:
Electronic energy                ...   -326.84856700 Eh
Zero point energy                ...      0.14301702 Eh      89.74 kcal/mol
Thermal vibrational correction   ...      0.00460301 Eh       2.89 kcal/mol
Thermal rotational correction    ...      0.00141627 Eh       0.89 kcal/mol
Thermal translational correction ...      0.00141627 Eh       0.89 kcal/mol
-----------------------------------------------------------------------
Total thermal energy                   -326.69811443 Eh

Summary of corrections to the electronic energy:
(perhaps to be used in another calculation)
Total thermal correction                  0.00743555 Eh       4.67 kcal/mol
Non-thermal (ZPE) correction              0.14301702 Eh      89.74 kcal/mol
-----------------------------------------------------------------------
Total correction                          0.15045257 Eh      94.41 kcal/mol

--------
ENTHALPY
--------

The enthalpy is H = U + kB*T
                kB is Boltzmann's constant
Total thermal energy              ...   -326.69811443 Eh
Thermal Enthalpy correction       ...      0.00094421 Eh       0.59 kcal/mol
-----------------------------------------------------------------------
Total Enthalpy                    ...   -326.69717022 Eh

Note: Only C1 symmetry has been detected, increase convergence thresholds
      if your molecule has a higher symmetry. Symmetry factor of 1.0 is
      used for the rotational entropy correction.

Note: Rotational entropy computed according to Herzberg
Infrared and Raman Spectra, Chapter V,1, Van Nostrand Reinhold, 1945
Point Group:  C1, Symmetry Number:   1
Rotational constants in cm-1:     0.108086     0.072912     0.044254

Vibrational entropy computed according to the QRRHO of S. Grimme
Chem.Eur.J. 2012 18 9955 using a reference frequency of 100.0 cm-1

-------
ENTROPY
-------

The entropy contributions are T*S = T*(S(el)+S(vib)+S(rot)+S(trans))
     S(el)   - electronic entropy
     S(vib)  - vibrational entropy
     S(rot)  - rotational entropy
     S(trans)- translational entropy
The entropies will be listed as multiplied by the temperature to get
units of energy

Electronic entropy                ...      0.00000000 Eh      0.00 kcal/mol
Vibrational entropy               ...      0.00751867 Eh      4.72 kcal/mol
Rotational entropy                ...      0.01326919 Eh      8.33 kcal/mol
Translational entropy             ...      0.01896913 Eh     11.90 kcal/mol
-----------------------------------------------------------------------
Final entropy term                ...      0.03975699 Eh     24.95 kcal/mol

In case the symmetry of your molecule has not been determined correctly
or in case you have a reason to use a different symmetry number we print
out the resulting rotational entropy values for sn=1,12:

 non-linear molecules -----------------------------------
|  sn= 1 | S(rot)=       0.01326919 Eh      8.33 kcal/mol|
|  sn= 2 | S(rot)=       0.01261473 Eh      7.92 kcal/mol|
|  sn= 3 | S(rot)=       0.01223190 Eh      7.68 kcal/mol|
|  sn= 4 | S(rot)=       0.01196027 Eh      7.51 kcal/mol|
|  sn= 5 | S(rot)=       0.01174958 Eh      7.37 kcal/mol|
|  sn= 6 | S(rot)=       0.01157744 Eh      7.26 kcal/mol|
|  sn= 7 | S(rot)=       0.01143189 Eh      7.17 kcal/mol|
|  sn= 8 | S(rot)=       0.01130582 Eh      7.09 kcal/mol|
|  sn= 9 | S(rot)=       0.01119461 Eh      7.02 kcal/mol|
|  sn=10 | S(rot)=       0.01109513 Eh      6.96 kcal/mol|
|  sn=11 | S(rot)=       0.01100514 Eh      6.91 kcal/mol|
|  sn=12 | S(rot)=       0.01092298 Eh      6.85 kcal/mol|
 linear molecules ---------------------------------------
|  Dinfh | S(rot)=       0.00826957 Eh      5.19 kcal/mol|
|  Cinfv | S(rot)=       0.00892403 Eh      5.60 kcal/mol|

                             ****ORCA TERMINATED NORMALLY****
TOTAL RUN TIME: 0 days 0 hours 13 minutes 16 seconds 228 msec
