                         Program Version 6.0.1  -  RELEASE   -
|  1> ! pbe def2-sv(p) def2/J RI DEFGRID1 loosescf d4 GCP(DFT/SV(P)) printgap
|  2> %output
|  3>     printlevel normal
|  4> end
|  5> * xyz 0 1
|  6> C -1.8394632394 0.0753350687 -0.3385453265
|  7> C -0.6075280813 -0.4903592979 0.3564075081
|  8> C 0.576114856 0.4861458188 0.3581388491
|  9> O 1.6569395121 -0.1239298975 -0.3192862571
| 10> H -1.6120363161 0.3282317475 -1.3713156511
| 11> H -2.6437167466 -0.6565171459 -0.3333432539
| 12> H -2.188990577 0.9720914581 0.169378205
| 13> H -0.2740942714 -1.3895343221 -0.1634582755
| 14> H -0.8621517583 -0.7701583593 1.3792531688
| 15> H 0.2947022345 1.4206228036 -0.1479635158
| 16> H 0.8724730392 0.7354294396 1.3869304871
| 17> H 2.406531122 0.4795512049 -0.331883029
| 18> *
| 19>
| 20>                          ****END OF INPUT****

CARTESIAN COORDINATES (ANGSTROEM)
---------------------------------
  C     -1.839463    0.075335   -0.338545
  C     -0.607528   -0.490359    0.356408
  C      0.576115    0.486146    0.358139
  O      1.656940   -0.123930   -0.319286
  H     -1.612036    0.328232   -1.371316
  H     -2.643717   -0.656517   -0.333343
  H     -2.188991    0.972091    0.169378
  H     -0.274094   -1.389534   -0.163458
  H     -0.862152   -0.770158    1.379253
  H      0.294702    1.420623   -0.147964
  H      0.872473    0.735429    1.386930
  H      2.406531    0.479551   -0.331883

 Total Charge           Charge          ....    0
 Multiplicity           Mult            ....    1
 Number of Electrons    NEL             ....   34
 Basis Dimension        Dim             ....   72

ORBITAL ENERGIES
----------------

  NO   OCC          E(Eh)            E(eV)
   0   2.0000     -18.734999      -509.8052
   1   2.0000      -9.925023      -270.0736
   2   2.0000      -9.878864      -268.8176
   3   2.0000      -9.872652      -268.6485
   4   2.0000      -0.912681       -24.8353
   5   2.0000      -0.695987       -18.9388
   6   2.0000      -0.598832       -16.2950
   7   2.0000      -0.517132       -14.0719
   8   2.0000      -0.462150       -12.5757
   9   2.0000      -0.411023       -11.1845
  10   2.0000      -0.378297       -10.2940
  11   2.0000      -0.365936        -9.9576
  12   2.0000      -0.315778        -8.5928
  13   2.0000      -0.306953        -8.3526
  14   2.0000      -0.293215        -7.9788
  15   2.0000      -0.268782        -7.3139
  16   2.0000      -0.205875        -5.6021
  17   0.0000       0.031267         0.8508
  18   0.0000       0.052442         1.4270
  19   0.0000       0.081931         2.2294
  20   0.0000       0.094016         2.5583
  21   0.0000       0.115594         3.1455

MULLIKEN ATOMIC CHARGES
-----------------------
   0 C :   -0.308625
   1 C :   -0.189087
   2 C :    0.001819
   3 O :   -0.442680
   4 H :    0.110100
   5 H :    0.103407
   6 H :    0.102686
   7 H :    0.107035
   8 H :    0.088888
   9 H :    0.068522
  10 H :    0.065445
  11 H :    0.292492
Sum of atomic charges:   -0.0000000

LOEWDIN ATOMIC CHARGES
----------------------
   0 C :   -0.342281
   1 C :   -0.249872
   2 C :   -0.118293
   3 O :   -0.351079
   4 H :    0.119527
   5 H :    0.118619
   6 H :    0.115019
   7 H :    0.127888
   8 H :    0.117292
   9 H :    0.090207
  10 H :    0.092194
  11 H :    0.280777

  Mayer bond orders larger than 0.100000
B(  0-C ,  1-C ) :   1.1572 B(  0-C ,  4-H ) :   0.9551 B(  0-C ,  5-H ) :   0.9537
B(  0-C ,  6-H ) :   0.9556 B(  1-C ,  2-C ) :   1.0879 B(  1-C ,  7-H ) :   0.9281
B(  1-C ,  8-H ) :   0.9335 B(  2-C ,  3-O ) :   1.0785 B(  2-C ,  9-H ) :   0.9401
B(  2-C , 10-H ) :   0.9256 B(  3-O , 11-H ) :   0.8550

Dispersion correction           -0.006225834
FINAL SINGLE POINT ENERGY      -193.868446216358

DIPOLE MOMENT
-------------

Method             : SCF
Type of density    : Electron Density
Multiplicity       :   1
Irrep              :   0
Energy             :  -193.9178307767695060 Eh
Relativity type    :
Basis              : AO
                                X                 Y                 Z
Electronic contribution:      3.830267307      -0.532246688      -0.342022863
Nuclear contribution   :     -3.734900606       1.048638868       0.546525359
                        -----------------------------------------
Total Dipole Moment    :      0.095366702       0.516392181       0.204502496
                        -----------------------------------------
Magnitude (a.u.)       :      0.563539673
Magnitude (Debye)      :      1.432404014

Rotational constants in cm-1:             0.679016             0.132417             0.131806
Rotational constants in MHz :         20356.393452          3969.758386          3951.450040

                             ****ORCA TERMINATED NORMALLY****
TOTAL RUN TIME: 0 days 0 hours 0 minutes 6 seconds 548 msec
