                         Program Version 6.0.1  -  RELEASE   -
|  1> ! r2scan-3c def2/J RI DEFGRID2 scfconv6 printgap
|  2> %output
|  3>     printlevel normal
|  4> end
|  5> * xyz 0 1
|  6> C 1.201568284 -1.2309235018 -0.6763034931
|  7> C 0.671171848 -0.2841957467 0.4066298876
|  8> C 1.5933112991 0.9219457544 0.5629568608
|  9> C -0.7215926658 0.1599374691 -0.0210853214
| 10> O -0.906045892 1.0836885095 -0.7706788974
| 11> C -1.8483664454 -0.6634512973 0.5503493561
| 12> H 0.5561327538 -2.0997392504 -0.7872519465
| 13> H 1.2500394214 -0.7116302414 -1.6306342635
| 14> H 2.200228482 -1.5735981102 -0.4153327956
| 15> H 0.6034678578 -0.8283186639 1.3535885072
| 16> H 1.5939397214 1.5047433294 -0.354643817
| 17> H 2.6092158103 0.5998279652 0.7785448152
| 18> H 1.2501876561 1.5610942366 1.3735065626
| 19> H -2.7852917181 -0.4193428647 0.0568386919
| 20> H -1.9382044376 -0.4420849443 1.6127651074
| 21> H -1.6357510774 -1.7243521018 0.4441941464
| 22> *
| 23>
| 24>                          ****END OF INPUT****

CARTESIAN COORDINATES (ANGSTROEM)
---------------------------------
  C      1.201568   -1.230924   -0.676303
  C      0.671172   -0.284196    0.406630
  C      1.593311    0.921946    0.562957
  C     -0.721593    0.159937   -0.021085
  O     -0.906046    1.083689   -0.770679
  C     -1.848366   -0.663451    0.550349
  H      0.556133   -2.099739   -0.787252
  H      1.250039   -0.711630   -1.630634
  H      2.200228   -1.573598   -0.415333
  H      0.603468   -0.828319    1.353589
  H      1.593940    1.504743   -0.354644
  H      2.609216    0.599828    0.778545
  H      1.250188    1.561094    1.373507
  H     -2.785292   -0.419343    0.056839
  H     -1.938204   -0.442085    1.612765
  H     -1.635751   -1.724352    0.444194

 Total Charge           Charge          ....    0
 Multiplicity           Mult            ....    1
 Number of Electrons    NEL             ....   48
 Basis Dimension        Dim             ....  169

ORBITAL ENERGIES
----------------

  NO   OCC          E(Eh)            E(eV)
   0   2.0000     -18.938246      -515.3359
   1   2.0000     -10.116288      -275.2782
   2   2.0000     -10.045946      -273.3641
   3   2.0000     -10.034277      -273.0466
   4   2.0000     -10.031952      -272.9833
   5   2.0000     -10.019817      -272.6531
   6   2.0000      -1.010116       -27.4867
   7   2.0000      -0.777310       -21.1517
   8   2.0000      -0.710976       -19.3467
   9   2.0000      -0.658704       -17.9242
  10   2.0000      -0.588305       -16.0086
  11   2.0000      -0.488764       -13.2999
  12   2.0000      -0.451030       -12.2731
  13   2.0000      -0.427387       -11.6298
  14   2.0000      -0.424120       -11.5409
  15   2.0000      -0.393090       -10.6965
  16   2.0000      -0.380251       -10.3471
  17   2.0000      -0.372461       -10.1352
  18   2.0000      -0.360822        -9.8185
  19   2.0000      -0.333355        -9.0711
  20   2.0000      -0.328151        -8.9294
  21   2.0000      -0.311528        -8.4771
  22   2.0000      -0.310478        -8.4485
  23   2.0000      -0.212724        -5.7885
  24   0.0000      -0.042903        -1.1674
  25   0.0000       0.065708         1.7880
  26   0.0000       0.114642         3.1196
  27   0.0000       0.122049         3.3211
  28   0.0000       0.123389         3.3576

MULLIKEN ATOMIC CHARGES
-----------------------
   0 C :   -0.479871
   1 C :   -0.044407
   2 C :   -0.493226
   3 C :    0.291634
   4 O :   -0.351481
   5 C :   -0.504816
   6 H :    0.141415
   7 H :    0.172283
   8 H :    0.153594
   9 H :    0.150455
  10 H :    0.174709
  11 H :    0.143963
  12 H :    0.147301
  13 H :    0.176451
  14 H :    0.170139
  15 H :    0.151856
Sum of atomic charges:   -0.0000000

LOEWDIN ATOMIC CHARGES
----------------------
   0 C :   -0.388569
   1 C :   -0.229162
   2 C :   -0.395449
   3 C :    0.220819
   4 O :   -0.456812
   5 C :   -0.386591
   6 H :    0.154370
   7 H :    0.164231
   8 H :    0.156748
   9 H :    0.162195
  10 H :    0.170809
  11 H :    0.152580
  12 H :    0.157434
  13 H :    0.172444
  14 H :    0.176149
  15 H :    0.168805

  Mayer bond orders larger than 0.100000
B(  0-C ,  1-C ) :   0.8992 B(  0-C ,  6-H ) :   0.9657 B(  0-C ,  7-H ) :   0.9821
B(  0-C ,  8-H ) :   0.9706 B(  1-C ,  2-C ) :   0.9134 B(  1-C ,  3-C ) :   0.8588
B(  1-C ,  9-H ) :   0.9404 B(  2-C , 10-H ) :   0.9738 B(  2-C , 11-H ) :   0.9773
B(  2-C , 12-H ) :   0.9739 B(  3-C ,  4-O ) :   1.9534 B(  3-C ,  5-C ) :   0.9147
B(  5-C , 13-H ) :   0.9884 B(  5-C , 14-H ) :   0.9496 B(  5-C , 15-H ) :   0.9433

Dispersion correction           -0.003909356
FINAL SINGLE POINT ENERGY      -271.705153652371

DIPOLE MOMENT
-------------

Method             : SCF
Type of density    : Electron Density
Multiplicity       :   1
Irrep              :   0
Energy             :  -271.7087342338974736 Eh
Relativity type    :
Basis              : AO
                                X                 Y                 Z
Electronic contribution:     -3.242358591       3.001493452      -1.614662307
Nuclear contribution   :      3.461492386      -3.861739632       2.269788371
                        -----------------------------------------
Total Dipole Moment    :      0.219133794      -0.860246180       0.655126064
                        -----------------------------------------
Magnitude (a.u.)       :      1.103282950
Magnitude (Debye)      :      2.804322397

Rotational constants in cm-1:             0.159641             0.092970             0.077872
Rotational constants in MHz :          4785.912274          2787.167344          2334.543911

                             ****ORCA TERMINATED NORMALLY****
TOTAL RUN TIME: 0 days 0 hours 0 minutes 13 seconds 233 msec
