                         Program Version 6.0.0  -   RELEASE  -
|  1> ! r2SCAN-3c DEF2-TZVP FREQ
|  2> * xyzfile 0 1 censo.xyz
|  3>
|  4>                          ****END OF INPUT****

CARTESIAN COORDINATES (ANGSTROEM)
---------------------------------
  C      1.200399   -1.258912    0.035260
  C      0.398683    0.000061   -0.318408
  C      1.199596    1.259537    0.035327
  C     -0.914961   -0.000345    0.406873
  C     -2.114927   -0.000335   -0.171192
  H      0.652006   -2.168337   -0.230958
  H      1.410367   -1.290378    1.111042
  H      2.158481   -1.267534   -0.495895
  H      0.198071    0.000037   -1.397824
  H      1.409953    1.290842    1.111037
  H      2.157459    1.269040   -0.496210
  H      0.650395    2.168617   -0.230411
  H     -0.843644   -0.000571    1.497319
  H     -3.029685   -0.000565    0.415657
  H     -2.218458   -0.000118   -1.254872

 Total Charge           Charge          ....    0
 Multiplicity           Mult            ....    1
 Number of Electrons    NEL             ....   40
 Basis Dimension        Dim             ....  215

ORBITAL ENERGIES
----------------

  NO   OCC          E(Eh)            E(eV)
   0   2.0000     -10.040773      -273.2233
   1   2.0000     -10.033758      -273.0324
   2   2.0000     -10.022683      -272.7311
   3   2.0000     -10.022681      -272.7310
   4   2.0000     -10.022414      -272.7237
   5   2.0000      -0.781837       -21.2749
   6   2.0000      -0.703812       -19.1517
   7   2.0000      -0.650944       -17.7131
   8   2.0000      -0.572490       -15.5782
   9   2.0000      -0.517786       -14.0897
  10   2.0000      -0.431309       -11.7365
  11   2.0000      -0.422468       -11.4959
  12   2.0000      -0.389599       -10.6015
  13   2.0000      -0.380818       -10.3626
  14   2.0000      -0.354505        -9.6466
  15   2.0000      -0.346998        -9.4423
  16   2.0000      -0.315330        -8.5806
  17   2.0000      -0.303762        -8.2658
  18   2.0000      -0.295780        -8.0486
  19   2.0000      -0.236501        -6.4355
  20   0.0000      -0.014691        -0.3998
  21   0.0000       0.050658         1.3785
  22   0.0000       0.070791         1.9263
  23   0.0000       0.088492         2.4080
  24   0.0000       0.100619         2.7380

MULLIKEN ATOMIC CHARGES
-----------------------
   0 C :   -0.331002
   1 C :    0.084034
   2 C :   -0.330996
   3 C :   -0.162285
   4 C :   -0.267525
   5 H :    0.113753
   6 H :    0.096609
   7 H :    0.104814
   8 H :    0.046202
   9 H :    0.096607
  10 H :    0.104815
  11 H :    0.113757
  12 H :    0.102092
  13 H :    0.118736
  14 H :    0.110390
Sum of atomic charges:   -0.0000000

LOEWDIN ATOMIC CHARGES
----------------------
   0 C :   -0.277926
   1 C :   -0.302595
   2 C :   -0.277921
   3 C :   -0.181118
   4 C :   -0.216803
   5 H :    0.121937
   6 H :    0.120439
   7 H :    0.120104
   8 H :    0.149686
   9 H :    0.120439
  10 H :    0.120102
  11 H :    0.121939
  12 H :    0.141340
  13 H :    0.120125
  14 H :    0.120253

  Mayer bond orders larger than 0.100000
B(  0-C ,  1-C ) :   0.9576 B(  0-C ,  5-H ) :   0.9750 B(  0-C ,  6-H ) :   0.9713
B(  0-C ,  7-H ) :   0.9717 B(  1-C ,  2-C ) :   0.9576 B(  1-C ,  3-C ) :   0.9466
B(  1-C ,  8-H ) :   0.9593 B(  2-C ,  9-H ) :   0.9713 B(  2-C , 10-H ) :   0.9717
B(  2-C , 11-H ) :   0.9750 B(  3-C ,  4-C ) :   1.9495 B(  3-C , 12-H ) :   0.9465
B(  4-C , 13-H ) :   0.9626 B(  4-C , 14-H ) :   0.9607

Dispersion correction           -0.003392829
FINAL SINGLE POINT ENERGY      -196.475267352095

DIPOLE MOMENT
-------------

Method             : SCF
Type of density    : Electron Density
Multiplicity       :   1
Irrep              :   0
Energy             :  -196.4777539926686529 Eh
Relativity type    :
Basis              : AO
                                X                 Y                 Z
Electronic contribution:     -2.260162267      -0.000757355      -0.067773172
Nuclear contribution   :      2.415932995       0.000820121       0.042707372
                        -----------------------------------------
Total Dipole Moment    :      0.155770728       0.000062767      -0.025065800
                        -----------------------------------------
Magnitude (a.u.)       :      0.157774580
Magnitude (Debye)      :      0.401031112

VIBRATIONAL FREQUENCIES
-----------------------

Scaling factor for frequencies =  1.000000000  (already applied!)

     0:       0.00 cm**-1
     1:       0.00 cm**-1
     2:       0.00 cm**-1
     3:       0.00 cm**-1
     4:       0.00 cm**-1
     5:       0.00 cm**-1
     6:     108.21 cm**-1
     7:     242.66 cm**-1
     8:     264.61 cm**-1
     9:     319.85 cm**-1
    10:     333.64 cm**-1
    11:     351.93 cm**-1
    12:     511.20 cm**-1
    13:     701.75 cm**-1
    14:     809.24 cm**-1
    15:     928.08 cm**-1
    16:     933.10 cm**-1
    17:     934.47 cm**-1
    18:     963.86 cm**-1
    19:    1004.26 cm**-1
    20:    1029.24 cm**-1
    21:    1111.17 cm**-1
    22:    1183.92 cm**-1
    23:    1218.60 cm**-1
    24:    1313.06 cm**-1
    25:    1325.67 cm**-1
    26:    1329.23 cm**-1
    27:    1383.35 cm**-1
    28:    1404.97 cm**-1
    29:    1451.56 cm**-1
    30:    1478.22 cm**-1
    31:    1480.66 cm**-1
    32:    1493.65 cm**-1
    33:    1504.36 cm**-1
    34:    1683.34 cm**-1
    35:    2995.27 cm**-1
    36:    2998.02 cm**-1
    37:    3009.07 cm**-1
    38:    3069.83 cm**-1
    39:    3075.57 cm**-1
    40:    3082.24 cm**-1
    41:    3083.74 cm**-1
    42:    3089.57 cm**-1
    43:    3103.81 cm**-1
    44:    3190.54 cm**-1

IR SPECTRUM
-----------

 Mode   freq       eps      Int      T**2         TX        TY        TZ
       cm**-1   L/(mol*cm) km/mol    a.u.
----------------------------------------------------------------------------
  6:    108.21   0.000008    0.04  0.000023  (-0.000011 -0.004843 -0.000010)
  7:    242.66   0.000013    0.06  0.000016  (-0.000003 -0.004023 -0.000001)
  8:    264.61   0.000004    0.02  0.000005  (-0.001633  0.000001  0.001495)
  9:    319.85   0.000081    0.41  0.000079  ( 0.000015  0.008901  0.000015)
 10:    333.64   0.000099    0.50  0.000092  (-0.009494 -0.000013  0.001416)
 11:    351.93   0.000048    0.24  0.000042  ( 0.006495  0.000006  0.000453)
 12:    511.20   0.000064    0.32  0.000039  ( 0.002764  0.000001 -0.005611)
 13:    701.75   0.002431   12.29  0.001081  (-0.000018 -0.032882 -0.000018)
 14:    809.24   0.000320    1.62  0.000123  ( 0.009037  0.000001 -0.006457)
 15:    928.08   0.005114   25.84  0.001720  ( 0.000001  0.041467  0.000012)
 16:    933.10   0.003986   20.14  0.001333  (-0.000002 -0.036510 -0.000012)
 17:    934.47   0.000804    4.06  0.000269  (-0.015955 -0.000016 -0.003745)
 18:    963.86   0.000003    0.02  0.000001  ( 0.000004  0.001023  0.000002)
 19:   1004.26   0.000983    4.97  0.000305  (-0.017138 -0.000009  0.003417)
 20:   1029.24   0.002885   14.58  0.000875  (-0.000043  0.029575 -0.000015)
 21:   1111.17   0.000972    4.91  0.000273  ( 0.000011 -0.016524 -0.000003)
 22:   1183.92   0.000312    1.58  0.000082  ( 0.008751  0.000005 -0.002374)
 23:   1218.60   0.000060    0.30  0.000015  ( 0.001868  0.000001 -0.003434)
 24:   1313.06   0.000515    2.60  0.000122  (-0.008189  0.000000 -0.007441)
 25:   1325.67   0.000630    3.18  0.000148  ( 0.011979  0.000015 -0.002192)
 26:   1329.23   0.000475    2.40  0.000112  (-0.000018  0.010560  0.000003)
 27:   1383.35   0.001032    5.21  0.000233  (-0.000006  0.015256  0.000002)
 28:   1404.97   0.000793    4.01  0.000176  (-0.009023  0.000000 -0.009733)
 29:   1451.56   0.000573    2.90  0.000123  ( 0.009330 -0.000003  0.006018)
 30:   1478.22   0.000360    1.82  0.000076  ( 0.000002  0.008721  0.000003)
 31:   1480.66   0.000354    1.79  0.000075  (-0.000006  0.008639  0.000004)
 32:   1493.65   0.001122    5.67  0.000235  ( 0.008378  0.000001  0.012818)
 33:   1504.36   0.002742   13.86  0.000569  ( 0.006917  0.000006 -0.022824)
 34:   1683.34   0.003167   16.00  0.000587  ( 0.023715  0.000006  0.004963)
 35:   2995.27   0.006193   31.30  0.000645  (-0.000020 -0.025402 -0.000008)
 36:   2998.02   0.005217   26.36  0.000543  ( 0.022251 -0.000024  0.006921)
 37:   3009.07   0.002497   12.62  0.000259  ( 0.007153 -0.000001  0.014413)
 38:   3069.83   0.000328    1.66  0.000033  ( 0.000010 -0.005774 -0.000008)
 39:   3075.57   0.010706   54.11  0.001086  ( 0.014767  0.000009 -0.029466)
 40:   3082.24   0.004237   21.41  0.000429  ( 0.000104 -0.020713  0.000006)
 41:   3083.74   0.006203   31.35  0.000628  ( 0.024938  0.000086  0.002401)
 42:   3089.57   0.008287   41.88  0.000837  ( 0.007353  0.000001  0.027982)
 43:   3103.81   0.000984    4.97  0.000099  (-0.009526 -0.000000 -0.002856)
 44:   3190.54   0.003123   15.78  0.000306  (-0.009312 -0.000004  0.014792)

--------------------------
THERMOCHEMISTRY AT 298.15K
--------------------------

Temperature         ...   298.15 K
Pressure            ...     1.00 atm
Total Mass          ...    70.13 AMU
Quasi RRHO          ...     True
Cut-Off Frequency   ...     1.00 cm^-1

Throughout the following assumptions are being made:
  (1) The electronic state is orbitally nondegenerate
  (2) There are no thermally accessible electronically excited states
  (3) Hindered rotations indicated by low frequency modes are not
      treated as such but are treated as vibrations and this may
      cause some error
  (4) All equations used are the standard statistical mechanics
      equations for an ideal gas
  (5) All vibrations are strictly harmonic

freq.     108.21  E(vib)   ...       0.45
freq.     242.66  E(vib)   ...       0.31
freq.     264.61  E(vib)   ...       0.29
freq.     319.85  E(vib)   ...       0.25
freq.     333.64  E(vib)   ...       0.24
freq.     351.93  E(vib)   ...       0.23
freq.     511.20  E(vib)   ...       0.14
freq.     701.75  E(vib)   ...       0.07
freq.     809.24  E(vib)   ...       0.05
freq.     928.08  E(vib)   ...       0.03
freq.     933.10  E(vib)   ...       0.03
freq.     934.47  E(vib)   ...       0.03
freq.     963.86  E(vib)   ...       0.03
freq.    1004.26  E(vib)   ...       0.02
freq.    1029.24  E(vib)   ...       0.02
freq.    1111.17  E(vib)   ...       0.01
freq.    1183.92  E(vib)   ...       0.01
freq.    1218.60  E(vib)   ...       0.01
freq.    1313.06  E(vib)   ...       0.01
freq.    1325.67  E(vib)   ...       0.01
freq.    1329.23  E(vib)   ...       0.01
freq.    1383.35  E(vib)   ...       0.00
freq.    1404.97  E(vib)   ...       0.00
freq.    1451.56  E(vib)   ...       0.00
freq.    1478.22  E(vib)   ...       0.00
freq.    1480.66  E(vib)   ...       0.00
freq.    1493.65  E(vib)   ...       0.00
freq.    1504.36  E(vib)   ...       0.00
freq.    1683.34  E(vib)   ...       0.00
freq.    2995.27  E(vib)   ...       0.00
freq.    2998.02  E(vib)   ...       0.00
freq.    3009.07  E(vib)   ...       0.00
freq.    3069.83  E(vib)   ...       0.00
freq.    3075.57  E(vib)   ...       0.00
freq.    3082.24  E(vib)   ...       0.00
freq.    3083.74  E(vib)   ...       0.00
freq.    3089.57  E(vib)   ...       0.00
freq.    3103.81  E(vib)   ...       0.00
freq.    3190.54  E(vib)   ...       0.00

------------
INNER ENERGY
------------

The inner energy is: U= E(el) + E(ZPE) + E(vib) + E(rot) + E(trans)
    E(el)   - is the total energy from the electronic structure calculation
              = E(kin-el) + E(nuc-el) + E(el-el) + E(nuc-nuc)
    E(ZPE)  - the the zero temperature vibrational energy from the frequency calculation
    E(vib)  - the the finite temperature correction to E(ZPE) due to population
              of excited vibrational states
    E(rot)  - is the rotational thermal energy
    E(trans)- is the translational thermal energy

Summary of contributions to the inner energy U:
Electronic energy                ...   -196.47526735 Eh
Zero point energy                ...      0.13554079 Eh      85.05 kcal/mol
Thermal vibrational correction   ...      0.00360799 Eh       2.26 kcal/mol
Thermal rotational correction    ...      0.00141627 Eh       0.89 kcal/mol
Thermal translational correction ...      0.00141627 Eh       0.89 kcal/mol
-----------------------------------------------------------------------
Total thermal energy                   -196.33328603 Eh

Summary of corrections to the electronic energy:
(perhaps to be used in another calculation)
Total thermal correction                  0.00644053 Eh       4.04 kcal/mol
Non-thermal (ZPE) correction              0.13554079 Eh      85.05 kcal/mol
-----------------------------------------------------------------------
Total correction                          0.14198132 Eh      89.09 kcal/mol

--------
ENTHALPY
--------

The enthalpy is H = U + kB*T
                kB is Boltzmann's constant
Total thermal energy              ...   -196.33328603 Eh
Thermal Enthalpy correction       ...      0.00094421 Eh       0.59 kcal/mol
-----------------------------------------------------------------------
Total Enthalpy                    ...   -196.33234182 Eh

Note: Only C1 symmetry has been detected, increase convergence thresholds
      if your molecule has a higher symmetry. Symmetry factor of 1.0 is
      used for the rotational entropy correction.

Note: Rotational entropy computed according to Herzberg
Infrared and Raman Spectra, Chapter V,1, Van Nostrand Reinhold, 1945
Point Group:  C1, Symmetry Number:   1
Rotational constants in cm-1:     0.252203     0.118572     0.091781

Vibrational entropy computed according to the QRRHO of S. Grimme
Chem.Eur.J. 2012 18 9955 using a reference frequency of 100.0 cm-1

-------
ENTROPY
-------

The entropy contributions are T*S = T*(S(el)+S(vib)+S(rot)+S(trans))
     S(el)   - electronic entropy
     S(vib)  - vibrational entropy
     S(rot)  - rotational entropy
     S(trans)- translational entropy
The entropies will be listed as multiplied by the temperature to get
units of energy

Electronic entropy                ...      0.00000000 Eh      0.00 kcal/mol
Vibrational entropy               ...      0.00586146 Eh      3.68 kcal/mol
Rotational entropy                ...      0.01229525 Eh      7.72 kcal/mol
Translational entropy             ...      0.01836882 Eh     11.53 kcal/mol
-----------------------------------------------------------------------
Final entropy term                ...      0.03652554 Eh     22.92 kcal/mol

In case the symmetry of your molecule has not been determined correctly
or in case you have a reason to use a different symmetry number we print
out the resulting rotational entropy values for sn=1,12:

 non-linear molecules -----------------------------------
|  sn= 1 | S(rot)=       0.01229525 Eh      7.72 kcal/mol|
|  sn= 2 | S(rot)=       0.01164079 Eh      7.30 kcal/mol|
|  sn= 3 | S(rot)=       0.01125796 Eh      7.06 kcal/mol|
|  sn= 4 | S(rot)=       0.01098634 Eh      6.89 kcal/mol|
|  sn= 5 | S(rot)=       0.01077565 Eh      6.76 kcal/mol|
|  sn= 6 | S(rot)=       0.01060351 Eh      6.65 kcal/mol|
|  sn= 7 | S(rot)=       0.01045796 Eh      6.56 kcal/mol|
|  sn= 8 | S(rot)=       0.01033188 Eh      6.48 kcal/mol|
|  sn= 9 | S(rot)=       0.01022067 Eh      6.41 kcal/mol|
|  sn=10 | S(rot)=       0.01012119 Eh      6.35 kcal/mol|
|  sn=11 | S(rot)=       0.01003120 Eh      6.29 kcal/mol|
|  sn=12 | S(rot)=       0.00994905 Eh      6.24 kcal/mol|
 linear molecules ---------------------------------------
|  Dinfh | S(rot)=       0.00758084 Eh      4.76 kcal/mol|
|  Cinfv | S(rot)=       0.00823530 Eh      5.17 kcal/mol|
 --------------------------------------------------------

-------------------
GIBBS FREE ENERGY
-------------------

                             ****ORCA TERMINATED NORMALLY****
TOTAL RUN TIME: 0 days 0 hours 6 minutes 6 seconds 677 msec
