                         Program Version 6.0.0  -   RELEASE  -
|  1> ! r2SCAN-3c DEF2-TZVP FREQ
|  2> * xyzfile 0 1 vacuum_censo.xyz
|  3>
|  4>                          ****END OF INPUT****

CARTESIAN COORDINATES (ANGSTROEM)
---------------------------------
  C      1.201499    1.261353   -0.034227
  C      0.399641   -0.000036    0.314547
  C      1.200438   -1.262036   -0.034512
  C     -0.916185    0.000575   -0.407492
  C     -2.113322    0.000232    0.171292
  H      0.647341    2.167108    0.228639
  H      1.415278    1.294831   -1.108974
  H      2.158494    1.272872    0.498211
  H      0.198147   -0.000089    1.394163
  H      1.414042   -1.295545   -1.109290
  H      2.157489   -1.274407    0.497808
  H      0.645549   -2.167357    0.228302
  H     -0.848560    0.001241   -1.497803
  H     -3.028979    0.000621   -0.411406
  H     -2.215332   -0.000438    1.253975

 Total Charge           Charge          ....    0
 Multiplicity           Mult            ....    1
 Number of Electrons    NEL             ....   40
 Basis Dimension        Dim             ....  215

ORBITAL ENERGIES
----------------

  NO   OCC          E(Eh)            E(eV)
   0   2.0000     -10.040868      -273.2259
   1   2.0000     -10.033450      -273.0240
   2   2.0000     -10.022551      -272.7275
   3   2.0000     -10.022549      -272.7274
   4   2.0000     -10.021937      -272.7108
   5   2.0000      -0.781597       -21.2683
   6   2.0000      -0.704182       -19.1618
   7   2.0000      -0.651118       -17.7178
   8   2.0000      -0.572610       -15.5815
   9   2.0000      -0.517671       -14.0865
  10   2.0000      -0.431317       -11.7367
  11   2.0000      -0.422421       -11.4947
  12   2.0000      -0.389809       -10.6072
  13   2.0000      -0.381241       -10.3741
  14   2.0000      -0.354287        -9.6406
  15   2.0000      -0.347034        -9.4433
  16   2.0000      -0.315369        -8.5816
  17   2.0000      -0.303452        -8.2574
  18   2.0000      -0.295630        -8.0445
  19   2.0000      -0.236973        -6.4484
  20   0.0000      -0.014423        -0.3925
  21   0.0000       0.050716         1.3800
  22   0.0000       0.071125         1.9354
  23   0.0000       0.088761         2.4153
  24   0.0000       0.100695         2.7401

MULLIKEN ATOMIC CHARGES
-----------------------
   0 C :   -0.331232
   1 C :    0.083846
   2 C :   -0.331193
   3 C :   -0.162001
   4 C :   -0.266329
   5 H :    0.113901
   6 H :    0.096453
   7 H :    0.105147
   8 H :    0.045520
   9 H :    0.096454
  10 H :    0.105142
  11 H :    0.113896
  12 H :    0.101665
  13 H :    0.118689
  14 H :    0.110041
Sum of atomic charges:   -0.0000000

LOEWDIN ATOMIC CHARGES
----------------------
   0 C :   -0.277857
   1 C :   -0.301841
   2 C :   -0.277845
   3 C :   -0.181503
   4 C :   -0.216236
   5 H :    0.121851
   6 H :    0.120251
   7 H :    0.119960
   8 H :    0.149765
   9 H :    0.120251
  10 H :    0.119959
  11 H :    0.121851
  12 H :    0.141332
  13 H :    0.119942
  14 H :    0.120122

  Mayer bond orders larger than 0.100000
B(  0-C ,  1-C ) :   0.9578 B(  0-C ,  5-H ) :   0.9751 B(  0-C ,  6-H ) :   0.9715
B(  0-C ,  7-H ) :   0.9716 B(  1-C ,  2-C ) :   0.9578 B(  1-C ,  3-C ) :   0.9470
B(  1-C ,  8-H ) :   0.9592 B(  2-C ,  9-H ) :   0.9715 B(  2-C , 10-H ) :   0.9716
B(  2-C , 11-H ) :   0.9751 B(  3-C ,  4-C ) :   1.9507 B(  3-C , 12-H ) :   0.9466
B(  4-C , 13-H ) :   0.9627 B(  4-C , 14-H ) :   0.9607

Dispersion correction           -0.003391972
FINAL SINGLE POINT ENERGY      -196.475298273325

DIPOLE MOMENT
-------------

Method             : SCF
Type of density    : Electron Density
Multiplicity       :   1
Irrep              :   0
Energy             :  -196.4777882289922104 Eh
Relativity type    :
Basis              : AO
                                X                 Y                 Z
Electronic contribution:     -2.256639896       0.001001179       0.060928668
Nuclear contribution   :      2.409476037      -0.001074750      -0.036625164
                        -----------------------------------------
Total Dipole Moment    :      0.152836142      -0.000073572       0.024303504
                        -----------------------------------------
Magnitude (a.u.)       :      0.154756428
Magnitude (Debye)      :      0.393359578

VIBRATIONAL FREQUENCIES
-----------------------

Scaling factor for frequencies =  1.000000000  (already applied!)

     0:       0.00 cm**-1
     1:       0.00 cm**-1
     2:       0.00 cm**-1
     3:       0.00 cm**-1
     4:       0.00 cm**-1
     5:       0.00 cm**-1
     6:      95.55 cm**-1
     7:     234.73 cm**-1
     8:     256.55 cm**-1
     9:     313.29 cm**-1
    10:     328.65 cm**-1
    11:     349.05 cm**-1
    12:     509.01 cm**-1
    13:     697.67 cm**-1
    14:     805.86 cm**-1
    15:     924.99 cm**-1
    16:     930.56 cm**-1
    17:     933.03 cm**-1
    18:     961.35 cm**-1
    19:    1001.91 cm**-1
    20:    1028.08 cm**-1
    21:    1111.11 cm**-1
    22:    1182.79 cm**-1
    23:    1217.79 cm**-1
    24:    1313.47 cm**-1
    25:    1327.51 cm**-1
    26:    1330.17 cm**-1
    27:    1381.88 cm**-1
    28:    1403.51 cm**-1
    29:    1451.05 cm**-1
    30:    1478.47 cm**-1
    31:    1479.59 cm**-1
    32:    1493.30 cm**-1
    33:    1503.28 cm**-1
    34:    1690.74 cm**-1
    35:    2999.00 cm**-1
    36:    3001.15 cm**-1
    37:    3006.12 cm**-1
    38:    3071.86 cm**-1
    39:    3077.35 cm**-1
    40:    3089.84 cm**-1
    41:    3090.84 cm**-1
    42:    3093.22 cm**-1
    43:    3114.71 cm**-1
    44:    3202.22 cm**-1

IR SPECTRUM
-----------

 Mode   freq       eps      Int      T**2         TX        TY        TZ
       cm**-1   L/(mol*cm) km/mol    a.u.
----------------------------------------------------------------------------
  6:     95.55   0.000007    0.03  0.000022  ( 0.000012 -0.004704 -0.000016)
  7:    234.73   0.000013    0.06  0.000017  ( 0.000002  0.004088  0.000002)
  8:    256.55   0.000004    0.02  0.000004  ( 0.001453 -0.000005  0.001476)
  9:    313.29   0.000089    0.45  0.000088  ( 0.000010 -0.009401 -0.000024)
 10:    328.65   0.000108    0.54  0.000102  (-0.010032  0.000031 -0.001216)
 11:    349.05   0.000036    0.18  0.000032  ( 0.005660 -0.000005 -0.000625)
 12:    509.01   0.000066    0.34  0.000041  ( 0.002796 -0.000000  0.005731)
 13:    697.67   0.002458   12.42  0.001100  (-0.000035  0.033161  0.000039)
 14:    805.86   0.000318    1.61  0.000123  ( 0.008978 -0.000007  0.006533)
 15:    924.99   0.005884   29.74  0.001985  (-0.000020 -0.044556 -0.000021)
 16:    930.56   0.003143   15.88  0.001054  (-0.000092  0.032464  0.000043)
 17:    933.03   0.000785    3.97  0.000263  (-0.015752 -0.000131  0.003810)
 18:    961.35   0.000005    0.02  0.000002  ( 0.000003 -0.001241  0.000000)
 19:   1001.91   0.000985    4.98  0.000307  (-0.017163  0.000014 -0.003480)
 20:   1028.08   0.002907   14.69  0.000882  (-0.000092 -0.029703  0.000035)
 21:   1111.11   0.000992    5.01  0.000279  ( 0.000019  0.016693  0.000010)
 22:   1182.79   0.000324    1.64  0.000085  ( 0.008989 -0.000007  0.002162)
 23:   1217.79   0.000067    0.34  0.000017  ( 0.002209 -0.000004  0.003522)
 24:   1313.47   0.000521    2.63  0.000124  (-0.008465  0.000001  0.007226)
 25:   1327.51   0.000587    2.97  0.000138  ( 0.011528 -0.000044  0.002246)
 26:   1330.17   0.000491    2.48  0.000115  (-0.000050 -0.010727 -0.000009)
 27:   1381.88   0.001050    5.31  0.000237  (-0.000009 -0.015398 -0.000005)
 28:   1403.51   0.000763    3.86  0.000170  (-0.008813 -0.000002  0.009590)
 29:   1451.05   0.000623    3.15  0.000134  ( 0.009677  0.000006 -0.006358)
 30:   1478.47   0.000058    0.29  0.000012  ( 0.000002 -0.003490 -0.000000)
 31:   1479.59   0.000657    3.32  0.000138  (-0.000011 -0.011767  0.000007)
 32:   1493.30   0.001344    6.79  0.000281  ( 0.007936 -0.000006 -0.014759)
 33:   1503.28   0.002533   12.80  0.000526  ( 0.007521 -0.000006  0.021660)
 34:   1690.74   0.003106   15.70  0.000573  ( 0.023460 -0.000006 -0.004792)
 35:   2999.00   0.005914   29.89  0.000615  ( 0.000013  0.024807 -0.000001)
 36:   3001.15   0.003833   19.37  0.000399  (-0.019759  0.000015  0.002853)
 37:   3006.12   0.004441   22.44  0.000461  (-0.013296  0.000002  0.016860)
 38:   3071.86   0.000309    1.56  0.000031  ( 0.000003  0.005601  0.000013)
 39:   3077.35   0.011005   55.61  0.001116  ( 0.014357  0.000001  0.030164)
 40:   3089.84   0.004405   22.26  0.000445  (-0.000102  0.021093 -0.000000)
 41:   3090.84   0.004816   24.34  0.000486  ( 0.020999  0.000074  0.006728)
 42:   3093.22   0.008666   43.79  0.000874  ( 0.013965  0.000034 -0.026063)
 43:   3114.71   0.001310    6.62  0.000131  (-0.009939 -0.000003  0.005695)
 44:   3202.22   0.003067   15.50  0.000299  (-0.009448  0.000008 -0.014476)

--------------------------
THERMOCHEMISTRY AT 298.15K
--------------------------

Temperature         ...   298.15 K
Pressure            ...     1.00 atm
Total Mass          ...    70.13 AMU
Quasi RRHO          ...     True
Cut-Off Frequency   ...     1.00 cm^-1

Throughout the following assumptions are being made:
  (1) The electronic state is orbitally nondegenerate
  (2) There are no thermally accessible electronically excited states
  (3) Hindered rotations indicated by low frequency modes are not
      treated as such but are treated as vibrations and this may
      cause some error
  (4) All equations used are the standard statistical mechanics
      equations for an ideal gas
  (5) All vibrations are strictly harmonic

freq.      95.55  E(vib)   ...       0.47
freq.     234.73  E(vib)   ...       0.32
freq.     256.55  E(vib)   ...       0.30
freq.     313.29  E(vib)   ...       0.25
freq.     328.65  E(vib)   ...       0.24
freq.     349.05  E(vib)   ...       0.23
freq.     509.01  E(vib)   ...       0.14
freq.     697.67  E(vib)   ...       0.07
freq.     805.86  E(vib)   ...       0.05
freq.     924.99  E(vib)   ...       0.03
freq.     930.56  E(vib)   ...       0.03
freq.     933.03  E(vib)   ...       0.03
freq.     961.35  E(vib)   ...       0.03
freq.    1001.91  E(vib)   ...       0.02
freq.    1028.08  E(vib)   ...       0.02
freq.    1111.11  E(vib)   ...       0.01
freq.    1182.79  E(vib)   ...       0.01
freq.    1217.79  E(vib)   ...       0.01
freq.    1313.47  E(vib)   ...       0.01
freq.    1327.51  E(vib)   ...       0.01
freq.    1330.17  E(vib)   ...       0.01
freq.    1381.88  E(vib)   ...       0.01
freq.    1403.51  E(vib)   ...       0.00
freq.    1451.05  E(vib)   ...       0.00
freq.    1478.47  E(vib)   ...       0.00
freq.    1479.59  E(vib)   ...       0.00
freq.    1493.30  E(vib)   ...       0.00
freq.    1503.28  E(vib)   ...       0.00
freq.    1690.74  E(vib)   ...       0.00
freq.    2999.00  E(vib)   ...       0.00
freq.    3001.15  E(vib)   ...       0.00
freq.    3006.12  E(vib)   ...       0.00
freq.    3071.86  E(vib)   ...       0.00
freq.    3077.35  E(vib)   ...       0.00
freq.    3089.84  E(vib)   ...       0.00
freq.    3090.84  E(vib)   ...       0.00
freq.    3093.22  E(vib)   ...       0.00
freq.    3114.71  E(vib)   ...       0.00
freq.    3202.22  E(vib)   ...       0.00

------------
INNER ENERGY
------------

The inner energy is: U= E(el) + E(ZPE) + E(vib) + E(rot) + E(trans)
    E(el)   - is the total energy from the electronic structure calculation
              = E(kin-el) + E(nuc-el) + E(el-el) + E(nuc-nuc)
    E(ZPE)  - the the zero temperature vibrational energy from the frequency calculation
    E(vib)  - the the finite temperature correction to E(ZPE) due to population
              of excited vibrational states
    E(rot)  - is the rotational thermal energy
    E(trans)- is the translational thermal energy

Summary of contributions to the inner energy U:
Electronic energy                ...   -196.47529827 Eh
Zero point energy                ...      0.13550828 Eh      85.03 kcal/mol
Thermal vibrational correction   ...      0.00367790 Eh       2.31 kcal/mol
Thermal rotational correction    ...      0.00141627 Eh       0.89 kcal/mol
Thermal translational correction ...      0.00141627 Eh       0.89 kcal/mol
-----------------------------------------------------------------------
Total thermal energy                   -196.33327955 Eh

Summary of corrections to the electronic energy:
(perhaps to be used in another calculation)
Total thermal correction                  0.00651044 Eh       4.09 kcal/mol
Non-thermal (ZPE) correction              0.13550828 Eh      85.03 kcal/mol
-----------------------------------------------------------------------
Total correction                          0.14201873 Eh      89.12 kcal/mol

--------
ENTHALPY
--------

The enthalpy is H = U + kB*T
                kB is Boltzmann's constant
Total thermal energy              ...   -196.33327955 Eh
Thermal Enthalpy correction       ...      0.00094421 Eh       0.59 kcal/mol
-----------------------------------------------------------------------
Total Enthalpy                    ...   -196.33233534 Eh

Note: Only C1 symmetry has been detected, increase convergence thresholds
      if your molecule has a higher symmetry. Symmetry factor of 1.0 is
      used for the rotational entropy correction.

Note: Rotational entropy computed according to Herzberg
Infrared and Raman Spectra, Chapter V,1, Van Nostrand Reinhold, 1945
Point Group:  C1, Symmetry Number:   1
Rotational constants in cm-1:     0.251659     0.118598     0.091679

Vibrational entropy computed according to the QRRHO of S. Grimme
Chem.Eur.J. 2012 18 9955 using a reference frequency of 100.0 cm-1

-------
ENTROPY
-------

The entropy contributions are T*S = T*(S(el)+S(vib)+S(rot)+S(trans))
     S(el)   - electronic entropy
     S(vib)  - vibrational entropy
     S(rot)  - rotational entropy
     S(trans)- translational entropy
The entropies will be listed as multiplied by the temperature to get
units of energy

Electronic entropy                ...      0.00000000 Eh      0.00 kcal/mol
Vibrational entropy               ...      0.00601176 Eh      3.77 kcal/mol
Rotational entropy                ...      0.01229669 Eh      7.72 kcal/mol
Translational entropy             ...      0.01836882 Eh     11.53 kcal/mol
-----------------------------------------------------------------------
Final entropy term                ...      0.03667728 Eh     23.02 kcal/mol

In case the symmetry of your molecule has not been determined correctly
or in case you have a reason to use a different symmetry number we print
out the resulting rotational entropy values for sn=1,12:

 non-linear molecules -----------------------------------
|  sn= 1 | S(rot)=       0.01229669 Eh      7.72 kcal/mol|
|  sn= 2 | S(rot)=       0.01164223 Eh      7.31 kcal/mol|
|  sn= 3 | S(rot)=       0.01125940 Eh      7.07 kcal/mol|
|  sn= 4 | S(rot)=       0.01098778 Eh      6.89 kcal/mol|
|  sn= 5 | S(rot)=       0.01077709 Eh      6.76 kcal/mol|
|  sn= 6 | S(rot)=       0.01060494 Eh      6.65 kcal/mol|
|  sn= 7 | S(rot)=       0.01045940 Eh      6.56 kcal/mol|
|  sn= 8 | S(rot)=       0.01033332 Eh      6.48 kcal/mol|
|  sn= 9 | S(rot)=       0.01022211 Eh      6.41 kcal/mol|
|  sn=10 | S(rot)=       0.01012263 Eh      6.35 kcal/mol|
|  sn=11 | S(rot)=       0.01003264 Eh      6.30 kcal/mol|
|  sn=12 | S(rot)=       0.00995049 Eh      6.24 kcal/mol|
 linear molecules ---------------------------------------
|  Dinfh | S(rot)=       0.00758189 Eh      4.76 kcal/mol|
|  Cinfv | S(rot)=       0.00823635 Eh      5.17 kcal/mol|
 --------------------------------------------------------

-------------------
GIBBS FREE ENERGY
-------------------

                             ****ORCA TERMINATED NORMALLY****
TOTAL RUN TIME: 0 days 0 hours 6 minutes 6 seconds 114 msec
