                         Program Version 6.0.1  -  RELEASE   -
|  1> ! r2scan-3c def2/J RI DEFGRID2 scfconv6 printgap
|  2> %output
|  3>     printlevel normal
|  4> end
|  5> * xyz 0 1
|  6> C 2.4531916436 -1.2011572825 0.0012815721
|  7> C 1.7022423184 0.1051872871 -4.95964e-05
|  8> O 2.2700099234 1.1733842941 -0.001208678
|  9> C 0.21577384 0.0276369845 -8.953e-07
| 10> C -0.5138239307 1.2190177275 0.0006284617
| 11> C -1.8947080895 1.1692322364 0.000670249
| 12> C -2.5030130058 -0.0786562097 7.27679e-05
| 13> N -1.8267077874 -1.2151760104 -0.0006473314
| 14> C -0.5082919761 -1.1654412646 -0.000694177
| 15> H 3.5215636316 -1.0005378082 0.0029007193
| 16> H 2.1960551971 -1.7808087008 -0.8826528629
| 17> H 2.1932208766 -1.7810415003 0.8842010502
| 18> H 0.0225642598 2.1570021344 0.0010838824
| 19> H -2.4861894671 2.0714532537 0.0011746439
| 20> H -3.580491079 -0.1789405003 0.0001758159
| 21> H -0.018884824 -2.1297567116 -0.0014427052
| 22> *
| 23>
| 24>                          ****END OF INPUT****

CARTESIAN COORDINATES (ANGSTROEM)
---------------------------------
  C      2.453192   -1.201157    0.001282
  C      1.702242    0.105187   -0.000050
  O      2.270010    1.173384   -0.001209
  C      0.215774    0.027637   -0.000001
  C     -0.513824    1.219018    0.000628
  C     -1.894708    1.169232    0.000670
  C     -2.503013   -0.078656    0.000073
  N     -1.826708   -1.215176   -0.000647
  C     -0.508292   -1.165441   -0.000694
  H      3.521564   -1.000538    0.002901
  H      2.196055   -1.780809   -0.882653
  H      2.193221   -1.781042    0.884201
  H      0.022564    2.157002    0.001084
  H     -2.486189    2.071453    0.001175
  H     -3.580491   -0.178941    0.000176
  H     -0.018885   -2.129757   -0.001443

 Total Charge           Charge          ....    0
 Multiplicity           Mult            ....    1
 Number of Electrons    NEL             ....   64
 Basis Dimension        Dim             ....  216

ORBITAL ENERGIES
----------------

  NO   OCC          E(Eh)            E(eV)
   0   2.0000     -18.947875      -515.5979
   1   2.0000     -14.168924      -385.5560
   2   2.0000     -10.131135      -275.6822
   3   2.0000     -10.086175      -274.4588
   4   2.0000     -10.084662      -274.4176
   5   2.0000     -10.066417      -273.9211
   6   2.0000     -10.061977      -273.8003
   7   2.0000     -10.058551      -273.7071
   8   2.0000     -10.041618      -273.2463
   9   2.0000      -1.018829       -27.7238
  10   2.0000      -0.932103       -25.3638
  11   2.0000      -0.793725       -21.5984
  12   2.0000      -0.761997       -20.7350
  13   2.0000      -0.716295       -19.4914
  14   2.0000      -0.632063       -17.1993
  15   2.0000      -0.610796       -16.6206
  16   2.0000      -0.538803       -14.6616
  17   2.0000      -0.501415       -13.6442
  18   2.0000      -0.474290       -12.9061
  19   2.0000      -0.446276       -12.1438
  20   2.0000      -0.430967       -11.7272
  21   2.0000      -0.428753       -11.6670
  22   2.0000      -0.401707       -10.9310
  23   2.0000      -0.390806       -10.6344
  24   2.0000      -0.381295       -10.3756
  25   2.0000      -0.369798       -10.0627
  26   2.0000      -0.350173        -9.5287
  27   2.0000      -0.347983        -9.4691
  28   2.0000      -0.283796        -7.7225
  29   2.0000      -0.264582        -7.1996
  30   2.0000      -0.243157        -6.6166
  31   2.0000      -0.224996        -6.1225
  32   0.0000      -0.099630        -2.7111
  33   0.0000      -0.064282        -1.7492
  34   0.0000      -0.005424        -0.1476
  35   0.0000       0.070268         1.9121
  36   0.0000       0.096582         2.6281

MULLIKEN ATOMIC CHARGES
-----------------------
   0 C :   -0.562686
   1 C :    0.251494
   2 O :   -0.341925
   3 C :    0.202337
   4 C :   -0.172982
   5 C :   -0.113036
   6 C :   -0.062194
   7 N :   -0.167130
   8 C :   -0.176111
   9 H :    0.183439
  10 H :    0.172878
  11 H :    0.172825
  12 H :    0.187295
  13 H :    0.152053
  14 H :    0.137432
  15 H :    0.136310
Sum of atomic charges:   -0.0000000

LOEWDIN ATOMIC CHARGES
----------------------
   0 C :   -0.382488
   1 C :    0.238608
   2 O :   -0.460311
   3 C :   -0.061350
   4 C :   -0.062742
   5 C :   -0.139617
   6 C :    0.099177
   7 N :   -0.608063
   8 C :    0.103893
   9 H :    0.177166
  10 H :    0.175343
  11 H :    0.175266
  12 H :    0.193066
  13 H :    0.173014
  14 H :    0.187204
  15 H :    0.191833

  Mayer bond orders larger than 0.100000
B(  0-C ,  1-C ) :   0.8694 B(  0-C ,  9-H ) :   0.9773 B(  0-C , 10-H ) :   0.9578
B(  0-C , 11-H ) :   0.9582 B(  1-C ,  2-O ) :   1.9270 B(  1-C ,  3-C ) :   0.8963
B(  2-O ,  3-C ) :  -0.1185 B(  2-O ,  4-C ) :   0.1016 B(  3-C ,  4-C ) :   1.3362
B(  3-C ,  8-C ) :   1.2811 B(  4-C ,  5-C ) :   1.3950 B(  4-C , 12-H ) :   0.9615
B(  5-C ,  6-C ) :   1.3197 B(  5-C , 13-H ) :   0.9471 B(  6-C ,  7-N ) :   1.4582
B(  6-C , 14-H ) :   0.9806 B(  7-N ,  8-C ) :   1.4928 B(  8-C , 15-H ) :   0.9747

Dispersion correction           -0.005270796
FINAL SINGLE POINT ENERGY      -400.833011033928

DIPOLE MOMENT
-------------

Method             : SCF
Type of density    : Electron Density
Multiplicity       :   1
Irrep              :   0
Energy             :  -400.8351948058980270 Eh
Relativity type    :
Basis              : AO
                                X                 Y                 Z
Electronic contribution:     -2.095170829       2.266528904      -0.003736369
Nuclear contribution   :      1.757180527      -2.468531291       0.005082704
                        -----------------------------------------
Total Dipole Moment    :     -0.337990302      -0.202002388       0.001346335
                        -----------------------------------------
Magnitude (a.u.)       :      0.393756552
Magnitude (Debye)      :      1.000849615

Rotational constants in cm-1:             0.126335             0.041685             0.031527
Rotational constants in MHz :          3787.433406          1249.675611           945.168962

                             ****ORCA TERMINATED NORMALLY****
TOTAL RUN TIME: 0 days 0 hours 0 minutes 28 seconds 950 msec
