                         Program Version 6.0.1  -  RELEASE   -
|  1> ! pbe def2-sv(p) def2/J RI DEFGRID1 loosescf d4 GCP(DFT/SV(P)) printgap
|  2> %output
|  3>     printlevel normal
|  4> end
|  5> * xyz 0 1
|  6> C -2.088834687 -1.0785230225 -0.1446219019
|  7> C -1.0667133622 -0.4202691331 0.8099233157
|  8> H -1.5184560975 -0.4151877824 1.808934564
|  9> C -0.7380079255 1.0523323136 0.4743265492
| 10> H -1.6068958502 1.4831751596 -0.0344482813
| 11> C 0.4874395366 1.235833075 -0.4471167881
| 12> H 0.8291826425 2.2751310589 -0.3097673212
| 13> C 1.6345820962 0.312602366 -0.0063546604
| 14> H 2.4382591547 0.3400926588 -0.7618016449
| 15> C 1.1257737407 -1.134487946 0.0912998718
| 16> H 1.9209540241 -1.7727903648 0.5245881825
| 17> O 0.0832947001 -1.251871805 1.0031460359
| 18> O 0.8111865554 -1.5603793536 -1.1999005688
| 19> O 2.0958251458 0.7756626476 1.2383534405
| 20> O 0.111874384 1.0175002226 -1.7802424179
| 21> O -0.558505514 1.7964925282 1.6495600961
| 22> O -2.0652338405 -0.672703341 -1.4818516181
| 23> H -3.0958960415 -0.8540335909 0.220656944
| 24> H -1.9410043283 -2.1695297235 -0.0679928754
| 25> H 0.3449018582 -2.4040174697 -1.1515381724
| 26> H 2.7016051515 0.1302606722 1.62078904
| 27> H 0.8951776971 0.9725801217 -2.3395843863
| 28> H 0.2988715707 1.5530854157 2.0284540634
| 29> H -1.1660402391 -0.4133427628 -1.7401064627
| 30> *
| 31>
| 32>                          ****END OF INPUT****

CARTESIAN COORDINATES (ANGSTROEM)
---------------------------------
  C     -2.088835   -1.078523   -0.144622
  C     -1.066713   -0.420269    0.809923
  H     -1.518456   -0.415188    1.808935
  C     -0.738008    1.052332    0.474327
  H     -1.606896    1.483175   -0.034448
  C      0.487440    1.235833   -0.447117
  H      0.829183    2.275131   -0.309767
  C      1.634582    0.312602   -0.006355
  H      2.438259    0.340093   -0.761802
  C      1.125774   -1.134488    0.091300
  H      1.920954   -1.772790    0.524588
  O      0.083295   -1.251872    1.003146
  O      0.811187   -1.560379   -1.199901
  O      2.095825    0.775663    1.238353
  O      0.111874    1.017500   -1.780242
  O     -0.558506    1.796493    1.649560
  O     -2.065234   -0.672703   -1.481852
  H     -3.095896   -0.854034    0.220657
  H     -1.941004   -2.169530   -0.067993
  H      0.344902   -2.404017   -1.151538
  H      2.701605    0.130261    1.620789
  H      0.895178    0.972580   -2.339584
  H      0.298872    1.553085    2.028454
  H     -1.166040   -0.413343   -1.740106

 Total Charge           Charge          ....    0
 Multiplicity           Mult            ....    1
 Number of Electrons    NEL             ....   96
 Basis Dimension        Dim             ....  192

ORBITAL ENERGIES
----------------

  NO   OCC          E(Eh)            E(eV)
   0   2.0000     -18.786863      -511.2165
   1   2.0000     -18.778957      -511.0014
   2   2.0000     -18.774427      -510.8781
   3   2.0000     -18.774158      -510.8708
   4   2.0000     -18.737920      -509.8847
   5   2.0000     -18.719297      -509.3780
   6   2.0000     -10.001767      -272.1619
   7   2.0000      -9.963095      -271.1096
   8   2.0000      -9.955344      -270.8987
   9   2.0000      -9.942945      -270.5613
  10   2.0000      -9.940307      -270.4895
  11   2.0000      -9.921758      -269.9848
  12   2.0000      -0.996768       -27.1234
  13   2.0000      -0.961748       -26.1705
  14   2.0000      -0.950899       -25.8753
  15   2.0000      -0.929122       -25.2827
  16   2.0000      -0.916271       -24.9330
  17   2.0000      -0.899402       -24.4740
  18   2.0000      -0.706673       -19.2296
  19   2.0000      -0.697071       -18.9683
  20   2.0000      -0.623340       -16.9619
  21   2.0000      -0.600960       -16.3530
  22   2.0000      -0.573689       -15.6109
  23   2.0000      -0.539138       -14.6707
  24   2.0000      -0.494118       -13.4456
  25   2.0000      -0.492816       -13.4102
  26   2.0000      -0.479430       -13.0460
  27   2.0000      -0.464740       -12.6462
  28   2.0000      -0.453342       -12.3361
  29   2.0000      -0.440795       -11.9946
  30   2.0000      -0.424660       -11.5556
  31   2.0000      -0.398859       -10.8535
  32   2.0000      -0.393840       -10.7169
  33   2.0000      -0.375266       -10.2115
  34   2.0000      -0.361027        -9.8241
  35   2.0000      -0.351949        -9.5770
  36   2.0000      -0.339690        -9.2434
  37   2.0000      -0.334785        -9.1100
  38   2.0000      -0.314907        -8.5690
  39   2.0000      -0.300349        -8.1729
  40   2.0000      -0.282171        -7.6783
  41   2.0000      -0.271222        -7.3803
  42   2.0000      -0.261298        -7.1103
  43   2.0000      -0.249944        -6.8013
  44   2.0000      -0.234336        -6.3766
  45   2.0000      -0.228435        -6.2160
  46   2.0000      -0.210848        -5.7375
  47   2.0000      -0.193513        -5.2657
  48   0.0000      -0.000253        -0.0069
  49   0.0000       0.006960         0.1894
  50   0.0000       0.025241         0.6868
  51   0.0000       0.056266         1.5311
  52   0.0000       0.064469         1.7543

MULLIKEN ATOMIC CHARGES
-----------------------
   0 C :    0.045944
   1 C :    0.010143
   2 H :    0.080647
   3 C :    0.056617
   4 H :    0.098811
   5 C :    0.037209
   6 H :    0.087523
   7 C :    0.021557
   8 H :    0.069071
   9 C :    0.163564
  10 H :    0.055984
  11 O :   -0.303341
  12 O :   -0.400856
  13 O :   -0.414108
  14 O :   -0.398908
  15 O :   -0.428209
  16 O :   -0.458238
  17 H :    0.081254
  18 H :    0.054089
  19 H :    0.314299
  20 H :    0.310744
  21 H :    0.309897
  22 H :    0.300255
  23 H :    0.306053
Sum of atomic charges:   -0.0000000

LOEWDIN ATOMIC CHARGES
----------------------
   0 C :   -0.136596
   1 C :   -0.077561
   2 H :    0.126995
   3 C :   -0.062058
   4 H :    0.129883
   5 C :   -0.068140
   6 H :    0.111642
   7 C :   -0.089170
   8 H :    0.102058
   9 C :   -0.017258
  10 H :    0.088730
  11 O :   -0.141758
  12 O :   -0.309312
  13 O :   -0.301631
  14 O :   -0.288955
  15 O :   -0.316335
  16 O :   -0.352509
  17 H :    0.111566
  18 H :    0.084728
  19 H :    0.292007
  20 H :    0.292206
  21 H :    0.289445
  22 H :    0.272791
  23 H :    0.259230

  Mayer bond orders larger than 0.100000
B(  0-C ,  1-C ) :   1.0398 B(  0-C , 16-O ) :   1.1175 B(  0-C , 17-H ) :   0.9158
B(  0-C , 18-H ) :   0.9057 B(  1-C ,  2-H ) :   0.8882 B(  1-C ,  3-C ) :   0.9828
B(  1-C , 11-O ) :   0.9649 B(  3-C ,  4-H ) :   0.8888 B(  3-C ,  5-C ) :   1.0011
B(  3-C , 15-O ) :   1.0488 B(  5-C ,  6-H ) :   0.9004 B(  5-C ,  7-C ) :   0.9897
B(  5-C , 14-O ) :   1.0477 B(  7-C ,  8-H ) :   0.8924 B(  7-C ,  9-C ) :   0.9693
B(  7-C , 13-O ) :   1.0358 B(  9-C , 10-H ) :   0.9021 B(  9-C , 11-O ) :   1.1059
B(  9-C , 12-O ) :   1.1147 B( 12-O , 19-H ) :   0.8257 B( 13-O , 20-H ) :   0.8376
B( 14-O , 21-H ) :   0.8325 B( 14-O , 23-H ) :   0.1051 B( 15-O , 22-H ) :   0.8232
B( 16-O , 23-H ) :   0.7830

Dispersion correction           -0.026660830
FINAL SINGLE POINT ENERGY      -685.692031365183

DIPOLE MOMENT
-------------

Method             : SCF
Type of density    : Electron Density
Multiplicity       :   1
Irrep              :   0
Energy             :  -685.8265639680722643 Eh
Relativity type    :
Basis              : AO
                                X                 Y                 Z
Electronic contribution:      1.634084336       0.488215869       0.291599168
Nuclear contribution   :      0.101523641      -1.194218595      -0.197796181
                        -----------------------------------------
Total Dipole Moment    :      1.735607977      -0.706002726       0.093802987
                        -----------------------------------------
Magnitude (a.u.)       :      1.876052744
Magnitude (Debye)      :      4.768547114

Rotational constants in cm-1:             0.040359             0.031237             0.027763
Rotational constants in MHz :          1209.935304           936.449408           832.300091

                             ****ORCA TERMINATED NORMALLY****
TOTAL RUN TIME: 0 days 0 hours 0 minutes 8 seconds 291 msec
