                         Program Version 6.0.1  -  RELEASE   -
|  1> ! pbe def2-sv(p) def2/J RI DEFGRID1 loosescf d4 GCP(DFT/SV(P)) printgap
|  2> %output
|  3>     printlevel normal
|  4> end
|  5> * xyz 0 1
|  6> C -1.7889976544 -1.0375612589 -0.6939989384
|  7> C -1.0307814471 -0.4565175729 0.5109169154
|  8> H -1.7081023747 -0.5277144743 1.3698562567
|  9> C -0.6947817617 1.0366010475 0.3196753734
| 10> H -1.519494506 1.4926978161 -0.2371820621
| 11> C 0.6143990688 1.2436855386 -0.4698900532
| 12> H 0.9056804817 2.2942622596 -0.3326587902
| 13> C 1.7326058327 0.3524003346 0.1071899993
| 14> H 2.6219641266 0.4125242755 -0.5452312962
| 15> C 1.2539958164 -1.114740069 0.1246343278
| 16> H 1.9842267128 -1.7442790252 0.6542523129
| 17> O 0.0878864322 -1.2454969855 0.8891089863
| 18> O 1.1708095533 -1.6294170613 -1.1623502562
| 19> O 2.0350043469 0.8201076716 1.3996153281
| 20> O 0.3980253054 0.9554755338 -1.8382721741
| 21> O -0.6275830659 1.7173001372 1.5405483655
| 22> O -3.1358935617 -0.6391374051 -0.5692945359
| 23> H -1.6937048033 -2.131276216 -0.6621927239
| 24> H -1.3726757158 -0.6655140253 -1.6386258799
| 25> H 0.6834036309 -0.9983633298 -1.7169447322
| 26> H 2.5612480714 0.1587191635 1.8636718658
| 27> H 1.1116278494 1.3395208334 -2.3601227317
| 28> H 0.173862673 1.4266217294 2.0011232418
| 29> H -3.6391526363 -1.0056083134 -1.3037251055
| 30> *
| 31>
| 32>                          ****END OF INPUT****

CARTESIAN COORDINATES (ANGSTROEM)
---------------------------------
  C     -1.788998   -1.037561   -0.693999
  C     -1.030781   -0.456518    0.510917
  H     -1.708102   -0.527714    1.369856
  C     -0.694782    1.036601    0.319675
  H     -1.519495    1.492698   -0.237182
  C      0.614399    1.243686   -0.469890
  H      0.905680    2.294262   -0.332659
  C      1.732606    0.352400    0.107190
  H      2.621964    0.412524   -0.545231
  C      1.253996   -1.114740    0.124634
  H      1.984227   -1.744279    0.654252
  O      0.087886   -1.245497    0.889109
  O      1.170810   -1.629417   -1.162350
  O      2.035004    0.820108    1.399615
  O      0.398025    0.955476   -1.838272
  O     -0.627583    1.717300    1.540548
  O     -3.135894   -0.639137   -0.569295
  H     -1.693705   -2.131276   -0.662193
  H     -1.372676   -0.665514   -1.638626
  H      0.683404   -0.998363   -1.716945
  H      2.561248    0.158719    1.863672
  H      1.111628    1.339521   -2.360123
  H      0.173863    1.426622    2.001123
  H     -3.639153   -1.005608   -1.303725

 Total Charge           Charge          ....    0
 Multiplicity           Mult            ....    1
 Number of Electrons    NEL             ....   96
 Basis Dimension        Dim             ....  192

ORBITAL ENERGIES
----------------

  NO   OCC          E(Eh)            E(eV)
   0   2.0000     -18.789707      -511.2939
   1   2.0000     -18.780727      -511.0496
   2   2.0000     -18.761706      -510.5320
   3   2.0000     -18.753010      -510.2953
   4   2.0000     -18.745696      -510.0963
   5   2.0000     -18.733161      -509.7552
   6   2.0000      -9.987229      -271.7663
   7   2.0000      -9.957555      -270.9589
   8   2.0000      -9.955058      -270.8909
   9   2.0000      -9.937534      -270.4140
  10   2.0000      -9.934028      -270.3186
  11   2.0000      -9.925859      -270.0964
  12   2.0000      -0.984248       -26.7828
  13   2.0000      -0.958533       -26.0830
  14   2.0000      -0.951329       -25.8870
  15   2.0000      -0.923771       -25.1371
  16   2.0000      -0.917851       -24.9760
  17   2.0000      -0.904988       -24.6260
  18   2.0000      -0.704496       -19.1703
  19   2.0000      -0.693429       -18.8692
  20   2.0000      -0.614343       -16.7171
  21   2.0000      -0.597287       -16.2530
  22   2.0000      -0.567879       -15.4528
  23   2.0000      -0.526197       -14.3186
  24   2.0000      -0.514792       -14.0082
  25   2.0000      -0.486473       -13.2376
  26   2.0000      -0.473941       -12.8966
  27   2.0000      -0.470001       -12.7894
  28   2.0000      -0.439700       -11.9648
  29   2.0000      -0.434323       -11.8185
  30   2.0000      -0.419367       -11.4116
  31   2.0000      -0.405445       -11.0327
  32   2.0000      -0.388117       -10.5612
  33   2.0000      -0.373379       -10.1602
  34   2.0000      -0.365407        -9.9432
  35   2.0000      -0.353266        -9.6129
  36   2.0000      -0.337455        -9.1826
  37   2.0000      -0.316017        -8.5993
  38   2.0000      -0.309573        -8.4239
  39   2.0000      -0.294199        -8.0055
  40   2.0000      -0.281648        -7.6640
  41   2.0000      -0.276067        -7.5122
  42   2.0000      -0.267974        -7.2919
  43   2.0000      -0.244659        -6.6575
  44   2.0000      -0.229698        -6.2504
  45   2.0000      -0.222530        -6.0553
  46   2.0000      -0.213290        -5.8039
  47   2.0000      -0.200050        -5.4436
  48   0.0000      -0.004121        -0.1121
  49   0.0000       0.010335         0.2812
  50   0.0000       0.028175         0.7667
  51   0.0000       0.065369         1.7788
  52   0.0000       0.073076         1.9885

MULLIKEN ATOMIC CHARGES
-----------------------
   0 C :   -0.007555
   1 C :    0.037812
   2 H :    0.088548
   3 C :    0.091296
   4 H :    0.086282
   5 C :   -0.015694
   6 H :    0.090334
   7 C :    0.023194
   8 H :    0.064539
   9 C :    0.176209
  10 H :    0.060622
  11 O :   -0.295857
  12 O :   -0.406308
  13 O :   -0.414747
  14 O :   -0.408889
  15 O :   -0.425619
  16 O :   -0.433667
  17 H :    0.084654
  18 H :    0.075464
  19 H :    0.302516
  20 H :    0.312277
  21 H :    0.314511
  22 H :    0.298974
  23 H :    0.301103
Sum of atomic charges:    0.0000000

LOEWDIN ATOMIC CHARGES
----------------------
   0 C :   -0.147021
   1 C :   -0.067969
   2 H :    0.127859
   3 C :   -0.062524
   4 H :    0.124804
   5 C :   -0.072730
   6 H :    0.114032
   7 C :   -0.098729
   8 H :    0.098884
   9 C :   -0.014499
  10 H :    0.101801
  11 O :   -0.137624
  12 O :   -0.309767
  13 O :   -0.304457
  14 O :   -0.304939
  15 O :   -0.315534
  16 O :   -0.340411
  17 H :    0.102161
  18 H :    0.094308
  19 H :    0.265317
  20 H :    0.292445
  21 H :    0.295993
  22 H :    0.271066
  23 H :    0.287534

  Mayer bond orders larger than 0.100000
B(  0-C ,  1-C ) :   1.0439 B(  0-C , 16-O ) :   1.0720 B(  0-C , 17-H ) :   0.9083
B(  0-C , 18-H ) :   0.8983 B(  1-C ,  2-H ) :   0.8899 B(  1-C ,  3-C ) :   1.0019
B(  1-C , 11-O ) :   1.0061 B(  3-C ,  4-H ) :   0.8847 B(  3-C ,  5-C ) :   0.9952
B(  3-C , 15-O ) :   1.0601 B(  5-C ,  6-H ) :   0.9024 B(  5-C ,  7-C ) :   0.9804
B(  5-C , 14-O ) :   1.0233 B(  7-C ,  8-H ) :   0.8953 B(  7-C ,  9-C ) :   0.9759
B(  7-C , 13-O ) :   1.0249 B(  9-C , 10-H ) :   0.9078 B(  9-C , 11-O ) :   1.0662
B(  9-C , 12-O ) :   1.1387 B( 12-O , 19-H ) :   0.7902 B( 13-O , 20-H ) :   0.8383
B( 14-O , 19-H ) :   0.1101 B( 14-O , 21-H ) :   0.8374 B( 15-O , 22-H ) :   0.8175
B( 16-O , 23-H ) :   0.8514

Dispersion correction           -0.025950635
FINAL SINGLE POINT ENERGY      -685.693566279750

DIPOLE MOMENT
-------------

Method             : SCF
Type of density    : Electron Density
Multiplicity       :   1
Irrep              :   0
Energy             :  -685.8269923176333123 Eh
Relativity type    :
Basis              : AO
                                X                 Y                 Z
Electronic contribution:      0.893106578       0.009798825       1.798698339
Nuclear contribution   :      0.101088301       0.048087252      -2.724149749
                        -----------------------------------------
Total Dipole Moment    :      0.994194878       0.057886077      -0.925451410
                        -----------------------------------------
Magnitude (a.u.)       :      1.359497910
Magnitude (Debye)      :      3.455569068

Rotational constants in cm-1:             0.041056             0.028398             0.024518
Rotational constants in MHz :          1230.838477           851.340222           735.026972

                             ****ORCA TERMINATED NORMALLY****
TOTAL RUN TIME: 0 days 0 hours 0 minutes 11 seconds 49 msec
