                         Program Version 6.0.1  -  RELEASE   -
|  1> ! pbe def2-sv(p) def2/J RI DEFGRID1 loosescf d4 GCP(DFT/SV(P)) printgap
|  2> %output
|  3>     printlevel normal
|  4> end
|  5> * xyz 0 1
|  6> C -3.3011161514 0.2646109815 0.008656779
|  7> C -1.8161069458 0.085044621 -0.0074013745
|  8> C -1.2507466706 -1.1867296594 -0.0042782164
|  9> C 0.1195804895 -1.3511823126 -0.0007408055
| 10> C 0.959956703 -0.2385487223 3.25216e-05
| 11> C 0.3958003109 1.0390526733 -0.002144238
| 12> C -0.973442706 1.1945996416 -0.0059009699
| 13> C 2.4150233074 -0.3998972263 0.0023282018
| 14> O 3.2200923344 0.4975875753 0.0035391502
| 15> H -3.5965672069 1.0948946679 -0.629185588
| 16> H -3.8086925585 -0.6373492066 -0.3237956603
| 17> H -3.6346964033 0.4888919882 1.0223861614
| 18> H -1.895465265 -2.0540022033 -0.0059651755
| 19> H 0.5479106546 -2.3435756393 2.87471e-05
| 20> H 1.0561977163 1.8933690144 -0.0021254423
| 21> H -1.4036431712 2.1858047614 -0.0085352403
| 22> H 2.7449137988 -1.4594442993 0.0036034214
| 23> *
| 24>
| 25>                          ****END OF INPUT****

CARTESIAN COORDINATES (ANGSTROEM)
---------------------------------
  C     -3.301116    0.264611    0.008657
  C     -1.816107    0.085045   -0.007401
  C     -1.250747   -1.186730   -0.004278
  C      0.119580   -1.351182   -0.000741
  C      0.959957   -0.238549    0.000033
  C      0.395800    1.039053   -0.002144
  C     -0.973443    1.194600   -0.005901
  C      2.415023   -0.399897    0.002328
  O      3.220092    0.497588    0.003539
  H     -3.596567    1.094895   -0.629186
  H     -3.808693   -0.637349   -0.323796
  H     -3.634696    0.488892    1.022386
  H     -1.895465   -2.054002   -0.005965
  H      0.547911   -2.343576    0.000029
  H      1.056198    1.893369   -0.002125
  H     -1.403643    2.185805   -0.008535
  H      2.744914   -1.459444    0.003603

 Total Charge           Charge          ....    0
 Multiplicity           Mult            ....    1
 Number of Electrons    NEL             ....   64
 Basis Dimension        Dim             ....  142

ORBITAL ENERGIES
----------------

  NO   OCC          E(Eh)            E(eV)
   0   2.0000     -18.743588      -510.0390
   1   2.0000      -9.964083      -271.1365
   2   2.0000      -9.923733      -270.0385
   3   2.0000      -9.909246      -269.6443
   4   2.0000      -9.905695      -269.5477
   5   2.0000      -9.904741      -269.5217
   6   2.0000      -9.904636      -269.5189
   7   2.0000      -9.904529      -269.5159
   8   2.0000      -9.897799      -269.3328
   9   2.0000      -0.940051       -25.5801
  10   2.0000      -0.794520       -21.6200
  11   2.0000      -0.718437       -19.5497
  12   2.0000      -0.684995       -18.6397
  13   2.0000      -0.642591       -17.4858
  14   2.0000      -0.566883       -15.4257
  15   2.0000      -0.555651       -15.1200
  16   2.0000      -0.514422       -13.9981
  17   2.0000      -0.461111       -12.5475
  18   2.0000      -0.432052       -11.7567
  19   2.0000      -0.413520       -11.2524
  20   2.0000      -0.394357       -10.7310
  21   2.0000      -0.388903       -10.5826
  22   2.0000      -0.387932       -10.5562
  23   2.0000      -0.370834       -10.0909
  24   2.0000      -0.364830        -9.9275
  25   2.0000      -0.351122        -9.5545
  26   2.0000      -0.323185        -8.7943
  27   2.0000      -0.321853        -8.7581
  28   2.0000      -0.308312        -8.3896
  29   2.0000      -0.245011        -6.6671
  30   2.0000      -0.234778        -6.3886
  31   2.0000      -0.203482        -5.5370
  32   0.0000      -0.091199        -2.4817
  33   0.0000      -0.048708        -1.3254
  34   0.0000       0.001846         0.0502
  35   0.0000       0.039426         1.0728
  36   0.0000       0.054915         1.4943

MULLIKEN ATOMIC CHARGES
-----------------------
   0 C :   -0.227839
   1 C :    0.052454
   2 C :   -0.101851
   3 C :   -0.093916
   4 C :    0.088057
   5 C :   -0.088549
   6 C :   -0.099481
   7 C :    0.035637
   8 O :   -0.154758
   9 H :    0.117163
  10 H :    0.110101
  11 H :    0.128776
  12 H :    0.043997
  13 H :    0.051322
  14 H :    0.061509
  15 H :    0.045924
  16 H :    0.031453
Sum of atomic charges:   -0.0000000

LOEWDIN ATOMIC CHARGES
----------------------
   0 C :   -0.322339
   1 C :   -0.027562
   2 C :   -0.123190
   3 C :   -0.094505
   4 C :   -0.101656
   5 C :   -0.079205
   6 C :   -0.118152
   7 C :   -0.000211
   8 O :   -0.121049
   9 H :    0.132823
  10 H :    0.128238
  11 H :    0.140348
  12 H :    0.124663
  13 H :    0.126814
  14 H :    0.133524
  15 H :    0.125377
  16 H :    0.076082

  Mayer bond orders larger than 0.100000
B(  0-C ,  1-C ) :   1.1026 B(  0-C ,  9-H ) :   0.9382 B(  0-C , 10-H ) :   0.9429
B(  0-C , 11-H ) :   0.9283 B(  1-C ,  2-C ) :   1.3844 B(  1-C ,  6-C ) :   1.3504
B(  2-C ,  3-C ) :   1.3694 B(  2-C , 12-H ) :   0.9623 B(  3-C ,  4-C ) :   1.3186
B(  3-C , 13-H ) :   0.9588 B(  4-C ,  5-C ) :   1.3325 B(  4-C ,  7-C ) :   0.9918
B(  5-C ,  6-C ) :   1.3758 B(  5-C , 14-H ) :   0.9606 B(  6-C , 15-H ) :   0.9701
B(  7-C ,  8-O ) :   2.1492 B(  7-C , 16-H ) :   0.9126

Dispersion correction           -0.017324556
FINAL SINGLE POINT ENERGY      -384.062779917905

DIPOLE MOMENT
-------------

Method             : SCF
Type of density    : Electron Density
Multiplicity       :   1
Irrep              :   0
Energy             :  -384.1090920244114386 Eh
Relativity type    :
Basis              : AO
                                X                 Y                 Z
Electronic contribution:      7.938889970       0.363780584      -0.029028858
Nuclear contribution   :     -9.324656161      -0.772633482       0.052975757
                        -----------------------------------------
Total Dipole Moment    :     -1.385766191      -0.408852898       0.023946898
                        -----------------------------------------
Magnitude (a.u.)       :      1.445019752
Magnitude (Debye)      :      3.672948315

Rotational constants in cm-1:             0.168189             0.033256             0.027909
Rotational constants in MHz :          5042.176685           996.980315           836.695244

                             ****ORCA TERMINATED NORMALLY****
TOTAL RUN TIME: 0 days 0 hours 0 minutes 16 seconds 171 msec
