                         Program Version 6.0.1  -  RELEASE   -
|  1> ! pbe def2-sv(p) def2/J RI DEFGRID1 loosescf d4 GCP(DFT/SV(P)) printgap
|  2> %output
|  3>     printlevel normal
|  4> end
|  5> * xyz 0 1
|  6> C -3.4748917206 0.3750763057 -3.04922e-05
|  7> C -2.7180039624 1.5355178469 -1.62019e-05
|  8> C -1.3376046794 1.4530399769 3.87124e-05
|  9> C -0.7250874198 0.214445006 6.79258e-05
| 10> C -1.4678318399 -0.963905349 1.83242e-05
| 11> C -2.8588351132 -0.8593584083 -2.52655e-05
| 12> O -0.9245044801 -2.195932372 1.08928e-05
| 13> I 1.4016868447 0.0998530903 -6.6965e-06
| 14> H -4.5524889165 0.4313047409 -2.2092e-05
| 15> H -3.1952549623 2.5027744999 -1.29833e-05
| 16> H -0.7379095238 2.3500326861 4.8003e-05
| 17> H -3.4285566188 -1.7747815467 -3.17397e-05
| 18> H 0.0445904371 -2.1354774289 5.74247e-05
| 19> *
| 20>
| 21>                          ****END OF INPUT****

CARTESIAN COORDINATES (ANGSTROEM)
---------------------------------
  C     -3.474892    0.375076   -0.000030
  C     -2.718004    1.535518   -0.000016
  C     -1.337605    1.453040    0.000039
  C     -0.725087    0.214445    0.000068
  C     -1.467832   -0.963905    0.000018
  C     -2.858835   -0.859358   -0.000025
  O     -0.924504   -2.195932    0.000011
  I      1.401687    0.099853   -0.000007
  H     -4.552489    0.431305   -0.000022
  H     -3.195255    2.502774   -0.000013
  H     -0.737910    2.350033    0.000048
  H     -3.428557   -1.774782   -0.000032
  H      0.044590   -2.135477    0.000057

 Total Charge           Charge          ....    0
 Multiplicity           Mult            ....    1
 Number of Electrons    NEL             ....   74
 Basis Dimension        Dim             ....  134

ORBITAL ENERGIES
----------------

  NO   OCC          E(Eh)            E(eV)
   0   2.0000     -18.793180      -511.3884
   1   2.0000      -9.969464      -271.2829
   2   2.0000      -9.943171      -270.5674
   3   2.0000      -9.907582      -269.5990
   4   2.0000      -9.899809      -269.3875
   5   2.0000      -9.896801      -269.3056
   6   2.0000      -9.895015      -269.2570
   7   2.0000      -6.622123      -180.1971
   8   2.0000      -4.693812      -127.7251
   9   2.0000      -4.677725      -127.2874
  10   2.0000      -4.676427      -127.2520
  11   2.0000      -1.830054       -49.7983
  12   2.0000      -1.825987       -49.6876
  13   2.0000      -1.824806       -49.6555
  14   2.0000      -1.811993       -49.3068
  15   2.0000      -1.811956       -49.3058
  16   2.0000      -0.978005       -26.6129
  17   2.0000      -0.786824       -21.4106
  18   2.0000      -0.701327       -19.0841
  19   2.0000      -0.677696       -18.4410
  20   2.0000      -0.638491       -17.3742
  21   2.0000      -0.565019       -15.3750
  22   2.0000      -0.554439       -15.0870
  23   2.0000      -0.499149       -13.5825
  24   2.0000      -0.455199       -12.3866
  25   2.0000      -0.424488       -11.5509
  26   2.0000      -0.396553       -10.7907
  27   2.0000      -0.381233       -10.3739
  28   2.0000      -0.372154       -10.1268
  29   2.0000      -0.347405        -9.4534
  30   2.0000      -0.325353        -8.8533
  31   2.0000      -0.310282        -8.4432
  32   2.0000      -0.303875        -8.2689
  33   2.0000      -0.269473        -7.3327
  34   2.0000      -0.249264        -6.7828
  35   2.0000      -0.224349        -6.1049
  36   2.0000      -0.203342        -5.5332
  37   0.0000      -0.069920        -1.9026
  38   0.0000      -0.046232        -1.2580
  39   0.0000      -0.029493        -0.8025
  40   0.0000       0.038579         1.0498
  41   0.0000       0.051930         1.4131

MULLIKEN ATOMIC CHARGES
-----------------------
   0 C :   -0.041775
   1 C :   -0.045954
   2 C :   -0.104752
   3 C :   -0.122928
   4 C :    0.167091
   5 C :   -0.121604
   6 O :   -0.309296
   7 I :    0.031354
   8 H :    0.060642
   9 H :    0.058197
  10 H :    0.062666
  11 H :    0.055596
  12 H :    0.310764
Sum of atomic charges:   -0.0000000

LOEWDIN ATOMIC CHARGES
----------------------
   0 C :   -0.112423
   1 C :   -0.141555
   2 C :   -0.128356
   3 C :   -0.206700
   4 C :    0.009683
   5 C :   -0.140027
   6 O :   -0.223550
   7 I :    0.146162
   8 H :    0.128452
   9 H :    0.127749
  10 H :    0.131334
  11 H :    0.136038
  12 H :    0.273192

  Mayer bond orders larger than 0.100000
B(  0-C ,  1-C ) :   1.3487 B(  0-C ,  5-C ) :   1.3825 B(  0-C ,  8-H ) :   0.9664
B(  1-C ,  2-C ) :   1.3924 B(  1-C ,  9-H ) :   0.9657 B(  2-C ,  3-C ) :   1.3999
B(  2-C , 10-H ) :   0.9589 B(  3-C ,  4-C ) :   1.3263 B(  3-C ,  7-I ) :   0.9739
B(  4-C ,  5-C ) :   1.3648 B(  4-C ,  6-O ) :   1.2719 B(  5-C , 11-H ) :   0.9601
B(  6-O , 12-H ) :   0.8002

Dispersion correction           -0.016172351
FINAL SINGLE POINT ENERGY      -603.904566058685

DIPOLE MOMENT
-------------

Method             : SCF
Type of density    : Electron Density
Multiplicity       :   1
Irrep              :   0
Energy             :  -603.9432041072370794 Eh
Relativity type    :
Basis              : AO
                                X                 Y                 Z
Electronic contribution:    112.843893850       6.226911222      -0.000506898
Nuclear contribution   :   -112.844270936      -5.987742797       0.000522227
                        -----------------------------------------
Total Dipole Moment    :     -0.000377086       0.239168425       0.000015329
                        -----------------------------------------
Magnitude (a.u.)       :      0.239168723
Magnitude (Debye)      :      0.607918581

Rotational constants in cm-1:             0.096769             0.024354             0.019457
Rotational constants in MHz :          2901.060516           730.115162           583.311979

                             ****ORCA TERMINATED NORMALLY****
TOTAL RUN TIME: 0 days 0 hours 0 minutes 18 seconds 168 msec
