                         Program Version 6.0.1  -  RELEASE   -
|  1> ! pbe def2-sv(p) def2/J RI DEFGRID1 loosescf d4 GCP(DFT/SV(P)) printgap
|  2> %output
|  3>     printlevel normal
|  4> end
|  5> * xyz 0 1
|  6> C -2.1788860232 -0.9097778291 -0.1373689416
|  7> C -1.1104094162 -0.3328546668 0.8136886499
|  8> H -1.5659329783 -0.3098747024 1.811693426
|  9> C -0.72139208 1.1282005667 0.4785354868
| 10> H -1.5805251541 1.6099577925 -0.0041821029
| 11> C 0.4914592149 1.2409413351 -0.4738050353
| 12> H 0.84328262 2.2807561265 -0.4147462541
| 13> C 1.6116737873 0.3137477067 0.0097298295
| 14> H 2.4323246865 0.3208605742 -0.7260561358
| 15> C 1.0689297258 -1.1317658705 0.1041866618
| 16> H 1.8397959481 -1.7739066644 0.5635226357
| 17> O -0.006669578 -1.2221712722 0.9825408822
| 18> O 0.8251862572 -1.6271232751 -1.1813398584
| 19> O 2.0562216262 0.7786248065 1.2621476622
| 20> O 0.1273816942 0.976662778 -1.8102031032
| 21> O -0.4902888946 1.8617906746 1.6493223465
| 22> O -1.7837600285 -0.9999538028 -1.4844563348
| 23> H -3.0859465543 -0.3004922667 -0.0408672266
| 24> H -2.4053782324 -1.9324620599 0.1741793037
| 25> H -0.1465023802 -1.6861075186 -1.3269785883
| 26> H 2.6615633751 0.1336336782 1.6456980858
| 27> H 0.5872515213 0.1745007871 -2.106094944
| 28> H 0.3803147411 1.6089923466 1.9926191736
| 29> H -1.523872964 -0.1166370924 -1.8038098467
| 30> *
| 31>
| 32>                          ****END OF INPUT****

CARTESIAN COORDINATES (ANGSTROEM)
---------------------------------
  C     -2.178886   -0.909778   -0.137369
  C     -1.110409   -0.332855    0.813689
  H     -1.565933   -0.309875    1.811693
  C     -0.721392    1.128201    0.478535
  H     -1.580525    1.609958   -0.004182
  C      0.491459    1.240941   -0.473805
  H      0.843283    2.280756   -0.414746
  C      1.611674    0.313748    0.009730
  H      2.432325    0.320861   -0.726056
  C      1.068930   -1.131766    0.104187
  H      1.839796   -1.773907    0.563523
  O     -0.006670   -1.222171    0.982541
  O      0.825186   -1.627123   -1.181340
  O      2.056222    0.778625    1.262148
  O      0.127382    0.976663   -1.810203
  O     -0.490289    1.861791    1.649322
  O     -1.783760   -0.999954   -1.484456
  H     -3.085947   -0.300492   -0.040867
  H     -2.405378   -1.932462    0.174179
  H     -0.146502   -1.686108   -1.326979
  H      2.661563    0.133634    1.645698
  H      0.587252    0.174501   -2.106095
  H      0.380315    1.608992    1.992619
  H     -1.523873   -0.116637   -1.803810

 Total Charge           Charge          ....    0
 Multiplicity           Mult            ....    1
 Number of Electrons    NEL             ....   96
 Basis Dimension        Dim             ....  192

ORBITAL ENERGIES
----------------

  NO   OCC          E(Eh)            E(eV)
   0   2.0000     -18.785588      -511.1819
   1   2.0000     -18.782012      -511.0845
   2   2.0000     -18.772512      -510.8260
   3   2.0000     -18.771739      -510.8050
   4   2.0000     -18.755460      -510.3620
   5   2.0000     -18.743318      -510.0316
   6   2.0000      -9.996805      -272.0269
   7   2.0000      -9.957554      -270.9588
   8   2.0000      -9.952587      -270.8237
   9   2.0000      -9.947983      -270.6984
  10   2.0000      -9.945609      -270.6338
  11   2.0000      -9.942708      -270.5548
  12   2.0000      -0.994635       -27.0654
  13   2.0000      -0.959281       -26.1034
  14   2.0000      -0.950784       -25.8722
  15   2.0000      -0.940705       -25.5979
  16   2.0000      -0.927094       -25.2275
  17   2.0000      -0.910970       -24.7888
  18   2.0000      -0.707223       -19.2445
  19   2.0000      -0.701077       -19.0773
  20   2.0000      -0.630609       -17.1597
  21   2.0000      -0.604123       -16.4390
  22   2.0000      -0.587606       -15.9896
  23   2.0000      -0.533503       -14.5174
  24   2.0000      -0.501280       -13.6405
  25   2.0000      -0.499036       -13.5795
  26   2.0000      -0.479946       -13.0600
  27   2.0000      -0.465341       -12.6626
  28   2.0000      -0.449846       -12.2409
  29   2.0000      -0.442138       -12.0312
  30   2.0000      -0.431975       -11.7546
  31   2.0000      -0.424370       -11.5477
  32   2.0000      -0.394641       -10.7387
  33   2.0000      -0.383432       -10.4337
  34   2.0000      -0.377671       -10.2769
  35   2.0000      -0.349917        -9.5217
  36   2.0000      -0.343068        -9.3353
  37   2.0000      -0.332921        -9.0592
  38   2.0000      -0.318068        -8.6551
  39   2.0000      -0.309211        -8.4141
  40   2.0000      -0.302944        -8.2435
  41   2.0000      -0.287397        -7.8205
  42   2.0000      -0.264679        -7.2023
  43   2.0000      -0.254058        -6.9133
  44   2.0000      -0.250966        -6.8291
  45   2.0000      -0.229824        -6.2538
  46   2.0000      -0.221923        -6.0388
  47   2.0000      -0.206875        -5.6294
  48   0.0000       0.000719         0.0196
  49   0.0000       0.023714         0.6453
  50   0.0000       0.042986         1.1697
  51   0.0000       0.060609         1.6492
  52   0.0000       0.067330         1.8321

MULLIKEN ATOMIC CHARGES
-----------------------
   0 C :    0.029973
   1 C :    0.030930
   2 H :    0.085096
   3 C :    0.045673
   4 H :    0.077857
   5 C :    0.041114
   6 H :    0.091774
   7 C :   -0.005249
   8 H :    0.089666
   9 C :    0.189843
  10 H :    0.059786
  11 O :   -0.301936
  12 O :   -0.431982
  13 O :   -0.418990
  14 O :   -0.428836
  15 O :   -0.427782
  16 O :   -0.454328
  17 H :    0.094544
  18 H :    0.101191
  19 H :    0.303659
  20 H :    0.314543
  21 H :    0.303576
  22 H :    0.303783
  23 H :    0.306097
Sum of atomic charges:   -0.0000000

LOEWDIN ATOMIC CHARGES
----------------------
   0 C :   -0.135957
   1 C :   -0.079869
   2 H :    0.129525
   3 C :   -0.072206
   4 H :    0.117659
   5 C :   -0.066451
   6 H :    0.118298
   7 C :   -0.096985
   8 H :    0.110264
   9 C :   -0.007998
  10 H :    0.096552
  11 O :   -0.135532
  12 O :   -0.334782
  13 O :   -0.303926
  14 O :   -0.311561
  15 O :   -0.319051
  16 O :   -0.326338
  17 H :    0.111289
  18 H :    0.120097
  19 H :    0.271910
  20 H :    0.294921
  21 H :    0.274422
  22 H :    0.273975
  23 H :    0.271744

  Mayer bond orders larger than 0.100000
B(  0-C ,  1-C ) :   1.0320 B(  0-C , 16-O ) :   1.0354 B(  0-C , 17-H ) :   0.9147
B(  0-C , 18-H ) :   0.9177 B(  1-C ,  2-H ) :   0.8810 B(  1-C ,  3-C ) :   0.9547
B(  1-C , 11-O ) :   0.9761 B(  3-C ,  4-H ) :   0.8971 B(  3-C ,  5-C ) :   0.9810
B(  3-C , 15-O ) :   1.0625 B(  5-C ,  6-H ) :   0.8999 B(  5-C ,  7-C ) :   1.0139
B(  5-C , 14-O ) :   1.0481 B(  7-C ,  8-H ) :   0.8974 B(  7-C ,  9-C ) :   0.9450
B(  7-C , 13-O ) :   1.0172 B(  9-C , 10-H ) :   0.9073 B(  9-C , 11-O ) :   1.0914
B(  9-C , 12-O ) :   1.0939 B( 12-O , 19-H ) :   0.7437 B( 12-O , 21-H ) :   0.1194
B( 13-O , 20-H ) :   0.8371 B( 14-O , 21-H ) :   0.7856 B( 14-O , 23-H ) :   0.1301
B( 15-O , 22-H ) :   0.8152 B( 16-O , 19-H ) :   0.1691 B( 16-O , 23-H ) :   0.7778

Dispersion correction           -0.026964834
FINAL SINGLE POINT ENERGY      -685.703847898870

DIPOLE MOMENT
-------------

Method             : SCF
Type of density    : Electron Density
Multiplicity       :   1
Irrep              :   0
Energy             :  -685.8427393209353795 Eh
Relativity type    :
Basis              : AO
                                X                 Y                 Z
Electronic contribution:      1.962833280      -0.228652038       0.511896194
Nuclear contribution   :     -1.456160596       0.005211385      -0.229112924
                        -----------------------------------------
Total Dipole Moment    :      0.506672684      -0.223440652       0.282783270
                        -----------------------------------------
Magnitude (a.u.)       :      0.621779150
Magnitude (Debye)      :      1.580437000

Rotational constants in cm-1:             0.041055             0.031876             0.027727
Rotational constants in MHz :          1230.808299           955.604071           831.235413

                             ****ORCA TERMINATED NORMALLY****
TOTAL RUN TIME: 0 days 0 hours 2 minutes 46 seconds 843 msec
