                         Program Version 6.0.1  -  RELEASE   -
|  1> ! pbe def2-sv(p) def2/J RI DEFGRID1 loosescf d4 GCP(DFT/SV(P)) printgap
|  2> %output
|  3>     printlevel normal
|  4> end
|  5> * xyz 0 1
|  6> C -2.2322260306 -1.0069652442 -0.3767396751
|  7> C -1.1820670317 -0.1978383291 0.395745654
|  8> H -1.6589484689 0.2376807878 1.281830365
|  9> C -0.5975633499 0.9384702812 -0.4465026432
| 10> H -0.4412275504 0.5912117193 -1.4835741775
| 11> C 0.7617511959 1.3300195262 0.1473518063
| 12> H 0.6418440652 1.5488696927 1.2146181397
| 13> C 1.739675528 0.1626778379 -0.0255181929
| 14> H 2.1207549267 0.1684315974 -1.0617751896
| 15> C 1.0063366381 -1.1792695584 0.1677342639
| 16> H 1.6508995756 -1.8276617028 0.7796115758
| 17> O -0.1724938238 -1.0714588855 0.9098822284
| 18> O 0.791499878 -1.7189422581 -1.1032767825
| 19> O 2.802310399 0.2223195537 0.8865721411
| 20> O 1.2423313732 2.5237045367 -0.426325746
| 21> O -1.4855499158 2.023867827 -0.4411701806
| 22> O -2.7636072972 -2.0341791389 0.4177340145
| 23> H -1.7755100578 -1.421598774 -1.288109789
| 24> H -3.0554216743 -0.3489832213 -0.6611658241
| 25> H 0.394341769 -2.594385136 -1.014307436
| 26> H 3.1520504066 1.1224417902 0.8887441112
| 27> H 1.3951331813 2.3801124191 -1.3695615964
| 28> H -0.9561575692 2.8348139375 -0.4613394164
| 29> H -2.0401759976 -2.3840288276 0.9547275313
| 30> *
| 31>
| 32>                          ****END OF INPUT****

CARTESIAN COORDINATES (ANGSTROEM)
---------------------------------
  C     -2.232226   -1.006965   -0.376740
  C     -1.182067   -0.197838    0.395746
  H     -1.658948    0.237681    1.281830
  C     -0.597563    0.938470   -0.446503
  H     -0.441228    0.591212   -1.483574
  C      0.761751    1.330020    0.147352
  H      0.641844    1.548870    1.214618
  C      1.739676    0.162678   -0.025518
  H      2.120755    0.168432   -1.061775
  C      1.006337   -1.179270    0.167734
  H      1.650900   -1.827662    0.779612
  O     -0.172494   -1.071459    0.909882
  O      0.791500   -1.718942   -1.103277
  O      2.802310    0.222320    0.886572
  O      1.242331    2.523705   -0.426326
  O     -1.485550    2.023868   -0.441170
  O     -2.763607   -2.034179    0.417734
  H     -1.775510   -1.421599   -1.288110
  H     -3.055422   -0.348983   -0.661166
  H      0.394342   -2.594385   -1.014307
  H      3.152050    1.122442    0.888744
  H      1.395133    2.380112   -1.369562
  H     -0.956158    2.834814   -0.461339
  H     -2.040176   -2.384029    0.954728

 Total Charge           Charge          ....    0
 Multiplicity           Mult            ....    1
 Number of Electrons    NEL             ....   96
 Basis Dimension        Dim             ....  192

ORBITAL ENERGIES
----------------

  NO   OCC          E(Eh)            E(eV)
   0   2.0000     -18.782442      -511.0962
   1   2.0000     -18.782089      -511.0866
   2   2.0000     -18.775160      -510.8981
   3   2.0000     -18.761578      -510.5285
   4   2.0000     -18.752955      -510.2939
   5   2.0000     -18.737868      -509.8833
   6   2.0000      -9.996493      -272.0184
   7   2.0000      -9.954990      -270.8890
   8   2.0000      -9.953143      -270.8388
   9   2.0000      -9.948469      -270.7116
  10   2.0000      -9.946274      -270.6519
  11   2.0000      -9.925116      -270.0761
  12   2.0000      -0.994757       -27.0687
  13   2.0000      -0.966510       -26.3001
  14   2.0000      -0.940056       -25.5802
  15   2.0000      -0.930811       -25.3287
  16   2.0000      -0.924840       -25.1662
  17   2.0000      -0.911887       -24.8137
  18   2.0000      -0.714146       -19.4329
  19   2.0000      -0.700335       -19.0571
  20   2.0000      -0.626470       -17.0471
  21   2.0000      -0.587602       -15.9895
  22   2.0000      -0.578443       -15.7402
  23   2.0000      -0.532720       -14.4960
  24   2.0000      -0.523230       -14.2378
  25   2.0000      -0.487616       -13.2687
  26   2.0000      -0.476684       -12.9712
  27   2.0000      -0.468208       -12.7406
  28   2.0000      -0.453173       -12.3315
  29   2.0000      -0.426088       -11.5945
  30   2.0000      -0.414793       -11.2871
  31   2.0000      -0.407702       -11.0941
  32   2.0000      -0.396876       -10.7996
  33   2.0000      -0.386318       -10.5122
  34   2.0000      -0.373923       -10.1750
  35   2.0000      -0.355134        -9.6637
  36   2.0000      -0.340021        -9.2524
  37   2.0000      -0.326887        -8.8951
  38   2.0000      -0.313449        -8.5294
  39   2.0000      -0.299839        -8.1590
  40   2.0000      -0.288140        -7.8407
  41   2.0000      -0.273016        -7.4291
  42   2.0000      -0.267292        -7.2734
  43   2.0000      -0.251594        -6.8462
  44   2.0000      -0.241792        -6.5795
  45   2.0000      -0.231248        -6.2926
  46   2.0000      -0.217530        -5.9193
  47   2.0000      -0.205688        -5.5971
  48   0.0000       0.004198         0.1142
  49   0.0000       0.014504         0.3947
  50   0.0000       0.037964         1.0330
  51   0.0000       0.043764         1.1909
  52   0.0000       0.052400         1.4259

MULLIKEN ATOMIC CHARGES
-----------------------
   0 C :    0.076017
   1 C :    0.035304
   2 H :    0.079906
   3 C :    0.012816
   4 H :    0.055943
   5 C :   -0.001415
   6 H :    0.075133
   7 C :    0.092568
   8 H :    0.058566
   9 C :    0.164579
  10 H :    0.080812
  11 O :   -0.326354
  12 O :   -0.398011
  13 O :   -0.407431
  14 O :   -0.419341
  15 O :   -0.408400
  16 O :   -0.435568
  17 H :    0.058810
  18 H :    0.095740
  19 H :    0.308929
  20 H :    0.306885
  21 H :    0.303314
  22 H :    0.299394
  23 H :    0.291804
Sum of atomic charges:    0.0000000

LOEWDIN ATOMIC CHARGES
----------------------
   0 C :   -0.134055
   1 C :   -0.067216
   2 H :    0.122604
   3 C :   -0.081338
   4 H :    0.100379
   5 C :   -0.089301
   6 H :    0.124070
   7 C :   -0.080245
   8 H :    0.104196
   9 C :    0.001435
  10 H :    0.107981
  11 O :   -0.143763
  12 O :   -0.308983
  13 O :   -0.313236
  14 O :   -0.308996
  15 O :   -0.319477
  16 O :   -0.340616
  17 H :    0.090742
  18 H :    0.120890
  19 H :    0.288052
  20 H :    0.288541
  21 H :    0.286811
  22 H :    0.279042
  23 H :    0.272481

  Mayer bond orders larger than 0.100000
B(  0-C ,  1-C ) :   1.0888 B(  0-C , 16-O ) :   1.0768 B(  0-C , 17-H ) :   0.8940
B(  0-C , 18-H ) :   0.9133 B(  1-C ,  2-H ) :   0.8743 B(  1-C ,  3-C ) :   0.9751
B(  1-C , 11-O ) :   0.9439 B(  3-C ,  4-H ) :   0.8718 B(  3-C ,  5-C ) :   1.0389
B(  3-C , 15-O ) :   1.0989 B(  5-C ,  6-H ) :   0.8467 B(  5-C ,  7-C ) :   1.0336
B(  5-C , 14-O ) :   1.0067 B(  7-C ,  8-H ) :   0.8746 B(  7-C ,  9-C ) :   0.9831
B(  7-C , 13-O ) :   1.0952 B(  9-C , 10-H ) :   0.8933 B(  9-C , 11-O ) :   1.0795
B(  9-C , 12-O ) :   1.0938 B( 12-O , 19-H ) :   0.8333 B( 13-O , 20-H ) :   0.8427
B( 14-O , 21-H ) :   0.8454 B( 15-O , 22-H ) :   0.8231 B( 16-O , 23-H ) :   0.8389

Dispersion correction           -0.024579969
FINAL SINGLE POINT ENERGY      -685.693146429449

DIPOLE MOMENT
-------------

Method             : SCF
Type of density    : Electron Density
Multiplicity       :   1
Irrep              :   0
Energy             :  -685.8249507355050127 Eh
Relativity type    :
Basis              : AO
                                X                 Y                 Z
Electronic contribution:      1.560799095       0.015929709       1.556959591
Nuclear contribution   :     -0.530884426       0.287118246      -2.079414634
                        -----------------------------------------
Total Dipole Moment    :      1.029914669       0.303047955      -0.522455043
                        -----------------------------------------
Magnitude (a.u.)       :      1.193952076
Magnitude (Debye)      :      3.034784999

Rotational constants in cm-1:             0.042733             0.026227             0.018776
Rotational constants in MHz :          1281.092747           786.255456           562.875381

                             ****ORCA TERMINATED NORMALLY****
TOTAL RUN TIME: 0 days 0 hours 1 minutes 6 seconds 231 msec
