                         Program Version 6.0.1  -  RELEASE   -
|  1> ! r2scan-3c def2/J RI DEFGRID2 scfconv6 printgap
|  2> %output
|  3>     printlevel normal
|  4> end
|  5> * xyz 0 1
|  6> C 1.5887441025 -0.5123460381 -0.1204068881
|  7> C 0.6135400635 0.5849527707 0.3041489909
|  8> O -0.6400689732 0.4976147693 -0.3342155923
|  9> C -1.4986020714 -0.5204311411 0.1364227887
| 10> H 1.2220895549 -1.4943877512 0.1701314506
| 11> H 1.7139313077 -0.4959817896 -1.1999055404
| 12> H 2.5536747704 -0.3482734338 0.3514612618
| 13> H 1.0075094655 1.5611556994 0.0092792665
| 14> H 0.4895379887 0.5752424861 1.3972375862
| 15> H -1.010274753 -1.1651230549 0.869038951
| 16> H -1.8233559329 -1.1303830085 -0.7097420723
| 17> H -2.3783392165 -0.0647243615 0.6024767094
| 18> *
| 19>
| 20>                          ****END OF INPUT****

CARTESIAN COORDINATES (ANGSTROEM)
---------------------------------
  C      1.588744   -0.512346   -0.120407
  C      0.613540    0.584953    0.304149
  O     -0.640069    0.497615   -0.334216
  C     -1.498602   -0.520431    0.136423
  H      1.222090   -1.494388    0.170131
  H      1.713931   -0.495982   -1.199906
  H      2.553675   -0.348273    0.351461
  H      1.007509    1.561156    0.009279
  H      0.489538    0.575242    1.397238
  H     -1.010275   -1.165123    0.869039
  H     -1.823356   -1.130383   -0.709742
  H     -2.378339   -0.064724    0.602477

 Total Charge           Charge          ....    0
 Multiplicity           Mult            ....    1
 Number of Electrons    NEL             ....   34
 Basis Dimension        Dim             ....  121

ORBITAL ENERGIES
----------------

  NO   OCC          E(Eh)            E(eV)
   0   2.0000     -18.944630      -515.5096
   1   2.0000     -10.074888      -274.1516
   2   2.0000     -10.068066      -273.9660
   3   2.0000     -10.019143      -272.6347
   4   2.0000      -0.991836       -26.9892
   5   2.0000      -0.722662       -19.6646
   6   2.0000      -0.652073       -17.7438
   7   2.0000      -0.564906       -15.3719
   8   2.0000      -0.451618       -12.2891
   9   2.0000      -0.449718       -12.2374
  10   2.0000      -0.415070       -11.2946
  11   2.0000      -0.374618       -10.1939
  12   2.0000      -0.365987        -9.9590
  13   2.0000      -0.344179        -9.3656
  14   2.0000      -0.323848        -8.8124
  15   2.0000      -0.274244        -7.4625
  16   2.0000      -0.213947        -5.8218
  17   0.0000       0.078218         2.1284
  18   0.0000       0.099925         2.7191
  19   0.0000       0.125416         3.4127
  20   0.0000       0.132909         3.6166
  21   0.0000       0.146429         3.9845

MULLIKEN ATOMIC CHARGES
-----------------------
   0 C :   -0.416801
   1 C :   -0.168933
   2 O :   -0.251605
   3 C :   -0.276772
   4 H :    0.133701
   5 H :    0.154886
   6 H :    0.140788
   7 H :    0.141662
   8 H :    0.128016
   9 H :    0.127299
  10 H :    0.144641
  11 H :    0.143117
Sum of atomic charges:   -0.0000000

LOEWDIN ATOMIC CHARGES
----------------------
   0 C :   -0.411037
   1 C :   -0.003752
   2 O :   -0.788069
   3 C :   -0.078694
   4 H :    0.150356
   5 H :    0.157444
   6 H :    0.154939
   7 H :    0.176974
   8 H :    0.156983
   9 H :    0.159581
  10 H :    0.164444
  11 H :    0.160830

  Mayer bond orders larger than 0.100000
B(  0-C ,  1-C ) :   0.9290 B(  0-C ,  4-H ) :   0.9690 B(  0-C ,  5-H ) :   0.9745
B(  0-C ,  6-H ) :   0.9654 B(  1-C ,  2-O ) :   0.8863 B(  1-C ,  7-H ) :   0.9722
B(  1-C ,  8-H ) :   0.9737 B(  2-O ,  3-C ) :   0.8722 B(  3-C ,  9-H ) :   0.9682
B(  3-C , 10-H ) :   0.9747 B(  3-C , 11-H ) :   0.9759

Dispersion correction           -0.002080034
FINAL SINGLE POINT ENERGY      -194.278736489529

DIPOLE MOMENT
-------------

Method             : SCF
Type of density    : Electron Density
Multiplicity       :   1
Irrep              :   0
Energy             :  -194.2854109954687942 Eh
Relativity type    :
Basis              : AO
                                X                 Y                 Z
Electronic contribution:     -1.481333585       2.057594048      -1.026863737
Nuclear contribution   :      1.655529928      -2.396637467       1.392883669
                        -----------------------------------------
Total Dipole Moment    :      0.174196344      -0.339043419       0.366019932
                        -----------------------------------------
Magnitude (a.u.)       :      0.528455671
Magnitude (Debye)      :      1.343227569

Rotational constants in cm-1:             0.542954             0.169834             0.148778
Rotational constants in MHz :         16277.350288          5091.500933          4460.265280

                             ****ORCA TERMINATED NORMALLY****
TOTAL RUN TIME: 0 days 0 hours 0 minutes 13 seconds 561 msec
