                         Program Version 6.0.1  -  RELEASE   -
|  1> ! r2scan-3c def2/J RI DEFGRID2 scfconv6 printgap
|  2> %output
|  3>     printlevel normal
|  4> end
|  5> * xyz 0 1
|  6> C -2.9042807911 1.4660821313 0.0007184827
|  7> C -1.8043892841 0.4519024358 0.0002217233
|  8> C -2.1020211639 -0.9097605815 -0.0001850764
|  9> C -1.1001818588 -1.8656500015 -0.0006387486
| 10> C 0.2278501124 -1.4810294933 -0.0006206279
| 11> C 0.5274557944 -0.1252134488 -0.0001326758
| 12> C -0.4736200724 0.83823158 0.0002175522
| 13> N 1.9060478318 0.2947500968 8.03114e-05
| 14> O 2.758414099 -0.568142167 0.0018036491
| 15> O 2.1336096983 1.4863233464 -0.001612103
| 16> H -3.5345748893 1.3395359109 -0.8782557127
| 17> H -3.5334514749 1.3398154334 0.8805417971
| 18> H -2.5036089158 2.4756627253 0.0003025664
| 19> H -3.1366086574 -1.2205986542 -0.0003905917
| 20> H -1.3553722541 -2.9141139356 -0.001092329
| 21> H 1.0295676111 -2.2027058766 -0.0008509371
| 22> H -0.1941660105 1.8811882084 0.000586102
| 23> *
| 24>
| 25>                          ****END OF INPUT****

CARTESIAN COORDINATES (ANGSTROEM)
---------------------------------
  C     -2.904281    1.466082    0.000718
  C     -1.804389    0.451902    0.000222
  C     -2.102021   -0.909761   -0.000185
  C     -1.100182   -1.865650   -0.000639
  C      0.227850   -1.481029   -0.000621
  C      0.527456   -0.125213   -0.000133
  C     -0.473620    0.838232    0.000218
  N      1.906048    0.294750    0.000080
  O      2.758414   -0.568142    0.001804
  O      2.133610    1.486323   -0.001612
  H     -3.534575    1.339536   -0.878256
  H     -3.533451    1.339815    0.880542
  H     -2.503609    2.475663    0.000303
  H     -3.136609   -1.220599   -0.000391
  H     -1.355372   -2.914114   -0.001092
  H      1.029568   -2.202706   -0.000851
  H     -0.194166    1.881188    0.000586

 Total Charge           Charge          ....    0
 Multiplicity           Mult            ....    1
 Number of Electrons    NEL             ....   72
 Basis Dimension        Dim             ....  240

ORBITAL ENERGIES
----------------

  NO   OCC          E(Eh)            E(eV)
   0   2.0000     -18.979742      -516.4650
   1   2.0000     -18.979433      -516.4566
   2   2.0000     -14.392558      -391.6414
   3   2.0000     -10.099558      -274.8229
   4   2.0000     -10.071653      -274.0636
   5   2.0000     -10.063761      -273.8489
   6   2.0000     -10.062346      -273.8104
   7   2.0000     -10.062278      -273.8085
   8   2.0000     -10.061788      -273.7952
   9   2.0000     -10.046694      -273.3845
  10   2.0000      -1.205511       -32.8036
  11   2.0000      -1.027398       -27.9569
  12   2.0000      -0.866404       -23.5760
  13   2.0000      -0.791127       -21.5276
  14   2.0000      -0.760975       -20.7072
  15   2.0000      -0.685921       -18.6648
  16   2.0000      -0.673022       -18.3139
  17   2.0000      -0.593719       -16.1559
  18   2.0000      -0.557431       -15.1685
  19   2.0000      -0.526307       -14.3215
  20   2.0000      -0.511930       -13.9303
  21   2.0000      -0.486593       -13.2409
  22   2.0000      -0.481885       -13.1127
  23   2.0000      -0.454122       -12.3573
  24   2.0000      -0.429483       -11.6868
  25   2.0000      -0.414878       -11.2894
  26   2.0000      -0.405230       -11.0269
  27   2.0000      -0.377359       -10.2685
  28   2.0000      -0.358941        -9.7673
  29   2.0000      -0.353727        -9.6254
  30   2.0000      -0.336931        -9.1684
  31   2.0000      -0.290845        -7.9143
  32   2.0000      -0.277127        -7.5410
  33   2.0000      -0.267427        -7.2771
  34   2.0000      -0.256754        -6.9866
  35   2.0000      -0.254227        -6.9179
  36   0.0000      -0.119446        -3.2503
  37   0.0000      -0.053253        -1.4491
  38   0.0000      -0.030171        -0.8210
  39   0.0000       0.059431         1.6172
  40   0.0000       0.084913         2.3106

MULLIKEN ATOMIC CHARGES
-----------------------
   0 C :   -0.522566
   1 C :    0.223168
   2 C :   -0.153097
   3 C :   -0.139341
   4 C :   -0.205845
   5 C :    0.002690
   6 C :   -0.279566
   7 N :    0.370038
   8 O :   -0.228417
   9 O :   -0.228239
  10 H :    0.165879
  11 H :    0.165928
  12 H :    0.157954
  13 H :    0.151584
  14 H :    0.152179
  15 H :    0.183780
  16 H :    0.183871
Sum of atomic charges:   -0.0000000

LOEWDIN ATOMIC CHARGES
----------------------
   0 C :   -0.383669
   1 C :   -0.089792
   2 C :   -0.130191
   3 C :   -0.146700
   4 C :   -0.083895
   5 C :    0.190968
   6 C :   -0.078898
   7 N :   -0.492203
   8 O :   -0.013857
   9 O :   -0.015815
  10 H :    0.168346
  11 H :    0.168358
  12 H :    0.163151
  13 H :    0.173149
  14 H :    0.173137
  15 H :    0.198301
  16 H :    0.199608

  Mayer bond orders larger than 0.100000
B(  0-C ,  1-C ) :   0.7919 B(  0-C , 10-H ) :   0.9748 B(  0-C , 11-H ) :   0.9747
B(  0-C , 12-H ) :   0.9887 B(  1-C ,  2-C ) :   1.3518 B(  1-C ,  6-C ) :   1.3597
B(  2-C ,  3-C ) :   1.4274 B(  2-C , 13-H ) :   0.9459 B(  3-C ,  4-C ) :   1.3390
B(  3-C , 14-H ) :   0.9578 B(  4-C ,  5-C ) :   1.4417 B(  4-C ,  8-O ) :   0.1047
B(  4-C , 15-H ) :   0.9302 B(  5-C ,  6-C ) :   1.4746 B(  5-C ,  7-N ) :   0.9364
B(  6-C , 16-H ) :   0.9158 B(  7-N ,  8-O ) :   1.8558 B(  7-N ,  9-O ) :   1.8550
B(  8-O ,  9-O ) :   0.2545

Dispersion correction           -0.005826840
FINAL SINGLE POINT ENERGY      -475.975757889217

DIPOLE MOMENT
-------------

Method             : SCF
Type of density    : Electron Density
Multiplicity       :   1
Irrep              :   0
Energy             :  -475.9805989518228557 Eh
Relativity type    :
Basis              : AO
                                X                 Y                 Z
Electronic contribution:     10.406638012      -1.063796187      -0.000860708
Nuclear contribution   :    -12.327423053       0.670794894       0.000792181
                        -----------------------------------------
Total Dipole Moment    :     -1.920785041      -0.393001292      -0.000068526
                        -----------------------------------------
Magnitude (a.u.)       :      1.960577771
Magnitude (Debye)      :      4.983392657

Rotational constants in cm-1:             0.090346             0.033311             0.024448
Rotational constants in MHz :          2708.503086           998.636849           732.921645

                             ****ORCA TERMINATED NORMALLY****
TOTAL RUN TIME: 0 days 0 hours 0 minutes 34 seconds 337 msec
