                         Program Version 6.0.1  -  RELEASE   -
|  1> ! r2scan-3c def2/J RI DEFGRID2 scfconv6 printgap
|  2> %output
|  3>     printlevel normal
|  4> end
|  5> * xyz 0 1
|  6> C -2.987298032 1.2318201424 0.0004257515
|  7> C -1.7550577729 0.3766681927 -9.88187e-05
|  8> C -1.8324832356 -1.0047233047 -0.0005826431
|  9> C -0.6839184121 -1.7801250641 -0.0003570146
| 10> C 0.5616498495 -1.1805442811 0.0001106165
| 11> C 0.6518849989 0.2217029707 0.0001165808
| 12> C -0.5002950958 0.9834327299 0.0002214352
| 13> O 1.9412614893 0.7131993392 -0.0001530837
| 14> C 2.1177962384 2.1061200707 -0.0003161462
| 15> O 1.6894516966 -1.9420757831 0.0005121482
| 16> H -3.8835215954 0.6175077491 -0.0039725149
| 17> H -3.0087619046 1.8699177117 0.8832677925
| 18> H -3.0048323276 1.8770731965 -0.8772495317
| 19> H -2.7972836737 -1.489139935 -0.0011863682
| 20> H -0.7369679999 -2.8568272823 -0.000580463
| 21> H -0.446144768 2.0613362951 0.0004558652
| 22> H 3.1948352911 2.2678874439 -0.0017199684
| 23> H 1.6838349753 2.5646418571 0.8938895621
| 24> H 1.6814159966 2.5648901923 -0.893290091
| 25> H 2.4480242086 -1.3429778397 0.0004088646
| 26> *
| 27>
| 28>                          ****END OF INPUT****

CARTESIAN COORDINATES (ANGSTROEM)
---------------------------------
  C     -2.987298    1.231820    0.000426
  C     -1.755058    0.376668   -0.000099
  C     -1.832483   -1.004723   -0.000583
  C     -0.683918   -1.780125   -0.000357
  C      0.561650   -1.180544    0.000111
  C      0.651885    0.221703    0.000117
  C     -0.500295    0.983433    0.000221
  O      1.941261    0.713199   -0.000153
  C      2.117796    2.106120   -0.000316
  O      1.689452   -1.942076    0.000512
  H     -3.883522    0.617508   -0.003973
  H     -3.008762    1.869918    0.883268
  H     -3.004832    1.877073   -0.877250
  H     -2.797284   -1.489140   -0.001186
  H     -0.736968   -2.856827   -0.000580
  H     -0.446145    2.061336    0.000456
  H      3.194835    2.267887   -0.001720
  H      1.683835    2.564642    0.893890
  H      1.681416    2.564890   -0.893290
  H      2.448024   -1.342978    0.000409

 Total Charge           Charge          ....    0
 Multiplicity           Mult            ....    1
 Number of Electrons    NEL             ....   74
 Basis Dimension        Dim             ....  250

ORBITAL ENERGIES
----------------

  NO   OCC          E(Eh)            E(eV)
   0   2.0000     -18.996828      -516.9300
   1   2.0000     -18.975080      -516.3382
   2   2.0000     -10.094183      -274.6767
   3   2.0000     -10.092868      -274.6409
   4   2.0000     -10.087455      -274.4936
   5   2.0000     -10.035152      -273.0704
   6   2.0000     -10.030793      -272.9518
   7   2.0000     -10.025078      -272.7962
   8   2.0000     -10.024467      -272.7796
   9   2.0000     -10.022963      -272.7387
  10   2.0000      -1.047323       -28.4991
  11   2.0000      -1.014901       -27.6168
  12   2.0000      -0.821803       -22.3624
  13   2.0000      -0.738566       -20.0974
  14   2.0000      -0.722023       -19.6473
  15   2.0000      -0.678224       -18.4554
  16   2.0000      -0.644863       -17.5476
  17   2.0000      -0.576827       -15.6963
  18   2.0000      -0.557586       -15.1727
  19   2.0000      -0.521283       -14.1848
  20   2.0000      -0.488748       -13.2995
  21   2.0000      -0.457262       -12.4427
  22   2.0000      -0.446568       -12.1517
  23   2.0000      -0.416670       -11.3382
  24   2.0000      -0.413860       -11.2617
  25   2.0000      -0.395808       -10.7705
  26   2.0000      -0.392145       -10.6708
  27   2.0000      -0.373288       -10.1577
  28   2.0000      -0.368377       -10.0240
  29   2.0000      -0.344675        -9.3791
  30   2.0000      -0.338385        -9.2079
  31   2.0000      -0.312549        -8.5049
  32   2.0000      -0.312015        -8.4904
  33   2.0000      -0.305271        -8.3068
  34   2.0000      -0.287340        -7.8189
  35   2.0000      -0.218937        -5.9576
  36   2.0000      -0.184762        -5.0276
  37   0.0000      -0.022303        -0.6069
  38   0.0000      -0.005854        -0.1593
  39   0.0000       0.040029         1.0892
  40   0.0000       0.076602         2.0845
  41   0.0000       0.098173         2.6714

MULLIKEN ATOMIC CHARGES
-----------------------
   0 C :   -0.544075
   1 C :    0.183665
   2 C :   -0.225608
   3 C :   -0.299035
   4 C :    0.212948
   5 C :    0.213795
   6 C :   -0.307040
   7 O :   -0.212226
   8 C :   -0.331268
   9 O :   -0.388220
  10 H :    0.150515
  11 H :    0.158331
  12 H :    0.158021
  13 H :    0.146702
  14 H :    0.156946
  15 H :    0.144830
  16 H :    0.153195
  17 H :    0.153956
  18 H :    0.153893
  19 H :    0.320675
Sum of atomic charges:    0.0000000

LOEWDIN ATOMIC CHARGES
----------------------
   0 C :   -0.390462
   1 C :   -0.110752
   2 C :   -0.174330
   3 C :   -0.137420
   4 C :    0.201394
   5 C :    0.193947
   6 C :   -0.162792
   7 O :   -0.709740
   8 C :   -0.049909
   9 O :   -0.472004
  10 H :    0.159071
  11 H :    0.161202
  12 H :    0.161149
  13 H :    0.167988
  14 H :    0.180116
  15 H :    0.177144
  16 H :    0.179954
  17 H :    0.166088
  18 H :    0.166097
  19 H :    0.293259

  Mayer bond orders larger than 0.100000
B(  0-C ,  1-C ) :   0.7826 B(  0-C , 10-H ) :   0.9947 B(  0-C , 11-H ) :   0.9789
B(  0-C , 12-H ) :   0.9791 B(  1-C ,  2-C ) :   1.4488 B(  1-C ,  6-C ) :   1.3647
B(  2-C ,  3-C ) :   1.3785 B(  2-C , 13-H ) :   0.9325 B(  3-C ,  4-C ) :   1.3887
B(  3-C , 14-H ) :   0.9527 B(  4-C ,  5-C ) :   1.4153 B(  4-C ,  9-O ) :   0.9826
B(  5-C ,  6-C ) :   1.3283 B(  5-C ,  7-O ) :   1.0528 B(  6-C , 15-H ) :   0.9223
B(  7-O ,  8-C ) :   0.8640 B(  8-C , 16-H ) :   0.9679 B(  8-C , 17-H ) :   0.9603
B(  8-C , 18-H ) :   0.9603 B(  9-O , 19-H ) :   0.8521

Dispersion correction           -0.006574725
FINAL SINGLE POINT ENERGY      -461.205422415708

DIPOLE MOMENT
-------------

Method             : SCF
Type of density    : Electron Density
Multiplicity       :   1
Irrep              :   0
Energy             :  -461.2092525854850464 Eh
Relativity type    :
Basis              : AO
                                X                 Y                 Z
Electronic contribution:      4.688337304      -6.547655517      -0.000024096
Nuclear contribution   :     -4.514530137       7.613154121       0.000027036
                        -----------------------------------------
Total Dipole Moment    :      0.173807167       1.065498605       0.000002940
                        -----------------------------------------
Magnitude (a.u.)       :      1.079581497
Magnitude (Debye)      :      2.744078089

Rotational constants in cm-1:             0.063265             0.039283             0.024458
Rotational constants in MHz :          1896.635058          1177.675457           733.230714

                             ****ORCA TERMINATED NORMALLY****
TOTAL RUN TIME: 0 days 0 hours 0 minutes 23 seconds 131 msec
