                         Program Version 6.0.1  -  RELEASE   -
|  1> ! pbe def2-sv(p) def2/J RI DEFGRID1 loosescf d4 GCP(DFT/SV(P)) printgap
|  2> %output
|  3>     printlevel normal
|  4> end
|  5> * xyz 0 1
|  6> C -2.8443271986 -0.6123283272 0.0268866059
|  7> O -1.4993704327 -0.8823269654 0.4165719812
|  8> C -0.5438203449 -0.0702681855 -0.0450405083
|  9> O -0.7228393005 0.8705774258 -0.7608274975
| 10> C 0.7981869266 -0.5452542226 0.4888300496
| 11> Cl 2.1006224154 0.5282355536 -0.0469156449
| 12> H -3.428754598 -0.4266670406 0.9276704839
| 13> H -3.2297192228 -1.4894701218 -0.4921233055
| 14> H -2.8744212158 0.2589561997 -0.6290713215
| 15> H 1.0037224713 -1.5509397405 0.1206064895
| 16> H 0.7790712484 -0.5539929151 1.5789111663
| 17> *
| 18>
| 19>                          ****END OF INPUT****

CARTESIAN COORDINATES (ANGSTROEM)
---------------------------------
  C     -2.844327   -0.612328    0.026887
  O     -1.499370   -0.882327    0.416572
  C     -0.543820   -0.070268   -0.045041
  O     -0.722839    0.870577   -0.760827
  C      0.798187   -0.545254    0.488830
  Cl     2.100622    0.528236   -0.046916
  H     -3.428755   -0.426667    0.927670
  H     -3.229719   -1.489470   -0.492123
  H     -2.874421    0.258956   -0.629071
  H      1.003722   -1.550940    0.120606
  H      0.779071   -0.553993    1.578911

 Total Charge           Charge          ....    0
 Multiplicity           Mult            ....    1
 Number of Electrons    NEL             ....   56
 Basis Dimension        Dim             ....   98

ORBITAL ENERGIES
----------------

  NO   OCC          E(Eh)            E(eV)
   0   2.0000    -100.625090     -2738.1479
   1   2.0000     -18.813034      -511.9287
   2   2.0000     -18.751850      -510.2638
   3   2.0000     -10.022516      -272.7265
   4   2.0000      -9.957172      -270.9484
   5   2.0000      -9.947807      -270.6936
   6   2.0000      -9.161021      -249.2841
   7   2.0000      -6.993138      -190.2930
   8   2.0000      -6.980385      -189.9459
   9   2.0000      -6.980263      -189.9426
  10   2.0000      -1.019958       -27.7545
  11   2.0000      -0.933197       -25.3936
  12   2.0000      -0.784564       -21.3491
  13   2.0000      -0.691617       -18.8198
  14   2.0000      -0.615606       -16.7515
  15   2.0000      -0.516556       -14.0562
  16   2.0000      -0.468952       -12.7608
  17   2.0000      -0.457855       -12.4589
  18   2.0000      -0.427747       -11.6396
  19   2.0000      -0.416697       -11.3389
  20   2.0000      -0.384400       -10.4601
  21   2.0000      -0.373793       -10.1714
  22   2.0000      -0.353969        -9.6320
  23   2.0000      -0.314223        -8.5505
  24   2.0000      -0.271095        -7.3769
  25   2.0000      -0.253401        -6.8954
  26   2.0000      -0.250451        -6.8151
  27   2.0000      -0.240829        -6.5533
  28   0.0000      -0.031493        -0.8570
  29   0.0000       0.006571         0.1788
  30   0.0000       0.041923         1.1408
  31   0.0000       0.061814         1.6821
  32   0.0000       0.089671         2.4401

MULLIKEN ATOMIC CHARGES
-----------------------
   0 C :   -0.136304
   1 O :   -0.256362
   2 C :    0.127035
   3 O :   -0.153943
   4 C :   -0.179692
   5 Cl:   -0.112740
   6 H :    0.126014
   7 H :    0.125909
   8 H :    0.139270
   9 H :    0.160952
  10 H :    0.159861
Sum of atomic charges:    0.0000000

LOEWDIN ATOMIC CHARGES
----------------------
   0 C :   -0.209594
   1 O :   -0.082237
   2 C :    0.007671
   3 O :   -0.130723
   4 C :   -0.312096
   5 Cl:    0.064946
   6 H :    0.121736
   7 H :    0.121706
   8 H :    0.126477
   9 H :    0.146472
  10 H :    0.145642

  Mayer bond orders larger than 0.100000
B(  0-C ,  1-O ) :   0.9357 B(  0-C ,  6-H ) :   0.9600 B(  0-C ,  7-H ) :   0.9600
B(  0-C ,  8-H ) :   0.9290 B(  1-O ,  2-C ) :   1.1842 B(  1-O ,  3-O ) :   0.1028
B(  2-C ,  3-O ) :   2.1467 B(  2-C ,  4-C ) :   0.9448 B(  4-C ,  5-Cl) :   1.0960
B(  4-C ,  9-H ) :   0.9089 B(  4-C , 10-H ) :   0.9102

Dispersion correction           -0.008154979
FINAL SINGLE POINT ENERGY      -727.081425296890

DIPOLE MOMENT
-------------

Method             : SCF
Type of density    : Electron Density
Multiplicity       :   1
Irrep              :   0
Energy             :  -727.1237188605211941 Eh
Relativity type    :
Basis              : AO
                                X                 Y                 Z
Electronic contribution:      9.341550302       3.378917655      -0.977877638
Nuclear contribution   :    -10.123301796      -4.238690169       1.470757853
                        -----------------------------------------
Total Dipole Moment    :     -0.781751494      -0.859772514       0.492880215
                        -----------------------------------------
Magnitude (a.u.)       :      1.262250007
Magnitude (Debye)      :      3.208384544

Rotational constants in cm-1:             0.330930             0.046744             0.041611
Rotational constants in MHz :          9921.043717          1401.362555          1247.469747

                             ****ORCA TERMINATED NORMALLY****
TOTAL RUN TIME: 0 days 0 hours 0 minutes 7 seconds 421 msec
