                         Program Version 6.0.0  -   RELEASE  -
|  1> ! r2SCAN-3c DEF2-TZVP FREQ
|  2> * xyzfile 0 1 censo.xyz
|  3>
|  4>                          ****END OF INPUT****

CARTESIAN COORDINATES (ANGSTROEM)
---------------------------------
  C     -1.867357   -0.534875    0.295251
  C     -0.992330    0.388985   -0.535882
  S      0.701142    0.638183    0.141310
  C      1.402651   -1.029170   -0.129098
  H     -1.992348   -0.150933    1.311948
  H     -2.858914   -0.617301   -0.164839
  H     -1.445592   -1.542371    0.355703
  H     -1.427426    1.392690   -0.585125
  H     -0.894384    0.022460   -1.563748
  H      0.903460   -1.780881    0.487435
  H      2.457069   -0.987114    0.156567
  H      1.332751   -1.307333   -1.184877

 Total Charge           Charge          ....    0
 Multiplicity           Mult            ....    1
 Number of Electrons    NEL             ....   42
 Basis Dimension        Dim             ....  178

ORBITAL ENERGIES
----------------

  NO   OCC          E(Eh)            E(eV)
   0   2.0000     -88.518615     -2408.7140
   1   2.0000     -10.062337      -273.8101
   2   2.0000     -10.054619      -273.6001
   3   2.0000     -10.028167      -272.8803
   4   2.0000      -7.831499      -213.1059
   5   2.0000      -5.777680      -157.2187
   6   2.0000      -5.773454      -157.1037
   7   2.0000      -5.767678      -156.9465
   8   2.0000      -0.767946       -20.8969
   9   2.0000      -0.703894       -19.1539
  10   2.0000      -0.621186       -16.9033
  11   2.0000      -0.545075       -14.8322
  12   2.0000      -0.431716       -11.7476
  13   2.0000      -0.413819       -11.2606
  14   2.0000      -0.393558       -10.7093
  15   2.0000      -0.374017       -10.1775
  16   2.0000      -0.363065        -9.8795
  17   2.0000      -0.337983        -9.1970
  18   2.0000      -0.315471        -8.5844
  19   2.0000      -0.277939        -7.5631
  20   2.0000      -0.192615        -5.2413
  21   0.0000       0.013143         0.3576
  22   0.0000       0.041137         1.1194
  23   0.0000       0.053898         1.4667
  24   0.0000       0.080551         2.1919
  25   0.0000       0.087055         2.3689

MULLIKEN ATOMIC CHARGES
-----------------------
   0 C :   -0.306736
   1 C :   -0.143636
   2 S :   -0.125757
   3 C :   -0.327760
   4 H :    0.110341
   5 H :    0.102037
   6 H :    0.102465
   7 H :    0.114834
   8 H :    0.101614
   9 H :    0.120587
  10 H :    0.133869
  11 H :    0.118142
Sum of atomic charges:   -0.0000000

LOEWDIN ATOMIC CHARGES
----------------------
   0 C :   -0.338452
   1 C :   -0.487844
   2 S :    0.421008
   3 C :   -0.514734
   4 H :    0.119912
   5 H :    0.119943
   6 H :    0.115450
   7 H :    0.127005
   8 H :    0.119925
   9 H :    0.100581
  10 H :    0.113325
  11 H :    0.103880

  Mayer bond orders larger than 0.100000
B(  0-C ,  1-C ) :   0.9640 B(  0-C ,  4-H ) :   0.9702 B(  0-C ,  5-H ) :   0.9605
B(  0-C ,  6-H ) :   0.9758 B(  1-C ,  2-S ) :   1.0319 B(  1-C ,  7-H ) :   0.9558
B(  1-C ,  8-H ) :   0.9673 B(  2-S ,  3-C ) :   1.0613 B(  3-C ,  9-H ) :   0.9601
B(  3-C , 10-H ) :   0.9617 B(  3-C , 11-H ) :   0.9605

Dispersion correction           -0.002600628
FINAL SINGLE POINT ENERGY      -517.270510138134

DIPOLE MOMENT
-------------

Method             : SCF
Type of density    : Electron Density
Multiplicity       :   1
Irrep              :   0
Energy             :  -517.2772808569739027 Eh
Relativity type    :
Basis              : AO
                                X                 Y                 Z
Electronic contribution:      3.485504983       4.279691499       0.757059697
Nuclear contribution   :     -3.803268329      -4.813098772      -1.008984962
                        -----------------------------------------
Total Dipole Moment    :     -0.317763347      -0.533407272      -0.251925265
                        -----------------------------------------
Magnitude (a.u.)       :      0.670047164
Magnitude (Debye)      :      1.703124541

VIBRATIONAL FREQUENCIES
-----------------------

Scaling factor for frequencies =  1.000000000  (already applied!)

     0:       0.00 cm**-1
     1:       0.00 cm**-1
     2:       0.00 cm**-1
     3:       0.00 cm**-1
     4:       0.00 cm**-1
     5:       0.00 cm**-1
     6:      98.50 cm**-1
     7:     187.83 cm**-1
     8:     232.60 cm**-1
     9:     286.77 cm**-1
    10:     352.96 cm**-1
    11:     622.54 cm**-1
    12:     689.05 cm**-1
    13:     765.73 cm**-1
    14:     959.18 cm**-1
    15:     971.77 cm**-1
    16:     980.88 cm**-1
    17:    1063.16 cm**-1
    18:    1082.64 cm**-1
    19:    1279.57 cm**-1
    20:    1286.77 cm**-1
    21:    1343.06 cm**-1
    22:    1401.45 cm**-1
    23:    1454.89 cm**-1
    24:    1461.52 cm**-1
    25:    1476.61 cm**-1
    26:    1488.84 cm**-1
    27:    1494.41 cm**-1
    28:    3004.95 cm**-1
    29:    3009.86 cm**-1
    30:    3018.68 cm**-1
    31:    3070.28 cm**-1
    32:    3078.04 cm**-1
    33:    3095.95 cm**-1
    34:    3103.02 cm**-1
    35:    3112.89 cm**-1

IR SPECTRUM
-----------

 Mode   freq       eps      Int      T**2         TX        TY        TZ
       cm**-1   L/(mol*cm) km/mol    a.u.
----------------------------------------------------------------------------
  6:     98.50   0.000230    1.16  0.000728  (-0.017917 -0.003628  0.019853)
  7:    187.83   0.000150    0.76  0.000250  ( 0.008123 -0.000134 -0.013565)
  8:    232.60   0.000018    0.09  0.000024  ( 0.004539  0.000081  0.001925)
  9:    286.77   0.000069    0.35  0.000075  ( 0.004820  0.001237 -0.007105)
 10:    352.96   0.000233    1.18  0.000206  (-0.012494 -0.005898  0.003917)
 11:    622.54   0.000690    3.49  0.000346  (-0.012534 -0.012922 -0.004652)
 12:    689.05   0.000121    0.61  0.000055  (-0.002400  0.006225  0.003214)
 13:    765.73   0.000565    2.85  0.000230  ( 0.006696 -0.010501 -0.008658)
 14:    959.18   0.000449    2.27  0.000146  (-0.001409 -0.008640 -0.008342)
 15:    971.77   0.000432    2.18  0.000139  ( 0.001026  0.007435 -0.009080)
 16:    980.88   0.002110   10.66  0.000671  ( 0.023650  0.010586  0.000138)
 17:   1063.16   0.000049    0.25  0.000014  ( 0.001024 -0.003659  0.000102)
 18:   1082.64   0.001275    6.44  0.000367  ( 0.013559  0.009419  0.009739)
 19:   1279.57   0.000552    2.79  0.000135  ( 0.010463  0.003279  0.003805)
 20:   1286.77   0.004222   21.34  0.001024  ( 0.031533 -0.003587  0.004092)
 21:   1343.06   0.000323    1.63  0.000075  ( 0.000820  0.008611  0.000504)
 22:   1401.45   0.000723    3.65  0.000161  (-0.006654 -0.007160  0.008085)
 23:   1454.89   0.000399    2.02  0.000086  ( 0.008537 -0.003364  0.001216)
 24:   1461.52   0.002505   12.66  0.000535  ( 0.007042  0.001734 -0.021959)
 25:   1476.61   0.001202    6.07  0.000254  ( 0.013557 -0.001770  0.008191)
 26:   1488.84   0.002562   12.95  0.000537  (-0.014471  0.018053 -0.001338)
 27:   1494.41   0.000674    3.40  0.000141  ( 0.005279  0.005695  0.008964)
 28:   3004.95   0.006086   30.76  0.000632  (-0.022740 -0.004236  0.009848)
 29:   3009.86   0.006205   31.36  0.000643  (-0.000498 -0.024549 -0.006361)
 30:   3018.68   0.004833   24.42  0.000500  (-0.009117  0.008559 -0.018527)
 31:   3070.28   0.000670    3.38  0.000068  (-0.004639 -0.002207 -0.006457)
 32:   3078.04   0.005350   27.04  0.000542  (-0.016997  0.007348 -0.014125)
 33:   3095.95   0.004094   20.69  0.000413  ( 0.004554 -0.000211 -0.019796)
 34:   3103.02   0.004710   23.80  0.000474  ( 0.006036 -0.019451 -0.007678)
 35:   3112.89   0.001586    8.01  0.000159  (-0.007843 -0.009176 -0.003640)

--------------------------
THERMOCHEMISTRY AT 298.15K
--------------------------

Temperature         ...   298.15 K
Pressure            ...     1.00 atm
Total Mass          ...    76.16 AMU
Quasi RRHO          ...     True
Cut-Off Frequency   ...     1.00 cm^-1

Throughout the following assumptions are being made:
  (1) The electronic state is orbitally nondegenerate
  (2) There are no thermally accessible electronically excited states
  (3) Hindered rotations indicated by low frequency modes are not
      treated as such but are treated as vibrations and this may
      cause some error
  (4) All equations used are the standard statistical mechanics
      equations for an ideal gas
  (5) All vibrations are strictly harmonic

freq.      98.50  E(vib)   ...       0.46
freq.     187.83  E(vib)   ...       0.36
freq.     232.60  E(vib)   ...       0.32
freq.     286.77  E(vib)   ...       0.27
freq.     352.96  E(vib)   ...       0.22
freq.     622.54  E(vib)   ...       0.09
freq.     689.05  E(vib)   ...       0.07
freq.     765.73  E(vib)   ...       0.06
freq.     959.18  E(vib)   ...       0.03
freq.     971.77  E(vib)   ...       0.03
freq.     980.88  E(vib)   ...       0.02
freq.    1063.16  E(vib)   ...       0.02
freq.    1082.64  E(vib)   ...       0.02
freq.    1279.57  E(vib)   ...       0.01
freq.    1286.77  E(vib)   ...       0.01
freq.    1343.06  E(vib)   ...       0.01
freq.    1401.45  E(vib)   ...       0.00
freq.    1454.89  E(vib)   ...       0.00
freq.    1461.52  E(vib)   ...       0.00
freq.    1476.61  E(vib)   ...       0.00
freq.    1488.84  E(vib)   ...       0.00
freq.    1494.41  E(vib)   ...       0.00
freq.    3004.95  E(vib)   ...       0.00
freq.    3009.86  E(vib)   ...       0.00
freq.    3018.68  E(vib)   ...       0.00
freq.    3070.28  E(vib)   ...       0.00
freq.    3078.04  E(vib)   ...       0.00
freq.    3095.95  E(vib)   ...       0.00
freq.    3103.02  E(vib)   ...       0.00
freq.    3112.89  E(vib)   ...       0.00

------------
INNER ENERGY
------------

The inner energy is: U= E(el) + E(ZPE) + E(vib) + E(rot) + E(trans)
    E(el)   - is the total energy from the electronic structure calculation
              = E(kin-el) + E(nuc-el) + E(el-el) + E(nuc-nuc)
    E(ZPE)  - the the zero temperature vibrational energy from the frequency calculation
    E(vib)  - the the finite temperature correction to E(ZPE) due to population
              of excited vibrational states
    E(rot)  - is the rotational thermal energy
    E(trans)- is the translational thermal energy

Summary of contributions to the inner energy U:
Electronic energy                ...   -517.27051014 Eh
Zero point energy                ...      0.10359830 Eh      65.01 kcal/mol
Thermal vibrational correction   ...      0.00322553 Eh       2.02 kcal/mol
Thermal rotational correction    ...      0.00141627 Eh       0.89 kcal/mol
Thermal translational correction ...      0.00141627 Eh       0.89 kcal/mol
-----------------------------------------------------------------------
Total thermal energy                   -517.16085377 Eh

Summary of corrections to the electronic energy:
(perhaps to be used in another calculation)
Total thermal correction                  0.00605807 Eh       3.80 kcal/mol
Non-thermal (ZPE) correction              0.10359830 Eh      65.01 kcal/mol
-----------------------------------------------------------------------
Total correction                          0.10965637 Eh      68.81 kcal/mol

--------
ENTHALPY
--------

The enthalpy is H = U + kB*T
                kB is Boltzmann's constant
Total thermal energy              ...   -517.16085377 Eh
Thermal Enthalpy correction       ...      0.00094421 Eh       0.59 kcal/mol
-----------------------------------------------------------------------
Total Enthalpy                    ...   -517.15990956 Eh

Note: Only C1 symmetry has been detected, increase convergence thresholds
      if your molecule has a higher symmetry. Symmetry factor of 1.0 is
      used for the rotational entropy correction.

Note: Rotational entropy computed according to Herzberg
Infrared and Raman Spectra, Chapter V,1, Van Nostrand Reinhold, 1945
Point Group:  C1, Symmetry Number:   1
Rotational constants in cm-1:     0.315916     0.129003     0.104907

Vibrational entropy computed according to the QRRHO of S. Grimme
Chem.Eur.J. 2012 18 9955 using a reference frequency of 100.0 cm-1

-------
ENTROPY
-------

The entropy contributions are T*S = T*(S(el)+S(vib)+S(rot)+S(trans))
     S(el)   - electronic entropy
     S(vib)  - vibrational entropy
     S(rot)  - rotational entropy
     S(trans)- translational entropy
The entropies will be listed as multiplied by the temperature to get
units of energy

Electronic entropy                ...      0.00000000 Eh      0.00 kcal/mol
Vibrational entropy               ...      0.00547470 Eh      3.44 kcal/mol
Rotational entropy                ...      0.01208601 Eh      7.58 kcal/mol
Translational entropy             ...      0.01848549 Eh     11.60 kcal/mol
-----------------------------------------------------------------------
Final entropy term                ...      0.03604620 Eh     22.62 kcal/mol

In case the symmetry of your molecule has not been determined correctly
or in case you have a reason to use a different symmetry number we print
out the resulting rotational entropy values for sn=1,12:

 non-linear molecules -----------------------------------
|  sn= 1 | S(rot)=       0.01208601 Eh      7.58 kcal/mol|
|  sn= 2 | S(rot)=       0.01143155 Eh      7.17 kcal/mol|
|  sn= 3 | S(rot)=       0.01104872 Eh      6.93 kcal/mol|
|  sn= 4 | S(rot)=       0.01077710 Eh      6.76 kcal/mol|
|  sn= 5 | S(rot)=       0.01056641 Eh      6.63 kcal/mol|
|  sn= 6 | S(rot)=       0.01039426 Eh      6.52 kcal/mol|
|  sn= 7 | S(rot)=       0.01024872 Eh      6.43 kcal/mol|
|  sn= 8 | S(rot)=       0.01012264 Eh      6.35 kcal/mol|
|  sn= 9 | S(rot)=       0.01001143 Eh      6.28 kcal/mol|
|  sn=10 | S(rot)=       0.00991195 Eh      6.22 kcal/mol|
|  sn=11 | S(rot)=       0.00982196 Eh      6.16 kcal/mol|
|  sn=12 | S(rot)=       0.00973981 Eh      6.11 kcal/mol|
 linear molecules ---------------------------------------
|  Dinfh | S(rot)=       0.00745464 Eh      4.68 kcal/mol|
|  Cinfv | S(rot)=       0.00810909 Eh      5.09 kcal/mol|
 --------------------------------------------------------

-------------------
GIBBS FREE ENERGY
-------------------

The Gibbs free energy is G = H - T*S

Total enthalpy                    ...   -517.15990956 Eh
Total entropy correction          ...     -0.03604620 Eh    -22.62 kcal/mol
-----------------------------------------------------------------------
Final Gibbs free energy         ...   -517.19595576 Eh

For completeness - the Gibbs free energy minus the electronic energy

                             ****ORCA TERMINATED NORMALLY****
TOTAL RUN TIME: 0 days 0 hours 3 minutes 33 seconds 366 msec
