                         Program Version 6.0.0  -   RELEASE  -
|  1> ! r2SCAN-3c DEF2-TZVP FREQ
|  2> * xyzfile 0 1 vacuum_censo.xyz
|  3>
|  4>                          ****END OF INPUT****

CARTESIAN COORDINATES (ANGSTROEM)
---------------------------------
  C     -2.228745    0.126526    0.143778
  C     -0.918132   -0.470370   -0.350847
  S      0.468893    0.124708    0.697647
  C      1.842522   -0.763320   -0.115294
  H     -2.202577    1.219364    0.105558
  H     -3.057953   -0.216146   -0.482780
  H     -2.433661   -0.174671    1.175041
  H     -0.725764   -0.176454   -1.388940
  H     -0.949151   -1.564955   -0.303763
  H      1.937514   -0.463559   -1.163343
  H      1.701644   -1.846517   -0.050846
  H      2.761200   -0.495525    0.411937

 Total Charge           Charge          ....    0
 Multiplicity           Mult            ....    1
 Number of Electrons    NEL             ....   42
 Basis Dimension        Dim             ....  178

ORBITAL ENERGIES
----------------

  NO   OCC          E(Eh)            E(eV)
   0   2.0000     -88.517747     -2408.6904
   1   2.0000     -10.062143      -273.8048
   2   2.0000     -10.054303      -273.5915
   3   2.0000     -10.029100      -272.9057
   4   2.0000      -7.830864      -213.0886
   5   2.0000      -5.777104      -157.2030
   6   2.0000      -5.772683      -157.0827
   7   2.0000      -5.767082      -156.9303
   8   2.0000      -0.767879       -20.8950
   9   2.0000      -0.706695       -19.2302
  10   2.0000      -0.613330       -16.6895
  11   2.0000      -0.548656       -14.9297
  12   2.0000      -0.428257       -11.6535
  13   2.0000      -0.411143       -11.1878
  14   2.0000      -0.396074       -10.7777
  15   2.0000      -0.388766       -10.5789
  16   2.0000      -0.350868        -9.5476
  17   2.0000      -0.327640        -8.9155
  18   2.0000      -0.319054        -8.6819
  19   2.0000      -0.282222        -7.6796
  20   2.0000      -0.191631        -5.2145
  21   0.0000       0.005715         0.1555
  22   0.0000       0.046520         1.2659
  23   0.0000       0.058986         1.6051
  24   0.0000       0.082616         2.2481
  25   0.0000       0.094384         2.5683

MULLIKEN ATOMIC CHARGES
-----------------------
   0 C :   -0.305196
   1 C :   -0.158698
   2 S :   -0.120957
   3 C :   -0.313338
   4 H :    0.112352
   5 H :    0.107839
   6 H :    0.112277
   7 H :    0.099156
   8 H :    0.098795
   9 H :    0.118057
  10 H :    0.118182
  11 H :    0.131531
Sum of atomic charges:    0.0000000

LOEWDIN ATOMIC CHARGES
----------------------
   0 C :   -0.339841
   1 C :   -0.478906
   2 S :    0.419910
   3 C :   -0.515885
   4 H :    0.119988
   5 H :    0.121167
   6 H :    0.119986
   7 H :    0.117505
   8 H :    0.117633
   9 H :    0.103041
  10 H :    0.102976
  11 H :    0.112427

  Mayer bond orders larger than 0.100000
B(  0-C ,  1-C ) :   0.9916 B(  0-C ,  4-H ) :   0.9731 B(  0-C ,  5-H ) :   0.9656
B(  0-C ,  6-H ) :   0.9733 B(  1-C ,  2-S ) :   1.0705 B(  1-C ,  7-H ) :   0.9564
B(  1-C ,  8-H ) :   0.9563 B(  2-S ,  3-C ) :   1.0616 B(  3-C ,  9-H ) :   0.9622
B(  3-C , 10-H ) :   0.9624 B(  3-C , 11-H ) :   0.9625

Dispersion correction           -0.002479266
FINAL SINGLE POINT ENERGY      -517.270630881512

DIPOLE MOMENT
-------------

Method             : SCF
Type of density    : Electron Density
Multiplicity       :   1
Irrep              :   0
Energy             :  -517.2774274236439851 Eh
Relativity type    :
Basis              : AO
                                X                 Y                 Z
Electronic contribution:      2.382073164       1.815382803       2.752024176
Nuclear contribution   :     -2.442772795      -2.211219863      -3.260118180
                        -----------------------------------------
Total Dipole Moment    :     -0.060699631      -0.395837060      -0.508094004
                        -----------------------------------------
Magnitude (a.u.)       :      0.646939673
Magnitude (Debye)      :      1.644389967

VIBRATIONAL FREQUENCIES
-----------------------

Scaling factor for frequencies =  1.000000000  (already applied!)

     0:       0.00 cm**-1
     1:       0.00 cm**-1
     2:       0.00 cm**-1
     3:       0.00 cm**-1
     4:       0.00 cm**-1
     5:       0.00 cm**-1
     6:      96.85 cm**-1
     7:     183.45 cm**-1
     8:     202.06 cm**-1
     9:     253.03 cm**-1
    10:     347.35 cm**-1
    11:     652.31 cm**-1
    12:     694.12 cm**-1
    13:     796.36 cm**-1
    14:     966.64 cm**-1
    15:     972.50 cm**-1
    16:     989.20 cm**-1
    17:    1044.70 cm**-1
    18:    1087.39 cm**-1
    19:    1263.18 cm**-1
    20:    1282.81 cm**-1
    21:    1346.14 cm**-1
    22:    1402.56 cm**-1
    23:    1461.43 cm**-1
    24:    1473.80 cm**-1
    25:    1479.20 cm**-1
    26:    1487.13 cm**-1
    27:    1498.17 cm**-1
    28:    3004.58 cm**-1
    29:    3007.35 cm**-1
    30:    3015.59 cm**-1
    31:    3054.19 cm**-1
    32:    3088.22 cm**-1
    33:    3092.12 cm**-1
    34:    3100.47 cm**-1
    35:    3115.77 cm**-1

IR SPECTRUM
-----------

 Mode   freq       eps      Int      T**2         TX        TY        TZ
       cm**-1   L/(mol*cm) km/mol    a.u.
----------------------------------------------------------------------------
  6:     96.85   0.000114    0.57  0.000366  ( 0.002407  0.015027 -0.011595)
  7:    183.45   0.000070    0.35  0.000118  (-0.001602 -0.008515  0.006573)
  8:    202.06   0.000130    0.66  0.000201  (-0.011102 -0.004431 -0.007608)
  9:    253.03   0.000027    0.14  0.000034  ( 0.000593  0.004251 -0.003933)
 10:    347.35   0.000187    0.95  0.000168  (-0.009356 -0.004611 -0.007697)
 11:    652.31   0.000263    1.33  0.000126  ( 0.007099  0.004475  0.007435)
 12:    694.12   0.000204    1.03  0.000092  (-0.005063  0.005679  0.005799)
 13:    796.36   0.000614    3.10  0.000240  ( 0.001817  0.011933 -0.009736)
 14:    966.64   0.000907    4.59  0.000293  (-0.008645 -0.008070 -0.012373)
 15:    972.50   0.000571    2.88  0.000183  ( 0.001767  0.010611 -0.008209)
 16:    989.20   0.000626    3.16  0.000197  (-0.011186 -0.003909 -0.007554)
 17:   1044.70   0.000055    0.28  0.000017  (-0.000558 -0.003041  0.002636)
 18:   1087.39   0.000421    2.13  0.000121  (-0.007432  0.005788  0.005676)
 19:   1263.18   0.000008    0.04  0.000002  ( 0.000373  0.000973 -0.000959)
 20:   1282.81   0.005794   29.28  0.001410  (-0.034721 -0.004900 -0.013415)
 21:   1346.14   0.000457    2.31  0.000106  ( 0.007168 -0.005406 -0.005024)
 22:   1402.56   0.000768    3.88  0.000171  (-0.010543  0.005663  0.005262)
 23:   1461.43   0.001514    7.65  0.000323  ( 0.002533  0.013890 -0.011131)
 24:   1473.80   0.002581   13.04  0.000546  ( 0.023041 -0.001254  0.003734)
 25:   1479.20   0.000104    0.53  0.000022  (-0.003732 -0.001222 -0.002550)
 26:   1487.13   0.002149   10.86  0.000451  (-0.002513 -0.016884  0.012631)
 27:   1498.17   0.000655    3.31  0.000137  ( 0.004439  0.005577  0.009258)
 28:   3004.58   0.010913   55.15  0.001133  ( 0.015783 -0.020258 -0.021770)
 29:   3007.35   0.003137   15.85  0.000325  (-0.013229 -0.006255 -0.010551)
 30:   3015.59   0.005204   26.30  0.000538  (-0.021908  0.006676  0.003734)
 31:   3054.19   0.002316   11.70  0.000237  ( 0.001681  0.011703 -0.009840)
 32:   3088.22   0.003885   19.63  0.000393  (-0.002633 -0.015624  0.011896)
 33:   3092.12   0.004584   23.16  0.000463  (-0.010343 -0.011404 -0.015019)
 34:   3100.47   0.004618   23.34  0.000465  (-0.002020 -0.016068  0.014232)
 35:   3115.77   0.001543    7.80  0.000155  (-0.005994 -0.006194 -0.008956)

--------------------------
THERMOCHEMISTRY AT 298.15K
--------------------------

Temperature         ...   298.15 K
Pressure            ...     1.00 atm
Total Mass          ...    76.16 AMU
Quasi RRHO          ...     True
Cut-Off Frequency   ...     1.00 cm^-1

Throughout the following assumptions are being made:
  (1) The electronic state is orbitally nondegenerate
  (2) There are no thermally accessible electronically excited states
  (3) Hindered rotations indicated by low frequency modes are not
      treated as such but are treated as vibrations and this may
      cause some error
  (4) All equations used are the standard statistical mechanics
      equations for an ideal gas
  (5) All vibrations are strictly harmonic

freq.      96.85  E(vib)   ...       0.46
freq.     183.45  E(vib)   ...       0.37
freq.     202.06  E(vib)   ...       0.35
freq.     253.03  E(vib)   ...       0.30
freq.     347.35  E(vib)   ...       0.23
freq.     652.31  E(vib)   ...       0.08
freq.     694.12  E(vib)   ...       0.07
freq.     796.36  E(vib)   ...       0.05
freq.     966.64  E(vib)   ...       0.03
freq.     972.50  E(vib)   ...       0.03
freq.     989.20  E(vib)   ...       0.02
freq.    1044.70  E(vib)   ...       0.02
freq.    1087.39  E(vib)   ...       0.02
freq.    1263.18  E(vib)   ...       0.01
freq.    1282.81  E(vib)   ...       0.01
freq.    1346.14  E(vib)   ...       0.01
freq.    1402.56  E(vib)   ...       0.00
freq.    1461.43  E(vib)   ...       0.00
freq.    1473.80  E(vib)   ...       0.00
freq.    1479.20  E(vib)   ...       0.00
freq.    1487.13  E(vib)   ...       0.00
freq.    1498.17  E(vib)   ...       0.00
freq.    3004.58  E(vib)   ...       0.00
freq.    3007.35  E(vib)   ...       0.00
freq.    3015.59  E(vib)   ...       0.00
freq.    3054.19  E(vib)   ...       0.00
freq.    3088.22  E(vib)   ...       0.00
freq.    3092.12  E(vib)   ...       0.00
freq.    3100.47  E(vib)   ...       0.00
freq.    3115.77  E(vib)   ...       0.00

------------
INNER ENERGY
------------

The inner energy is: U= E(el) + E(ZPE) + E(vib) + E(rot) + E(trans)
    E(el)   - is the total energy from the electronic structure calculation
              = E(kin-el) + E(nuc-el) + E(el-el) + E(nuc-nuc)
    E(ZPE)  - the the zero temperature vibrational energy from the frequency calculation
    E(vib)  - the the finite temperature correction to E(ZPE) due to population
              of excited vibrational states
    E(rot)  - is the rotational thermal energy
    E(trans)- is the translational thermal energy

Summary of contributions to the inner energy U:
Electronic energy                ...   -517.27063088 Eh
Zero point energy                ...      0.10356249 Eh      64.99 kcal/mol
Thermal vibrational correction   ...      0.00330664 Eh       2.07 kcal/mol
Thermal rotational correction    ...      0.00141627 Eh       0.89 kcal/mol
Thermal translational correction ...      0.00141627 Eh       0.89 kcal/mol
-----------------------------------------------------------------------
Total thermal energy                   -517.16092921 Eh

Summary of corrections to the electronic energy:
(perhaps to be used in another calculation)
Total thermal correction                  0.00613918 Eh       3.85 kcal/mol
Non-thermal (ZPE) correction              0.10356249 Eh      64.99 kcal/mol
-----------------------------------------------------------------------
Total correction                          0.10970167 Eh      68.84 kcal/mol

--------
ENTHALPY
--------

The enthalpy is H = U + kB*T
                kB is Boltzmann's constant
Total thermal energy              ...   -517.16092921 Eh
Thermal Enthalpy correction       ...      0.00094421 Eh       0.59 kcal/mol
-----------------------------------------------------------------------
Total Enthalpy                    ...   -517.15998500 Eh

Note: Only C1 symmetry has been detected, increase convergence thresholds
      if your molecule has a higher symmetry. Symmetry factor of 1.0 is
      used for the rotational entropy correction.

Note: Rotational entropy computed according to Herzberg
Infrared and Raman Spectra, Chapter V,1, Van Nostrand Reinhold, 1945
Point Group:  C1, Symmetry Number:   1
Rotational constants in cm-1:     0.523576     0.104550     0.091690

Vibrational entropy computed according to the QRRHO of S. Grimme
Chem.Eur.J. 2012 18 9955 using a reference frequency of 100.0 cm-1

-------
ENTROPY
-------

The entropy contributions are T*S = T*(S(el)+S(vib)+S(rot)+S(trans))
     S(el)   - electronic entropy
     S(vib)  - vibrational entropy
     S(rot)  - rotational entropy
     S(trans)- translational entropy
The entropies will be listed as multiplied by the temperature to get
units of energy

Electronic entropy                ...      0.00000000 Eh      0.00 kcal/mol
Vibrational entropy               ...      0.00569888 Eh      3.58 kcal/mol
Rotational entropy                ...      0.01201029 Eh      7.54 kcal/mol
Translational entropy             ...      0.01848549 Eh     11.60 kcal/mol
-----------------------------------------------------------------------
Final entropy term                ...      0.03619466 Eh     22.71 kcal/mol

In case the symmetry of your molecule has not been determined correctly
or in case you have a reason to use a different symmetry number we print
out the resulting rotational entropy values for sn=1,12:

 non-linear molecules -----------------------------------
|  sn= 1 | S(rot)=       0.01201029 Eh      7.54 kcal/mol|
|  sn= 2 | S(rot)=       0.01135584 Eh      7.13 kcal/mol|
|  sn= 3 | S(rot)=       0.01097301 Eh      6.89 kcal/mol|
|  sn= 4 | S(rot)=       0.01070138 Eh      6.72 kcal/mol|
|  sn= 5 | S(rot)=       0.01049069 Eh      6.58 kcal/mol|
|  sn= 6 | S(rot)=       0.01031855 Eh      6.47 kcal/mol|
|  sn= 7 | S(rot)=       0.01017300 Eh      6.38 kcal/mol|
|  sn= 8 | S(rot)=       0.01004693 Eh      6.30 kcal/mol|
|  sn= 9 | S(rot)=       0.00993572 Eh      6.23 kcal/mol|
|  sn=10 | S(rot)=       0.00983624 Eh      6.17 kcal/mol|
|  sn=11 | S(rot)=       0.00974625 Eh      6.12 kcal/mol|
|  sn=12 | S(rot)=       0.00966409 Eh      6.06 kcal/mol|
 linear molecules ---------------------------------------
|  Dinfh | S(rot)=       0.00758178 Eh      4.76 kcal/mol|
|  Cinfv | S(rot)=       0.00823623 Eh      5.17 kcal/mol|
 --------------------------------------------------------

-------------------
GIBBS FREE ENERGY
-------------------

The Gibbs free energy is G = H - T*S

Total enthalpy                    ...   -517.15998500 Eh
Total entropy correction          ...     -0.03619466 Eh    -22.71 kcal/mol
-----------------------------------------------------------------------
Final Gibbs free energy         ...   -517.19617966 Eh

For completeness - the Gibbs free energy minus the electronic energy

                             ****ORCA TERMINATED NORMALLY****
TOTAL RUN TIME: 0 days 0 hours 3 minutes 24 seconds 209 msec
