                         Program Version 6.0.1  -  RELEASE   -
|  1> ! pbe def2-sv(p) def2/J RI DEFGRID1 loosescf d4 GCP(DFT/SV(P)) printgap
|  2> %output
|  3>     printlevel normal
|  4> end
|  5> * xyz 0 1
|  6> C 2.3797178457 0.5384407872 -1.1063407083
|  7> C 1.7255740599 -0.0793184318 0.1025626534
|  8> O 2.3318997843 -0.5632947343 1.0217229709
|  9> C 0.2282516214 -0.0306821116 0.0516872218
| 10> C -0.467985005 1.0472335206 0.5869654772
| 11> C -1.8519316167 1.041138426 0.5063096367
| 12> N -2.5450496035 0.0651707886 -0.0528440731
| 13> C -1.8811272462 -0.9606221705 -0.5553477938
| 14> C -0.4986560965 -1.0617218501 -0.5328708695
| 15> H 3.4611087329 0.4556338358 -1.0360136059
| 16> H 2.0932009829 1.5867232433 -1.1730156717
| 17> H 2.0254793295 0.0395466805 -2.0065516698
| 18> H 0.0575465638 1.8634748483 1.0585110192
| 19> H -2.4358704367 1.8585913597 0.9083616324
| 20> H -2.4881771879 -1.7387694197 -0.9990015583
| 21> H 0.0019157473 -1.921641761 -0.9510732137
| 22> *
| 23>
| 24>                          ****END OF INPUT****

CARTESIAN COORDINATES (ANGSTROEM)
---------------------------------
  C      2.379718    0.538441   -1.106341
  C      1.725574   -0.079318    0.102563
  O      2.331900   -0.563295    1.021723
  C      0.228252   -0.030682    0.051687
  C     -0.467985    1.047234    0.586965
  C     -1.851932    1.041138    0.506310
  N     -2.545050    0.065171   -0.052844
  C     -1.881127   -0.960622   -0.555348
  C     -0.498656   -1.061722   -0.532871
  H      3.461109    0.455634   -1.036014
  H      2.093201    1.586723   -1.173016
  H      2.025479    0.039547   -2.006552
  H      0.057547    1.863475    1.058511
  H     -2.435870    1.858591    0.908362
  H     -2.488177   -1.738769   -0.999002
  H      0.001916   -1.921642   -0.951073

 Total Charge           Charge          ....    0
 Multiplicity           Mult            ....    1
 Number of Electrons    NEL             ....   64
 Basis Dimension        Dim             ....  140

ORBITAL ENERGIES
----------------

  NO   OCC          E(Eh)            E(eV)
   0   2.0000     -18.760857      -510.5089
   1   2.0000     -13.991290      -380.7224
   2   2.0000      -9.993158      -271.9277
   3   2.0000      -9.933395      -270.3014
   4   2.0000      -9.933374      -270.3009
   5   2.0000      -9.928495      -270.1681
   6   2.0000      -9.915824      -269.8233
   7   2.0000      -9.915784      -269.8222
   8   2.0000      -9.901096      -269.4225
   9   2.0000      -0.961014       -26.1505
  10   2.0000      -0.870443       -23.6860
  11   2.0000      -0.752554       -20.4780
  12   2.0000      -0.698252       -19.0004
  13   2.0000      -0.683148       -18.5894
  14   2.0000      -0.591098       -16.0846
  15   2.0000      -0.583714       -15.8837
  16   2.0000      -0.516758       -14.0617
  17   2.0000      -0.457771       -12.4566
  18   2.0000      -0.451664       -12.2904
  19   2.0000      -0.429581       -11.6895
  20   2.0000      -0.405216       -11.0265
  21   2.0000      -0.404321       -11.0021
  22   2.0000      -0.400989       -10.9115
  23   2.0000      -0.393838       -10.7169
  24   2.0000      -0.369749       -10.0614
  25   2.0000      -0.353678        -9.6241
  26   2.0000      -0.342958        -9.3324
  27   2.0000      -0.325379        -8.8540
  28   2.0000      -0.271043        -7.3754
  29   2.0000      -0.253172        -6.8892
  30   2.0000      -0.222223        -6.0470
  31   2.0000      -0.206585        -5.6215
  32   0.0000      -0.067301        -1.8314
  33   0.0000      -0.066086        -1.7983
  34   0.0000      -0.057185        -1.5561
  35   0.0000       0.033944         0.9237
  36   0.0000       0.061121         1.6632

MULLIKEN ATOMIC CHARGES
-----------------------
   0 C :   -0.248990
   1 C :    0.014946
   2 O :   -0.139903
   3 C :    0.062363
   4 C :   -0.095676
   5 C :   -0.050736
   6 N :   -0.053061
   7 C :   -0.050750
   8 C :   -0.095802
   9 H :    0.124713
  10 H :    0.128503
  11 H :    0.127917
  12 H :    0.063636
  13 H :    0.074647
  14 H :    0.074606
  15 H :    0.063589
Sum of atomic charges:   -0.0000000

LOEWDIN ATOMIC CHARGES
----------------------
   0 C :   -0.358134
   1 C :    0.051866
   2 O :   -0.096636
   3 C :   -0.040392
   4 C :   -0.131066
   5 C :   -0.073247
   6 N :   -0.073164
   7 C :   -0.073258
   8 C :   -0.131241
   9 H :    0.135801
  10 H :    0.146665
  11 H :    0.145426
  12 H :    0.130966
  13 H :    0.117757
  14 H :    0.117748
  15 H :    0.130910

  Mayer bond orders larger than 0.100000
B(  0-C ,  1-C ) :   1.0653 B(  0-C ,  9-H ) :   0.9319 B(  0-C , 10-H ) :   0.9241
B(  0-C , 11-H ) :   0.9253 B(  1-C ,  2-O ) :   2.2287 B(  1-C ,  3-C ) :   0.8657
B(  3-C ,  4-C ) :   1.4227 B(  3-C ,  8-C ) :   1.4219 B(  4-C ,  5-C ) :   1.3738
B(  4-C , 12-H ) :   0.9463 B(  5-C ,  6-N ) :   1.5513 B(  5-C , 13-H ) :   0.9509
B(  6-N ,  7-C ) :   1.5512 B(  7-C ,  8-C ) :   1.3744 B(  7-C , 14-H ) :   0.9509
B(  8-C , 15-H ) :   0.9461

Dispersion correction           -0.016431306
FINAL SINGLE POINT ENERGY      -400.076010328757

DIPOLE MOMENT
-------------

Method             : SCF
Type of density    : Electron Density
Multiplicity       :   1
Irrep              :   0
Energy             :  -400.1202223267783324 Eh
Relativity type    :
Basis              : AO
                                X                 Y                 Z
Electronic contribution:     -2.256624459      -1.623281557       3.190144742
Nuclear contribution   :      2.567890039       2.003039468      -3.924333761
                        -----------------------------------------
Total Dipole Moment    :      0.311265580       0.379757911      -0.734189018
                        -----------------------------------------
Magnitude (a.u.)       :      0.883252991
Magnitude (Debye)      :      2.245050687

Rotational constants in cm-1:             0.127467             0.037264             0.034496
Rotational constants in MHz :          3821.364197          1117.132329          1034.176824

                             ****ORCA TERMINATED NORMALLY****
TOTAL RUN TIME: 0 days 0 hours 0 minutes 5 seconds 705 msec
