                         Program Version 6.0.1  -  RELEASE   -
|  1> ! pbe def2-sv(p) def2/J RI DEFGRID1 loosescf d4 GCP(DFT/SV(P)) printgap
|  2> %output
|  3>     printlevel normal
|  4> end
|  5> * xyz 0 1
|  6> C 3.3046228697 -0.3329588765 0.8887979744
|  7> C 1.937432825 -0.1762172325 0.3100878634
|  8> C 1.4324835779 1.0165937045 -0.0204224228
|  9> C 0.084190655 1.2261352977 -0.5395462097
| 10> O -0.3621909044 2.3425374311 -0.7170062788
| 11> C -0.7667032513 -0.0038070426 -0.8255595684
| 12> H -1.2245934759 0.1763441392 -1.8065108479
| 13> C 0.0689423515 -1.2809899263 -0.9359114099
| 14> C 1.142645853 -1.4311477291 0.1385773859
| 15> C -1.9515353995 -0.0148376809 0.171470586
| 16> C -3.0265099857 -1.0173209486 -0.2420724038
| 17> C -1.5417247752 -0.253087984 1.6228731471
| 18> H 3.9397575446 -0.8857167132 0.1963021173
| 19> H 3.2569981898 -0.904271671 1.815360584
| 20> H 3.7637848105 0.6312097846 1.0888844294
| 21> H 2.0107757222 1.9198969569 0.1205277281
| 22> H -0.5846774257 -2.1541409687 -0.9284259768
| 23> H 0.5719429541 -1.2605809419 -1.9068941579
| 24> H 0.6975102548 -1.6893709557 1.1022553375
| 25> H 1.8109224619 -2.2538899681 -0.1299413126
| 26> H -2.3851366735 0.9901376816 0.1084086248
| 27> H -3.3422710456 -0.847300115 -1.2687009939
| 28> H -3.8951421855 -0.9142458471 0.404318434
| 29> H -2.6652166001 -2.0398699836 -0.1559958094
| 30> H -0.6965724657 0.3737846072 1.8974620452
| 31> H -1.2849623901 -1.2963065112 1.7912177028
| 32> H -2.3729825399 -0.0079856081 2.2811970283
| 33> *
| 34>
| 35>                          ****END OF INPUT****

CARTESIAN COORDINATES (ANGSTROEM)
---------------------------------
  C      3.304623   -0.332959    0.888798
  C      1.937433   -0.176217    0.310088
  C      1.432484    1.016594   -0.020422
  C      0.084191    1.226135   -0.539546
  O     -0.362191    2.342537   -0.717006
  C     -0.766703   -0.003807   -0.825560
  H     -1.224593    0.176344   -1.806511
  C      0.068942   -1.280990   -0.935911
  C      1.142646   -1.431148    0.138577
  C     -1.951535   -0.014838    0.171471
  C     -3.026510   -1.017321   -0.242072
  C     -1.541725   -0.253088    1.622873
  H      3.939758   -0.885717    0.196302
  H      3.256998   -0.904272    1.815361
  H      3.763785    0.631210    1.088884
  H      2.010776    1.919897    0.120528
  H     -0.584677   -2.154141   -0.928426
  H      0.571943   -1.260581   -1.906894
  H      0.697510   -1.689371    1.102255
  H      1.810922   -2.253890   -0.129941
  H     -2.385137    0.990138    0.108409
  H     -3.342271   -0.847300   -1.268701
  H     -3.895142   -0.914246    0.404318
  H     -2.665217   -2.039870   -0.155996
  H     -0.696572    0.373785    1.897462
  H     -1.284962   -1.296307    1.791218
  H     -2.372983   -0.007986    2.281197

 Total Charge           Charge          ....    0
 Multiplicity           Mult            ....    1
 Number of Electrons    NEL             ....   84
 Basis Dimension        Dim             ....  186

ORBITAL ENERGIES
----------------

  NO   OCC          E(Eh)            E(eV)
   0   2.0000     -18.720661      -509.4151
   1   2.0000      -9.958499      -270.9845
   2   2.0000      -9.923142      -270.0224
   3   2.0000      -9.901232      -269.4262
   4   2.0000      -9.898209      -269.3440
   5   2.0000      -9.894935      -269.2549
   6   2.0000      -9.894914      -269.2543
   7   2.0000      -9.893894      -269.2266
   8   2.0000      -9.886845      -269.0347
   9   2.0000      -9.875732      -268.7323
  10   2.0000      -9.874693      -268.7041
  11   2.0000      -0.922949       -25.1147
  12   2.0000      -0.772293       -21.0152
  13   2.0000      -0.731805       -19.9134
  14   2.0000      -0.682962       -18.5843
  15   2.0000      -0.654415       -17.8075
  16   2.0000      -0.626383       -17.0447
  17   2.0000      -0.612538       -16.6680
  18   2.0000      -0.560616       -15.2551
  19   2.0000      -0.517435       -14.0801
  20   2.0000      -0.496658       -13.5147
  21   2.0000      -0.454751       -12.3744
  22   2.0000      -0.438876       -11.9424
  23   2.0000      -0.423205       -11.5160
  24   2.0000      -0.401591       -10.9278
  25   2.0000      -0.398603       -10.8465
  26   2.0000      -0.392867       -10.6905
  27   2.0000      -0.371828       -10.1180
  28   2.0000      -0.371629       -10.1125
  29   2.0000      -0.359068        -9.7707
  30   2.0000      -0.348294        -9.4776
  31   2.0000      -0.342829        -9.3288
  32   2.0000      -0.340561        -9.2671
  33   2.0000      -0.335139        -9.1196
  34   2.0000      -0.324569        -8.8320
  35   2.0000      -0.313558        -8.5323
  36   2.0000      -0.299535        -8.1508
  37   2.0000      -0.287311        -7.8181
  38   2.0000      -0.276202        -7.5158
  39   2.0000      -0.270128        -7.3506
  40   2.0000      -0.232107        -6.3160
  41   2.0000      -0.183270        -4.9870
  42   0.0000      -0.077404        -2.1063
  43   0.0000       0.022305         0.6070
  44   0.0000       0.028006         0.7621
  45   0.0000       0.046101         1.2545
  46   0.0000       0.062523         1.7013

MULLIKEN ATOMIC CHARGES
-----------------------
   0 C :   -0.220855
   1 C :   -0.082744
   2 C :   -0.140887
   3 C :    0.090540
   4 O :   -0.170762
   5 C :   -0.134437
   6 H :    0.074690
   7 C :   -0.115174
   8 C :   -0.100392
   9 C :   -0.174958
  10 C :   -0.230336
  11 C :   -0.257958
  12 H :    0.122320
  13 H :    0.117973
  14 H :    0.112205
  15 H :    0.041692
  16 H :    0.082454
  17 H :    0.089693
  18 H :    0.106866
  19 H :    0.090084
  20 H :    0.086843
  21 H :    0.098399
  22 H :    0.100753
  23 H :    0.096718
  24 H :    0.113497
  25 H :    0.101474
  26 H :    0.102300
Sum of atomic charges:   -0.0000000

LOEWDIN ATOMIC CHARGES
----------------------
   0 C :   -0.322063
   1 C :   -0.015825
   2 C :   -0.174377
   3 C :    0.038424
   4 O :   -0.135729
   5 C :   -0.158667
   6 H :    0.134556
   7 C :   -0.212273
   8 C :   -0.217332
   9 C :   -0.141357
  10 C :   -0.329816
  11 C :   -0.334212
  12 H :    0.137769
  13 H :    0.135179
  14 H :    0.128995
  15 H :    0.127717
  16 H :    0.119270
  17 H :    0.123982
  18 H :    0.136051
  19 H :    0.126243
  20 H :    0.124034
  21 H :    0.118438
  22 H :    0.120923
  23 H :    0.113056
  24 H :    0.121164
  25 H :    0.113317
  26 H :    0.122532

  Mayer bond orders larger than 0.100000
B(  0-C ,  1-C ) :   1.1226 B(  0-C , 12-H ) :   0.9230 B(  0-C , 13-H ) :   0.9296
B(  0-C , 14-H ) :   0.9423 B(  1-C ,  2-C ) :   1.7130 B(  1-C ,  8-C ) :   1.0803
B(  2-C ,  3-C ) :   1.0702 B(  2-C , 15-H ) :   0.9340 B(  3-C ,  4-O ) :   2.0963
B(  3-C ,  5-C ) :   0.9515 B(  5-C ,  6-H ) :   0.8546 B(  5-C ,  7-C ) :   1.0548
B(  5-C ,  9-C ) :   1.0530 B(  7-C ,  8-C ) :   1.1404 B(  7-C , 16-H ) :   0.9047
B(  7-C , 17-H ) :   0.9133 B(  8-C , 18-H ) :   0.8606 B(  8-C , 19-H ) :   0.9041
B(  9-C , 10-C ) :   1.1176 B(  9-C , 11-C ) :   1.1209 B(  9-C , 20-H ) :   0.8859
B( 10-C , 21-H ) :   0.9475 B( 10-C , 22-H ) :   0.9480 B( 10-C , 23-H ) :   0.9380
B( 11-C , 24-H ) :   0.9427 B( 11-C , 25-H ) :   0.9335 B( 11-C , 26-H ) :   0.9430

Dispersion correction           -0.029036843
FINAL SINGLE POINT ENERGY      -464.842695904648

DIPOLE MOMENT
-------------

Method             : SCF
Type of density    : Electron Density
Multiplicity       :   1
Irrep              :   0
Energy             :  -464.9271472079699379 Eh
Relativity type    :
Basis              : AO
                                X                 Y                 Z
Electronic contribution:      2.846794339       8.229819438      -3.962294149
Nuclear contribution   :     -2.256841903      -9.499198665       4.313813471
                        -----------------------------------------
Total Dipole Moment    :      0.589952436      -1.269379227       0.351519322
                        -----------------------------------------
Magnitude (a.u.)       :      1.443237102
Magnitude (Debye)      :      3.668417178

Rotational constants in cm-1:             0.055462             0.027968             0.023254
Rotational constants in MHz :          1662.707213           838.466615           697.129203

                             ****ORCA TERMINATED NORMALLY****
TOTAL RUN TIME: 0 days 0 hours 0 minutes 29 seconds 193 msec
