                         Program Version 6.0.1  -  RELEASE   -
|  1> ! pbe def2-sv(p) def2/J RI DEFGRID1 loosescf d4 GCP(DFT/SV(P)) printgap
|  2> %output
|  3>     printlevel normal
|  4> end
|  5> * xyz 0 1
|  6> C -2.2921771576 -1.0338897327 -0.3051433593
|  7> C -0.9159460809 -0.5605923246 0.1587552833
|  8> H -0.8268441513 -0.7615218233 1.2382321593
|  9> C -0.7455602701 0.9623374175 -0.063910266
| 10> H -1.3792063766 1.2914582614 -0.9009798982
| 11> C 0.721174984 1.2445511622 -0.4467905114
| 12> H 0.9385806012 2.3025720025 -0.2708064678
| 13> C 1.633198359 0.3672962295 0.4284643712
| 14> H 2.6863625955 0.5660630338 0.188353064
| 15> C 1.3627322901 -1.1250694057 0.0714434855
| 16> H 1.4033082868 -1.7258289078 0.9918962546
| 17> O 0.0782430663 -1.2765126821 -0.5384011231
| 18> O 2.3032525009 -1.6480093934 -0.7859537105
| 19> O 1.4590528484 0.6214752775 1.7954795461
| 20> O 0.9394041923 1.0052987255 -1.8134438058
| 21> O -1.0690949893 1.6793116141 1.103990121
| 22> O -3.247762779 -0.2542069397 0.3830315992
| 23> H -2.4034395997 -2.1002046787 -0.0776145569
| 24> H -2.3764832671 -0.8955225743 -1.3911816372
| 25> H 2.3550047011 -1.098178393 -1.5800853752
| 26> H 0.6153528167 1.081979677 1.9273122814
| 27> H 0.5745968327 0.1297731486 -2.0145597785
| 28> H -1.9895560052 1.4787853701 1.3200741895
| 29> H -4.1295771325 -0.5587196313 0.1454543602
| 30> *
| 31>
| 32>                          ****END OF INPUT****

CARTESIAN COORDINATES (ANGSTROEM)
---------------------------------
  C     -2.292177   -1.033890   -0.305143
  C     -0.915946   -0.560592    0.158755
  H     -0.826844   -0.761522    1.238232
  C     -0.745560    0.962337   -0.063910
  H     -1.379206    1.291458   -0.900980
  C      0.721175    1.244551   -0.446791
  H      0.938581    2.302572   -0.270806
  C      1.633198    0.367296    0.428464
  H      2.686363    0.566063    0.188353
  C      1.362732   -1.125069    0.071443
  H      1.403308   -1.725829    0.991896
  O      0.078243   -1.276513   -0.538401
  O      2.303253   -1.648009   -0.785954
  O      1.459053    0.621475    1.795480
  O      0.939404    1.005299   -1.813444
  O     -1.069095    1.679312    1.103990
  O     -3.247763   -0.254207    0.383032
  H     -2.403440   -2.100205   -0.077615
  H     -2.376483   -0.895523   -1.391182
  H      2.355005   -1.098178   -1.580085
  H      0.615353    1.081980    1.927312
  H      0.574597    0.129773   -2.014560
  H     -1.989556    1.478785    1.320074
  H     -4.129577   -0.558720    0.145454

 Total Charge           Charge          ....    0
 Multiplicity           Mult            ....    1
 Number of Electrons    NEL             ....   96
 Basis Dimension        Dim             ....  192

ORBITAL ENERGIES
----------------

  NO   OCC          E(Eh)            E(eV)
   0   2.0000     -18.783833      -511.1341
   1   2.0000     -18.782357      -511.0939
   2   2.0000     -18.772523      -510.8263
   3   2.0000     -18.759985      -510.4851
   4   2.0000     -18.759704      -510.4775
   5   2.0000     -18.739752      -509.9346
   6   2.0000      -9.983756      -271.6718
   7   2.0000      -9.955211      -270.8951
   8   2.0000      -9.954280      -270.8697
   9   2.0000      -9.951222      -270.7865
  10   2.0000      -9.947483      -270.6848
  11   2.0000      -9.934983      -270.3446
  12   2.0000      -0.992168       -26.9983
  13   2.0000      -0.958022       -26.0691
  14   2.0000      -0.949697       -25.8426
  15   2.0000      -0.935845       -25.4656
  16   2.0000      -0.923203       -25.1216
  17   2.0000      -0.917926       -24.9780
  18   2.0000      -0.709729       -19.3127
  19   2.0000      -0.685758       -18.6604
  20   2.0000      -0.630598       -17.1594
  21   2.0000      -0.586946       -15.9716
  22   2.0000      -0.573948       -15.6179
  23   2.0000      -0.533296       -14.5117
  24   2.0000      -0.513534       -13.9740
  25   2.0000      -0.502501       -13.6738
  26   2.0000      -0.487174       -13.2567
  27   2.0000      -0.467450       -12.7200
  28   2.0000      -0.450041       -12.2462
  29   2.0000      -0.443461       -12.0672
  30   2.0000      -0.422241       -11.4898
  31   2.0000      -0.411357       -11.1936
  32   2.0000      -0.388335       -10.5671
  33   2.0000      -0.378094       -10.2885
  34   2.0000      -0.363231        -9.8840
  35   2.0000      -0.355781        -9.6813
  36   2.0000      -0.337485        -9.1834
  37   2.0000      -0.329939        -8.9781
  38   2.0000      -0.321910        -8.7596
  39   2.0000      -0.303216        -8.2509
  40   2.0000      -0.288133        -7.8405
  41   2.0000      -0.286766        -7.8033
  42   2.0000      -0.256690        -6.9849
  43   2.0000      -0.254039        -6.9127
  44   2.0000      -0.248633        -6.7656
  45   2.0000      -0.227822        -6.1993
  46   2.0000      -0.225321        -6.1313
  47   2.0000      -0.199749        -5.4355
  48   0.0000      -0.004571        -0.1244
  49   0.0000       0.017587         0.4786
  50   0.0000       0.043390         1.1807
  51   0.0000       0.047903         1.3035
  52   0.0000       0.057280         1.5587

MULLIKEN ATOMIC CHARGES
-----------------------
   0 C :    0.064759
   1 C :   -0.006412
   2 H :    0.065692
   3 C :    0.013515
   4 H :    0.073636
   5 C :    0.029522
   6 H :    0.092160
   7 C :    0.023530
   8 H :    0.079996
   9 C :    0.173303
  10 H :    0.076976
  11 O :   -0.308751
  12 O :   -0.369643
  13 O :   -0.420787
  14 O :   -0.420256
  15 O :   -0.419152
  16 O :   -0.446873
  17 H :    0.093382
  18 H :    0.078624
  19 H :    0.291552
  20 H :    0.306433
  21 H :    0.297671
  22 H :    0.315930
  23 H :    0.315193
Sum of atomic charges:    0.0000000

LOEWDIN ATOMIC CHARGES
----------------------
   0 C :   -0.119461
   1 C :   -0.077914
   2 H :    0.109332
   3 C :   -0.081490
   4 H :    0.109784
   5 C :   -0.070863
   6 H :    0.123727
   7 C :   -0.093588
   8 H :    0.114632
   9 C :   -0.002435
  10 H :    0.108227
  11 O :   -0.160274
  12 O :   -0.281300
  13 O :   -0.321795
  14 O :   -0.312088
  15 O :   -0.310052
  16 O :   -0.341436
  17 H :    0.106928
  18 H :    0.100272
  19 H :    0.276719
  20 H :    0.273355
  21 H :    0.265470
  22 H :    0.288000
  23 H :    0.296248

  Mayer bond orders larger than 0.100000
B(  0-C ,  1-C ) :   1.0677 B(  0-C , 16-O ) :   1.0647 B(  0-C , 17-H ) :   0.9174
B(  0-C , 18-H ) :   0.9080 B(  1-C ,  2-H ) :   0.8591 B(  1-C ,  3-C ) :   0.9872
B(  1-C , 11-O ) :   1.0330 B(  3-C ,  4-H ) :   0.8892 B(  3-C ,  5-C ) :   1.0027
B(  3-C , 15-O ) :   1.0408 B(  5-C ,  6-H ) :   0.8903 B(  5-C ,  7-C ) :   0.9951
B(  5-C , 14-O ) :   1.0428 B(  7-C ,  8-H ) :   0.9013 B(  7-C ,  9-C ) :   0.9226
B(  7-C , 13-O ) :   1.0877 B(  9-C , 10-H ) :   0.8975 B(  9-C , 11-O ) :   0.9563
B(  9-C , 12-O ) :   1.1617 B( 12-O , 19-H ) :   0.8320 B( 13-O , 20-H ) :   0.8042
B( 14-O , 21-H ) :   0.8135 B( 15-O , 20-H ) :   0.1105 B( 15-O , 22-H ) :   0.8222
B( 16-O , 23-H ) :   0.8450

Dispersion correction           -0.025355827
FINAL SINGLE POINT ENERGY      -685.694208538411

DIPOLE MOMENT
-------------

Method             : SCF
Type of density    : Electron Density
Multiplicity       :   1
Irrep              :   0
Energy             :  -685.8292397165515695 Eh
Relativity type    :
Basis              : AO
                                X                 Y                 Z
Electronic contribution:      2.383006178       0.023518093      -0.013792687
Nuclear contribution   :     -4.244833298      -0.269567655      -0.395551688
                        -----------------------------------------
Total Dipole Moment    :     -1.861827120      -0.246049561      -0.409344375
                        -----------------------------------------
Magnitude (a.u.)       :      1.922109110
Magnitude (Debye)      :      4.885613091

Rotational constants in cm-1:             0.044409             0.025738             0.022084
Rotational constants in MHz :          1331.355180           771.610639           662.068281

                             ****ORCA TERMINATED NORMALLY****
TOTAL RUN TIME: 0 days 0 hours 0 minutes 7 seconds 831 msec
