                         Program Version 6.0.1  -  RELEASE   -
|  1> ! pbe def2-sv(p) def2/J RI DEFGRID1 loosescf d4 GCP(DFT/SV(P)) printgap
|  2> %output
|  3>     printlevel normal
|  4> end
|  5> * xyz 0 1
|  6> C -1.8542341906 -0.8395115116 0.4628601333
|  7> S -0.8933902651 0.4119168516 -0.4718041393
|  8> S 0.8988503087 0.4177299061 0.4718885886
|  9> C 1.8412984606 -0.8360390683 -0.4645815568
| 10> H -1.2123311821 -1.2789662063 1.2178035042
| 11> H -2.1986663092 -1.5966339184 -0.2340026948
| 12> H -2.6991179786 -0.3448579359 0.9301555698
| 13> H 2.8361952659 -0.8509210921 -0.0331627512
| 14> H 1.8852645146 -0.5439106875 -1.5083986125
| 15> H 1.3691319816 -1.8074078853 -0.3545672829
| 16> *
| 17>
| 18>                          ****END OF INPUT****

CARTESIAN COORDINATES (ANGSTROEM)
---------------------------------
  C     -1.854234   -0.839512    0.462860
  S     -0.893390    0.411917   -0.471804
  S      0.898850    0.417730    0.471889
  C      1.841298   -0.836039   -0.464582
  H     -1.212331   -1.278966    1.217804
  H     -2.198666   -1.596634   -0.234003
  H     -2.699118   -0.344858    0.930156
  H      2.836195   -0.850921   -0.033163
  H      1.885265   -0.543911   -1.508399
  H      1.369132   -1.807408   -0.354567

 Total Charge           Charge          ....    0
 Multiplicity           Mult            ....    1
 Number of Electrons    NEL             ....   50
 Basis Dimension        Dim             ....   76

ORBITAL ENERGIES
----------------

  NO   OCC          E(Eh)            E(eV)
   0   2.0000     -88.040161     -2395.6946
   1   2.0000     -88.039613     -2395.6797
   2   2.0000      -9.908657      -269.6283
   3   2.0000      -9.908014      -269.6108
   4   2.0000      -7.683876      -209.0889
   5   2.0000      -7.683366      -209.0750
   6   2.0000      -5.713263      -155.4658
   7   2.0000      -5.712774      -155.4525
   8   2.0000      -5.708322      -155.3313
   9   2.0000      -5.707802      -155.3172
  10   2.0000      -5.699787      -155.0991
  11   2.0000      -5.699206      -155.0833
  12   2.0000      -0.751818       -20.4580
  13   2.0000      -0.679468       -18.4893
  14   2.0000      -0.605986       -16.4897
  15   2.0000      -0.522176       -14.2091
  16   2.0000      -0.405904       -11.0452
  17   2.0000      -0.392095       -10.6694
  18   2.0000      -0.389138       -10.5890
  19   2.0000      -0.377799       -10.2804
  20   2.0000      -0.358012        -9.7420
  21   2.0000      -0.320402        -8.7186
  22   2.0000      -0.282751        -7.6941
  23   2.0000      -0.201190        -5.4747
  24   2.0000      -0.200062        -5.4440
  25   0.0000      -0.034057        -0.9267
  26   0.0000       0.020009         0.5445
  27   0.0000       0.025382         0.6907
  28   0.0000       0.049364         1.3433
  29   0.0000       0.081244         2.2108

MULLIKEN ATOMIC CHARGES
-----------------------
   0 C :   -0.367132
   1 S :   -0.077874
   2 S :   -0.079411
   3 C :   -0.356092
   4 H :    0.146651
   5 H :    0.147027
   6 H :    0.151868
   7 H :    0.143071
   8 H :    0.151065
   9 H :    0.140828
Sum of atomic charges:   -0.0000000

LOEWDIN ATOMIC CHARGES
----------------------
   0 C :   -0.475695
   1 S :    0.091613
   2 S :    0.097379
   3 C :   -0.473626
   4 H :    0.128785
   5 H :    0.125690
   6 H :    0.127866
   7 H :    0.129872
   8 H :    0.126614
   9 H :    0.121502

  Mayer bond orders larger than 0.100000
B(  0-C ,  1-S ) :   0.9779 B(  0-C ,  4-H ) :   0.9410 B(  0-C ,  5-H ) :   0.9456
B(  0-C ,  6-H ) :   0.9473 B(  1-S ,  2-S ) :   1.1503 B(  2-S ,  3-C ) :   0.9855
B(  3-C ,  7-H ) :   0.9369 B(  3-C ,  8-H ) :   0.9476 B(  3-C ,  9-H ) :   0.9491

Dispersion correction           -0.008096316
FINAL SINGLE POINT ENERGY      -875.391402073132

DIPOLE MOMENT
-------------

Method             : SCF
Type of density    : Electron Density
Multiplicity       :   1
Irrep              :   0
Energy             :  -875.4195692622115530 Eh
Relativity type    :
Basis              : AO
                                X                 Y                 Z
Electronic contribution:      0.016672770       5.302312867      -0.002836149
Nuclear contribution   :     -0.018474631      -6.049603209       0.016723008
                        -----------------------------------------
Total Dipole Moment    :     -0.001801861      -0.747290342       0.013886859
                        -----------------------------------------
Magnitude (a.u.)       :      0.747421532
Magnitude (Debye)      :      1.899794556

Rotational constants in cm-1:             0.277104             0.091086             0.085423
Rotational constants in MHz :          8307.372832          2730.693668          2560.923465

                             ****ORCA TERMINATED NORMALLY****
TOTAL RUN TIME: 0 days 0 hours 0 minutes 15 seconds 166 msec
