                         Program Version 6.0.1  -  RELEASE   -
|  1> ! pbe def2-sv(p) def2/J RI DEFGRID1 loosescf d4 GCP(DFT/SV(P)) printgap
|  2> %output
|  3>     printlevel normal
|  4> end
|  5> * xyz 0 1
|  6> C -1.8801595427 -0.6910969038 -0.1879526004
|  7> C -0.961097224 0.455712725 0.2090623968
|  8> C 0.502747125 0.0913136164 0.0148185403
|  9> O 0.8945012244 -0.971721198 -0.4035706396
| 10> N 1.358200935 1.087352849 0.3601138262
| 11> H -1.7241971934 -0.9497058831 -1.2317380003
| 12> H -1.6594754507 -1.5705461524 0.4108698203
| 13> H -2.9216687683 -0.4148356685 -0.0425245346
| 14> H -1.1129741799 0.7182548299 1.259001104
| 15> H -1.1768335975 1.341611091 -0.3934794854
| 16> H 1.0410185293 1.9736059654 0.7080188656
| 17> H 2.347704806 0.9327325061 0.2635068682
| 18> *
| 19>
| 20>                          ****END OF INPUT****

CARTESIAN COORDINATES (ANGSTROEM)
---------------------------------
  C     -1.880160   -0.691097   -0.187953
  C     -0.961097    0.455713    0.209062
  C      0.502747    0.091314    0.014819
  O      0.894501   -0.971721   -0.403571
  N      1.358201    1.087353    0.360114
  H     -1.724197   -0.949706   -1.231738
  H     -1.659475   -1.570546    0.410870
  H     -2.921669   -0.414836   -0.042525
  H     -1.112974    0.718255    1.259001
  H     -1.176834    1.341611   -0.393479
  H      1.041019    1.973606    0.708019
  H      2.347705    0.932733    0.263507

 Total Charge           Charge          ....    0
 Multiplicity           Mult            ....    1
 Number of Electrons    NEL             ....   40
 Basis Dimension        Dim             ....   84

ORBITAL ENERGIES
----------------

  NO   OCC          E(Eh)            E(eV)
   0   2.0000     -18.709412      -509.1090
   1   2.0000     -14.003494      -381.0544
   2   2.0000      -9.976324      -271.4696
   3   2.0000      -9.892524      -269.1893
   4   2.0000      -9.871094      -268.6061
   5   2.0000      -0.931022       -25.3344
   6   2.0000      -0.813437       -22.1347
   7   2.0000      -0.693821       -18.8798
   8   2.0000      -0.583129       -15.8678
   9   2.0000      -0.514384       -13.9971
  10   2.0000      -0.480861       -13.0849
  11   2.0000      -0.422982       -11.5099
  12   2.0000      -0.417125       -11.3505
  13   2.0000      -0.353420        -9.6171
  14   2.0000      -0.342241        -9.3129
  15   2.0000      -0.326219        -8.8769
  16   2.0000      -0.312716        -8.5094
  17   2.0000      -0.299897        -8.1606
  18   2.0000      -0.224991        -6.1223
  19   2.0000      -0.197188        -5.3658
  20   0.0000       0.003758         0.1023
  21   0.0000       0.026634         0.7248
  22   0.0000       0.054596         1.4856
  23   0.0000       0.082701         2.2504
  24   0.0000       0.101517         2.7624

MULLIKEN ATOMIC CHARGES
-----------------------
   0 C :   -0.253166
   1 C :   -0.251561
   2 C :    0.045600
   3 O :   -0.197753
   4 N :   -0.323537
   5 H :    0.111407
   6 H :    0.111349
   7 H :    0.096073
   8 H :    0.105749
   9 H :    0.105822
  10 H :    0.222331
  11 H :    0.227687
Sum of atomic charges:    0.0000000

LOEWDIN ATOMIC CHARGES
----------------------
   0 C :   -0.336028
   1 C :   -0.269897
   2 C :    0.010125
   3 O :   -0.185524
   4 N :   -0.308736
   5 H :    0.125987
   6 H :    0.125976
   7 H :    0.117642
   8 H :    0.130249
   9 H :    0.130332
  10 H :    0.229071
  11 H :    0.230804

  Mayer bond orders larger than 0.100000
B(  0-C ,  1-C ) :   1.1730 B(  0-C ,  5-H ) :   0.9542 B(  0-C ,  6-H ) :   0.9542
B(  0-C ,  7-H ) :   0.9479 B(  1-C ,  2-C ) :   0.9734 B(  1-C ,  8-H ) :   0.9102
B(  1-C ,  9-H ) :   0.9100 B(  2-C ,  3-O ) :   2.1239 B(  2-C ,  4-N ) :   1.2709
B(  4-N , 10-H ) :   0.8762 B(  4-N , 11-H ) :   0.8702

Dispersion correction           -0.007408025
FINAL SINGLE POINT ENERGY      -247.974195621621

DIPOLE MOMENT
-------------

Method             : SCF
Type of density    : Electron Density
Multiplicity       :   1
Irrep              :   0
Energy             :  -248.0202426557165438 Eh
Relativity type    :
Basis              : AO
                                X                 Y                 Z
Electronic contribution:      4.821259849      -0.602682389      -0.417197031
Nuclear contribution   :     -4.863795317       1.897079644       0.909441255
                        -----------------------------------------
Total Dipole Moment    :     -0.042535468       1.294397255       0.492244224
                        -----------------------------------------
Magnitude (a.u.)       :      1.385488324
Magnitude (Debye)      :      3.521631450

Rotational constants in cm-1:             0.330410             0.128567             0.095848
Rotational constants in MHz :          9905.437013          3854.341850          2873.449211

                             ****ORCA TERMINATED NORMALLY****
TOTAL RUN TIME: 0 days 0 hours 0 minutes 17 seconds 757 msec
