                         Program Version 6.0.1  -  RELEASE   -
|  1> ! pbe def2-sv(p) def2/J RI DEFGRID1 loosescf d4 GCP(DFT/SV(P)) printgap
|  2> %output
|  3>     printlevel normal
|  4> end
|  5> * xyz 0 1
|  6> C -2.3250200886 -0.9835503796 -0.318115204
|  7> C -0.9352077419 -0.533637229 0.1400775417
|  8> H -0.8524348947 -0.7240360283 1.2228922576
|  9> C -0.7256581205 0.9794771704 -0.1048380565
| 10> H -1.3116085624 1.3054215759 -0.9728109208
| 11> C 0.7627583781 1.2514997059 -0.4265455127
| 12> H 0.9837730043 2.2927629916 -0.1686153891
| 13> C 1.6432434264 0.3216972329 0.4278554262
| 14> H 2.6967802101 0.491478173 0.1727644874
| 15> C 1.3192420394 -1.1502040702 0.0684923212
| 16> H 1.3247945662 -1.7516034523 1.0064078093
| 17> O 0.0537792775 -1.2859650672 -0.539496815
| 18> O 2.2757678895 -1.6055624008 -0.8209170813
| 19> O 1.3832313317 0.6063343883 1.7836506711
| 20> O 1.0471203891 1.1149006149 -1.7864690571
| 21> O -1.1882921509 1.7356782877 0.98286128
| 22> O -3.3268449442 -0.4096759888 0.4735004136
| 23> H -2.4180471925 -2.0670052299 -0.2111638645
| 24> H -2.4547976936 -0.7258261259 -1.37977074
| 25> H 1.961569213 -2.428170809 -1.2162298228
| 26> H 2.0440471716 0.1741593723 2.3354784642
| 27> H 0.9478532223 0.1845090027 -2.0300900993
| 28> H -0.5682821348 1.6126891055 1.7147987478
| 29> H -3.1329598169 0.5309570826 0.5871694233
| 30> *
| 31>
| 32>                          ****END OF INPUT****

CARTESIAN COORDINATES (ANGSTROEM)
---------------------------------
  C     -2.325020   -0.983550   -0.318115
  C     -0.935208   -0.533637    0.140078
  H     -0.852435   -0.724036    1.222892
  C     -0.725658    0.979477   -0.104838
  H     -1.311609    1.305422   -0.972811
  C      0.762758    1.251500   -0.426546
  H      0.983773    2.292763   -0.168615
  C      1.643243    0.321697    0.427855
  H      2.696780    0.491478    0.172764
  C      1.319242   -1.150204    0.068492
  H      1.324795   -1.751603    1.006408
  O      0.053779   -1.285965   -0.539497
  O      2.275768   -1.605562   -0.820917
  O      1.383231    0.606334    1.783651
  O      1.047120    1.114901   -1.786469
  O     -1.188292    1.735678    0.982861
  O     -3.326845   -0.409676    0.473500
  H     -2.418047   -2.067005   -0.211164
  H     -2.454798   -0.725826   -1.379771
  H      1.961569   -2.428171   -1.216230
  H      2.044047    0.174159    2.335478
  H      0.947853    0.184509   -2.030090
  H     -0.568282    1.612689    1.714799
  H     -3.132960    0.530957    0.587169

 Total Charge           Charge          ....    0
 Multiplicity           Mult            ....    1
 Number of Electrons    NEL             ....   96
 Basis Dimension        Dim             ....  192

ORBITAL ENERGIES
----------------

  NO   OCC          E(Eh)            E(eV)
   0   2.0000     -18.789040      -511.2758
   1   2.0000     -18.785714      -511.1853
   2   2.0000     -18.780388      -511.0403
   3   2.0000     -18.755507      -510.3633
   4   2.0000     -18.749302      -510.1944
   5   2.0000     -18.740544      -509.9561
   6   2.0000     -10.003482      -272.2086
   7   2.0000      -9.955830      -270.9119
   8   2.0000      -9.946366      -270.6544
   9   2.0000      -9.946074      -270.6464
  10   2.0000      -9.942281      -270.5432
  11   2.0000      -9.931258      -270.2433
  12   2.0000      -1.004093       -27.3228
  13   2.0000      -0.960351       -26.1325
  14   2.0000      -0.943394       -25.6710
  15   2.0000      -0.930628       -25.3237
  16   2.0000      -0.928726       -25.2719
  17   2.0000      -0.917895       -24.9772
  18   2.0000      -0.700499       -19.0616
  19   2.0000      -0.697215       -18.9722
  20   2.0000      -0.624537       -16.9945
  21   2.0000      -0.596847       -16.2410
  22   2.0000      -0.570129       -15.5140
  23   2.0000      -0.532754       -14.4970
  24   2.0000      -0.521348       -14.1866
  25   2.0000      -0.498196       -13.5566
  26   2.0000      -0.481205       -13.0943
  27   2.0000      -0.475868       -12.9490
  28   2.0000      -0.459795       -12.5117
  29   2.0000      -0.434094       -11.8123
  30   2.0000      -0.422582       -11.4990
  31   2.0000      -0.400640       -10.9020
  32   2.0000      -0.385918       -10.5014
  33   2.0000      -0.378827       -10.3084
  34   2.0000      -0.370374       -10.0784
  35   2.0000      -0.349454        -9.5091
  36   2.0000      -0.345654        -9.4057
  37   2.0000      -0.328589        -8.9413
  38   2.0000      -0.319169        -8.6850
  39   2.0000      -0.296579        -8.0703
  40   2.0000      -0.291495        -7.9320
  41   2.0000      -0.278656        -7.5826
  42   2.0000      -0.265836        -7.2338
  43   2.0000      -0.254881        -6.9357
  44   2.0000      -0.254318        -6.9203
  45   2.0000      -0.223963        -6.0943
  46   2.0000      -0.215661        -5.8684
  47   2.0000      -0.200659        -5.4602
  48   0.0000      -0.000671        -0.0183
  49   0.0000       0.018832         0.5124
  50   0.0000       0.035902         0.9769
  51   0.0000       0.050419         1.3720
  52   0.0000       0.056289         1.5317

MULLIKEN ATOMIC CHARGES
-----------------------
   0 C :    0.093598
   1 C :   -0.017558
   2 H :    0.060291
   3 C :    0.038800
   4 H :    0.075234
   5 C :    0.043802
   6 H :    0.081849
   7 C :    0.014066
   8 H :    0.094442
   9 C :    0.172133
  10 H :    0.046176
  11 O :   -0.316515
  12 O :   -0.378790
  13 O :   -0.422025
  14 O :   -0.406914
  15 O :   -0.427607
  16 O :   -0.438764
  17 H :    0.083949
  18 H :    0.070647
  19 H :    0.309117
  20 H :    0.314627
  21 H :    0.294127
  22 H :    0.310563
  23 H :    0.304753
Sum of atomic charges:    0.0000000

LOEWDIN ATOMIC CHARGES
----------------------
   0 C :   -0.117074
   1 C :   -0.083032
   2 H :    0.104991
   3 C :   -0.085938
   4 H :    0.117506
   5 C :   -0.067935
   6 H :    0.121578
   7 C :   -0.090067
   8 H :    0.119114
   9 C :   -0.006322
  10 H :    0.079700
  11 O :   -0.158756
  12 O :   -0.292937
  13 O :   -0.313743
  14 O :   -0.304824
  15 O :   -0.311799
  16 O :   -0.332534
  17 H :    0.111268
  18 H :    0.094396
  19 H :    0.291759
  20 H :    0.294732
  21 H :    0.270590
  22 H :    0.279855
  23 H :    0.279473

  Mayer bond orders larger than 0.100000
B(  0-C ,  1-C ) :   1.0510 B(  0-C , 16-O ) :   1.0851 B(  0-C , 17-H ) :   0.9198
B(  0-C , 18-H ) :   0.9062 B(  1-C ,  2-H ) :   0.8655 B(  1-C ,  3-C ) :   0.9641
B(  1-C , 11-O ) :   0.9927 B(  3-C ,  4-H ) :   0.8844 B(  3-C ,  5-C ) :   0.9811
B(  3-C , 15-O ) :   1.0181 B(  5-C ,  6-H ) :   0.8894 B(  5-C ,  7-C ) :   1.0160
B(  5-C , 14-O ) :   1.0748 B(  7-C ,  8-H ) :   0.8939 B(  7-C ,  9-C ) :   0.9268
B(  7-C , 13-O ) :   1.0357 B(  9-C , 10-H ) :   0.8994 B(  9-C , 11-O ) :   1.0197
B(  9-C , 12-O ) :   1.1504 B( 12-O , 19-H ) :   0.8379 B( 13-O , 20-H ) :   0.8407
B( 14-O , 21-H ) :   0.8327 B( 15-O , 22-H ) :   0.8247 B( 16-O , 23-H ) :   0.8301

Dispersion correction           -0.025136748
FINAL SINGLE POINT ENERGY      -685.692849224666

DIPOLE MOMENT
-------------

Method             : SCF
Type of density    : Electron Density
Multiplicity       :   1
Irrep              :   0
Energy             :  -685.8262622012324528 Eh
Relativity type    :
Basis              : AO
                                X                 Y                 Z
Electronic contribution:      1.827737538       0.207466201      -0.436949932
Nuclear contribution   :     -0.727502061      -1.034056314       0.996619002
                        -----------------------------------------
Total Dipole Moment    :      1.100235478      -0.826590113       0.559669071
                        -----------------------------------------
Magnitude (a.u.)       :      1.485597115
Magnitude (Debye)      :      3.776087777

Rotational constants in cm-1:             0.043628             0.025402             0.021868
Rotational constants in MHz :          1307.934342           761.531531           655.593752

                             ****ORCA TERMINATED NORMALLY****
TOTAL RUN TIME: 0 days 0 hours 0 minutes 8 seconds 282 msec
