                         Program Version 6.0.1  -  RELEASE   -
|  1> ! r2scan-3c def2/J RI DEFGRID2 scfconv6 printgap
|  2> %output
|  3>     printlevel normal
|  4> end
|  5> * xyz 0 1
|  6> C -0.1771840803 -2.2902249766 -0.4922640515
|  7> C 0.4949988145 -0.9784988822 -0.2366738188
|  8> C 1.8883938673 -0.9412954541 -0.2129621626
|  9> C 2.5858355183 0.2183213639 0.0626000033
| 10> C 1.9021194919 1.3916916254 0.3467835479
| 11> C 0.524138462 1.3840573727 0.3458554333
| 12> C -0.1740684626 0.215508046 0.0452886013
| 13> N -1.6116718598 0.3283911874 0.0545251983
| 14> O -2.2553191402 -0.3299118316 -0.7355963982
| 15> O -2.0944816946 1.1064114192 0.8501015258
| 16> H -0.0036601902 -2.9548646465 0.3544101696
| 17> H -1.2452976437 -2.1880765594 -0.6476927736
| 18> H 0.2557435098 -2.7583041642 -1.3741012601
| 19> H 2.4287736036 -1.8536775568 -0.4179328887
| 20> H 3.6652760093 0.2087505781 0.0606415184
| 21> H 2.4394535439 2.300483715 0.5670890171
| 22> H -0.039427823 2.2780245407 0.5669155427
| 23> *
| 24>
| 25>                          ****END OF INPUT****

CARTESIAN COORDINATES (ANGSTROEM)
---------------------------------
  C     -0.177184   -2.290225   -0.492264
  C      0.494999   -0.978499   -0.236674
  C      1.888394   -0.941295   -0.212962
  C      2.585836    0.218321    0.062600
  C      1.902119    1.391692    0.346784
  C      0.524138    1.384057    0.345855
  C     -0.174068    0.215508    0.045289
  N     -1.611672    0.328391    0.054525
  O     -2.255319   -0.329912   -0.735596
  O     -2.094482    1.106411    0.850102
  H     -0.003660   -2.954865    0.354410
  H     -1.245298   -2.188077   -0.647693
  H      0.255744   -2.758304   -1.374101
  H      2.428774   -1.853678   -0.417933
  H      3.665276    0.208751    0.060642
  H      2.439454    2.300484    0.567089
  H     -0.039428    2.278025    0.566916

 Total Charge           Charge          ....    0
 Multiplicity           Mult            ....    1
 Number of Electrons    NEL             ....   72
 Basis Dimension        Dim             ....  240

ORBITAL ENERGIES
----------------

  NO   OCC          E(Eh)            E(eV)
   0   2.0000     -18.982839      -516.5493
   1   2.0000     -18.982718      -516.5460
   2   2.0000     -14.393566      -391.6688
   3   2.0000     -10.100565      -274.8503
   4   2.0000     -10.080529      -274.3052
   5   2.0000     -10.064192      -273.8606
   6   2.0000     -10.062469      -273.8137
   7   2.0000     -10.058227      -273.6983
   8   2.0000     -10.057967      -273.6912
   9   2.0000     -10.038076      -273.1499
  10   2.0000      -1.208254       -32.8783
  11   2.0000      -1.029841       -28.0234
  12   2.0000      -0.866786       -23.5864
  13   2.0000      -0.783727       -21.3263
  14   2.0000      -0.766581       -20.8597
  15   2.0000      -0.694213       -18.8905
  16   2.0000      -0.657264       -17.8851
  17   2.0000      -0.596348       -16.2275
  18   2.0000      -0.566499       -15.4152
  19   2.0000      -0.525011       -14.2863
  20   2.0000      -0.513874       -13.9832
  21   2.0000      -0.486734       -13.2447
  22   2.0000      -0.477144       -12.9837
  23   2.0000      -0.450623       -12.2621
  24   2.0000      -0.429215       -11.6795
  25   2.0000      -0.411360       -11.1937
  26   2.0000      -0.403990       -10.9931
  27   2.0000      -0.375794       -10.2259
  28   2.0000      -0.357812        -9.7366
  29   2.0000      -0.350587        -9.5400
  30   2.0000      -0.338130        -9.2010
  31   2.0000      -0.291136        -7.9222
  32   2.0000      -0.280197        -7.6245
  33   2.0000      -0.273619        -7.4456
  34   2.0000      -0.253347        -6.8939
  35   2.0000      -0.248180        -6.7533
  36   0.0000      -0.114537        -3.1167
  37   0.0000      -0.056783        -1.5451
  38   0.0000      -0.035999        -0.9796
  39   0.0000       0.068865         1.8739
  40   0.0000       0.078384         2.1329

MULLIKEN ATOMIC CHARGES
-----------------------
   0 C :   -0.577063
   1 C :    0.046161
   2 C :   -0.169018
   3 C :   -0.123697
   4 C :   -0.138210
   5 C :   -0.226186
   6 C :    0.112552
   7 N :    0.350264
   8 O :   -0.226644
   9 O :   -0.208773
  10 H :    0.170203
  11 H :    0.198823
  12 H :    0.160779
  13 H :    0.153036
  14 H :    0.150554
  15 H :    0.153646
  16 H :    0.173572
Sum of atomic charges:    0.0000000

LOEWDIN ATOMIC CHARGES
----------------------
   0 C :   -0.373126
   1 C :   -0.025561
   2 C :   -0.150594
   3 C :   -0.133903
   4 C :   -0.159899
   5 C :   -0.071703
   6 C :    0.193791
   7 N :   -0.494917
   8 O :   -0.026757
   9 O :   -0.009779
  10 H :    0.170845
  11 H :    0.194635
  12 H :    0.170553
  13 H :    0.175013
  14 H :    0.171462
  15 H :    0.173057
  16 H :    0.196884

  Mayer bond orders larger than 0.100000
B(  0-C ,  1-C ) :   0.8108 B(  0-C , 10-H ) :   0.9734 B(  0-C , 11-H ) :   0.9687
B(  0-C , 12-H ) :   0.9782 B(  1-C ,  2-C ) :   1.3097 B(  1-C ,  6-C ) :   1.4528
B(  2-C ,  3-C ) :   1.4399 B(  2-C , 13-H ) :   0.9428 B(  3-C ,  4-C ) :   1.3737
B(  3-C , 14-H ) :   0.9470 B(  4-C ,  5-C ) :   1.3632 B(  4-C , 15-H ) :   0.9523
B(  5-C ,  6-C ) :   1.3528 B(  5-C , 16-H ) :   0.9445 B(  6-C ,  7-N ) :   0.9293
B(  7-N ,  8-O ) :   1.8118 B(  7-N ,  9-O ) :   1.8434 B(  8-O ,  9-O ) :   0.2634

Dispersion correction           -0.006020886
FINAL SINGLE POINT ENERGY      -475.968684692979

DIPOLE MOMENT
-------------

Method             : SCF
Type of density    : Electron Density
Multiplicity       :   1
Irrep              :   0
Energy             :  -475.9736759242105677 Eh
Relativity type    :
Basis              : AO
                                X                 Y                 Z
Electronic contribution:     -5.341886119       4.315736963       0.790746233
Nuclear contribution   :      6.963828882      -4.647218950      -0.833606814
                        -----------------------------------------
Total Dipole Moment    :      1.621942763      -0.331481986      -0.042860581
                        -----------------------------------------
Magnitude (a.u.)       :      1.656024053
Magnitude (Debye)      :      4.209278626

Rotational constants in cm-1:             0.076193             0.042051             0.028195
Rotational constants in MHz :          2284.210628          1260.644216           845.258005

                             ****ORCA TERMINATED NORMALLY****
TOTAL RUN TIME: 0 days 0 hours 0 minutes 23 seconds 315 msec
