                         Program Version 6.0.1  -  RELEASE   -
|  1> ! pbe def2-sv(p) def2/J RI DEFGRID1 loosescf d4 GCP(DFT/SV(P)) printgap
|  2> %output
|  3>     printlevel normal
|  4> end
|  5> * xyz 0 1
|  6> C -2.81150641 1.0420546193 5.70409e-05
|  7> O -2.2170529348 -0.2331016246 -3.92579e-05
|  8> C -0.8590391022 -0.3165060608 -2.69975e-05
|  9> C -0.3283034926 -1.6089379463 -6.108e-06
| 10> C 1.0368734217 -1.7933023957 2.07393e-05
| 11> C 1.8981630398 -0.70776444 2.60776e-05
| 12> C 1.3731069948 0.5757553552 -3.8092e-06
| 13> C -0.0040752979 0.7755802436 -3.23622e-05
| 14> O 2.1660355013 1.6834307055 -4.8773e-06
| 15> H -2.5380300633 1.6127482082 -0.8931675064
| 16> H -2.5378591818 1.6126905559 0.8932649737
| 17> H -3.8861844848 0.8663644883 0.0001535031
| 18> H -1.0086280362 -2.4446912898 -1.0661e-05
| 19> H 1.4421067076 -2.7939072165 3.53283e-05
| 20> H 2.9693989089 -0.8559910494 5.08383e-05
| 21> H -0.361320847 1.7918108668 -6.00964e-05
| 22> H 3.0931145493 1.4168656279 2.21278e-05
| 23> *
| 24>
| 25>                          ****END OF INPUT****

CARTESIAN COORDINATES (ANGSTROEM)
---------------------------------
  C     -2.811506    1.042055    0.000057
  O     -2.217053   -0.233102   -0.000039
  C     -0.859039   -0.316506   -0.000027
  C     -0.328303   -1.608938   -0.000006
  C      1.036873   -1.793302    0.000021
  C      1.898163   -0.707764    0.000026
  C      1.373107    0.575755   -0.000004
  C     -0.004075    0.775580   -0.000032
  O      2.166036    1.683431   -0.000005
  H     -2.538030    1.612748   -0.893168
  H     -2.537859    1.612691    0.893265
  H     -3.886184    0.866364    0.000154
  H     -1.008628   -2.444691   -0.000011
  H      1.442107   -2.793907    0.000035
  H      2.969399   -0.855991    0.000051
  H     -0.361321    1.791811   -0.000060
  H      3.093115    1.416866    0.000022

 Total Charge           Charge          ....    0
 Multiplicity           Mult            ....    1
 Number of Electrons    NEL             ....   66
 Basis Dimension        Dim             ....  142

ORBITAL ENERGIES
----------------

  NO   OCC          E(Eh)            E(eV)
   0   2.0000     -18.784403      -511.1496
   1   2.0000     -18.780033      -511.0307
   2   2.0000      -9.950736      -270.7733
   3   2.0000      -9.948255      -270.7058
   4   2.0000      -9.937952      -270.4254
   5   2.0000      -9.891685      -269.1664
   6   2.0000      -9.882687      -268.9216
   7   2.0000      -9.881859      -268.8991
   8   2.0000      -9.876735      -268.7596
   9   2.0000      -0.968305       -26.3489
  10   2.0000      -0.962073       -26.1793
  11   2.0000      -0.766712       -20.8633
  12   2.0000      -0.678954       -18.4753
  13   2.0000      -0.668694       -18.1961
  14   2.0000      -0.621102       -16.9010
  15   2.0000      -0.558420       -15.1954
  16   2.0000      -0.538900       -14.6642
  17   2.0000      -0.499293       -13.5865
  18   2.0000      -0.444793       -12.1034
  19   2.0000      -0.436622       -11.8811
  20   2.0000      -0.432056       -11.7568
  21   2.0000      -0.418806       -11.3963
  22   2.0000      -0.392834       -10.6896
  23   2.0000      -0.369369       -10.0510
  24   2.0000      -0.361612        -9.8400
  25   2.0000      -0.339343        -9.2340
  26   2.0000      -0.330114        -8.9828
  27   2.0000      -0.314528        -8.5587
  28   2.0000      -0.299109        -8.1392
  29   2.0000      -0.283613        -7.7175
  30   2.0000      -0.264828        -7.2063
  31   2.0000      -0.205521        -5.5925
  32   2.0000      -0.183426        -4.9913
  33   0.0000      -0.022310        -0.6071
  34   0.0000      -0.010218        -0.2781
  35   0.0000       0.026088         0.7099
  36   0.0000       0.048225         1.3123
  37   0.0000       0.058548         1.5932

MULLIKEN ATOMIC CHARGES
-----------------------
   0 C :   -0.117502
   1 O :   -0.262660
   2 C :    0.275603
   3 C :   -0.110628
   4 C :   -0.063730
   5 C :   -0.160672
   6 C :    0.245025
   7 C :   -0.279358
   8 O :   -0.335429
   9 H :    0.110806
  10 H :    0.110807
  11 H :    0.124677
  12 H :    0.039081
  13 H :    0.053176
  14 H :    0.022061
  15 H :    0.033074
  16 H :    0.315670
Sum of atomic charges:   -0.0000000

LOEWDIN ATOMIC CHARGES
----------------------
   0 C :   -0.204343
   1 O :   -0.085330
   2 C :    0.038297
   3 C :   -0.168082
   4 C :   -0.110385
   5 C :   -0.202155
   6 C :    0.030136
   7 C :   -0.203052
   8 O :   -0.237030
   9 H :    0.109500
  10 H :    0.109501
  11 H :    0.121522
  12 H :    0.128270
  13 H :    0.124896
  14 H :    0.118046
  15 H :    0.132953
  16 H :    0.297255

  Mayer bond orders larger than 0.100000
B(  0-C ,  1-O ) :   0.9938 B(  0-C ,  9-H ) :   0.9414 B(  0-C , 10-H ) :   0.9413
B(  0-C , 11-H ) :   0.9585 B(  1-O ,  2-C ) :   1.1412 B(  2-C ,  3-C ) :   1.3380
B(  2-C ,  7-C ) :   1.2768 B(  3-C ,  4-C ) :   1.3900 B(  3-C , 12-H ) :   0.9664
B(  4-C ,  5-C ) :   1.3347 B(  4-C , 13-H ) :   0.9610 B(  5-C ,  6-C ) :   1.3354
B(  5-C , 14-H ) :   0.9583 B(  6-C ,  7-C ) :   1.3198 B(  6-C ,  8-O ) :   1.1864
B(  7-C , 15-H ) :   0.9650 B(  8-O , 16-H ) :   0.8444

Dispersion correction           -0.016531529
FINAL SINGLE POINT ENERGY      -421.093795379697

DIPOLE MOMENT
-------------

Method             : SCF
Type of density    : Electron Density
Multiplicity       :   1
Irrep              :   0
Energy             :  -421.1527185242236442 Eh
Relativity type    :
Basis              : AO
                                X                 Y                 Z
Electronic contribution:      2.921745832      -0.887632881      -0.000212454
Nuclear contribution   :     -2.653340885       1.152814980       0.000270015
                        -----------------------------------------
Total Dipole Moment    :      0.268404948       0.265182100       0.000057561
                        -----------------------------------------
Magnitude (a.u.)       :      0.377309906
Magnitude (Debye)      :      0.959045565

Rotational constants in cm-1:             0.096386             0.043309             0.030054
Rotational constants in MHz :          2889.581997          1298.374940           900.982799

                             ****ORCA TERMINATED NORMALLY****
TOTAL RUN TIME: 0 days 0 hours 0 minutes 10 seconds 842 msec
