                         Program Version 6.0.1  -  RELEASE   -
|  1> ! pbe def2-sv(p) def2/J RI DEFGRID1 loosescf d4 GCP(DFT/SV(P)) printgap
|  2> %output
|  3>     printlevel normal
|  4> end
|  5> * xyz 0 1
|  6> C 1.4336846812 0.0001074195 0.5825440277
|  7> C 0.9691271153 1.1779004349 -0.2137879038
|  8> C -0.3293586069 1.4915368984 -0.2935753451
|  9> C -1.3992659688 0.6754444651 0.2074449826
| 10> C -1.3992283612 -0.6756132522 0.2073227187
| 11> C -0.3291738008 -1.4915591411 -0.2935948583
| 12> C 0.969268241 -1.1778294285 -0.2136089046
| 13> H 0.9474479346 0.0001238424 1.5626667852
| 14> H 2.5142681479 0.000183238 0.7110360015
| 15> H 1.7133446842 1.7760454479 -0.7202976956
| 16> H -0.6247909619 2.4093590842 -0.7863753661
| 17> H -2.3135786266 1.1917674091 0.4729170448
| 18> H -2.3136161421 -1.1920694548 0.4723972672
| 19> H -0.6243616132 -2.4093167325 -0.7866715729
| 20> H 1.7135842405 -1.7759426361 -0.7200437312
| 21> *
| 22>
| 23>                          ****END OF INPUT****

CARTESIAN COORDINATES (ANGSTROEM)
---------------------------------
  C      1.433685    0.000107    0.582544
  C      0.969127    1.177900   -0.213788
  C     -0.329359    1.491537   -0.293575
  C     -1.399266    0.675444    0.207445
  C     -1.399228   -0.675613    0.207323
  C     -0.329174   -1.491559   -0.293595
  C      0.969268   -1.177829   -0.213609
  H      0.947448    0.000124    1.562667
  H      2.514268    0.000183    0.711036
  H      1.713345    1.776045   -0.720298
  H     -0.624791    2.409359   -0.786375
  H     -2.313579    1.191767    0.472917
  H     -2.313616   -1.192069    0.472397
  H     -0.624362   -2.409317   -0.786672
  H      1.713584   -1.775943   -0.720044

 Total Charge           Charge          ....    0
 Multiplicity           Mult            ....    1
 Number of Electrons    NEL             ....   50
 Basis Dimension        Dim             ....  114

ORBITAL ENERGIES
----------------

  NO   OCC          E(Eh)            E(eV)
   0   2.0000      -9.894896      -269.2538
   1   2.0000      -9.894862      -269.2529
   2   2.0000      -9.892528      -269.1894
   3   2.0000      -9.892087      -269.1774
   4   2.0000      -9.889306      -269.1017
   5   2.0000      -9.886108      -269.0147
   6   2.0000      -9.886056      -269.0133
   7   2.0000      -0.763751       -20.7827
   8   2.0000      -0.688357       -18.7312
   9   2.0000      -0.685666       -18.6579
  10   2.0000      -0.588985       -16.0271
  11   2.0000      -0.560696       -15.2573
  12   2.0000      -0.479430       -13.0459
  13   2.0000      -0.462422       -12.5831
  14   2.0000      -0.442429       -12.0391
  15   2.0000      -0.402147       -10.9430
  16   2.0000      -0.399670       -10.8756
  17   2.0000      -0.382846       -10.4178
  18   2.0000      -0.332094        -9.0367
  19   2.0000      -0.331415        -9.0183
  20   2.0000      -0.311895        -8.4871
  21   2.0000      -0.298758        -8.1296
  22   2.0000      -0.276255        -7.5173
  23   2.0000      -0.220679        -6.0050
  24   2.0000      -0.200162        -5.4467
  25   0.0000      -0.057020        -1.5516
  26   0.0000      -0.013256        -0.3607
  27   0.0000       0.038377         1.0443
  28   0.0000       0.055990         1.5236
  29   0.0000       0.071952         1.9579

MULLIKEN ATOMIC CHARGES
-----------------------
   0 C :   -0.044317
   1 C :   -0.152097
   2 C :   -0.034631
   3 C :   -0.089210
   4 C :   -0.089186
   5 C :   -0.034646
   6 C :   -0.152118
   7 H :    0.115156
   8 H :    0.079786
   9 H :    0.068842
  10 H :    0.067863
  11 H :    0.063925
  12 H :    0.063938
  13 H :    0.067854
  14 H :    0.068843
Sum of atomic charges:    0.0000000

LOEWDIN ATOMIC CHARGES
----------------------
   0 C :   -0.221322
   1 C :   -0.113496
   2 C :   -0.144593
   3 C :   -0.133087
   4 C :   -0.133077
   5 C :   -0.144601
   6 C :   -0.113493
   7 H :    0.133898
   8 H :    0.124471
   9 H :    0.121808
  10 H :    0.127432
  11 H :    0.123414
  12 H :    0.123415
  13 H :    0.127426
  14 H :    0.121806

  Mayer bond orders larger than 0.100000
B(  0-C ,  1-C ) :   1.0650 B(  0-C ,  6-C ) :   1.0650 B(  0-C ,  7-H ) :   0.8920
B(  0-C ,  8-H ) :   0.9080 B(  1-C ,  2-C ) :   1.7831 B(  1-C ,  9-H ) :   0.9357
B(  2-C ,  3-C ) :   1.1873 B(  2-C , 10-H ) :   0.9306 B(  3-C ,  4-C ) :   1.6761
B(  3-C , 11-H ) :   0.9317 B(  4-C ,  5-C ) :   1.1873 B(  4-C , 12-H ) :   0.9317
B(  5-C ,  6-C ) :   1.7831 B(  5-C , 13-H ) :   0.9306 B(  6-C , 14-H ) :   0.9357

Dispersion correction           -0.014877752
FINAL SINGLE POINT ENERGY      -270.886809866122

DIPOLE MOMENT
-------------

Method             : SCF
Type of density    : Electron Density
Multiplicity       :   1
Irrep              :   0
Energy             :  -270.9278132971932109 Eh
Relativity type    :
Basis              : AO
                                X                 Y                 Z
Electronic contribution:     -0.839215731      -0.000070494      -0.262415631
Nuclear contribution   :      0.949705548       0.000140911       0.192914353
                        -----------------------------------------
Total Dipole Moment    :      0.110489817       0.000070417      -0.069501279
                        -----------------------------------------
Magnitude (a.u.)       :      0.130531346
Magnitude (Debye)      :      0.331784315

Rotational constants in cm-1:             0.127086             0.124269             0.070147
Rotational constants in MHz :          3809.928643          3725.501023          2102.940729

                             ****ORCA TERMINATED NORMALLY****
TOTAL RUN TIME: 0 days 0 hours 0 minutes 16 seconds 228 msec
