                         Program Version 6.0.1  -  RELEASE   -
|  1> ! pbe def2-sv(p) def2/J RI DEFGRID1 loosescf d4 GCP(DFT/SV(P)) printgap
|  2> %output
|  3>     printlevel normal
|  4> end
|  5> * xyz 0 1
|  6> C 3.7256175255 -0.1637604656 -0.0828707021
|  7> C 2.257173373 -0.3087871875 0.3049640244
|  8> H 2.1971820756 -0.5039674676 1.3822172893
|  9> C 1.6031358943 -1.4730402819 -0.4362367464
| 10> C 0.1280099905 -1.5919960479 -0.0688058259
| 11> C -0.6442853134 -0.3073856967 -0.3899914126
| 12> H -0.5212274942 -0.0934218521 -1.457578663
| 13> C 0.0096695011 0.8541348087 0.3819724909
| 14> H -0.0535753495 0.6468642219 1.4623883304
| 15> C 1.4859516619 0.9712461 -0.0009426837
| 16> O -0.5713113609 2.1126506152 0.1053159246
| 17> C -2.1569696133 -0.5095582608 -0.1330743918
| 18> C -2.5699510195 -0.3140430788 1.3263955829
| 19> C -3.0172064766 0.3516217904 -1.0610561243
| 20> H 4.2731154604 -1.0757554631 0.1450606809
| 21> H 3.8184836861 0.0351164979 -1.1483295361
| 22> H 4.1852445231 0.6586246691 0.4601927775
| 23> H 1.6967828778 -1.3105804783 -1.5124737086
| 24> H 2.1179526461 -2.4052724838 -0.1930913993
| 25> H -0.3143688733 -2.4268494899 -0.6172286832
| 26> H 0.0390797328 -1.811178504 0.9980281457
| 27> H 1.546779074 1.2001730947 -1.0663837287
| 28> H 1.9127594183 1.8156636527 0.5426487933
| 29> H -1.4750752742 2.1136774445 0.4360413253
| 30> H -2.3745051982 -1.5551289511 -0.385790765
| 31> H -1.9457605523 -0.9094994204 1.9883038226
| 32> H -3.6017098027 -0.6335822522 1.4600865052
| 33> H -2.505319644 0.7273419074 1.6355813512
| 34> H -2.8196590483 0.0962559861 -2.0999347932
| 35> H -2.819843127 1.4127768564 -0.9358475535
| 36> H -4.0728148369 0.1741987617 -0.8631986897
| 37> *
| 38>
| 39>                          ****END OF INPUT****

CARTESIAN COORDINATES (ANGSTROEM)
---------------------------------
  C      3.725618   -0.163760   -0.082871
  C      2.257173   -0.308787    0.304964
  H      2.197182   -0.503967    1.382217
  C      1.603136   -1.473040   -0.436237
  C      0.128010   -1.591996   -0.068806
  C     -0.644285   -0.307386   -0.389991
  H     -0.521227   -0.093422   -1.457579
  C      0.009670    0.854135    0.381972
  H     -0.053575    0.646864    1.462388
  C      1.485952    0.971246   -0.000943
  O     -0.571311    2.112651    0.105316
  C     -2.156970   -0.509558   -0.133074
  C     -2.569951   -0.314043    1.326396
  C     -3.017206    0.351622   -1.061056
  H      4.273115   -1.075755    0.145061
  H      3.818484    0.035116   -1.148330
  H      4.185245    0.658625    0.460193
  H      1.696783   -1.310580   -1.512474
  H      2.117953   -2.405272   -0.193091
  H     -0.314369   -2.426849   -0.617229
  H      0.039080   -1.811179    0.998028
  H      1.546779    1.200173   -1.066384
  H      1.912759    1.815664    0.542649
  H     -1.475075    2.113677    0.436041
  H     -2.374505   -1.555129   -0.385791
  H     -1.945761   -0.909499    1.988304
  H     -3.601710   -0.633582    1.460087
  H     -2.505320    0.727342    1.635581
  H     -2.819659    0.096256   -2.099935
  H     -2.819843    1.412777   -0.935848
  H     -4.072815    0.174199   -0.863199

 Total Charge           Charge          ....    0
 Multiplicity           Mult            ....    1
 Number of Electrons    NEL             ....   88
 Basis Dimension        Dim             ....  194

ORBITAL ENERGIES
----------------

  NO   OCC          E(Eh)            E(eV)
   0   2.0000     -18.737703      -509.8788
   1   2.0000      -9.930849      -270.2321
   2   2.0000      -9.896363      -269.2937
   3   2.0000      -9.890861      -269.1440
   4   2.0000      -9.887026      -269.0396
   5   2.0000      -9.882155      -268.9071
   6   2.0000      -9.880876      -268.8723
   7   2.0000      -9.879340      -268.8305
   8   2.0000      -9.874101      -268.6879
   9   2.0000      -9.873685      -268.6766
  10   2.0000      -9.869801      -268.5710
  11   2.0000      -0.917562       -24.9681
  12   2.0000      -0.758858       -20.6496
  13   2.0000      -0.724277       -19.7086
  14   2.0000      -0.671865       -18.2824
  15   2.0000      -0.655576       -17.8391
  16   2.0000      -0.616250       -16.7690
  17   2.0000      -0.601304       -16.3623
  18   2.0000      -0.539226       -14.6731
  19   2.0000      -0.533778       -14.5248
  20   2.0000      -0.507216       -13.8020
  21   2.0000      -0.494303       -13.4507
  22   2.0000      -0.451055       -12.2738
  23   2.0000      -0.423420       -11.5219
  24   2.0000      -0.409795       -11.1511
  25   2.0000      -0.404941       -11.0190
  26   2.0000      -0.395232       -10.7548
  27   2.0000      -0.370279       -10.0758
  28   2.0000      -0.369765       -10.0618
  29   2.0000      -0.366238        -9.9658
  30   2.0000      -0.349998        -9.5239
  31   2.0000      -0.345496        -9.4014
  32   2.0000      -0.331145        -9.0109
  33   2.0000      -0.325070        -8.8456
  34   2.0000      -0.315241        -8.5782
  35   2.0000      -0.309326        -8.4172
  36   2.0000      -0.303116        -8.2482
  37   2.0000      -0.291371        -7.9286
  38   2.0000      -0.282534        -7.6882
  39   2.0000      -0.281229        -7.6526
  40   2.0000      -0.270134        -7.3507
  41   2.0000      -0.263221        -7.1626
  42   2.0000      -0.249663        -6.7937
  43   2.0000      -0.208009        -5.6602
  44   0.0000       0.020395         0.5550
  45   0.0000       0.037550         1.0218
  46   0.0000       0.041237         1.1221
  47   0.0000       0.050347         1.3700
  48   0.0000       0.075987         2.0677

MULLIKEN ATOMIC CHARGES
-----------------------
   0 C :   -0.196801
   1 C :   -0.214240
   2 H :    0.062018
   3 C :   -0.093050
   4 C :   -0.112244
   5 C :   -0.137677
   6 H :    0.053913
   7 C :    0.035579
   8 H :    0.047817
   9 C :   -0.075320
  10 O :   -0.404800
  11 C :   -0.140876
  12 C :   -0.252463
  13 C :   -0.233137
  14 H :    0.094273
  15 H :    0.090126
  16 H :    0.096452
  17 H :    0.065705
  18 H :    0.076554
  19 H :    0.078399
  20 H :    0.070914
  21 H :    0.069563
  22 H :    0.081622
  23 H :    0.304502
  24 H :    0.064415
  25 H :    0.109098
  26 H :    0.103879
  27 H :    0.081245
  28 H :    0.101961
  29 H :    0.077197
  30 H :    0.095377
Sum of atomic charges:   -0.0000000

LOEWDIN ATOMIC CHARGES
----------------------
   0 C :   -0.325980
   1 C :   -0.152801
   2 H :    0.112743
   3 C :   -0.215907
   4 C :   -0.214995
   5 C :   -0.148638
   6 H :    0.116857
   7 C :   -0.047344
   8 H :    0.095486
   9 C :   -0.213318
  10 O :   -0.320878
  11 C :   -0.152283
  12 C :   -0.330871
  13 C :   -0.331226
  14 H :    0.116343
  15 H :    0.116940
  16 H :    0.117664
  17 H :    0.114319
  18 H :    0.115007
  19 H :    0.115578
  20 H :    0.113224
  21 H :    0.118270
  22 H :    0.119351
  23 H :    0.272669
  24 H :    0.116992
  25 H :    0.119027
  26 H :    0.121892
  27 H :    0.106549
  28 H :    0.119963
  29 H :    0.109505
  30 H :    0.115862

  Mayer bond orders larger than 0.100000
B(  0-C ,  1-C ) :   1.1147 B(  0-C , 14-H ) :   0.9488 B(  0-C , 15-H ) :   0.9460
B(  0-C , 16-H ) :   0.9487 B(  1-C ,  2-H ) :   0.8908 B(  1-C ,  3-C ) :   1.0924
B(  1-C ,  9-C ) :   1.0842 B(  3-C ,  4-C ) :   1.1466 B(  3-C , 17-H ) :   0.9028
B(  3-C , 18-H ) :   0.9116 B(  4-C ,  5-C ) :   1.0745 B(  4-C , 19-H ) :   0.9058
B(  4-C , 20-H ) :   0.8970 B(  5-C ,  6-H ) :   0.8783 B(  5-C ,  7-C ) :   1.0219
B(  5-C , 11-C ) :   1.0091 B(  7-C ,  8-H ) :   0.8821 B(  7-C ,  9-C ) :   1.0974
B(  7-C , 10-O ) :   1.1037 B(  9-C , 21-H ) :   0.8945 B(  9-C , 22-H ) :   0.9064
B( 10-O , 23-H ) :   0.8287 B( 11-C , 12-C ) :   1.1208 B( 11-C , 13-C ) :   1.1158
B( 11-C , 24-H ) :   0.8917 B( 12-C , 25-H ) :   0.9443 B( 12-C , 26-H ) :   0.9436
B( 12-C , 27-H ) :   0.9310 B( 13-C , 28-H ) :   0.9465 B( 13-C , 29-H ) :   0.9340
B( 13-C , 30-H ) :   0.9471

Dispersion correction           -0.031665910
FINAL SINGLE POINT ENERGY      -467.198464175672

DIPOLE MOMENT
-------------

Method             : SCF
Type of density    : Electron Density
Multiplicity       :   1
Irrep              :   0
Energy             :  -467.3111286305652357 Eh
Relativity type    :
Basis              : AO
                                X                 Y                 Z
Electronic contribution:      0.370127434       3.081838472       0.023506749
Nuclear contribution   :     -0.680652508      -3.575467462       0.217989164
                        -----------------------------------------
Total Dipole Moment    :     -0.310525074      -0.493628990       0.241495913
                        -----------------------------------------
Magnitude (a.u.)       :      0.631201772
Magnitude (Debye)      :      1.604387403

Rotational constants in cm-1:             0.065409             0.022566             0.019481
Rotational constants in MHz :          1960.908198           676.517789           584.036439

                             ****ORCA TERMINATED NORMALLY****
TOTAL RUN TIME: 0 days 0 hours 0 minutes 11 seconds 907 msec
