                         Program Version 6.0.1  -  RELEASE   -
|  1> ! pbe def2-sv(p) def2/J RI DEFGRID1 loosescf d4 GCP(DFT/SV(P)) printgap
|  2> %output
|  3>     printlevel normal
|  4> end
|  5> * xyz 0 1
|  6> C -2.6631675414 -0.3968990905 -1.0601169325
|  7> C -1.760133253 0.0113430015 0.0817350749
|  8> O -2.1697444391 0.1108454819 1.2108919056
|  9> C -0.3090939108 0.2533171437 -0.289339943
| 10> C 0.3685185232 -1.1059860354 -0.523150241
| 11> C 1.8359507652 -0.9113883774 -0.8935806046
| 12> C 2.5685002918 -0.1413039308 0.2004985426
| 13> C 1.8976983495 1.2077964417 0.4391696623
| 14> C 0.4305752557 1.0179463308 0.8077626818
| 15> H -3.517858217 0.2762061516 -1.0899013565
| 16> H -2.1533874666 -0.3817271961 -2.0179009732
| 17> H -3.048440837 -1.3963876798 -0.8661929462
| 18> H -0.2767592463 0.82616898 -1.2227878743
| 19> H 0.2995025724 -1.6959336973 0.3935281107
| 20> H -0.1453692557 -1.6530474445 -1.3161625639
| 21> H 2.3063147336 -1.8854015508 -1.0439615999
| 22> H 1.9027600501 -0.3584088415 -1.8337641549
| 23> H 2.5507886253 -0.722489848 1.1250275562
| 24> H 3.6125453391 0.0052187362 -0.0837521615
| 25> H 2.4118971847 1.7429198368 1.2396518519
| 26> H 1.9701509806 1.8140060619 -0.4675231759
| 27> H 0.3499067376 0.4592083225 1.7417310225
| 28> H -0.0487660706 1.9867828756 0.9617268875
| 29> *
| 30>
| 31>                          ****END OF INPUT****

CARTESIAN COORDINATES (ANGSTROEM)
---------------------------------
  C     -2.663168   -0.396899   -1.060117
  C     -1.760133    0.011343    0.081735
  O     -2.169744    0.110845    1.210892
  C     -0.309094    0.253317   -0.289340
  C      0.368519   -1.105986   -0.523150
  C      1.835951   -0.911388   -0.893581
  C      2.568500   -0.141304    0.200499
  C      1.897698    1.207796    0.439170
  C      0.430575    1.017946    0.807763
  H     -3.517858    0.276206   -1.089901
  H     -2.153387   -0.381727   -2.017901
  H     -3.048441   -1.396388   -0.866193
  H     -0.276759    0.826169   -1.222788
  H      0.299503   -1.695934    0.393528
  H     -0.145369   -1.653047   -1.316163
  H      2.306315   -1.885402   -1.043962
  H      1.902760   -0.358409   -1.833764
  H      2.550789   -0.722490    1.125028
  H      3.612545    0.005219   -0.083752
  H      2.411897    1.742920    1.239652
  H      1.970151    1.814006   -0.467523
  H      0.349907    0.459208    1.741731
  H     -0.048766    1.986783    0.961727

 Total Charge           Charge          ....    0
 Multiplicity           Mult            ....    1
 Number of Electrons    NEL             ....   70
 Basis Dimension        Dim             ....  154

ORBITAL ENERGIES
----------------

  NO   OCC          E(Eh)            E(eV)
   0   2.0000     -18.734253      -509.7849
   1   2.0000      -9.969555      -271.2854
   2   2.0000      -9.898361      -269.3481
   3   2.0000      -9.895816      -269.2788
   4   2.0000      -9.888394      -269.0769
   5   2.0000      -9.885013      -268.9849
   6   2.0000      -9.883609      -268.9467
   7   2.0000      -9.882434      -268.9147
   8   2.0000      -9.879439      -268.8332
   9   2.0000      -0.937639       -25.5145
  10   2.0000      -0.762610       -20.7517
  11   2.0000      -0.692546       -18.8451
  12   2.0000      -0.669662       -18.2224
  13   2.0000      -0.653954       -17.7950
  14   2.0000      -0.559771       -15.2321
  15   2.0000      -0.545439       -14.8421
  16   2.0000      -0.503002       -13.6874
  17   2.0000      -0.469431       -12.7739
  18   2.0000      -0.430157       -11.7052
  19   2.0000      -0.416378       -11.3302
  20   2.0000      -0.403149       -10.9703
  21   2.0000      -0.399067       -10.8592
  22   2.0000      -0.387348       -10.5403
  23   2.0000      -0.376486       -10.2447
  24   2.0000      -0.363765        -9.8986
  25   2.0000      -0.340480        -9.2649
  26   2.0000      -0.338110        -9.2004
  27   2.0000      -0.329489        -8.9658
  28   2.0000      -0.312450        -8.5022
  29   2.0000      -0.305149        -8.3035
  30   2.0000      -0.301540        -8.2053
  31   2.0000      -0.284729        -7.7479
  32   2.0000      -0.272038        -7.4025
  33   2.0000      -0.261843        -7.1251
  34   2.0000      -0.191931        -5.2227
  35   0.0000      -0.046463        -1.2643
  36   0.0000       0.027659         0.7526
  37   0.0000       0.045077         1.2266
  38   0.0000       0.054625         1.4864
  39   0.0000       0.070131         1.9084

MULLIKEN ATOMIC CHARGES
-----------------------
   0 C :   -0.246091
   1 C :    0.035433
   2 O :   -0.162733
   3 C :   -0.212661
   4 C :   -0.154272
   5 C :   -0.121671
   6 C :   -0.164706
   7 C :   -0.133336
   8 C :   -0.110920
   9 H :    0.129090
  10 H :    0.107734
  11 H :    0.130080
  12 H :    0.074036
  13 H :    0.088236
  14 H :    0.087539
  15 H :    0.088668
  16 H :    0.072663
  17 H :    0.078279
  18 H :    0.086479
  19 H :    0.086556
  20 H :    0.070137
  21 H :    0.085784
  22 H :    0.085675
Sum of atomic charges:    0.0000000

LOEWDIN ATOMIC CHARGES
----------------------
   0 C :   -0.366010
   1 C :    0.048526
   2 O :   -0.123306
   3 C :   -0.173481
   4 C :   -0.208674
   5 C :   -0.223694
   6 C :   -0.227507
   7 C :   -0.225680
   8 C :   -0.215448
   9 H :    0.146590
  10 H :    0.123657
  11 H :    0.146783
  12 H :    0.123638
  13 H :    0.121644
  14 H :    0.116354
  15 H :    0.118068
  16 H :    0.114486
  17 H :    0.115851
  18 H :    0.116695
  19 H :    0.117673
  20 H :    0.112505
  21 H :    0.121683
  22 H :    0.119647

  Mayer bond orders larger than 0.100000
B(  0-C ,  1-C ) :   1.0701 B(  0-C ,  9-H ) :   0.9240 B(  0-C , 10-H ) :   0.9370
B(  0-C , 11-H ) :   0.9250 B(  1-C ,  2-O ) :   2.1889 B(  1-C ,  3-C ) :   0.9389
B(  3-C ,  4-C ) :   1.0679 B(  3-C ,  8-C ) :   1.0907 B(  3-C , 12-H ) :   0.8697
B(  4-C ,  5-C ) :   1.1377 B(  4-C , 13-H ) :   0.9070 B(  4-C , 14-H ) :   0.9138
B(  5-C ,  6-C ) :   1.1375 B(  5-C , 15-H ) :   0.9184 B(  5-C , 16-H ) :   0.9110
B(  6-C ,  7-C ) :   1.1336 B(  6-C , 17-H ) :   0.9152 B(  6-C , 18-H ) :   0.9198
B(  7-C ,  8-C ) :   1.1332 B(  7-C , 19-H ) :   0.9194 B(  7-C , 20-H ) :   0.9108
B(  8-C , 21-H ) :   0.9020 B(  8-C , 22-H ) :   0.9192

Dispersion correction           -0.021790630
FINAL SINGLE POINT ENERGY      -387.609719732308

DIPOLE MOMENT
-------------

Method             : SCF
Type of density    : Electron Density
Multiplicity       :   1
Irrep              :   0
Energy             :  -387.6874429141101359 Eh
Relativity type    :
Basis              : AO
                                X                 Y                 Z
Electronic contribution:     -5.405639201       0.779534266       3.320378793
Nuclear contribution   :      5.796913411      -0.920465614      -4.185288936
                        -----------------------------------------
Total Dipole Moment    :      0.391274210      -0.140931349      -0.864910144
                        -----------------------------------------
Magnitude (a.u.)       :      0.959701364
Magnitude (Debye)      :      2.439367009

Rotational constants in cm-1:             0.103480             0.036158             0.030092
Rotational constants in MHz :          3102.264898          1083.987370           902.133798

                             ****ORCA TERMINATED NORMALLY****
TOTAL RUN TIME: 0 days 0 hours 0 minutes 10 seconds 939 msec
