                         Program Version 6.0.1  -  RELEASE   -
|  1> ! pbe def2-sv(p) def2/J RI DEFGRID1 loosescf d4 GCP(DFT/SV(P)) printgap
|  2> %output
|  3>     printlevel normal
|  4> end
|  5> * xyz 0 1
|  6> C -2.1539072592 -0.9529761157 -0.0880754029
|  7> C -1.0683936779 -0.3483098477 0.8256331596
|  8> H -1.4915578225 -0.3267306906 1.8379140028
|  9> C -0.7310224256 1.1213158445 0.4577414658
| 10> H -1.6113851885 1.5482309425 -0.0401689368
| 11> C 0.4757146615 1.241246684 -0.4856692735
| 12> H 0.8212020093 2.2842602729 -0.4565860772
| 13> C 1.6215554724 0.3367210406 0.0359574165
| 14> H 2.4920613295 0.4363920542 -0.6225314851
| 15> C 1.1268819455 -1.1136666593 0.0473318356
| 16> H 1.8855390338 -1.7775843501 0.4888948606
| 17> O 0.058375629 -1.2165028307 0.9620791699
| 18> O 0.844329048 -1.5951032046 -1.2272180486
| 19> O 1.9971737374 0.7172823577 1.3411856893
| 20> O 0.1688693372 0.9243169085 -1.8260492961
| 21> O -0.5406605977 1.9017627119 1.6093692705
| 22> O -1.8316272933 -0.9331145154 -1.4570393522
| 23> H -3.0676675604 -0.3651279957 0.0233301746
| 24> H -2.3474367466 -1.9780516672 0.2468685485
| 25> H 0.7720526179 -0.8312459617 -1.8336123255
| 26> H 1.6479473987 0.0565106371 1.9570762979
| 27> H -0.7299919687 0.5390013541 -1.8706624267
| 28> H 0.3776573863 1.799113961 1.9037407192
| 29> H -1.1145913483 -1.5767346731 -1.5959163457
| 30> *
| 31>
| 32>                          ****END OF INPUT****

CARTESIAN COORDINATES (ANGSTROEM)
---------------------------------
  C     -2.153907   -0.952976   -0.088075
  C     -1.068394   -0.348310    0.825633
  H     -1.491558   -0.326731    1.837914
  C     -0.731022    1.121316    0.457741
  H     -1.611385    1.548231   -0.040169
  C      0.475715    1.241247   -0.485669
  H      0.821202    2.284260   -0.456586
  C      1.621555    0.336721    0.035957
  H      2.492061    0.436392   -0.622531
  C      1.126882   -1.113667    0.047332
  H      1.885539   -1.777584    0.488895
  O      0.058376   -1.216503    0.962079
  O      0.844329   -1.595103   -1.227218
  O      1.997174    0.717282    1.341186
  O      0.168869    0.924317   -1.826049
  O     -0.540661    1.901763    1.609369
  O     -1.831627   -0.933115   -1.457039
  H     -3.067668   -0.365128    0.023330
  H     -2.347437   -1.978052    0.246869
  H      0.772053   -0.831246   -1.833612
  H      1.647947    0.056511    1.957076
  H     -0.729992    0.539001   -1.870662
  H      0.377657    1.799114    1.903741
  H     -1.114591   -1.576735   -1.595916

 Total Charge           Charge          ....    0
 Multiplicity           Mult            ....    1
 Number of Electrons    NEL             ....   96
 Basis Dimension        Dim             ....  192

ORBITAL ENERGIES
----------------

  NO   OCC          E(Eh)            E(eV)
   0   2.0000     -18.784579      -511.1544
   1   2.0000     -18.782956      -511.1102
   2   2.0000     -18.778082      -510.9776
   3   2.0000     -18.776928      -510.9462
   4   2.0000     -18.773562      -510.8546
   5   2.0000     -18.749158      -510.1905
   6   2.0000     -10.003854      -272.2187
   7   2.0000      -9.960357      -271.0351
   8   2.0000      -9.957123      -270.9471
   9   2.0000      -9.956958      -270.9426
  10   2.0000      -9.954879      -270.8860
  11   2.0000      -9.948898      -270.7233
  12   2.0000      -1.001217       -27.2445
  13   2.0000      -0.959118       -26.0989
  14   2.0000      -0.952487       -25.9185
  15   2.0000      -0.945003       -25.7148
  16   2.0000      -0.933856       -25.4115
  17   2.0000      -0.923328       -25.1250
  18   2.0000      -0.713170       -19.4064
  19   2.0000      -0.702338       -19.1116
  20   2.0000      -0.631961       -17.1965
  21   2.0000      -0.613547       -16.6955
  22   2.0000      -0.584177       -15.8963
  23   2.0000      -0.535308       -14.5665
  24   2.0000      -0.522756       -14.2249
  25   2.0000      -0.505084       -13.7440
  26   2.0000      -0.485519       -13.2116
  27   2.0000      -0.469918       -12.7871
  28   2.0000      -0.462161       -12.5760
  29   2.0000      -0.448079       -12.1928
  30   2.0000      -0.430144       -11.7048
  31   2.0000      -0.409734       -11.1494
  32   2.0000      -0.404193       -10.9987
  33   2.0000      -0.383215       -10.4278
  34   2.0000      -0.369040       -10.0421
  35   2.0000      -0.367480        -9.9996
  36   2.0000      -0.360343        -9.8054
  37   2.0000      -0.335723        -9.1355
  38   2.0000      -0.318226        -8.6594
  39   2.0000      -0.314255        -8.5513
  40   2.0000      -0.304425        -8.2838
  41   2.0000      -0.285907        -7.7799
  42   2.0000      -0.276407        -7.5214
  43   2.0000      -0.270638        -7.3644
  44   2.0000      -0.254934        -6.9371
  45   2.0000      -0.239322        -6.5123
  46   2.0000      -0.224009        -6.0956
  47   2.0000      -0.214273        -5.8307
  48   0.0000       0.012771         0.3475
  49   0.0000       0.022031         0.5995
  50   0.0000       0.046246         1.2584
  51   0.0000       0.051609         1.4044
  52   0.0000       0.059322         1.6142

MULLIKEN ATOMIC CHARGES
-----------------------
   0 C :    0.031703
   1 C :    0.033943
   2 H :    0.084317
   3 C :    0.013183
   4 H :    0.086415
   5 C :    0.044447
   6 H :    0.092329
   7 C :    0.001398
   8 H :    0.099761
   9 C :    0.170140
  10 H :    0.084919
  11 O :   -0.319243
  12 O :   -0.413106
  13 O :   -0.416821
  14 O :   -0.435522
  15 O :   -0.419226
  16 O :   -0.450117
  17 H :    0.099323
  18 H :    0.097671
  19 H :    0.300339
  20 H :    0.309652
  21 H :    0.308403
  22 H :    0.291453
  23 H :    0.304638
Sum of atomic charges:   -0.0000000

LOEWDIN ATOMIC CHARGES
----------------------
   0 C :   -0.132382
   1 C :   -0.083841
   2 H :    0.127917
   3 C :   -0.073631
   4 H :    0.120675
   5 C :   -0.074180
   6 H :    0.118032
   7 C :   -0.089950
   8 H :    0.121399
   9 C :   -0.012029
  10 H :    0.108482
  11 O :   -0.150528
  12 O :   -0.308796
  13 O :   -0.304591
  14 O :   -0.321278
  15 O :   -0.318313
  16 O :   -0.328891
  17 H :    0.121138
  18 H :    0.112629
  19 H :    0.272186
  20 H :    0.282252
  21 H :    0.270169
  22 H :    0.268907
  23 H :    0.274625

  Mayer bond orders larger than 0.100000
B(  0-C ,  1-C ) :   1.0346 B(  0-C , 16-O ) :   1.0524 B(  0-C , 17-H ) :   0.9194
B(  0-C , 18-H ) :   0.9158 B(  1-C ,  2-H ) :   0.8822 B(  1-C ,  3-C ) :   0.9481
B(  1-C , 11-O ) :   0.9722 B(  3-C ,  4-H ) :   0.8949 B(  3-C ,  5-C ) :   1.0094
B(  3-C , 15-O ) :   1.0692 B(  5-C ,  6-H ) :   0.9022 B(  5-C ,  7-C ) :   0.9477
B(  5-C , 14-O ) :   1.0442 B(  7-C ,  8-H ) :   0.8993 B(  7-C ,  9-C ) :   1.0244
B(  7-C , 13-O ) :   1.0450 B(  9-C , 10-H ) :   0.9117 B(  9-C , 11-O ) :   1.0264
B(  9-C , 12-O ) :   1.1024 B( 12-O , 19-H ) :   0.7636 B( 12-O , 23-H ) :   0.1157
B( 13-O , 20-H ) :   0.8149 B( 13-O , 22-H ) :   0.1101 B( 14-O , 19-H ) :   0.1547
B( 14-O , 21-H ) :   0.7604 B( 15-O , 22-H ) :   0.8097 B( 16-O , 21-H ) :   0.1543
B( 16-O , 23-H ) :   0.7862

Dispersion correction           -0.027127322
FINAL SINGLE POINT ENERGY      -685.704049411284

DIPOLE MOMENT
-------------

Method             : SCF
Type of density    : Electron Density
Multiplicity       :   1
Irrep              :   0
Energy             :  -685.8445546658011835 Eh
Relativity type    :
Basis              : AO
                                X                 Y                 Z
Electronic contribution:      2.184792441      -0.216242886       0.216027083
Nuclear contribution   :     -2.209553096      -0.183079899       0.027121801
                        -----------------------------------------
Total Dipole Moment    :     -0.024760655      -0.399322785       0.243148884
                        -----------------------------------------
Magnitude (a.u.)       :      0.468180688
Magnitude (Debye)      :      1.190020735

Rotational constants in cm-1:             0.040722             0.032385             0.027942
Rotational constants in MHz :          1220.812873           970.891573           837.674659

                             ****ORCA TERMINATED NORMALLY****
TOTAL RUN TIME: 0 days 0 hours 0 minutes 8 seconds 197 msec
