                         Program Version 6.0.0  -   RELEASE  -
|  1> ! r2SCAN-3c DEF2-TZVP FREQ
|  2> * xyzfile 0 1 censo.xyz
|  3>
|  4>                          ****END OF INPUT****

CARTESIAN COORDINATES (ANGSTROEM)
---------------------------------
  C      5.161439    0.695867    0.001330
  C      5.161439   -0.695869    0.001079
  C      3.957573   -1.397565    0.000281
  C      2.765886   -0.694017   -0.000297
  C      2.765886    0.694017   -0.000097
  C      3.957574    1.397564    0.000752
  O      1.580342    1.423402   -0.000859
  C      0.419819    0.697138   -0.000582
  C      0.419819   -0.697138   -0.000702
  C     -0.786346   -1.391443   -0.000334
  C     -2.002123   -0.698057    0.000016
  C     -2.002124    0.698059    0.000060
  C     -0.786345    1.391444   -0.000227
  Cl    -0.742478    3.123160   -0.000162
  Cl    -3.494153    1.575422    0.000488
  Cl    -3.494153   -1.575420    0.000452
  Cl    -0.742479   -3.123159   -0.000382
  O      1.580342   -1.423402   -0.001184
  H      6.096870    1.244079    0.001967
  H      6.096869   -1.244081    0.001501
  H      3.929835   -2.481873    0.000072
  H      3.929836    2.481872    0.000909

 Total Charge           Charge          ....    0
 Multiplicity           Mult            ....    1
 Number of Electrons    NEL             ....  160
 Basis Dimension        Dim             ....  606

ORBITAL ENERGIES
----------------

  NO   OCC          E(Eh)            E(eV)
   0   2.0000    -101.211940     -2754.1169
   1   2.0000    -101.211937     -2754.1168
   2   2.0000    -101.210599     -2754.0804
   3   2.0000    -101.210592     -2754.0802
   4   2.0000     -19.038102      -518.0531
   5   2.0000     -19.038089      -518.0527
   6   2.0000     -10.141667      -275.9688
   7   2.0000     -10.141246      -275.9573
   8   2.0000     -10.132138      -275.7095
   9   2.0000     -10.131732      -275.6984
  10   2.0000     -10.130155      -275.6555
  11   2.0000     -10.130151      -275.6554
  12   2.0000     -10.125496      -275.5288
  13   2.0000     -10.125051      -275.5166
  14   2.0000     -10.061415      -273.7850
  15   2.0000     -10.061404      -273.7847
  16   2.0000     -10.057966      -273.6912
  17   2.0000     -10.057532      -273.6794
  18   2.0000      -9.387544      -255.4481
  19   2.0000      -9.387542      -255.4480
  20   2.0000      -9.386284      -255.4138
  21   2.0000      -9.386278      -255.4136
  22   2.0000      -7.132991      -194.0986
  23   2.0000      -7.132990      -194.0985
  24   2.0000      -7.131676      -194.0628
  25   2.0000      -7.131675      -194.0627
  26   2.0000      -7.122485      -193.8127
  27   2.0000      -7.122485      -193.8127
  28   2.0000      -7.121553      -193.7873
  29   2.0000      -7.121552      -193.7873
  30   2.0000      -7.121241      -193.7788
  31   2.0000      -7.121240      -193.7788
  32   2.0000      -7.120295      -193.7531
  33   2.0000      -7.120294      -193.7531
  34   2.0000      -1.102574       -30.0026
  35   2.0000      -1.068964       -29.0880
  36   2.0000      -0.915786       -24.9198
  37   2.0000      -0.870705       -23.6931
  38   2.0000      -0.859744       -23.3948
  39   2.0000      -0.839397       -22.8411
  40   2.0000      -0.820255       -22.3203
  41   2.0000      -0.803717       -21.8702
  42   2.0000      -0.754553       -20.5324
  43   2.0000      -0.746747       -20.3200
  44   2.0000      -0.708338       -19.2748
  45   2.0000      -0.706324       -19.2201
  46   2.0000      -0.649081       -17.6624
  47   2.0000      -0.623103       -16.9555
  48   2.0000      -0.594366       -16.1735
  49   2.0000      -0.576014       -15.6741
  50   2.0000      -0.565676       -15.3928
  51   2.0000      -0.524816       -14.2810
  52   2.0000      -0.500016       -13.6061
  53   2.0000      -0.482814       -13.1380
  54   2.0000      -0.475018       -12.9259
  55   2.0000      -0.468776       -12.7560
  56   2.0000      -0.444780       -12.1031
  57   2.0000      -0.442203       -12.0329
  58   2.0000      -0.431549       -11.7430
  59   2.0000      -0.418702       -11.3935
  60   2.0000      -0.417198       -11.3525
  61   2.0000      -0.413522       -11.2525
  62   2.0000      -0.410952       -11.1826
  63   2.0000      -0.405323       -11.0294
  64   2.0000      -0.368637       -10.0311
  65   2.0000      -0.363954        -9.9037
  66   2.0000      -0.362238        -9.8570
  67   2.0000      -0.361000        -9.8233
  68   2.0000      -0.332134        -9.0378
  69   2.0000      -0.330132        -8.9834
  70   2.0000      -0.320002        -8.7077
  71   2.0000      -0.317480        -8.6391
  72   2.0000      -0.314135        -8.5480
  73   2.0000      -0.300878        -8.1873
  74   2.0000      -0.296073        -8.0566
  75   2.0000      -0.279912        -7.6168
  76   2.0000      -0.258740        -7.0407
  77   2.0000      -0.256120        -6.9694
  78   2.0000      -0.231052        -6.2872
  79   2.0000      -0.204396        -5.5619
  80   0.0000      -0.071930        -1.9573
  81   0.0000      -0.068199        -1.8558
  82   0.0000      -0.067257        -1.8302
  83   0.0000      -0.055502        -1.5103
  84   0.0000      -0.028295        -0.7699

MULLIKEN ATOMIC CHARGES
-----------------------
   0 C :   -0.088082
   1 C :   -0.088117
   2 C :   -0.242279
   3 C :    0.232699
   4 C :    0.232713
   5 C :   -0.242308
   6 O :   -0.230948
   7 C :    0.221015
   8 C :    0.221139
   9 C :   -0.091082
  10 C :    0.054753
  11 C :    0.054663
  12 C :   -0.090975
  13 Cl:   -0.050925
  14 Cl:   -0.047428
  15 Cl:   -0.047433
  16 Cl:   -0.050926
  17 O :   -0.230944
  18 H :    0.119292
  19 H :    0.119293
  20 H :    0.122938
  21 H :    0.122942
Sum of atomic charges:    0.0000000

LOEWDIN ATOMIC CHARGES
----------------------
   0 C :   -0.137716
   1 C :   -0.137716
   2 C :   -0.102579
   3 C :   -0.191915
   4 C :   -0.191915
   5 C :   -0.102579
   6 O :    0.338209
   7 C :   -0.218613
   8 C :   -0.218613
   9 C :   -0.418933
  10 C :   -0.456389
  11 C :   -0.456390
  12 C :   -0.418933
  13 Cl:    0.445161
  14 Cl:    0.439922
  15 Cl:    0.439921
  16 Cl:    0.445161
  17 O :    0.338209
  18 H :    0.147313
  19 H :    0.147313
  20 H :    0.155540
  21 H :    0.155540

  Mayer bond orders larger than 0.100000
B(  0-C ,  1-C ) :   1.3927 B(  0-C ,  5-C ) :   1.3668 B(  0-C , 18-H ) :   0.9709
B(  1-C ,  2-C ) :   1.3668 B(  1-C , 19-H ) :   0.9709 B(  2-C ,  3-C ) :   1.3637
B(  2-C , 20-H ) :   0.9811 B(  3-C ,  4-C ) :   1.3870 B(  3-C , 17-O ) :   0.9555
B(  4-C ,  5-C ) :   1.3637 B(  4-C ,  6-O ) :   0.9555 B(  5-C , 21-H ) :   0.9811
B(  6-O ,  7-C ) :   1.0904 B(  7-C ,  8-C ) :   1.4330 B(  7-C , 12-C ) :   1.2382
B(  8-C ,  9-C ) :   1.2381 B(  8-C , 17-O ) :   1.0904 B(  9-C , 10-C ) :   1.2509
B(  9-C , 16-Cl) :   1.2340 B( 10-C , 11-C ) :   1.3046 B( 10-C , 15-Cl) :   1.1740
B( 11-C , 12-C ) :   1.2510 B( 11-C , 14-Cl) :   1.1740 B( 12-C , 13-Cl) :   1.2339

Dispersion correction           -0.012906078
FINAL SINGLE POINT ENERGY     -2450.772348842874

DIPOLE MOMENT
-------------

Method             : SCF
Type of density    : Electron Density
Multiplicity       :   1
Irrep              :   0
Energy             : -2450.7713540842601105 Eh
Relativity type    :
Basis              : AO
                                X                 Y                 Z
Electronic contribution:    -28.948140364       0.000007028      -0.003234924
Nuclear contribution   :     30.228223500      -0.000006823       0.003619505
                        -----------------------------------------
Total Dipole Moment    :      1.280083136       0.000000205       0.000384582
                        -----------------------------------------
Magnitude (a.u.)       :      1.280083193
Magnitude (Debye)      :      3.253712901

VIBRATIONAL FREQUENCIES
-----------------------

Scaling factor for frequencies =  1.000000000  (already applied!)

     0:       0.00 cm**-1
     1:       0.00 cm**-1
     2:       0.00 cm**-1
     3:       0.00 cm**-1
     4:       0.00 cm**-1
     5:       0.00 cm**-1
     6:      38.20 cm**-1
     7:      76.32 cm**-1
     8:      81.00 cm**-1
     9:      98.82 cm**-1
    10:     139.55 cm**-1
    11:     187.94 cm**-1
    12:     203.91 cm**-1
    13:     215.04 cm**-1
    14:     219.41 cm**-1
    15:     224.53 cm**-1
    16:     289.83 cm**-1
    17:     300.28 cm**-1
    18:     310.62 cm**-1
    19:     340.06 cm**-1
    20:     344.40 cm**-1
    21:     360.50 cm**-1
    22:     366.21 cm**-1
    23:     455.81 cm**-1
    24:     544.58 cm**-1
    25:     549.64 cm**-1
    26:     552.24 cm**-1
    27:     576.13 cm**-1
    28:     592.05 cm**-1
    29:     606.19 cm**-1
    30:     617.63 cm**-1
    31:     667.43 cm**-1
    32:     674.16 cm**-1
    33:     705.02 cm**-1
    34:     732.01 cm**-1
    35:     755.21 cm**-1
    36:     792.44 cm**-1
    37:     836.94 cm**-1
    38:     848.68 cm**-1
    39:     898.38 cm**-1
    40:     925.27 cm**-1
    41:     942.86 cm**-1
    42:     961.25 cm**-1
    43:     987.60 cm**-1
    44:    1049.22 cm**-1
    45:    1119.76 cm**-1
    46:    1175.95 cm**-1
    47:    1181.57 cm**-1
    48:    1202.81 cm**-1
    49:    1233.36 cm**-1
    50:    1291.65 cm**-1
    51:    1296.01 cm**-1
    52:    1319.89 cm**-1
    53:    1366.28 cm**-1
    54:    1391.10 cm**-1
    55:    1437.58 cm**-1
    56:    1487.33 cm**-1
    57:    1516.56 cm**-1
    58:    1579.64 cm**-1
    59:    1581.20 cm**-1
    60:    1646.52 cm**-1
    61:    1651.30 cm**-1
    62:    3174.27 cm**-1
    63:    3182.85 cm**-1
    64:    3190.04 cm**-1
    65:    3197.28 cm**-1

IR SPECTRUM
-----------

 Mode   freq       eps      Int      T**2         TX        TY        TZ
       cm**-1   L/(mol*cm) km/mol    a.u.
----------------------------------------------------------------------------
  6:     38.20   0.000065    0.33  0.000531  ( 0.000036  0.000050  0.023052)
  7:     76.32   0.000000    0.00  0.000000  ( 0.000033  0.000197 -0.000004)
  8:     81.00   0.000007    0.03  0.000025  (-0.000012  0.000016 -0.005030)
  9:     98.82   0.000000    0.00  0.000000  (-0.000023 -0.000084  0.000004)
 10:    139.55   0.000095    0.48  0.000213  (-0.000000 -0.014611 -0.000001)
 11:    187.94   0.000027    0.13  0.000044  ( 0.000008 -0.000020 -0.006641)
 12:    203.91   0.000000    0.00  0.000000  (-0.000165 -0.000000 -0.000015)
 13:    215.04   0.000044    0.22  0.000064  ( 0.000000  0.008007  0.000001)
 14:    219.41   0.000000    0.00  0.000000  ( 0.000004 -0.000035  0.000009)
 15:    224.53   0.000002    0.01  0.000003  (-0.001648  0.000000 -0.000001)
 16:    289.83   0.000076    0.38  0.000082  ( 0.000168 -0.000030  0.009040)
 17:    300.28   0.000346    1.75  0.000359  (-0.018955 -0.000000 -0.000006)
 18:    310.62   0.000001    0.00  0.000001  (-0.000000 -0.000969 -0.000001)
 19:    340.06   0.000191    0.96  0.000175  (-0.013227 -0.000000 -0.000017)
 20:    344.40   0.000000    0.00  0.000000  (-0.000001 -0.000034  0.000014)
 21:    360.50   0.000000    0.00  0.000000  (-0.000000 -0.000338 -0.000006)
 22:    366.21   0.000126    0.64  0.000107  (-0.000002  0.000002  0.010362)
 23:    455.81   0.000781    3.95  0.000535  (-0.000012 -0.000019 -0.023125)
 24:    544.58   0.000489    2.47  0.000280  ( 0.000000 -0.016733 -0.000001)
 25:    549.64   0.000779    3.93  0.000442  (-0.021024 -0.000000  0.000040)
 26:    552.24   0.000000    0.00  0.000000  ( 0.000007 -0.000014  0.000016)
 27:    576.13   0.000276    1.39  0.000149  ( 0.000000 -0.012222  0.000004)
 28:    592.05   0.000560    2.83  0.000295  ( 0.017187  0.000000  0.000035)
 29:    606.19   0.000148    0.75  0.000076  ( 0.000014 -0.000045 -0.008736)
 30:    617.63   0.000000    0.00  0.000000  (-0.000002  0.000034  0.000009)
 31:    667.43   0.000000    0.00  0.000000  (-0.000000  0.000066 -0.000000)
 32:    674.16   0.005879   29.71  0.002721  ( 0.000000  0.052167  0.000002)
 33:    705.02   0.000000    0.00  0.000000  ( 0.000036  0.000058 -0.000022)
 34:    732.01   0.000082    0.42  0.000035  (-0.005929 -0.000000 -0.000014)
 35:    755.21   0.014215   71.84  0.005874  ( 0.000021  0.000046  0.076640)
 36:    792.44   0.008141   41.14  0.003206  (-0.000000 -0.056622  0.000002)
 37:    836.94   0.014981   75.71  0.005586  ( 0.074737 -0.000000  0.000002)
 38:    848.68   0.000000    0.00  0.000000  (-0.000011 -0.000009  0.000004)
 39:    898.38   0.006808   34.40  0.002365  ( 0.000000 -0.048628 -0.000002)
 40:    925.27   0.000700    3.54  0.000236  (-0.000019  0.000023  0.015364)
 41:    942.86   0.000000    0.00  0.000000  ( 0.000016  0.000050  0.000008)
 42:    961.25   0.021895  110.65  0.007108  (-0.084309  0.000000  0.000002)
 43:    987.60   0.001188    6.00  0.000375  (-0.000000  0.019375  0.000003)
 44:   1049.22   0.003513   17.75  0.001045  ( 0.032323  0.000000  0.000015)
 45:   1119.76   0.004303   21.75  0.001199  (-0.000000 -0.034630 -0.000004)
 46:   1175.95   0.001485    7.50  0.000394  ( 0.019850 -0.000000  0.000007)
 47:   1181.57   0.000403    2.04  0.000107  ( 0.000000  0.010321 -0.000003)
 48:   1202.81   0.000417    2.11  0.000108  (-0.000001  0.010397 -0.000003)
 49:   1233.36   0.036894  186.45  0.009335  (-0.096617 -0.000000 -0.000032)
 50:   1291.65   0.035299  178.39  0.008528  ( 0.092349 -0.000000  0.000029)
 51:   1296.01   0.000642    3.24  0.000155  ( 0.000001  0.012434  0.000003)
 52:   1319.89   0.010454   52.83  0.002472  ( 0.049716  0.000000  0.000003)
 53:   1366.28   0.003514   17.76  0.000803  (-0.028331 -0.000000  0.000001)
 54:   1391.10   0.017534   88.61  0.003933  (-0.000000  0.062717  0.000002)
 55:   1437.58   0.154315  779.84  0.033498  ( 0.183024 -0.000000 -0.000009)
 56:   1487.33   0.001669    8.43  0.000350  ( 0.000000  0.018712  0.000000)
 57:   1516.56   0.049241  248.84  0.010132  ( 0.100660 -0.000000  0.000039)
 58:   1579.64   0.007549   38.15  0.001491  ( 0.038617 -0.000000  0.000005)
 59:   1581.20   0.000004    0.02  0.000001  ( 0.000004  0.000907 -0.000003)
 60:   1646.52   0.000140    0.71  0.000027  ( 0.000000 -0.005158  0.000000)
 61:   1651.30   0.003009   15.21  0.000569  (-0.023847  0.000000 -0.000008)
 62:   3174.27   0.000233    1.18  0.000023  (-0.000000 -0.004787 -0.000001)
 63:   3182.85   0.001313    6.64  0.000129  (-0.011346  0.000000 -0.000006)
 64:   3190.04   0.000395    1.99  0.000039  (-0.000000 -0.006213 -0.000001)
 65:   3197.28   0.001286    6.50  0.000126  (-0.011203  0.000000 -0.000004)

--------------------------
THERMOCHEMISTRY AT 298.15K
--------------------------

Temperature         ...   298.15 K
Pressure            ...     1.00 atm
Total Mass          ...   321.97 AMU
Quasi RRHO          ...     True
Cut-Off Frequency   ...     1.00 cm^-1

Throughout the following assumptions are being made:
  (1) The electronic state is orbitally nondegenerate
  (2) There are no thermally accessible electronically excited states
  (3) Hindered rotations indicated by low frequency modes are not
      treated as such but are treated as vibrations and this may
      cause some error
  (4) All equations used are the standard statistical mechanics
      equations for an ideal gas
  (5) All vibrations are strictly harmonic

freq.      38.20  E(vib)   ...       0.54
freq.      76.32  E(vib)   ...       0.49
freq.      81.00  E(vib)   ...       0.48
freq.      98.82  E(vib)   ...       0.46
freq.     139.55  E(vib)   ...       0.42
freq.     187.94  E(vib)   ...       0.36
freq.     203.91  E(vib)   ...       0.35
freq.     215.04  E(vib)   ...       0.34
freq.     219.41  E(vib)   ...       0.33
freq.     224.53  E(vib)   ...       0.33
freq.     289.83  E(vib)   ...       0.27
freq.     300.28  E(vib)   ...       0.26
freq.     310.62  E(vib)   ...       0.26
freq.     340.06  E(vib)   ...       0.23
freq.     344.40  E(vib)   ...       0.23
freq.     360.50  E(vib)   ...       0.22
freq.     366.21  E(vib)   ...       0.22
freq.     455.81  E(vib)   ...       0.16
freq.     544.58  E(vib)   ...       0.12
freq.     549.64  E(vib)   ...       0.12
freq.     552.24  E(vib)   ...       0.12
freq.     576.13  E(vib)   ...       0.11
freq.     592.05  E(vib)   ...       0.10
freq.     606.19  E(vib)   ...       0.10
freq.     617.63  E(vib)   ...       0.09
freq.     667.43  E(vib)   ...       0.08
freq.     674.16  E(vib)   ...       0.08
freq.     705.02  E(vib)   ...       0.07
freq.     732.01  E(vib)   ...       0.06
freq.     755.21  E(vib)   ...       0.06
freq.     792.44  E(vib)   ...       0.05
freq.     836.94  E(vib)   ...       0.04
freq.     848.68  E(vib)   ...       0.04
freq.     898.38  E(vib)   ...       0.03
freq.     925.27  E(vib)   ...       0.03
freq.     942.86  E(vib)   ...       0.03
freq.     961.25  E(vib)   ...       0.03
freq.     987.60  E(vib)   ...       0.02
freq.    1049.22  E(vib)   ...       0.02
freq.    1119.76  E(vib)   ...       0.01
freq.    1175.95  E(vib)   ...       0.01
freq.    1181.57  E(vib)   ...       0.01
freq.    1202.81  E(vib)   ...       0.01
freq.    1233.36  E(vib)   ...       0.01
freq.    1291.65  E(vib)   ...       0.01
freq.    1296.01  E(vib)   ...       0.01
freq.    1319.89  E(vib)   ...       0.01
freq.    1366.28  E(vib)   ...       0.01
freq.    1391.10  E(vib)   ...       0.00
freq.    1437.58  E(vib)   ...       0.00
freq.    1487.33  E(vib)   ...       0.00
freq.    1516.56  E(vib)   ...       0.00
freq.    1579.64  E(vib)   ...       0.00
freq.    1581.20  E(vib)   ...       0.00
freq.    1646.52  E(vib)   ...       0.00
freq.    1651.30  E(vib)   ...       0.00
freq.    3174.27  E(vib)   ...       0.00
freq.    3182.85  E(vib)   ...       0.00
freq.    3190.04  E(vib)   ...       0.00
freq.    3197.28  E(vib)   ...       0.00

------------
INNER ENERGY
------------

The inner energy is: U= E(el) + E(ZPE) + E(vib) + E(rot) + E(trans)
    E(el)   - is the total energy from the electronic structure calculation
              = E(kin-el) + E(nuc-el) + E(el-el) + E(nuc-nuc)
    E(ZPE)  - the the zero temperature vibrational energy from the frequency calculation
    E(vib)  - the the finite temperature correction to E(ZPE) due to population
              of excited vibrational states
    E(rot)  - is the rotational thermal energy
    E(trans)- is the translational thermal energy

Summary of contributions to the inner energy U:
Electronic energy                ...  -2450.77234884 Eh
Zero point energy                ...      0.12823881 Eh      80.47 kcal/mol
Thermal vibrational correction   ...      0.01190417 Eh       7.47 kcal/mol
Thermal rotational correction    ...      0.00141627 Eh       0.89 kcal/mol
Thermal translational correction ...      0.00141627 Eh       0.89 kcal/mol
-----------------------------------------------------------------------
Total thermal energy                  -2450.62937332 Eh

Summary of corrections to the electronic energy:
(perhaps to be used in another calculation)
Total thermal correction                  0.01473671 Eh       9.25 kcal/mol
Non-thermal (ZPE) correction              0.12823881 Eh      80.47 kcal/mol
-----------------------------------------------------------------------
Total correction                          0.14297552 Eh      89.72 kcal/mol

--------
ENTHALPY
--------

The enthalpy is H = U + kB*T
                kB is Boltzmann's constant
Total thermal energy              ...  -2450.62937332 Eh
Thermal Enthalpy correction       ...      0.00094421 Eh       0.59 kcal/mol
-----------------------------------------------------------------------
Total Enthalpy                    ...  -2450.62842912 Eh

Note: Only C1 symmetry has been detected, increase convergence thresholds
      if your molecule has a higher symmetry. Symmetry factor of 1.0 is
      used for the rotational entropy correction.

Note: Rotational entropy computed according to Herzberg
Infrared and Raman Spectra, Chapter V,1, Van Nostrand Reinhold, 1945
Point Group:  C1, Symmetry Number:   1
Rotational constants in cm-1:     0.015494     0.007006     0.004825

Vibrational entropy computed according to the QRRHO of S. Grimme
Chem.Eur.J. 2012 18 9955 using a reference frequency of 100.0 cm-1

-------
ENTROPY
-------

The entropy contributions are T*S = T*(S(el)+S(vib)+S(rot)+S(trans))
     S(el)   - electronic entropy
     S(vib)  - vibrational entropy
     S(rot)  - rotational entropy
     S(trans)- translational entropy
The entropies will be listed as multiplied by the temperature to get
units of energy

Electronic entropy                ...      0.00000000 Eh      0.00 kcal/mol
Vibrational entropy               ...      0.02040058 Eh     12.80 kcal/mol
Rotational entropy                ...      0.01633832 Eh     10.25 kcal/mol
Translational entropy             ...      0.02052729 Eh     12.88 kcal/mol
-----------------------------------------------------------------------
Final entropy term                ...      0.05726618 Eh     35.93 kcal/mol

In case the symmetry of your molecule has not been determined correctly
or in case you have a reason to use a different symmetry number we print
out the resulting rotational entropy values for sn=1,12:

 non-linear molecules -----------------------------------

                             ****ORCA TERMINATED NORMALLY****
TOTAL RUN TIME: 0 days 0 hours 41 minutes 36 seconds 378 msec
