                         Program Version 6.0.0  -   RELEASE  -
|  1> ! r2SCAN-3c DEF2-TZVP FREQ
|  2> * xyzfile 0 1 vacuum_censo.xyz
|  3>
|  4>                          ****END OF INPUT****

CARTESIAN COORDINATES (ANGSTROEM)
---------------------------------
  C      5.157789    0.695447    0.000128
  C      5.157790   -0.695437   -0.000031
  C      3.954075   -1.395630   -0.000129
  C      2.759870   -0.694940   -0.000073
  C      2.759869    0.694946    0.000052
  C      3.954072    1.395638    0.000169
  O      1.582096    1.420850    0.000060
  C      0.421720    0.697349    0.000014
  C      0.421721   -0.697347   -0.000065
  C     -0.784025   -1.394600   -0.000045
  C     -2.000218   -0.699105   -0.000013
  C     -2.000220    0.699101    0.000017
  C     -0.784028    1.394598    0.000023
  Cl    -0.738262    3.123261    0.000058
  Cl    -3.489833    1.574674    0.000033
  Cl    -3.489829   -1.574681    0.000006
  Cl    -0.738255   -3.123262   -0.000080
  O      1.582098   -1.420845   -0.000146
  H      6.093397    1.242981    0.000220
  H      6.093400   -1.242969   -0.000076
  H      3.922302   -2.479421   -0.000246
  H      3.922298    2.479429    0.000284

 Total Charge           Charge          ....    0
 Multiplicity           Mult            ....    1
 Number of Electrons    NEL             ....  160
 Basis Dimension        Dim             ....  606

ORBITAL ENERGIES
----------------

  NO   OCC          E(Eh)            E(eV)
   0   2.0000    -101.212430     -2754.1303
   1   2.0000    -101.212427     -2754.1302
   2   2.0000    -101.210840     -2754.0870
   3   2.0000    -101.210833     -2754.0868
   4   2.0000     -19.038423      -518.0618
   5   2.0000     -19.038410      -518.0615
   6   2.0000     -10.141892      -275.9749
   7   2.0000     -10.141473      -275.9635
   8   2.0000     -10.132299      -275.7139
   9   2.0000     -10.131900      -275.7030
  10   2.0000     -10.130343      -275.6607
  11   2.0000     -10.130338      -275.6605
  12   2.0000     -10.124580      -275.5038
  13   2.0000     -10.124142      -275.4919
  14   2.0000     -10.060310      -273.7550
  15   2.0000     -10.060299      -273.7547
  16   2.0000     -10.056915      -273.6626
  17   2.0000     -10.056479      -273.6507
  18   2.0000      -9.388066      -255.4623
  19   2.0000      -9.388064      -255.4622
  20   2.0000      -9.386571      -255.4216
  21   2.0000      -9.386565      -255.4214
  22   2.0000      -7.133503      -194.1125
  23   2.0000      -7.133502      -194.1125
  24   2.0000      -7.131940      -194.0700
  25   2.0000      -7.131938      -194.0699
  26   2.0000      -7.123011      -193.8270
  27   2.0000      -7.123011      -193.8270
  28   2.0000      -7.122072      -193.8014
  29   2.0000      -7.122071      -193.8014
  30   2.0000      -7.121536      -193.7868
  31   2.0000      -7.121535      -193.7868
  32   2.0000      -7.120586      -193.7610
  33   2.0000      -7.120585      -193.7610
  34   2.0000      -1.105606       -30.0851
  35   2.0000      -1.071884       -29.1674
  36   2.0000      -0.916102       -24.9284
  37   2.0000      -0.871692       -23.7199
  38   2.0000      -0.859770       -23.3955
  39   2.0000      -0.839572       -22.8459
  40   2.0000      -0.821227       -22.3467
  41   2.0000      -0.803968       -21.8771
  42   2.0000      -0.754511       -20.5313
  43   2.0000      -0.746573       -20.3153
  44   2.0000      -0.708302       -19.2739
  45   2.0000      -0.705720       -19.2036
  46   2.0000      -0.649846       -17.6832
  47   2.0000      -0.623300       -16.9609
  48   2.0000      -0.594751       -16.1840
  49   2.0000      -0.576473       -15.6866
  50   2.0000      -0.565228       -15.3806
  51   2.0000      -0.524994       -14.2858
  52   2.0000      -0.500615       -13.6224
  53   2.0000      -0.482371       -13.1260
  54   2.0000      -0.476331       -12.9616
  55   2.0000      -0.468770       -12.7559
  56   2.0000      -0.445580       -12.1249
  57   2.0000      -0.442438       -12.0394
  58   2.0000      -0.430686       -11.7196
  59   2.0000      -0.419450       -11.4138
  60   2.0000      -0.417545       -11.3620
  61   2.0000      -0.413800       -11.2601
  62   2.0000      -0.412590       -11.2271
  63   2.0000      -0.405944       -11.0463
  64   2.0000      -0.368269       -10.0211
  65   2.0000      -0.363615        -9.8945
  66   2.0000      -0.363132        -9.8813
  67   2.0000      -0.360615        -9.8128
  68   2.0000      -0.332613        -9.0509
  69   2.0000      -0.329279        -8.9602
  70   2.0000      -0.320609        -8.7242
  71   2.0000      -0.317534        -8.6405
  72   2.0000      -0.314404        -8.5554
  73   2.0000      -0.301438        -8.2025
  74   2.0000      -0.296176        -8.0593
  75   2.0000      -0.280435        -7.6310
  76   2.0000      -0.257978        -7.0199
  77   2.0000      -0.255586        -6.9548
  78   2.0000      -0.230867        -6.2822
  79   2.0000      -0.203568        -5.5394
  80   0.0000      -0.072115        -1.9624
  81   0.0000      -0.068615        -1.8671
  82   0.0000      -0.066074        -1.7980
  83   0.0000      -0.054510        -1.4833
  84   0.0000      -0.027534        -0.7492

MULLIKEN ATOMIC CHARGES
-----------------------
   0 C :   -0.088766
   1 C :   -0.088754
   2 C :   -0.241599
   3 C :    0.232358
   4 C :    0.232324
   5 C :   -0.241574
   6 O :   -0.231660
   7 C :    0.222293
   8 C :    0.222246
   9 C :   -0.091937
  10 C :    0.054509
  11 C :    0.054546
  12 C :   -0.091985
  13 Cl:   -0.049137
  14 Cl:   -0.046748
  15 Cl:   -0.046747
  16 Cl:   -0.049140
  17 O :   -0.231664
  18 H :    0.118797
  19 H :    0.118792
  20 H :    0.121919
  21 H :    0.121928
Sum of atomic charges:    0.0000000

LOEWDIN ATOMIC CHARGES
----------------------
   0 C :   -0.138625
   1 C :   -0.138625
   2 C :   -0.103061
   3 C :   -0.197425
   4 C :   -0.197425
   5 C :   -0.103061
   6 O :    0.344130
   7 C :   -0.218373
   8 C :   -0.218373
   9 C :   -0.421690
  10 C :   -0.458596
  11 C :   -0.458596
  12 C :   -0.421690
  13 Cl:    0.448419
  14 Cl:    0.442810
  15 Cl:    0.442810
  16 Cl:    0.448420
  17 O :    0.344131
  18 H :    0.147238
  19 H :    0.147238
  20 H :    0.155172
  21 H :    0.155172

  Mayer bond orders larger than 0.100000
B(  0-C ,  1-C ) :   1.3924 B(  0-C ,  5-C ) :   1.3671 B(  0-C , 18-H ) :   0.9714
B(  1-C ,  2-C ) :   1.3670 B(  1-C , 19-H ) :   0.9714 B(  2-C ,  3-C ) :   1.3637
B(  2-C , 20-H ) :   0.9812 B(  3-C ,  4-C ) :   1.3833 B(  3-C , 17-O ) :   0.9597
B(  4-C ,  5-C ) :   1.3637 B(  4-C ,  6-O ) :   0.9597 B(  5-C , 21-H ) :   0.9812
B(  6-O ,  7-C ) :   1.0843 B(  7-C ,  8-C ) :   1.4349 B(  7-C , 12-C ) :   1.2377
B(  8-C ,  9-C ) :   1.2377 B(  8-C , 17-O ) :   1.0843 B(  9-C , 10-C ) :   1.2507
B(  9-C , 16-Cl) :   1.2373 B( 10-C , 11-C ) :   1.3040 B( 10-C , 15-Cl) :   1.1750
B( 11-C , 12-C ) :   1.2507 B( 11-C , 14-Cl) :   1.1750 B( 12-C , 13-Cl) :   1.2373

Dispersion correction           -0.012918209
FINAL SINGLE POINT ENERGY     -2450.772710008237

DIPOLE MOMENT
-------------

Method             : SCF
Type of density    : Electron Density
Multiplicity       :   1
Irrep              :   0
Energy             : -2450.7717242328399152 Eh
Relativity type    :
Basis              : AO
                                X                 Y                 Z
Electronic contribution:    -28.953235989      -0.000029356      -0.000131784
Nuclear contribution   :     30.187011112       0.000029773       0.000147688
                        -----------------------------------------
Total Dipole Moment    :      1.233775123       0.000000417       0.000015904
                        -----------------------------------------
Magnitude (a.u.)       :      1.233775123
Magnitude (Debye)      :      3.136007141

VIBRATIONAL FREQUENCIES
-----------------------

Scaling factor for frequencies =  1.000000000  (already applied!)

     0:       0.00 cm**-1
     1:       0.00 cm**-1
     2:       0.00 cm**-1
     3:       0.00 cm**-1
     4:       0.00 cm**-1
     5:       0.00 cm**-1
     6:      31.91 cm**-1
     7:      73.86 cm**-1
     8:      79.83 cm**-1
     9:      97.54 cm**-1
    10:     139.23 cm**-1
    11:     185.09 cm**-1
    12:     203.63 cm**-1
    13:     214.52 cm**-1
    14:     215.51 cm**-1
    15:     224.09 cm**-1
    16:     284.55 cm**-1
    17:     301.25 cm**-1
    18:     311.38 cm**-1
    19:     341.00 cm**-1
    20:     344.47 cm**-1
    21:     361.66 cm**-1
    22:     365.31 cm**-1
    23:     452.76 cm**-1
    24:     545.54 cm**-1
    25:     550.96 cm**-1
    26:     551.31 cm**-1
    27:     577.93 cm**-1
    28:     592.73 cm**-1
    29:     607.09 cm**-1
    30:     617.74 cm**-1
    31:     667.23 cm**-1
    32:     676.15 cm**-1
    33:     704.69 cm**-1
    34:     735.92 cm**-1
    35:     754.02 cm**-1
    36:     795.83 cm**-1
    37:     840.92 cm**-1
    38:     847.43 cm**-1
    39:     903.38 cm**-1
    40:     923.55 cm**-1
    41:     941.47 cm**-1
    42:     964.95 cm**-1
    43:     992.14 cm**-1
    44:    1051.15 cm**-1
    45:    1124.68 cm**-1
    46:    1176.37 cm**-1
    47:    1195.47 cm**-1
    48:    1208.69 cm**-1
    49:    1240.70 cm**-1
    50:    1297.65 cm**-1
    51:    1298.86 cm**-1
    52:    1313.91 cm**-1
    53:    1365.52 cm**-1
    54:    1390.64 cm**-1
    55:    1438.18 cm**-1
    56:    1487.90 cm**-1
    57:    1521.57 cm**-1
    58:    1577.01 cm**-1
    59:    1578.27 cm**-1
    60:    1648.42 cm**-1
    61:    1649.98 cm**-1
    62:    3176.11 cm**-1
    63:    3185.46 cm**-1
    64:    3192.95 cm**-1
    65:    3199.51 cm**-1

IR SPECTRUM
-----------

 Mode   freq       eps      Int      T**2         TX        TY        TZ
       cm**-1   L/(mol*cm) km/mol    a.u.
----------------------------------------------------------------------------
  6:     31.91   0.000060    0.30  0.000586  ( 0.000001  0.000039  0.024212)
  7:     73.86   0.000000    0.00  0.000000  ( 0.000026  0.000009 -0.000000)
  8:     79.83   0.000005    0.02  0.000019  (-0.000000 -0.000014  0.004339)
  9:     97.54   0.000000    0.00  0.000000  (-0.000017 -0.000003  0.000000)
 10:    139.23   0.000088    0.45  0.000198  (-0.000000  0.014075  0.000000)
 11:    185.09   0.000023    0.12  0.000039  ( 0.000001 -0.000018 -0.006242)
 12:    203.63   0.000000    0.00  0.000000  ( 0.000420 -0.000000 -0.000001)
 13:    214.52   0.000043    0.22  0.000063  ( 0.000000  0.007919  0.000000)
 14:    215.51   0.000000    0.00  0.000000  ( 0.000003 -0.000004  0.000000)
 15:    224.09   0.000002    0.01  0.000003  ( 0.001596  0.000000  0.000000)
 16:    284.55   0.000091    0.46  0.000100  ( 0.000007 -0.000018  0.009979)
 17:    301.25   0.000304    1.53  0.000315  (-0.017738 -0.000000 -0.000000)
 18:    311.38   0.000001    0.01  0.000001  (-0.000000 -0.001155 -0.000000)
 19:    341.00   0.000176    0.89  0.000161  (-0.012706  0.000000 -0.000001)
 20:    344.47   0.000000    0.00  0.000000  (-0.000002  0.000000  0.000000)
 21:    361.66   0.000000    0.00  0.000000  ( 0.000000 -0.000239 -0.000006)
 22:    365.31   0.000121    0.61  0.000103  ( 0.000001 -0.000003  0.010160)
 23:    452.76   0.000794    4.01  0.000547  (-0.000001 -0.000008 -0.023399)
 24:    545.54   0.000454    2.30  0.000260  ( 0.000000 -0.016118 -0.000000)
 25:    550.96   0.000784    3.96  0.000444  (-0.021069  0.000000  0.000002)
 26:    551.31   0.000000    0.00  0.000000  ( 0.000066 -0.000000  0.000000)
 27:    577.93   0.000250    1.26  0.000135  ( 0.000000 -0.011626  0.000003)
 28:    592.73   0.000662    3.35  0.000349  ( 0.018672  0.000000  0.000001)
 29:    607.09   0.000150    0.76  0.000077  (-0.000001 -0.000035 -0.008781)
 30:    617.74   0.000000    0.00  0.000000  (-0.000000  0.000003  0.000001)
 31:    667.23   0.000000    0.00  0.000000  (-0.000003  0.000004 -0.000001)
 32:    676.15   0.005688   28.75  0.002625  (-0.000000  0.051238  0.000001)
 33:    704.69   0.000000    0.00  0.000000  (-0.000027  0.000000  0.000002)
 34:    735.92   0.000222    1.12  0.000094  (-0.009697 -0.000000 -0.000001)
 35:    754.02   0.014167   71.59  0.005863  ( 0.000001  0.000031  0.076571)
 36:    795.83   0.008457   42.74  0.003316  ( 0.000000 -0.057587  0.000001)
 37:    840.92   0.013815   69.82  0.005127  ( 0.071602  0.000000  0.000000)
 38:    847.43   0.000000    0.00  0.000000  (-0.000014 -0.000000  0.000000)
 39:    903.38   0.006567   33.19  0.002268  ( 0.000000 -0.047629 -0.000001)
 40:    923.55   0.000704    3.56  0.000238  (-0.000001  0.000016  0.015418)
 41:    941.47   0.000000    0.00  0.000000  ( 0.000011  0.000002 -0.000001)
 42:    964.95   0.020196  102.06  0.006532  (-0.080818 -0.000000  0.000000)
 43:    992.14   0.001158    5.85  0.000364  (-0.000000  0.019086  0.000002)
 44:   1051.15   0.003296   16.66  0.000979  ( 0.031281  0.000000  0.000001)
 45:   1124.68   0.004289   21.67  0.001190  ( 0.000000 -0.034495 -0.000003)
 46:   1176.37   0.000971    4.90  0.000257  ( 0.016046  0.000000  0.000000)
 47:   1195.47   0.001192    6.03  0.000311  (-0.000000  0.017642 -0.000002)
 48:   1208.69   0.000131    0.66  0.000034  (-0.000000  0.005815 -0.000001)
 49:   1240.70   0.026805  135.46  0.006742  ( 0.082110  0.000000  0.000001)
 50:   1297.65   0.000536    2.71  0.000129  (-0.000005 -0.011352 -0.000002)
 51:   1298.86   0.030044  151.83  0.007218  (-0.084961  0.000001 -0.000001)
 52:   1313.91   0.019851  100.32  0.004715  (-0.068663 -0.000000 -0.000000)
 53:   1365.52   0.003018   15.25  0.000690  (-0.026264 -0.000000  0.000000)
 54:   1390.64   0.017697   89.43  0.003971  ( 0.000000  0.063018  0.000002)
 55:   1438.18   0.157630  796.60  0.034203  ( 0.184941  0.000000 -0.000000)
 56:   1487.90   0.001651    8.34  0.000346  (-0.000000  0.018607  0.000000)
 57:   1521.57   0.058839  297.35  0.012068  ( 0.109852  0.000000  0.000002)
 58:   1577.01   0.007702   38.92  0.001524  ( 0.039039  0.000000  0.000000)
 59:   1578.27   0.000000    0.00  0.000000  (-0.000003  0.000213 -0.000002)
 60:   1648.42   0.000161    0.81  0.000030  (-0.000001 -0.005521  0.000000)
 61:   1649.98   0.003791   19.16  0.000717  (-0.026776  0.000000 -0.000000)
 62:   3176.11   0.000240    1.21  0.000024  (-0.000000  0.004854  0.000001)
 63:   3185.46   0.001470    7.43  0.000144  ( 0.012002 -0.000000  0.000000)
 64:   3192.95   0.000435    2.20  0.000042  ( 0.000000  0.006517  0.000001)
 65:   3199.51   0.001160    5.86  0.000113  ( 0.010635  0.000000  0.000000)

--------------------------
THERMOCHEMISTRY AT 298.15K
--------------------------

Temperature         ...   298.15 K
Pressure            ...     1.00 atm
Total Mass          ...   321.97 AMU
Quasi RRHO          ...     True
Cut-Off Frequency   ...     1.00 cm^-1

Throughout the following assumptions are being made:
  (1) The electronic state is orbitally nondegenerate
  (2) There are no thermally accessible electronically excited states
  (3) Hindered rotations indicated by low frequency modes are not
      treated as such but are treated as vibrations and this may
      cause some error
  (4) All equations used are the standard statistical mechanics
      equations for an ideal gas
  (5) All vibrations are strictly harmonic

freq.      31.91  E(vib)   ...       0.55
freq.      73.86  E(vib)   ...       0.49
freq.      79.83  E(vib)   ...       0.49
freq.      97.54  E(vib)   ...       0.46
freq.     139.23  E(vib)   ...       0.42
freq.     185.09  E(vib)   ...       0.37
freq.     203.63  E(vib)   ...       0.35
freq.     214.52  E(vib)   ...       0.34
freq.     215.51  E(vib)   ...       0.34
freq.     224.09  E(vib)   ...       0.33
freq.     284.55  E(vib)   ...       0.28
freq.     301.25  E(vib)   ...       0.26
freq.     311.38  E(vib)   ...       0.25
freq.     341.00  E(vib)   ...       0.23
freq.     344.47  E(vib)   ...       0.23
freq.     361.66  E(vib)   ...       0.22
freq.     365.31  E(vib)   ...       0.22
freq.     452.76  E(vib)   ...       0.16
freq.     545.54  E(vib)   ...       0.12
freq.     550.96  E(vib)   ...       0.12
freq.     551.31  E(vib)   ...       0.12
freq.     577.93  E(vib)   ...       0.11
freq.     592.73  E(vib)   ...       0.10
freq.     607.09  E(vib)   ...       0.10
freq.     617.74  E(vib)   ...       0.09
freq.     667.23  E(vib)   ...       0.08
freq.     676.15  E(vib)   ...       0.08
freq.     704.69  E(vib)   ...       0.07
freq.     735.92  E(vib)   ...       0.06
freq.     754.02  E(vib)   ...       0.06
freq.     795.83  E(vib)   ...       0.05
freq.     840.92  E(vib)   ...       0.04
freq.     847.43  E(vib)   ...       0.04
freq.     903.38  E(vib)   ...       0.03
freq.     923.55  E(vib)   ...       0.03
freq.     941.47  E(vib)   ...       0.03
freq.     964.95  E(vib)   ...       0.03
freq.     992.14  E(vib)   ...       0.02
freq.    1051.15  E(vib)   ...       0.02
freq.    1124.68  E(vib)   ...       0.01
freq.    1176.37  E(vib)   ...       0.01
freq.    1195.47  E(vib)   ...       0.01
freq.    1208.69  E(vib)   ...       0.01
freq.    1240.70  E(vib)   ...       0.01
freq.    1297.65  E(vib)   ...       0.01
freq.    1298.86  E(vib)   ...       0.01
freq.    1313.91  E(vib)   ...       0.01
freq.    1365.52  E(vib)   ...       0.01
freq.    1390.64  E(vib)   ...       0.00
freq.    1438.18  E(vib)   ...       0.00
freq.    1487.90  E(vib)   ...       0.00
freq.    1521.57  E(vib)   ...       0.00
freq.    1577.01  E(vib)   ...       0.00
freq.    1578.27  E(vib)   ...       0.00
freq.    1648.42  E(vib)   ...       0.00
freq.    1649.98  E(vib)   ...       0.00
freq.    3176.11  E(vib)   ...       0.00
freq.    3185.46  E(vib)   ...       0.00
freq.    3192.95  E(vib)   ...       0.00
freq.    3199.51  E(vib)   ...       0.00

------------
INNER ENERGY
------------

The inner energy is: U= E(el) + E(ZPE) + E(vib) + E(rot) + E(trans)
    E(el)   - is the total energy from the electronic structure calculation
              = E(kin-el) + E(nuc-el) + E(el-el) + E(nuc-nuc)
    E(ZPE)  - the the zero temperature vibrational energy from the frequency calculation
    E(vib)  - the the finite temperature correction to E(ZPE) due to population
              of excited vibrational states
    E(rot)  - is the rotational thermal energy
    E(trans)- is the translational thermal energy

Summary of contributions to the inner energy U:
Electronic energy                ...  -2450.77271001 Eh
Zero point energy                ...      0.12834647 Eh      80.54 kcal/mol
Thermal vibrational correction   ...      0.01193556 Eh       7.49 kcal/mol
Thermal rotational correction    ...      0.00141627 Eh       0.89 kcal/mol
Thermal translational correction ...      0.00141627 Eh       0.89 kcal/mol
-----------------------------------------------------------------------
Total thermal energy                  -2450.62959544 Eh

Summary of corrections to the electronic energy:
(perhaps to be used in another calculation)
Total thermal correction                  0.01476810 Eh       9.27 kcal/mol
Non-thermal (ZPE) correction              0.12834647 Eh      80.54 kcal/mol
-----------------------------------------------------------------------
Total correction                          0.14311457 Eh      89.81 kcal/mol

--------
ENTHALPY
--------

The enthalpy is H = U + kB*T
                kB is Boltzmann's constant
Total thermal energy              ...  -2450.62959544 Eh
Thermal Enthalpy correction       ...      0.00094421 Eh       0.59 kcal/mol
-----------------------------------------------------------------------
Total Enthalpy                    ...  -2450.62865123 Eh

Note: Rotational entropy computed according to Herzberg
Infrared and Raman Spectra, Chapter V,1, Van Nostrand Reinhold, 1945
Point Group:  C2, Symmetry Number:   2
Rotational constants in cm-1:     0.015498     0.007021     0.004832

Vibrational entropy computed according to the QRRHO of S. Grimme
Chem.Eur.J. 2012 18 9955 using a reference frequency of 100.0 cm-1

-------
ENTROPY
-------

The entropy contributions are T*S = T*(S(el)+S(vib)+S(rot)+S(trans))
     S(el)   - electronic entropy
     S(vib)  - vibrational entropy
     S(rot)  - rotational entropy
     S(trans)- translational entropy
The entropies will be listed as multiplied by the temperature to get
units of energy

Electronic entropy                ...      0.00000000 Eh      0.00 kcal/mol
Vibrational entropy               ...      0.02052957 Eh     12.88 kcal/mol
Rotational entropy                ...      0.01568199 Eh      9.84 kcal/mol
Translational entropy             ...      0.02052729 Eh     12.88 kcal/mol
-----------------------------------------------------------------------
Final entropy term                ...      0.05673885 Eh     35.60 kcal/mol

In case the symmetry of your molecule has not been determined correctly
or in case you have a reason to use a different symmetry number we print
out the resulting rotational entropy values for sn=1,12:

 non-linear molecules -----------------------------------
|  sn= 1 | S(rot)=       0.01633645 Eh     10.25 kcal/mol|
|  sn= 2 | S(rot)=       0.01568199 Eh      9.84 kcal/mol|
|  sn= 3 | S(rot)=       0.01529916 Eh      9.60 kcal/mol|
|  sn= 4 | S(rot)=       0.01502754 Eh      9.43 kcal/mol|
|  sn= 5 | S(rot)=       0.01481685 Eh      9.30 kcal/mol|

                             ****ORCA TERMINATED NORMALLY****
TOTAL RUN TIME: 0 days 0 hours 41 minutes 23 seconds 686 msec
