                         Program Version 6.0.1  -  RELEASE   -
|  1> ! pbe def2-sv(p) def2/J RI DEFGRID1 loosescf d4 GCP(DFT/SV(P)) printgap
|  2> %output
|  3>     printlevel normal
|  4> end
|  5> * xyz 0 1
|  6> C -1.8170140562 -1.0433982005 -0.6669623139
|  7> C -1.0381857825 -0.4501806309 0.5270494964
|  8> H -1.6905406968 -0.5175386937 1.4066883735
|  9> C -0.6818105315 1.0382575397 0.326682541
| 10> H -1.4967302104 1.5190137563 -0.2282100643
| 11> C 0.6217924046 1.2447138235 -0.4818124535
| 12> H 0.9159777071 2.2932335993 -0.345283966
| 13> C 1.7337845476 0.3504975553 0.0872356574
| 14> H 2.6025614451 0.3932557516 -0.5871286301
| 15> C 1.2450965688 -1.1097514379 0.1432263884
| 16> H 1.9863745149 -1.7201096735 0.6911724176
| 17> O 0.0810171364 -1.2607420823 0.8876685777
| 18> O 1.1243167827 -1.5712751877 -1.1782366258
| 19> O 2.0608900176 0.8163270112 1.3735585345
| 20> O 0.4557808469 1.0479567978 -1.8579486241
| 21> O -0.6121437998 1.7123065168 1.5541074225
| 22> O -3.1729883299 -0.6861357328 -0.6400714485
| 23> H -1.8021264243 -2.1336963755 -0.5825580566
| 24> H -1.3588686665 -0.7496903368 -1.6201290349
| 25> H 0.7803190734 -2.4727391198 -1.1669315306
| 26> H 2.7355172807 0.2493871777 1.7644161458
| 27> H 0.6019950212 0.1109710668 -2.0548997548
| 28> H 0.2217474145 1.4683735135 1.9817233494
| 29> H -3.2528079102 0.2727475654 -0.6969814194
| 30> *
| 31>
| 32>                          ****END OF INPUT****

CARTESIAN COORDINATES (ANGSTROEM)
---------------------------------
  C     -1.817014   -1.043398   -0.666962
  C     -1.038186   -0.450181    0.527049
  H     -1.690541   -0.517539    1.406688
  C     -0.681811    1.038258    0.326683
  H     -1.496730    1.519014   -0.228210
  C      0.621792    1.244714   -0.481812
  H      0.915978    2.293234   -0.345284
  C      1.733785    0.350498    0.087236
  H      2.602561    0.393256   -0.587129
  C      1.245097   -1.109751    0.143226
  H      1.986375   -1.720110    0.691172
  O      0.081017   -1.260742    0.887669
  O      1.124317   -1.571275   -1.178237
  O      2.060890    0.816327    1.373559
  O      0.455781    1.047957   -1.857949
  O     -0.612144    1.712307    1.554107
  O     -3.172988   -0.686136   -0.640071
  H     -1.802126   -2.133696   -0.582558
  H     -1.358869   -0.749690   -1.620129
  H      0.780319   -2.472739   -1.166932
  H      2.735517    0.249387    1.764416
  H      0.601995    0.110971   -2.054900
  H      0.221747    1.468374    1.981723
  H     -3.252808    0.272748   -0.696981

 Total Charge           Charge          ....    0
 Multiplicity           Mult            ....    1
 Number of Electrons    NEL             ....   96
 Basis Dimension        Dim             ....  192

ORBITAL ENERGIES
----------------

  NO   OCC          E(Eh)            E(eV)
   0   2.0000     -18.796373      -511.4753
   1   2.0000     -18.786617      -511.2098
   2   2.0000     -18.780258      -511.0368
   3   2.0000     -18.749073      -510.1882
   4   2.0000     -18.748392      -510.1697
   5   2.0000     -18.735795      -509.8269
   6   2.0000     -10.006861      -272.3005
   7   2.0000      -9.961011      -271.0529
   8   2.0000      -9.946335      -270.6535
   9   2.0000      -9.940926      -270.5063
  10   2.0000      -9.940615      -270.4979
  11   2.0000      -9.932024      -270.2641
  12   2.0000      -1.003583       -27.3089
  13   2.0000      -0.961756       -26.1707
  14   2.0000      -0.937306       -25.5054
  15   2.0000      -0.932092       -25.3635
  16   2.0000      -0.924872       -25.1671
  17   2.0000      -0.914663       -24.8893
  18   2.0000      -0.704643       -19.1743
  19   2.0000      -0.698686       -19.0122
  20   2.0000      -0.624163       -16.9843
  21   2.0000      -0.601458       -16.3665
  22   2.0000      -0.582022       -15.8376
  23   2.0000      -0.537384       -14.6230
  24   2.0000      -0.509357       -13.8603
  25   2.0000      -0.493552       -13.4302
  26   2.0000      -0.482976       -13.1425
  27   2.0000      -0.469335       -12.7712
  28   2.0000      -0.447048       -12.1648
  29   2.0000      -0.436627       -11.8812
  30   2.0000      -0.417779       -11.3684
  31   2.0000      -0.406367       -11.0578
  32   2.0000      -0.399654       -10.8751
  33   2.0000      -0.381880       -10.3915
  34   2.0000      -0.368670       -10.0320
  35   2.0000      -0.354722        -9.6525
  36   2.0000      -0.347359        -9.4521
  37   2.0000      -0.333559        -9.0766
  38   2.0000      -0.310963        -8.4617
  39   2.0000      -0.296130        -8.0581
  40   2.0000      -0.288410        -7.8480
  41   2.0000      -0.270998        -7.3742
  42   2.0000      -0.264570        -7.1993
  43   2.0000      -0.255924        -6.9640
  44   2.0000      -0.245089        -6.6692
  45   2.0000      -0.237160        -6.4534
  46   2.0000      -0.212038        -5.7699
  47   2.0000      -0.197893        -5.3849
  48   0.0000      -0.001551        -0.0422
  49   0.0000       0.004674         0.1272
  50   0.0000       0.025239         0.6868
  51   0.0000       0.051036         1.3888
  52   0.0000       0.066709         1.8152

MULLIKEN ATOMIC CHARGES
-----------------------
   0 C :    0.023724
   1 C :    0.032853
   2 H :    0.084214
   3 C :    0.059583
   4 H :    0.056514
   5 C :    0.045195
   6 H :    0.088211
   7 C :    0.004887
   8 H :    0.089524
   9 C :    0.169164
  10 H :    0.059722
  11 O :   -0.299533
  12 O :   -0.410636
  13 O :   -0.414537
  14 O :   -0.417733
  15 O :   -0.427188
  16 O :   -0.429202
  17 H :    0.073283
  18 H :    0.064051
  19 H :    0.317379
  20 H :    0.310343
  21 H :    0.315323
  22 H :    0.302165
  23 H :    0.302694
Sum of atomic charges:    0.0000000

LOEWDIN ATOMIC CHARGES
----------------------
   0 C :   -0.145981
   1 C :   -0.077732
   2 H :    0.123910
   3 C :   -0.073836
   4 H :    0.108919
   5 C :   -0.066354
   6 H :    0.120718
   7 C :   -0.087249
   8 H :    0.112380
   9 C :   -0.014033
  10 H :    0.093340
  11 O :   -0.133841
  12 O :   -0.308957
  13 O :   -0.301362
  14 O :   -0.315199
  15 O :   -0.320880
  16 O :   -0.327461
  17 H :    0.107916
  18 H :    0.092601
  19 H :    0.293969
  20 H :    0.292411
  21 H :    0.271158
  22 H :    0.273231
  23 H :    0.282333

  Mayer bond orders larger than 0.100000
B(  0-C ,  1-C ) :   1.0279 B(  0-C , 16-O ) :   1.0664 B(  0-C , 17-H ) :   0.9104
B(  0-C , 18-H ) :   0.9039 B(  1-C ,  2-H ) :   0.8923 B(  1-C ,  3-C ) :   0.9726
B(  1-C , 11-O ) :   0.9603 B(  3-C ,  4-H ) :   0.8842 B(  3-C ,  5-C ) :   0.9640
B(  3-C , 15-O ) :   1.0537 B(  5-C ,  6-H ) :   0.8992 B(  5-C ,  7-C ) :   1.0102
B(  5-C , 14-O ) :   1.0849 B(  7-C ,  8-H ) :   0.8963 B(  7-C ,  9-C ) :   0.9743
B(  7-C , 13-O ) :   1.0234 B(  9-C , 10-H ) :   0.9042 B(  9-C , 11-O ) :   1.1109
B(  9-C , 12-O ) :   1.0718 B( 12-O , 19-H ) :   0.8264 B( 13-O , 20-H ) :   0.8387
B( 14-O , 21-H ) :   0.7967 B( 15-O , 22-H ) :   0.8194 B( 16-O , 23-H ) :   0.8473

Dispersion correction           -0.025940059
FINAL SINGLE POINT ENERGY      -685.695649355925

DIPOLE MOMENT
-------------

Method             : SCF
Type of density    : Electron Density
Multiplicity       :   1
Irrep              :   0
Energy             :  -685.8291241666352107 Eh
Relativity type    :
Basis              : AO
                                X                 Y                 Z
Electronic contribution:      1.067701128       0.221025500       1.433601807
Nuclear contribution   :      0.227432809      -1.206363866      -1.347142879
                        -----------------------------------------
Total Dipole Moment    :      1.295133937      -0.985338366       0.086458928
                        -----------------------------------------
Magnitude (a.u.)       :      1.629643752
Magnitude (Debye)      :      4.142225229

Rotational constants in cm-1:             0.040951             0.028178             0.024377
Rotational constants in MHz :          1227.685315           844.751216           730.818706

                             ****ORCA TERMINATED NORMALLY****
TOTAL RUN TIME: 0 days 0 hours 0 minutes 18 seconds 17 msec
