                         Program Version 6.0.1  -  RELEASE   -
|  1> ! pbe def2-sv(p) def2/J RI DEFGRID1 loosescf d4 GCP(DFT/SV(P)) printgap
|  2> %output
|  3>     printlevel normal
|  4> end
|  5> * xyz 0 1
|  6> C -2.556327106 -0.6844236049 -0.3436787059
|  7> C -1.1855308728 -0.2972510656 0.2195935041
|  8> H -1.2460005021 -0.2677731236 1.3209679431
|  9> C -0.7298099419 1.085076787 -0.297051623
| 10> H -0.7343623218 1.0797743651 -1.3924603832
| 11> C 0.7016075286 1.3422971451 0.1941773933
| 12> H 0.6892548183 1.3951331666 1.3027114154
| 13> C 1.6070031046 0.1691021059 -0.2233783576
| 14> H 1.6324542787 0.1189139053 -1.3194315417
| 15> C 1.0204127796 -1.1422692486 0.3305429108
| 16> H 1.0039977133 -1.0913479869 1.4359431979
| 17> O -0.2806565137 -1.3179446922 -0.169660782
| 18> O 1.7789499706 -2.2487813078 0.0163028171
| 19> O 2.93193435 0.394357502 0.189665659
| 20> O 1.1847784967 2.5496654307 -0.3246593452
| 21> O -1.6276935879 2.0871449706 0.0829353963
| 22> O -3.0507169756 -1.8505227615 0.2508016578
| 23> H -2.4617674609 -0.8044633105 -1.4312527255
| 24> H -3.2692741011 0.1132335792 -0.1308139754
| 25> H 1.7050949796 -2.419538117 -0.931041509
| 26> H 3.0699781724 0.0112293897 1.0636035016
| 27> H 2.1507642971 2.5006601928 -0.3265264694
| 28> H -1.4096900793 2.3996206541 0.9686664767
| 29> H -2.381235289 -2.537894545 0.1467648018
| 30> *
| 31>
| 32>                          ****END OF INPUT****

CARTESIAN COORDINATES (ANGSTROEM)
---------------------------------
  C     -2.556327   -0.684424   -0.343679
  C     -1.185531   -0.297251    0.219594
  H     -1.246001   -0.267773    1.320968
  C     -0.729810    1.085077   -0.297052
  H     -0.734362    1.079774   -1.392460
  C      0.701608    1.342297    0.194177
  H      0.689255    1.395133    1.302711
  C      1.607003    0.169102   -0.223378
  H      1.632454    0.118914   -1.319432
  C      1.020413   -1.142269    0.330543
  H      1.003998   -1.091348    1.435943
  O     -0.280657   -1.317945   -0.169661
  O      1.778950   -2.248781    0.016303
  O      2.931934    0.394358    0.189666
  O      1.184778    2.549665   -0.324659
  O     -1.627694    2.087145    0.082935
  O     -3.050717   -1.850523    0.250802
  H     -2.461767   -0.804463   -1.431253
  H     -3.269274    0.113234   -0.130814
  H      1.705095   -2.419538   -0.931042
  H      3.069978    0.011229    1.063604
  H      2.150764    2.500660   -0.326526
  H     -1.409690    2.399621    0.968666
  H     -2.381235   -2.537895    0.146765

 Total Charge           Charge          ....    0
 Multiplicity           Mult            ....    1
 Number of Electrons    NEL             ....   96
 Basis Dimension        Dim             ....  192

ORBITAL ENERGIES
----------------

  NO   OCC          E(Eh)            E(eV)
   0   2.0000     -18.789063      -511.2764
   1   2.0000     -18.775101      -510.8965
   2   2.0000     -18.774307      -510.8749
   3   2.0000     -18.758005      -510.4313
   4   2.0000     -18.752552      -510.2829
   5   2.0000     -18.744036      -510.0512
   6   2.0000     -10.004645      -272.2402
   7   2.0000      -9.954540      -270.8768
   8   2.0000      -9.951846      -270.8035
   9   2.0000      -9.948809      -270.7208
  10   2.0000      -9.948473      -270.7117
  11   2.0000      -9.930164      -270.2135
  12   2.0000      -1.001055       -27.2401
  13   2.0000      -0.957369       -26.0513
  14   2.0000      -0.947416       -25.7805
  15   2.0000      -0.933951       -25.4141
  16   2.0000      -0.923173       -25.1208
  17   2.0000      -0.918641       -24.9975
  18   2.0000      -0.711377       -19.3576
  19   2.0000      -0.698719       -19.0131
  20   2.0000      -0.621079       -16.9004
  21   2.0000      -0.598416       -16.2837
  22   2.0000      -0.566440       -15.4136
  23   2.0000      -0.559872       -15.2349
  24   2.0000      -0.515568       -14.0293
  25   2.0000      -0.495190       -13.4748
  26   2.0000      -0.475279       -12.9330
  27   2.0000      -0.465791       -12.6748
  28   2.0000      -0.460283       -12.5249
  29   2.0000      -0.440241       -11.9796
  30   2.0000      -0.435678       -11.8554
  31   2.0000      -0.404888       -11.0176
  32   2.0000      -0.390408       -10.6235
  33   2.0000      -0.371750       -10.1158
  34   2.0000      -0.363802        -9.8996
  35   2.0000      -0.356402        -9.6982
  36   2.0000      -0.337621        -9.1871
  37   2.0000      -0.329797        -8.9742
  38   2.0000      -0.314990        -8.5713
  39   2.0000      -0.304860        -8.2957
  40   2.0000      -0.293487        -7.9862
  41   2.0000      -0.279505        -7.6057
  42   2.0000      -0.265149        -7.2151
  43   2.0000      -0.254949        -6.9375
  44   2.0000      -0.240142        -6.5346
  45   2.0000      -0.228123        -6.2075
  46   2.0000      -0.218494        -5.9455
  47   2.0000      -0.207680        -5.6513
  48   0.0000       0.008973         0.2442
  49   0.0000       0.013579         0.3695
  50   0.0000       0.024026         0.6538
  51   0.0000       0.037344         1.0162
  52   0.0000       0.052140         1.4188

MULLIKEN ATOMIC CHARGES
-----------------------
   0 C :    0.107015
   1 C :   -0.034814
   2 H :    0.045151
   3 C :    0.084302
   4 H :    0.064069
   5 C :    0.063074
   6 H :    0.021659
   7 C :    0.002104
   8 H :    0.062636
   9 C :    0.168188
  10 H :    0.045833
  11 O :   -0.312808
  12 O :   -0.364060
  13 O :   -0.406332
  14 O :   -0.397692
  15 O :   -0.398989
  16 O :   -0.430236
  17 H :    0.065926
  18 H :    0.095713
  19 H :    0.306507
  20 H :    0.306065
  21 H :    0.305228
  22 H :    0.304163
  23 H :    0.297298
Sum of atomic charges:    0.0000000

LOEWDIN ATOMIC CHARGES
----------------------
   0 C :   -0.125126
   1 C :   -0.081868
   2 H :    0.099850
   3 C :   -0.068554
   4 H :    0.119428
   5 C :   -0.086789
   6 H :    0.086503
   7 C :   -0.103465
   8 H :    0.116125
   9 C :   -0.009524
  10 H :    0.092717
  11 O :   -0.154850
  12 O :   -0.284353
  13 O :   -0.308689
  14 O :   -0.317368
  15 O :   -0.298713
  16 O :   -0.332680
  17 H :    0.099863
  18 H :    0.122492
  19 H :    0.292044
  20 H :    0.289870
  21 H :    0.283901
  22 H :    0.288805
  23 H :    0.280384

  Mayer bond orders larger than 0.100000
B(  0-C ,  1-C ) :   1.0589 B(  0-C , 16-O ) :   1.0814 B(  0-C , 17-H ) :   0.9045
B(  0-C , 18-H ) :   0.9104 B(  1-C ,  2-H ) :   0.8647 B(  1-C ,  3-C ) :   0.9620
B(  1-C , 11-O ) :   0.9573 B(  3-C ,  4-H ) :   0.8673 B(  3-C ,  5-C ) :   1.0131
B(  3-C , 15-O ) :   1.0586 B(  5-C ,  6-H ) :   0.8579 B(  5-C ,  7-C ) :   0.9912
B(  5-C , 14-O ) :   1.1292 B(  7-C ,  8-H ) :   0.8605 B(  7-C ,  9-C ) :   0.9860
B(  7-C , 13-O ) :   1.0538 B(  9-C , 10-H ) :   0.8743 B(  9-C , 11-O ) :   1.0155
B(  9-C , 12-O ) :   1.1615 B( 12-O , 19-H ) :   0.8439 B( 13-O , 20-H ) :   0.8427
B( 14-O , 21-H ) :   0.8304 B( 15-O , 22-H ) :   0.8471 B( 16-O , 23-H ) :   0.8467

Dispersion correction           -0.023706565
FINAL SINGLE POINT ENERGY      -685.695472225533

DIPOLE MOMENT
-------------

Method             : SCF
Type of density    : Electron Density
Multiplicity       :   1
Irrep              :   0
Energy             :  -685.8257671755452520 Eh
Relativity type    :
Basis              : AO
                                X                 Y                 Z
Electronic contribution:      2.085076515      -0.711841468      -0.288970798
Nuclear contribution   :     -1.159574386       0.461065234       0.664081284
                        -----------------------------------------
Total Dipole Moment    :      0.925502129      -0.250776235       0.375110486
                        -----------------------------------------
Magnitude (a.u.)       :      1.029636240
Magnitude (Debye)      :      2.617127337

Rotational constants in cm-1:             0.039280             0.026026             0.016356
Rotational constants in MHz :          1177.582423           780.226317           490.325639

                             ****ORCA TERMINATED NORMALLY****
TOTAL RUN TIME: 0 days 0 hours 0 minutes 9 seconds 642 msec
