                         Program Version 6.0.1  -  RELEASE   -
|  1> ! r2scan-3c def2/J RI DEFGRID2 scfconv6 printgap
|  2> %output
|  3>     printlevel normal
|  4> end
|  5> * xyz 0 1
|  6> C -2.2727531793 -0.9422017211 0.1831436068
|  7> O -1.0152086082 -0.6621652666 -0.421474396
|  8> C -0.4574503712 0.5052442418 -0.1126592341
|  9> O -0.9458623451 1.3348554826 0.600244933
| 10> C 0.9051755763 0.6383284492 -0.7899769034
| 11> C 1.8650874287 -0.1321980933 -0.0397406171
| 12> N 2.6154016322 -0.7468701236 0.5630031442
| 13> H -2.9936049025 -0.1610090411 -0.0652647812
| 14> H -2.1655354269 -0.9931562198 1.2679978314
| 15> H -2.5920875432 -1.9014572443 -0.2147743252
| 16> H 1.2061163876 1.6878043733 -0.7952576079
| 17> H 0.8517475197 0.2444036029 -1.8068375711
| 18> *
| 19>
| 20>                          ****END OF INPUT****

CARTESIAN COORDINATES (ANGSTROEM)
---------------------------------
  C     -2.272753   -0.942202    0.183144
  O     -1.015209   -0.662165   -0.421474
  C     -0.457450    0.505244   -0.112659
  O     -0.945862    1.334855    0.600245
  C      0.905176    0.638328   -0.789977
  C      1.865087   -0.132198   -0.039741
  N      2.615402   -0.746870    0.563003
  H     -2.993605   -0.161009   -0.065265
  H     -2.165535   -0.993156    1.267998
  H     -2.592088   -1.901457   -0.214774
  H      1.206116    1.687804   -0.795258
  H      0.851748    0.244404   -1.806838

 Total Charge           Charge          ....    0
 Multiplicity           Mult            ....    1
 Number of Electrons    NEL             ....   52
 Basis Dimension        Dim             ....  173

ORBITAL ENERGIES
----------------

  NO   OCC          E(Eh)            E(eV)
   0   2.0000     -19.027875      -517.7748
   1   2.0000     -18.964433      -516.0485
   2   2.0000     -14.162538      -385.3823
   3   2.0000     -10.191055      -277.3127
   4   2.0000     -10.107504      -275.0392
   5   2.0000     -10.104661      -274.9618
   6   2.0000     -10.081128      -274.3214
   7   2.0000      -1.105471       -30.0814
   8   2.0000      -1.015603       -27.6360
   9   2.0000      -0.889206       -24.1965
  10   2.0000      -0.792386       -21.5619
  11   2.0000      -0.711391       -19.3579
  12   2.0000      -0.571215       -15.5436
  13   2.0000      -0.527548       -14.3553
  14   2.0000      -0.503737       -13.7074
  15   2.0000      -0.480115       -13.0646
  16   2.0000      -0.461278       -12.5520
  17   2.0000      -0.438663       -11.9366
  18   2.0000      -0.413008       -11.2385
  19   2.0000      -0.383108       -10.4249
  20   2.0000      -0.352914        -9.6033
  21   2.0000      -0.335865        -9.1394
  22   2.0000      -0.324856        -8.8398
  23   2.0000      -0.318474        -8.6661
  24   2.0000      -0.301279        -8.1982
  25   2.0000      -0.269394        -7.3306
  26   0.0000      -0.053026        -1.4429
  27   0.0000       0.001676         0.0456
  28   0.0000       0.007936         0.2160
  29   0.0000       0.036855         1.0029
  30   0.0000       0.077509         2.1091

MULLIKEN ATOMIC CHARGES
-----------------------
   0 C :   -0.285156
   1 O :   -0.176400
   2 C :    0.414678
   3 O :   -0.389573
   4 C :   -0.386915
   5 C :    0.190860
   6 N :   -0.234339
   7 H :    0.163754
   8 H :    0.165787
   9 H :    0.157241
  10 H :    0.192247
  11 H :    0.187816
Sum of atomic charges:    0.0000000

LOEWDIN ATOMIC CHARGES
----------------------
   0 C :   -0.035806
   1 O :   -0.585243
   2 C :    0.369586
   3 O :   -0.378277
   4 C :   -0.176932
   5 C :    0.147870
   6 N :   -0.294513
   7 H :    0.179343
   8 H :    0.180103
   9 H :    0.180411
  10 H :    0.206155
  11 H :    0.207303

  Mayer bond orders larger than 0.100000
B(  0-C ,  1-O ) :   0.8521 B(  0-C ,  7-H ) :   0.9603 B(  0-C ,  8-H ) :   0.9592
B(  0-C ,  9-H ) :   0.9665 B(  1-O ,  2-C ) :   1.0551 B(  2-C ,  3-O ) :   1.8537
B(  2-C ,  4-C ) :   0.9238 B(  4-C ,  5-C ) :   1.0502 B(  4-C , 10-H ) :   0.9527
B(  4-C , 11-H ) :   0.9509 B(  5-C ,  6-N ) :   2.8875

Dispersion correction           -0.002832201
FINAL SINGLE POINT ENERGY      -360.547842657769

DIPOLE MOMENT
-------------

Method             : SCF
Type of density    : Electron Density
Multiplicity       :   1
Irrep              :   0
Energy             :  -360.5526466878534393 Eh
Relativity type    :
Basis              : AO
                                X                 Y                 Z
Electronic contribution:      4.199686930       1.114069800       0.462069692
Nuclear contribution   :     -5.356028234      -1.048096278      -1.508597546
                        -----------------------------------------
Total Dipole Moment    :     -1.156341304       0.065973522      -1.046527855
                        -----------------------------------------
Magnitude (a.u.)       :      1.560992719
Magnitude (Debye)      :      3.967728171

Rotational constants in cm-1:             0.174725             0.057684             0.050278
Rotational constants in MHz :          5238.120474          1729.335296          1507.297770

                             ****ORCA TERMINATED NORMALLY****
TOTAL RUN TIME: 0 days 0 hours 0 minutes 14 seconds 558 msec
