                         Program Version 6.0.1  -  RELEASE   -
|  1> ! pbe def2-sv(p) def2/J RI DEFGRID1 loosescf d4 GCP(DFT/SV(P)) printgap
|  2> %output
|  3>     printlevel normal
|  4> end
|  5> * xyz 0 1
|  6> C -2.4959866483 -1.0083004152 -0.0051799524
|  7> C -1.7181844646 0.2084704061 -0.4964065723
|  8> C -0.5908044032 0.6302231768 0.4575368541
|  9> C 0.8330118128 0.1685161724 0.0916185541
| 10> C 1.3084540782 0.8561649402 -1.1907746246
| 11> C 1.7668973201 0.5757519814 1.2372322455
| 12> C 0.9070579661 -1.3487073317 -0.0847942898
| 13> H -2.9547994231 -0.8006309634 0.9595243321
| 14> H -3.2865037458 -1.2607949732 -0.7094137513
| 15> H -1.8480420368 -1.8730991787 0.1043323101
| 16> H -1.3176178921 0.0022071276 -1.4892056191
| 17> H -2.4200743637 1.038768042 -0.6029928002
| 18> H -0.8271772719 0.2591886205 1.4574567984
| 19> H -0.5691453597 1.7209290579 0.5190406735
| 20> H 2.3321631529 0.565053258 -1.4165282179
| 21> H 0.6872992811 0.5841012156 -2.0402901239
| 22> H 1.2774088771 1.9377765197 -1.0781671502
| 23> H 2.7940273979 0.2992839288 1.0091750821
| 24> H 1.478457459 0.0815891979 2.1625841103
| 25> H 1.7309006511 1.6510674192 1.3986258884
| 26> H 1.935957941 -1.6535780091 -0.266529142
| 27> H 0.5564142674 -1.8553972702 0.8116465371
| 28> H 0.3062516188 -1.6750635255 -0.9292779072
| 29> *
| 30>
| 31>                          ****END OF INPUT****

CARTESIAN COORDINATES (ANGSTROEM)
---------------------------------
  C     -2.495987   -1.008300   -0.005180
  C     -1.718184    0.208470   -0.496407
  C     -0.590804    0.630223    0.457537
  C      0.833012    0.168516    0.091619
  C      1.308454    0.856165   -1.190775
  C      1.766897    0.575752    1.237232
  C      0.907058   -1.348707   -0.084794
  H     -2.954799   -0.800631    0.959524
  H     -3.286504   -1.260795   -0.709414
  H     -1.848042   -1.873099    0.104332
  H     -1.317618    0.002207   -1.489206
  H     -2.420074    1.038768   -0.602993
  H     -0.827177    0.259189    1.457457
  H     -0.569145    1.720929    0.519041
  H      2.332163    0.565053   -1.416528
  H      0.687299    0.584101   -2.040290
  H      1.277409    1.937777   -1.078167
  H      2.794027    0.299284    1.009175
  H      1.478457    0.081589    2.162584
  H      1.730901    1.651067    1.398626
  H      1.935958   -1.653578   -0.266529
  H      0.556414   -1.855397    0.811647
  H      0.306252   -1.675064   -0.929278

 Total Charge           Charge          ....    0
 Multiplicity           Mult            ....    1
 Number of Electrons    NEL             ....   58
 Basis Dimension        Dim             ....  130

ORBITAL ENERGIES
----------------

  NO   OCC          E(Eh)            E(eV)
   0   2.0000      -9.901718      -269.4394
   1   2.0000      -9.878751      -268.8145
   2   2.0000      -9.875792      -268.7340
   3   2.0000      -9.868633      -268.5391
   4   2.0000      -9.868562      -268.5372
   5   2.0000      -9.868052      -268.5234
   6   2.0000      -9.867438      -268.5066
   7   2.0000      -0.745272       -20.2799
   8   2.0000      -0.686125       -18.6704
   9   2.0000      -0.611383       -16.6366
  10   2.0000      -0.608899       -16.5690
  11   2.0000      -0.599998       -16.3268
  12   2.0000      -0.523631       -14.2487
  13   2.0000      -0.465859       -12.6767
  14   2.0000      -0.419253       -11.4084
  15   2.0000      -0.408145       -11.1062
  16   2.0000      -0.391780       -10.6609
  17   2.0000      -0.375626       -10.2213
  18   2.0000      -0.365767        -9.9530
  19   2.0000      -0.354931        -9.6582
  20   2.0000      -0.334342        -9.0979
  21   2.0000      -0.328024        -8.9260
  22   2.0000      -0.317517        -8.6401
  23   2.0000      -0.308375        -8.3913
  24   2.0000      -0.299099        -8.1389
  25   2.0000      -0.291326        -7.9274
  26   2.0000      -0.272292        -7.4094
  27   2.0000      -0.266726        -7.2580
  28   2.0000      -0.261476        -7.1151
  29   0.0000       0.029424         0.8007
  30   0.0000       0.060776         1.6538
  31   0.0000       0.067307         1.8315
  32   0.0000       0.071086         1.9344
  33   0.0000       0.085227         2.3191

MULLIKEN ATOMIC CHARGES
-----------------------
   0 C :   -0.295845
   1 C :   -0.166982
   2 C :   -0.095512
   3 C :   -0.274898
   4 C :   -0.213437
   5 C :   -0.203753
   6 C :   -0.215832
   7 H :    0.099920
   8 H :    0.098889
   9 H :    0.104603
  10 H :    0.091306
  11 H :    0.080333
  12 H :    0.072235
  13 H :    0.070487
  14 H :    0.091764
  15 H :    0.099169
  16 H :    0.091351
  17 H :    0.091256
  18 H :    0.091935
  19 H :    0.090922
  20 H :    0.091285
  21 H :    0.097638
  22 H :    0.103165
Sum of atomic charges:   -0.0000000

LOEWDIN ATOMIC CHARGES
----------------------
   0 C :   -0.342209
   1 C :   -0.236825
   2 C :   -0.207810
   3 C :   -0.106439
   4 C :   -0.316871
   5 C :   -0.315486
   6 C :   -0.317623
   7 H :    0.115894
   8 H :    0.117301
   9 H :    0.115839
  10 H :    0.113472
  11 H :    0.117142
  12 H :    0.112394
  13 H :    0.113436
  14 H :    0.116055
  15 H :    0.114379
  16 H :    0.115454
  17 H :    0.114316
  18 H :    0.114500
  19 H :    0.114803
  20 H :    0.116350
  21 H :    0.115805
  22 H :    0.116123

  Mayer bond orders larger than 0.100000
B(  0-C ,  1-C ) :   1.1593 B(  0-C ,  7-H ) :   0.9522 B(  0-C ,  8-H ) :   0.9509
B(  0-C ,  9-H ) :   0.9488 B(  1-C ,  2-C ) :   1.0951 B(  1-C , 10-H ) :   0.9222
B(  1-C , 11-H ) :   0.9257 B(  2-C ,  3-C ) :   1.0579 B(  2-C , 12-H ) :   0.9212
B(  2-C , 13-H ) :   0.9169 B(  3-C ,  4-C ) :   1.0740 B(  3-C ,  5-C ) :   1.0749
B(  3-C ,  6-C ) :   1.0798 B(  4-C , 14-H ) :   0.9475 B(  4-C , 15-H ) :   0.9407
B(  4-C , 16-H ) :   0.9483 B(  5-C , 17-H ) :   0.9473 B(  5-C , 18-H ) :   0.9463
B(  5-C , 19-H ) :   0.9476 B(  6-C , 20-H ) :   0.9446 B(  6-C , 21-H ) :   0.9432
B(  6-C , 22-H ) :   0.9380

Dispersion correction           -0.019494483
FINAL SINGLE POINT ENERGY      -275.659655813488

DIPOLE MOMENT
-------------

Method             : SCF
Type of density    : Electron Density
Multiplicity       :   1
Irrep              :   0
Energy             :  -275.7367239674256325 Eh
Relativity type    :
Basis              : AO
                                X                 Y                 Z
Electronic contribution:      0.111489361       0.935662374       0.083682872
Nuclear contribution   :     -0.116781817      -0.918084343      -0.103215564
                        -----------------------------------------
Total Dipole Moment    :     -0.005292456       0.017578031      -0.019532692
                        -----------------------------------------
Magnitude (a.u.)       :      0.026805285
Magnitude (Debye)      :      0.068133620

Rotational constants in cm-1:             0.128888             0.052687             0.051064
Rotational constants in MHz :          3863.980017          1579.515449          1530.851361

                             ****ORCA TERMINATED NORMALLY****
TOTAL RUN TIME: 0 days 0 hours 0 minutes 15 seconds 407 msec
