                         Program Version 6.0.1  -  RELEASE   -
|  1> ! pbe def2-sv(p) def2/J RI DEFGRID1 loosescf d4 GCP(DFT/SV(P)) printgap
|  2> %output
|  3>     printlevel normal
|  4> end
|  5> * xyz 0 1
|  6> C -2.651698681 -0.5739884846 0.7701485294
|  7> C -1.8472050054 -0.6294286832 -0.5321480478
|  8> C -0.3797008284 -0.3927190699 -0.2817135636
|  9> C 0.4966316829 -1.465499896 -0.193855664
| 10> C 1.8430851281 -1.2807929464 0.06033592
| 11> C 2.3369936467 0.0010856513 0.2316551465
| 12> C 1.4849107543 1.0840356545 0.1508464848
| 13> C 0.1296367064 0.896221116 -0.0990864424
| 14> O -0.6517281964 2.0114786488 -0.1568418822
| 15> H -2.5320025523 0.3853349582 1.2701728197
| 16> H -2.3088086141 -1.3502035378 1.4503606836
| 17> H -3.7099239556 -0.7306142008 0.5715981135
| 18> H -2.2429659671 0.1025162354 -1.2451828825
| 19> H -1.9741239207 -1.6146453093 -0.9845324481
| 20> H 0.1099850712 -2.4656505709 -0.3306153012
| 21> H 2.5030545893 -2.1327398084 0.1226970703
| 22> H 3.3866714438 0.1588928803 0.4287770026
| 23> H 1.8437754111 2.0927824983 0.2817096126
| 24> H -1.5645194537 1.7608556386 -0.3406373656
| 25> *
| 26>
| 27>                          ****END OF INPUT****

CARTESIAN COORDINATES (ANGSTROEM)
---------------------------------
  C     -2.651699   -0.573988    0.770149
  C     -1.847205   -0.629429   -0.532148
  C     -0.379701   -0.392719   -0.281714
  C      0.496632   -1.465500   -0.193856
  C      1.843085   -1.280793    0.060336
  C      2.336994    0.001086    0.231655
  C      1.484911    1.084036    0.150846
  C      0.129637    0.896221   -0.099086
  O     -0.651728    2.011479   -0.156842
  H     -2.532003    0.385335    1.270173
  H     -2.308809   -1.350204    1.450361
  H     -3.709924   -0.730614    0.571598
  H     -2.242966    0.102516   -1.245183
  H     -1.974124   -1.614645   -0.984532
  H      0.109985   -2.465651   -0.330615
  H      2.503055   -2.132740    0.122697
  H      3.386671    0.158893    0.428777
  H      1.843775    2.092782    0.281710
  H     -1.564519    1.760856   -0.340637

 Total Charge           Charge          ....    0
 Multiplicity           Mult            ....    1
 Number of Electrons    NEL             ....   66
 Basis Dimension        Dim             ....  146

ORBITAL ENERGIES
----------------

  NO   OCC          E(Eh)            E(eV)
   0   2.0000     -18.779633      -511.0198
   1   2.0000      -9.946682      -270.6630
   2   2.0000      -9.904748      -269.5219
   3   2.0000      -9.897119      -269.3143
   4   2.0000      -9.888733      -269.0861
   5   2.0000      -9.888388      -269.0767
   6   2.0000      -9.887446      -269.0511
   7   2.0000      -9.881783      -268.8970
   8   2.0000      -9.881509      -268.8895
   9   2.0000      -0.962511       -26.1913
  10   2.0000      -0.771970       -21.0064
  11   2.0000      -0.716893       -19.5076
  12   2.0000      -0.662551       -18.0289
  13   2.0000      -0.649908       -17.6849
  14   2.0000      -0.577234       -15.7073
  15   2.0000      -0.539448       -14.6791
  16   2.0000      -0.539214       -14.6728
  17   2.0000      -0.484276       -13.1778
  18   2.0000      -0.445182       -12.1140
  19   2.0000      -0.419904       -11.4262
  20   2.0000      -0.398869       -10.8538
  21   2.0000      -0.390762       -10.6332
  22   2.0000      -0.377693       -10.2776
  23   2.0000      -0.367176        -9.9914
  24   2.0000      -0.344159        -9.3650
  25   2.0000      -0.334444        -9.1007
  26   2.0000      -0.333606        -9.0779
  27   2.0000      -0.318680        -8.6717
  28   2.0000      -0.301545        -8.2054
  29   2.0000      -0.292413        -7.9570
  30   2.0000      -0.286228        -7.7887
  31   2.0000      -0.220529        -6.0009
  32   2.0000      -0.191314        -5.2059
  33   0.0000      -0.029940        -0.8147
  34   0.0000      -0.016295        -0.4434
  35   0.0000       0.014460         0.3935
  36   0.0000       0.048285         1.3139
  37   0.0000       0.069302         1.8858

MULLIKEN ATOMIC CHARGES
-----------------------
   0 C :   -0.267146
   1 C :   -0.207801
   2 C :    0.030287
   3 C :   -0.141386
   4 C :   -0.044954
   5 C :   -0.043674
   6 C :   -0.126166
   7 C :    0.143483
   8 O :   -0.332246
   9 H :    0.100920
  10 H :    0.110269
  11 H :    0.110146
  12 H :    0.090440
  13 H :    0.093941
  14 H :    0.033515
  15 H :    0.044139
  16 H :    0.051899
  17 H :    0.040302
  18 H :    0.314033
Sum of atomic charges:   -0.0000000

LOEWDIN ATOMIC CHARGES
----------------------
   0 C :   -0.337874
   1 C :   -0.226332
   2 C :   -0.084068
   3 C :   -0.119186
   4 C :   -0.147883
   5 C :   -0.119791
   6 C :   -0.147338
   7 C :    0.026086
   8 O :   -0.233910
   9 H :    0.114554
  10 H :    0.125839
  11 H :    0.120325
  12 H :    0.112937
  13 H :    0.128871
  14 H :    0.120180
  15 H :    0.121348
  16 H :    0.123621
  17 H :    0.129531
  18 H :    0.293092

  Mayer bond orders larger than 0.100000
B(  0-C ,  1-C ) :   1.1434 B(  0-C ,  9-H ) :   0.9516 B(  0-C , 10-H ) :   0.9513
B(  0-C , 11-H ) :   0.9490 B(  1-C ,  2-C ) :   1.0506 B(  1-C , 12-H ) :   0.9063
B(  1-C , 13-H ) :   0.9006 B(  2-C ,  3-C ) :   1.3971 B(  2-C ,  7-C ) :   1.3166
B(  3-C ,  4-C ) :   1.3637 B(  3-C , 14-H ) :   0.9587 B(  4-C ,  5-C ) :   1.3548
B(  4-C , 15-H ) :   0.9667 B(  5-C ,  6-C ) :   1.3695 B(  5-C , 16-H ) :   0.9666
B(  6-C ,  7-C ) :   1.3704 B(  6-C , 17-H ) :   0.9617 B(  7-C ,  8-O ) :   1.2196
B(  8-O , 18-H ) :   0.8285

Dispersion correction           -0.019232705
FINAL SINGLE POINT ENERGY      -385.235410272538

DIPOLE MOMENT
-------------

Method             : SCF
Type of density    : Electron Density
Multiplicity       :   1
Irrep              :   0
Energy             :  -385.2955021010501468 Eh
Relativity type    :
Basis              : AO
                                X                 Y                 Z
Electronic contribution:      5.483762398       3.237146086      -1.232094202
Nuclear contribution   :     -6.097302240      -3.529105811       1.146319943
                        -----------------------------------------
Total Dipole Moment    :     -0.613539842      -0.291959725      -0.085774259
                        -----------------------------------------
Magnitude (a.u.)       :      0.684856804
Magnitude (Debye)      :      1.740767656

Rotational constants in cm-1:             0.089422             0.048300             0.033951
Rotational constants in MHz :          2680.794086          1447.994275          1017.815004

                             ****ORCA TERMINATED NORMALLY****
TOTAL RUN TIME: 0 days 0 hours 0 minutes 9 seconds 480 msec
