                         Program Version 6.0.1  -  RELEASE   -
|  1> ! r2scan-3c def2/J RI DEFGRID2 scfconv6 printgap
|  2> %output
|  3>     printlevel normal
|  4> end
|  5> * xyz 0 1
|  6> C -2.9263870433 -0.0006202923 0.00701735
|  7> C -2.2355640171 -1.2011838772 0.0003524927
|  8> C -0.8521220599 -1.2064981572 -0.0131968196
|  9> C -0.1666127662 0.000976996 -0.0242540435
| 10> C -0.8533938405 1.2076259956 -0.0132080414
| 11> C -2.2368835846 1.2006632434 0.0003984444
| 12> C 1.3352062686 0.0004208431 -0.0062427534
| 13> F 1.8247537442 -0.015411387 1.2510860983
| 14> F 1.8651074373 -1.0677984508 -0.6228435632
| 15> F 1.8665542524 1.0823605126 -0.5966431632
| 16> H -4.0059200741 -0.0012083262 0.0178813784
| 17> H -2.7732837116 -2.1367446838 0.0065926205
| 18> H -0.304483368 -2.1364599629 -0.0205859672
| 19> H -0.3069812119 2.1382909083 -0.0205227406
| 20> H -2.7756429103 2.1356295265 0.0065180391
| 21> *
| 22>
| 23>                          ****END OF INPUT****

CARTESIAN COORDINATES (ANGSTROEM)
---------------------------------
  C     -2.926387   -0.000620    0.007017
  C     -2.235564   -1.201184    0.000352
  C     -0.852122   -1.206498   -0.013197
  C     -0.166613    0.000977   -0.024254
  C     -0.853394    1.207626   -0.013208
  C     -2.236884    1.200663    0.000398
  C      1.335206    0.000421   -0.006243
  F      1.824754   -0.015411    1.251086
  F      1.865107   -1.067798   -0.622844
  F      1.866554    1.082361   -0.596643
  H     -4.005920   -0.001208    0.017881
  H     -2.773284   -2.136745    0.006593
  H     -0.304483   -2.136460   -0.020586
  H     -0.306981    2.138291   -0.020523
  H     -2.775643    2.135630    0.006518

 Total Charge           Charge          ....    0
 Multiplicity           Mult            ....    1
 Number of Electrons    NEL             ....   74
 Basis Dimension        Dim             ....  230

ORBITAL ENERGIES
----------------

  NO   OCC          E(Eh)            E(eV)
   0   2.0000     -24.515755      -667.1076
   1   2.0000     -24.515590      -667.1031
   2   2.0000     -24.510355      -666.9607
   3   2.0000     -10.281988      -279.7871
   4   2.0000     -10.070990      -274.0456
   5   2.0000     -10.059776      -273.7404
   6   2.0000     -10.059758      -273.7399
   7   2.0000     -10.056399      -273.6485
   8   2.0000     -10.055647      -273.6281
   9   2.0000     -10.055501      -273.6241
  10   2.0000      -1.273611       -34.6567
  11   2.0000      -1.185311       -32.2540
  12   2.0000      -1.179973       -32.1087
  13   2.0000      -0.853599       -23.2276
  14   2.0000      -0.762556       -20.7502
  15   2.0000      -0.739773       -20.1303
  16   2.0000      -0.670776       -18.2527
  17   2.0000      -0.602280       -16.3889
  18   2.0000      -0.599748       -16.3200
  19   2.0000      -0.551928       -15.0187
  20   2.0000      -0.549185       -14.9441
  21   2.0000      -0.541511       -14.7353
  22   2.0000      -0.482498       -13.1294
  23   2.0000      -0.444428       -12.0935
  24   2.0000      -0.437705       -11.9106
  25   2.0000      -0.423823       -11.5328
  26   2.0000      -0.422846       -11.5062
  27   2.0000      -0.414493       -11.2789
  28   2.0000      -0.390479       -10.6255
  29   2.0000      -0.380415       -10.3516
  30   2.0000      -0.376850       -10.2546
  31   2.0000      -0.363993        -9.9047
  32   2.0000      -0.362271        -9.8579
  33   2.0000      -0.334913        -9.1134
  34   2.0000      -0.331255        -9.0139
  35   2.0000      -0.260275        -7.0824
  36   2.0000      -0.259016        -7.0482
  37   0.0000      -0.062417        -1.6984
  38   0.0000      -0.052127        -1.4184
  39   0.0000       0.070938         1.9303
  40   0.0000       0.085362         2.3228
  41   0.0000       0.098056         2.6682

MULLIKEN ATOMIC CHARGES
-----------------------
   0 C :   -0.118504
   1 C :   -0.142967
   2 C :   -0.184493
   3 C :    0.101682
   4 C :   -0.185775
   5 C :   -0.142551
   6 C :    0.540250
   7 F :   -0.209911
   8 F :   -0.218432
   9 F :   -0.218470
  10 H :    0.150996
  11 H :    0.150164
  12 H :    0.163775
  13 H :    0.164068
  14 H :    0.150167
Sum of atomic charges:    0.0000000

LOEWDIN ATOMIC CHARGES
----------------------
   0 C :   -0.147634
   1 C :   -0.152411
   2 C :   -0.123751
   3 C :   -0.069563
   4 C :   -0.123867
   5 C :   -0.152458
   6 C :    0.527630
   7 F :   -0.213673
   8 F :   -0.211243
   9 F :   -0.211179
  10 H :    0.170328
  11 H :    0.171183
  12 H :    0.182709
  13 H :    0.182756
  14 H :    0.171173

  Mayer bond orders larger than 0.100000
B(  0-C ,  1-C ) :   1.4144 B(  0-C ,  5-C ) :   1.4149 B(  0-C , 10-H ) :   0.9441
B(  1-C ,  2-C ) :   1.3997 B(  1-C , 11-H ) :   0.9511 B(  2-C ,  3-C ) :   1.4199
B(  2-C , 12-H ) :   0.9423 B(  3-C ,  4-C ) :   1.4192 B(  3-C ,  6-C ) :   0.9766
B(  4-C ,  5-C ) :   1.3985 B(  4-C , 13-H ) :   0.9435 B(  5-C , 14-H ) :   0.9511
B(  6-C ,  7-F ) :   1.0221 B(  6-C ,  8-F ) :   1.0402 B(  6-C ,  9-F ) :   1.0412

Dispersion correction           -0.004871012
FINAL SINGLE POINT ENERGY      -569.230623555513

DIPOLE MOMENT
-------------

Method             : SCF
Type of density    : Electron Density
Multiplicity       :   1
Irrep              :   0
Energy             :  -569.2346182519783042 Eh
Relativity type    :
Basis              : AO
                                X                 Y                 Z
Electronic contribution:     13.556072677       0.000627990       0.018514857
Nuclear contribution   :    -14.685957690       0.000324837      -0.038768928
                        -----------------------------------------
Total Dipole Moment    :     -1.129885013       0.000952827      -0.020254071
                        -----------------------------------------
Magnitude (a.u.)       :      1.130066935
Magnitude (Debye)      :      2.872401876

Rotational constants in cm-1:             0.095859             0.031598             0.027120
Rotational constants in MHz :          2873.775090           947.289342           813.036918

                             ****ORCA TERMINATED NORMALLY****
TOTAL RUN TIME: 0 days 0 hours 0 minutes 29 seconds 156 msec
