                         Program Version 6.0.0  -   RELEASE  -
|  1> ! r2SCAN-3c DEF2-TZVP FREQ
|  2> * xyzfile 0 1 censo.xyz
|  3>
|  4>                          ****END OF INPUT****

CARTESIAN COORDINATES (ANGSTROEM)
---------------------------------
  C      0.000049    1.817115    0.003560
  C      0.000019    0.494052    0.000270
  Cl     1.458278   -0.461797   -0.000841
  Cl    -1.458285   -0.461730   -0.001075
  H     -0.934793    2.365250    0.003653
  H      0.934918    2.365205    0.003819

 Total Charge           Charge          ....    0
 Multiplicity           Mult            ....    1
 Number of Electrons    NEL             ....   48
 Basis Dimension        Dim             ....  148

ORBITAL ENERGIES
----------------

  NO   OCC          E(Eh)            E(eV)
   0   2.0000    -101.211907     -2754.1160
   1   2.0000    -101.211901     -2754.1158
   2   2.0000     -10.162105      -276.5249
   3   2.0000     -10.057975      -273.6914
   4   2.0000      -9.387696      -255.4522
   5   2.0000      -9.387690      -255.4520
   6   2.0000      -7.132928      -194.0968
   7   2.0000      -7.132924      -194.0967
   8   2.0000      -7.122429      -193.8111
   9   2.0000      -7.122429      -193.8111
  10   2.0000      -7.122138      -193.8032
  11   2.0000      -7.122136      -193.8032
  12   2.0000      -0.884775       -24.0760
  13   2.0000      -0.803358       -21.8605
  14   2.0000      -0.725464       -19.7409
  15   2.0000      -0.546521       -14.8716
  16   2.0000      -0.470768       -12.8102
  17   2.0000      -0.447441       -12.1755
  18   2.0000      -0.385545       -10.4912
  19   2.0000      -0.380862       -10.3638
  20   2.0000      -0.321476        -8.7478
  21   2.0000      -0.310094        -8.4381
  22   2.0000      -0.291465        -7.9312
  23   2.0000      -0.246849        -6.7171
  24   0.0000      -0.051643        -1.4053
  25   0.0000      -0.035145        -0.9563
  26   0.0000       0.007473         0.2033
  27   0.0000       0.080695         2.1958
  28   0.0000       0.129008         3.5105

MULLIKEN ATOMIC CHARGES
-----------------------
   0 C :   -0.294411
   1 C :    0.114491
   2 Cl:   -0.064189
   3 Cl:   -0.064189
   4 H :    0.154149
   5 H :    0.154149
Sum of atomic charges:   -0.0000000

LOEWDIN ATOMIC CHARGES
----------------------
   0 C :   -0.243124
   1 C :   -0.797749
   2 Cl:    0.385238
   3 Cl:    0.385237
   4 H :    0.135198
   5 H :    0.135199

  Mayer bond orders larger than 0.100000
B(  0-C ,  1-C ) :   1.8255 B(  0-C ,  4-H ) :   0.9418 B(  0-C ,  5-H ) :   0.9418
B(  1-C ,  2-Cl) :   1.1176 B(  1-C ,  3-Cl) :   1.1176

Dispersion correction           -0.001502394
FINAL SINGLE POINT ENERGY      -997.733196470833

DIPOLE MOMENT
-------------

Method             : SCF
Type of density    : Electron Density
Multiplicity       :   1
Irrep              :   0
Energy             :  -997.7356482977129417 Eh
Relativity type    :
Basis              : AO
                                X                 Y                 Z
Electronic contribution:     -0.000120901      -5.157779254      -0.008878321
Nuclear contribution   :      0.000133301       5.675781751       0.009461220
                        -----------------------------------------
Total Dipole Moment    :      0.000012400       0.518002497       0.000582899
                        -----------------------------------------
Magnitude (a.u.)       :      0.518002825
Magnitude (Debye)      :      1.316658545

VIBRATIONAL FREQUENCIES
-----------------------

Scaling factor for frequencies =  1.000000000  (already applied!)

     0:       0.00 cm**-1
     1:       0.00 cm**-1
     2:       0.00 cm**-1
     3:       0.00 cm**-1
     4:       0.00 cm**-1
     5:       0.00 cm**-1
     6:     301.63 cm**-1
     7:     380.04 cm**-1
     8:     480.84 cm**-1
     9:     583.05 cm**-1
    10:     698.56 cm**-1
    11:     728.77 cm**-1
    12:     874.15 cm**-1
    13:    1083.93 cm**-1
    14:    1399.02 cm**-1
    15:    1650.95 cm**-1
    16:    3149.04 cm**-1
    17:    3247.50 cm**-1

IR SPECTRUM
-----------

 Mode   freq       eps      Int      T**2         TX        TY        TZ
       cm**-1   L/(mol*cm) km/mol    a.u.
----------------------------------------------------------------------------
  6:    301.63   0.000000    0.00  0.000000  ( 0.000000  0.000183  0.000012)
  7:    380.04   0.000014    0.07  0.000011  (-0.003388 -0.000001 -0.000000)
  8:    480.84   0.001069    5.40  0.000694  ( 0.000005 -0.000179 -0.026339)
  9:    583.05   0.003514   17.76  0.001881  ( 0.000001  0.043366  0.000088)
 10:    698.56   0.000000    0.00  0.000000  ( 0.000034 -0.000020 -0.000002)
 11:    728.77   0.024981  126.24  0.010697  ( 0.103426 -0.000002  0.000009)
 12:    874.15   0.009948   50.27  0.003551  (-0.000006  0.000171  0.059592)
 13:   1083.93   0.017188   86.86  0.004948  (-0.070344  0.000001 -0.000006)
 14:   1399.02   0.000041    0.21  0.000009  (-0.000000 -0.003017 -0.000022)
 15:   1650.95   0.018702   94.51  0.003535  ( 0.000001  0.059456  0.000098)
 16:   3149.04   0.000455    2.30  0.000045  (-0.000000 -0.006714  0.000007)
 17:   3247.50   0.000067    0.34  0.000006  ( 0.002534 -0.000000  0.000000)

--------------------------
THERMOCHEMISTRY AT 298.15K
--------------------------

Temperature         ...   298.15 K
Pressure            ...     1.00 atm
Total Mass          ...    96.94 AMU
Quasi RRHO          ...     True
Cut-Off Frequency   ...     1.00 cm^-1

Throughout the following assumptions are being made:
  (1) The electronic state is orbitally nondegenerate
  (2) There are no thermally accessible electronically excited states
  (3) Hindered rotations indicated by low frequency modes are not
      treated as such but are treated as vibrations and this may
      cause some error
  (4) All equations used are the standard statistical mechanics
      equations for an ideal gas
  (5) All vibrations are strictly harmonic

freq.     301.63  E(vib)   ...       0.26
freq.     380.04  E(vib)   ...       0.21
freq.     480.84  E(vib)   ...       0.15
freq.     583.05  E(vib)   ...       0.11
freq.     698.56  E(vib)   ...       0.07
freq.     728.77  E(vib)   ...       0.06
freq.     874.15  E(vib)   ...       0.04
freq.    1083.93  E(vib)   ...       0.02
freq.    1399.02  E(vib)   ...       0.00
freq.    1650.95  E(vib)   ...       0.00
freq.    3149.04  E(vib)   ...       0.00
freq.    3247.50  E(vib)   ...       0.00

------------
INNER ENERGY
------------

The inner energy is: U= E(el) + E(ZPE) + E(vib) + E(rot) + E(trans)
    E(el)   - is the total energy from the electronic structure calculation
              = E(kin-el) + E(nuc-el) + E(el-el) + E(nuc-nuc)
    E(ZPE)  - the the zero temperature vibrational energy from the frequency calculation
    E(vib)  - the the finite temperature correction to E(ZPE) due to population
              of excited vibrational states
    E(rot)  - is the rotational thermal energy
    E(trans)- is the translational thermal energy

Summary of contributions to the inner energy U:
Electronic energy                ...   -997.73319647 Eh
Zero point energy                ...      0.03320990 Eh      20.84 kcal/mol
Thermal vibrational correction   ...      0.00146672 Eh       0.92 kcal/mol
Thermal rotational correction    ...      0.00141627 Eh       0.89 kcal/mol
Thermal translational correction ...      0.00141627 Eh       0.89 kcal/mol
-----------------------------------------------------------------------
Total thermal energy                   -997.69568731 Eh

Summary of corrections to the electronic energy:
(perhaps to be used in another calculation)
Total thermal correction                  0.00429926 Eh       2.70 kcal/mol
Non-thermal (ZPE) correction              0.03320990 Eh      20.84 kcal/mol
-----------------------------------------------------------------------
Total correction                          0.03750916 Eh      23.54 kcal/mol

--------
ENTHALPY
--------

The enthalpy is H = U + kB*T
                kB is Boltzmann's constant
Total thermal energy              ...   -997.69568731 Eh
Thermal Enthalpy correction       ...      0.00094421 Eh       0.59 kcal/mol
-----------------------------------------------------------------------
Total Enthalpy                    ...   -997.69474310 Eh

Note: Rotational entropy computed according to Herzberg
Infrared and Raman Spectra, Chapter V,1, Van Nostrand Reinhold, 1945
Point Group:  Cs, Symmetry Number:   1
Rotational constants in cm-1:     0.244357     0.110506     0.076094

Vibrational entropy computed according to the QRRHO of S. Grimme
Chem.Eur.J. 2012 18 9955 using a reference frequency of 100.0 cm-1

-------
ENTROPY
-------

The entropy contributions are T*S = T*(S(el)+S(vib)+S(rot)+S(trans))
     S(el)   - electronic entropy
     S(vib)  - vibrational entropy
     S(rot)  - rotational entropy
     S(trans)- translational entropy
The entropies will be listed as multiplied by the temperature to get
units of energy

Electronic entropy                ...      0.00000000 Eh      0.00 kcal/mol
Vibrational entropy               ...      0.00212405 Eh      1.33 kcal/mol
Rotational entropy                ...      0.01243192 Eh      7.80 kcal/mol
Translational entropy             ...      0.01882729 Eh     11.81 kcal/mol
-----------------------------------------------------------------------
Final entropy term                ...      0.03338325 Eh     20.95 kcal/mol

In case the symmetry of your molecule has not been determined correctly
or in case you have a reason to use a different symmetry number we print
out the resulting rotational entropy values for sn=1,12:

 non-linear molecules -----------------------------------
|  sn= 1 | S(rot)=       0.01243192 Eh      7.80 kcal/mol|
|  sn= 2 | S(rot)=       0.01177746 Eh      7.39 kcal/mol|
|  sn= 3 | S(rot)=       0.01139463 Eh      7.15 kcal/mol|
|  sn= 4 | S(rot)=       0.01112300 Eh      6.98 kcal/mol|
|  sn= 5 | S(rot)=       0.01091232 Eh      6.85 kcal/mol|
|  sn= 6 | S(rot)=       0.01074017 Eh      6.74 kcal/mol|
|  sn= 7 | S(rot)=       0.01059462 Eh      6.65 kcal/mol|
|  sn= 8 | S(rot)=       0.01046855 Eh      6.57 kcal/mol|
|  sn= 9 | S(rot)=       0.01035734 Eh      6.50 kcal/mol|
|  sn=10 | S(rot)=       0.01025786 Eh      6.44 kcal/mol|
|  sn=11 | S(rot)=       0.01016787 Eh      6.38 kcal/mol|
|  sn=12 | S(rot)=       0.01008571 Eh      6.33 kcal/mol|
 linear molecules ---------------------------------------
|  Dinfh | S(rot)=       0.00775782 Eh      4.87 kcal/mol|
|  Cinfv | S(rot)=       0.00841227 Eh      5.28 kcal/mol|
 --------------------------------------------------------

-------------------
GIBBS FREE ENERGY
-------------------

The Gibbs free energy is G = H - T*S

Total enthalpy                    ...   -997.69474310 Eh
Total entropy correction          ...     -0.03338325 Eh    -20.95 kcal/mol
-----------------------------------------------------------------------
Final Gibbs free energy         ...   -997.72812635 Eh

For completeness - the Gibbs free energy minus the electronic energy
G-E(el)                           ...      0.00507012 Eh      3.18 kcal/mol

                             ****ORCA TERMINATED NORMALLY****
TOTAL RUN TIME: 0 days 0 hours 1 minutes 19 seconds 377 msec
