                         Program Version 6.0.0  -   RELEASE  -
|  1> ! r2SCAN-3c DEF2-TZVP FREQ
|  2> * xyzfile 0 1 vacuum_censo.xyz
|  3>
|  4>                          ****END OF INPUT****

CARTESIAN COORDINATES (ANGSTROEM)
---------------------------------
  C      0.000053    1.811966    0.000037
  C      0.000019    0.486520    0.000141
  Cl     1.458672   -0.460100   -0.000037
  Cl    -1.458689   -0.460022   -0.000060
  H     -0.934984    2.357113   -0.000015
  H      0.935118    2.357064    0.000001

 Total Charge           Charge          ....    0
 Multiplicity           Mult            ....    1
 Number of Electrons    NEL             ....   48
 Basis Dimension        Dim             ....  148

ORBITAL ENERGIES
----------------

  NO   OCC          E(Eh)            E(eV)
   0   2.0000    -101.212100     -2754.1212
   1   2.0000    -101.212093     -2754.1211
   2   2.0000     -10.161484      -276.5080
   3   2.0000     -10.057238      -273.6714
   4   2.0000      -9.387950      -255.4591
   5   2.0000      -9.387944      -255.4589
   6   2.0000      -7.133158      -194.1031
   7   2.0000      -7.133155      -194.1030
   8   2.0000      -7.122686      -193.8181
   9   2.0000      -7.122685      -193.8181
  10   2.0000      -7.122395      -193.8102
  11   2.0000      -7.122394      -193.8102
  12   2.0000      -0.885998       -24.1092
  13   2.0000      -0.804433       -21.8897
  14   2.0000      -0.724448       -19.7132
  15   2.0000      -0.546619       -14.8743
  16   2.0000      -0.471229       -12.8228
  17   2.0000      -0.447004       -12.1636
  18   2.0000      -0.386220       -10.5096
  19   2.0000      -0.381468       -10.3803
  20   2.0000      -0.321281        -8.7425
  21   2.0000      -0.310548        -8.4504
  22   2.0000      -0.292002        -7.9458
  23   2.0000      -0.245920        -6.6918
  24   0.0000      -0.051844        -1.4107
  25   0.0000      -0.033783        -0.9193
  26   0.0000       0.009548         0.2598
  27   0.0000       0.081127         2.2076
  28   0.0000       0.128835         3.5058

MULLIKEN ATOMIC CHARGES
-----------------------
   0 C :   -0.294979
   1 C :    0.112967
   2 Cl:   -0.062534
   3 Cl:   -0.062536
   4 H :    0.153541
   5 H :    0.153541
Sum of atomic charges:    0.0000000

LOEWDIN ATOMIC CHARGES
----------------------
   0 C :   -0.243589
   1 C :   -0.805646
   2 Cl:    0.390328
   3 Cl:    0.390324
   4 H :    0.134292
   5 H :    0.134292

  Mayer bond orders larger than 0.100000
B(  0-C ,  1-C ) :   1.8216 B(  0-C ,  4-H ) :   0.9428 B(  0-C ,  5-H ) :   0.9428
B(  1-C ,  2-Cl) :   1.1204 B(  1-C ,  3-Cl) :   1.1204

Dispersion correction           -0.001503345
FINAL SINGLE POINT ENERGY      -997.733330182455

DIPOLE MOMENT
-------------

Method             : SCF
Type of density    : Electron Density
Multiplicity       :   1
Irrep              :   0
Energy             :  -997.7357993348713308 Eh
Relativity type    :
Basis              : AO
                                X                 Y                 Z
Electronic contribution:     -0.000132851      -5.149814377      -0.000153481
Nuclear contribution   :      0.000151786       5.655540392       0.000105342
                        -----------------------------------------
Total Dipole Moment    :      0.000018935       0.505726015      -0.000048139
                        -----------------------------------------
Magnitude (a.u.)       :      0.505726017
Magnitude (Debye)      :      1.285453379

VIBRATIONAL FREQUENCIES
-----------------------

Scaling factor for frequencies =  1.000000000  (already applied!)

     0:       0.00 cm**-1
     1:       0.00 cm**-1
     2:       0.00 cm**-1
     3:       0.00 cm**-1
     4:       0.00 cm**-1
     5:       0.00 cm**-1
     6:     301.24 cm**-1
     7:     381.80 cm**-1
     8:     481.60 cm**-1
     9:     588.23 cm**-1
    10:     692.48 cm**-1
    11:     738.39 cm**-1
    12:     866.45 cm**-1
    13:    1087.13 cm**-1
    14:    1396.73 cm**-1
    15:    1642.34 cm**-1
    16:    3159.91 cm**-1
    17:    3261.09 cm**-1

IR SPECTRUM
-----------

 Mode   freq       eps      Int      T**2         TX        TY        TZ
       cm**-1   L/(mol*cm) km/mol    a.u.
----------------------------------------------------------------------------
  6:    301.24   0.000000    0.00  0.000000  ( 0.000001  0.000271 -0.000001)
  7:    381.80   0.000023    0.12  0.000019  (-0.004378 -0.000001 -0.000000)
  8:    481.60   0.001128    5.70  0.000731  (-0.000000 -0.000025  0.027037)
  9:    588.23   0.003422   17.29  0.001815  ( 0.000003  0.042607 -0.000002)
 10:    692.48   0.000000    0.00  0.000000  (-0.000001  0.000002 -0.000000)
 11:    738.39   0.024445  123.54  0.010331  ( 0.101643 -0.000003  0.000001)
 12:    866.45   0.009916   50.11  0.003571  (-0.000001  0.000008  0.059760)
 13:   1087.13   0.017728   89.59  0.005089  (-0.071337  0.000001 -0.000001)
 14:   1396.73   0.000050    0.25  0.000011  ( 0.000000 -0.003336 -0.000004)
 15:   1642.34   0.018493   93.45  0.003514  ( 0.000001  0.059277  0.000005)
 16:   3159.91   0.000420    2.12  0.000041  (-0.000000 -0.006440  0.000000)
 17:   3261.09   0.000060    0.30  0.000006  ( 0.002403 -0.000000  0.000000)

--------------------------
THERMOCHEMISTRY AT 298.15K
--------------------------

Temperature         ...   298.15 K
Pressure            ...     1.00 atm
Total Mass          ...    96.94 AMU
Quasi RRHO          ...     True
Cut-Off Frequency   ...     1.00 cm^-1

Throughout the following assumptions are being made:
  (1) The electronic state is orbitally nondegenerate
  (2) There are no thermally accessible electronically excited states
  (3) Hindered rotations indicated by low frequency modes are not
      treated as such but are treated as vibrations and this may
      cause some error
  (4) All equations used are the standard statistical mechanics
      equations for an ideal gas
  (5) All vibrations are strictly harmonic

freq.     301.24  E(vib)   ...       0.26
freq.     381.80  E(vib)   ...       0.21
freq.     481.60  E(vib)   ...       0.15
freq.     588.23  E(vib)   ...       0.10
freq.     692.48  E(vib)   ...       0.07
freq.     738.39  E(vib)   ...       0.06
freq.     866.45  E(vib)   ...       0.04
freq.    1087.13  E(vib)   ...       0.02
freq.    1396.73  E(vib)   ...       0.00
freq.    1642.34  E(vib)   ...       0.00
freq.    3159.91  E(vib)   ...       0.00
freq.    3261.09  E(vib)   ...       0.00

------------
INNER ENERGY
------------

The inner energy is: U= E(el) + E(ZPE) + E(vib) + E(rot) + E(trans)
    E(el)   - is the total energy from the electronic structure calculation
              = E(kin-el) + E(nuc-el) + E(el-el) + E(nuc-nuc)
    E(ZPE)  - the the zero temperature vibrational energy from the frequency calculation
    E(vib)  - the the finite temperature correction to E(ZPE) due to population
              of excited vibrational states
    E(rot)  - is the rotational thermal energy
    E(trans)- is the translational thermal energy

Summary of contributions to the inner energy U:
Electronic energy                ...   -997.73333018 Eh
Zero point energy                ...      0.03325531 Eh      20.87 kcal/mol
Thermal vibrational correction   ...      0.00146243 Eh       0.92 kcal/mol
Thermal rotational correction    ...      0.00141627 Eh       0.89 kcal/mol
Thermal translational correction ...      0.00141627 Eh       0.89 kcal/mol
-----------------------------------------------------------------------
Total thermal energy                   -997.69577990 Eh

Summary of corrections to the electronic energy:
(perhaps to be used in another calculation)
Total thermal correction                  0.00429498 Eh       2.70 kcal/mol
Non-thermal (ZPE) correction              0.03325531 Eh      20.87 kcal/mol
-----------------------------------------------------------------------
Total correction                          0.03755028 Eh      23.56 kcal/mol

--------
ENTHALPY
--------

The enthalpy is H = U + kB*T
                kB is Boltzmann's constant
Total thermal energy              ...   -997.69577990 Eh
Thermal Enthalpy correction       ...      0.00094421 Eh       0.59 kcal/mol
-----------------------------------------------------------------------
Total Enthalpy                    ...   -997.69483569 Eh

Note: Rotational entropy computed according to Herzberg
Infrared and Raman Spectra, Chapter V,1, Van Nostrand Reinhold, 1945
Point Group:  Cs, Symmetry Number:   1
Rotational constants in cm-1:     0.246149     0.110446     0.076238

Vibrational entropy computed according to the QRRHO of S. Grimme
Chem.Eur.J. 2012 18 9955 using a reference frequency of 100.0 cm-1

-------
ENTROPY
-------

The entropy contributions are T*S = T*(S(el)+S(vib)+S(rot)+S(trans))
     S(el)   - electronic entropy
     S(vib)  - vibrational entropy
     S(rot)  - rotational entropy
     S(trans)- translational entropy
The entropies will be listed as multiplied by the temperature to get
units of energy

Electronic entropy                ...      0.00000000 Eh      0.00 kcal/mol
Vibrational entropy               ...      0.00211708 Eh      1.33 kcal/mol
Rotational entropy                ...      0.01242783 Eh      7.80 kcal/mol
Translational entropy             ...      0.01882729 Eh     11.81 kcal/mol
-----------------------------------------------------------------------
Final entropy term                ...      0.03337220 Eh     20.94 kcal/mol

In case the symmetry of your molecule has not been determined correctly
or in case you have a reason to use a different symmetry number we print
out the resulting rotational entropy values for sn=1,12:

 non-linear molecules -----------------------------------
|  sn= 1 | S(rot)=       0.01242783 Eh      7.80 kcal/mol|
|  sn= 2 | S(rot)=       0.01177337 Eh      7.39 kcal/mol|
|  sn= 3 | S(rot)=       0.01139054 Eh      7.15 kcal/mol|
|  sn= 4 | S(rot)=       0.01111892 Eh      6.98 kcal/mol|
|  sn= 5 | S(rot)=       0.01090823 Eh      6.85 kcal/mol|
|  sn= 6 | S(rot)=       0.01073608 Eh      6.74 kcal/mol|
|  sn= 7 | S(rot)=       0.01059054 Eh      6.65 kcal/mol|
|  sn= 8 | S(rot)=       0.01046446 Eh      6.57 kcal/mol|
|  sn= 9 | S(rot)=       0.01035325 Eh      6.50 kcal/mol|
|  sn=10 | S(rot)=       0.01025377 Eh      6.43 kcal/mol|
|  sn=11 | S(rot)=       0.01016378 Eh      6.38 kcal/mol|
|  sn=12 | S(rot)=       0.01008163 Eh      6.33 kcal/mol|
 linear molecules ---------------------------------------
|  Dinfh | S(rot)=       0.00775603 Eh      4.87 kcal/mol|
|  Cinfv | S(rot)=       0.00841048 Eh      5.28 kcal/mol|
 --------------------------------------------------------

-------------------
GIBBS FREE ENERGY
-------------------

The Gibbs free energy is G = H - T*S

Total enthalpy                    ...   -997.69483569 Eh
Total entropy correction          ...     -0.03337220 Eh    -20.94 kcal/mol
-----------------------------------------------------------------------
Final Gibbs free energy         ...   -997.72820789 Eh

For completeness - the Gibbs free energy minus the electronic energy
G-E(el)                           ...      0.00512229 Eh      3.21 kcal/mol

                             ****ORCA TERMINATED NORMALLY****
TOTAL RUN TIME: 0 days 0 hours 1 minutes 23 seconds 476 msec
