                         Program Version 6.0.1  -  RELEASE   -
|  1> ! pbe def2-sv(p) def2/J RI DEFGRID1 loosescf d4 GCP(DFT/SV(P)) printgap
|  2> %output
|  3>     printlevel normal
|  4> end
|  5> * xyz 0 1
|  6> C -0.7178152353 -0.5870731986 -0.2871030944
|  7> C 0.6979431168 -0.6182760957 0.2903976138
|  8> O 1.3723357116 0.5301042325 -0.1878286524
|  9> O -1.4399064249 0.5225070549 0.1744845273
| 10> H -1.2689080426 -1.4752149038 0.027914464
| 11> H -0.6488230757 -0.5742778487 -1.3840073063
| 12> H 1.2068565287 -1.5359267226 -0.0323412337
| 13> H 0.6453411958 -0.6033755251 1.3872842753
| 14> H 2.2676635274 0.5426072121 0.1629080986
| 15> H -0.8926997477 1.3010159886 0.0108059663
| 16> *
| 17>
| 18>                          ****END OF INPUT****

CARTESIAN COORDINATES (ANGSTROEM)
---------------------------------
  C     -0.717815   -0.587073   -0.287103
  C      0.697943   -0.618276    0.290398
  O      1.372336    0.530104   -0.187829
  O     -1.439906    0.522507    0.174485
  H     -1.268908   -1.475215    0.027914
  H     -0.648823   -0.574278   -1.384007
  H      1.206857   -1.535927   -0.032341
  H      0.645341   -0.603376    1.387284
  H      2.267664    0.542607    0.162908
  H     -0.892700    1.301016    0.010806

 Total Charge           Charge          ....    0
 Multiplicity           Mult            ....    1
 Number of Electrons    NEL             ....   34
 Basis Dimension        Dim             ....   68

ORBITAL ENERGIES
----------------

  NO   OCC          E(Eh)            E(eV)
   0   2.0000     -18.754731      -510.3422
   1   2.0000     -18.734335      -509.7872
   2   2.0000      -9.933003      -270.2908
   3   2.0000      -9.926322      -270.1090
   4   2.0000      -0.935048       -25.4440
   5   2.0000      -0.908580       -24.7237
   6   2.0000      -0.658610       -17.9217
   7   2.0000      -0.552763       -15.0415
   8   2.0000      -0.478157       -13.0113
   9   2.0000      -0.445837       -12.1318
  10   2.0000      -0.406523       -11.0620
  11   2.0000      -0.368110       -10.0168
  12   2.0000      -0.358696        -9.7606
  13   2.0000      -0.301177        -8.1955
  14   2.0000      -0.270695        -7.3660
  15   2.0000      -0.225911        -6.1473
  16   2.0000      -0.207856        -5.6561
  17   0.0000       0.019138         0.5208
  18   0.0000       0.067100         1.8259
  19   0.0000       0.070575         1.9204
  20   0.0000       0.097856         2.6628
  21   0.0000       0.110259         3.0003

MULLIKEN ATOMIC CHARGES
-----------------------
   0 C :    0.017450
   1 C :   -0.043028
   2 O :   -0.450453
   3 O :   -0.443720
   4 H :    0.089346
   5 H :    0.076861
   6 H :    0.072119
   7 H :    0.078940
   8 H :    0.304519
   9 H :    0.297966
Sum of atomic charges:   -0.0000000

LOEWDIN ATOMIC CHARGES
----------------------
   0 C :   -0.135241
   1 C :   -0.149725
   2 O :   -0.354169
   3 O :   -0.340840
   4 H :    0.114760
   5 H :    0.099222
   6 H :    0.097586
   7 H :    0.098836
   8 H :    0.288776
   9 H :    0.280795

  Mayer bond orders larger than 0.100000
B(  0-C ,  1-C ) :   1.1095 B(  0-C ,  3-O ) :   1.0707 B(  0-C ,  4-H ) :   0.9290
B(  0-C ,  5-H ) :   0.9148 B(  1-C ,  2-O ) :   1.0602 B(  1-C ,  6-H ) :   0.9147
B(  1-C ,  7-H ) :   0.9153 B(  2-O ,  8-H ) :   0.8522 B(  3-O ,  9-H ) :   0.8456

Dispersion correction           -0.004858032
FINAL SINGLE POINT ENERGY      -229.727014559719

DIPOLE MOMENT
-------------

Method             : SCF
Type of density    : Electron Density
Multiplicity       :   1
Irrep              :   0
Energy             :  -229.7783287051216234 Eh
Relativity type    :
Basis              : AO
                                X                 Y                 Z
Electronic contribution:     -0.290662520       1.926071544      -0.027262398
Nuclear contribution   :      1.227462981      -2.184557726       0.161696313
                        -----------------------------------------
Total Dipole Moment    :      0.936800461      -0.258486182       0.134433915
                        -----------------------------------------
Magnitude (a.u.)       :      0.981062020
Magnitude (Debye)      :      2.493661482

Rotational constants in cm-1:             0.530066             0.182801             0.153040
Rotational constants in MHz :         15890.964646          5480.223723          4588.036305

                             ****ORCA TERMINATED NORMALLY****
TOTAL RUN TIME: 0 days 0 hours 0 minutes 6 seconds 183 msec
