                         Program Version 6.0.1  -  RELEASE   -
|  1> ! r2scan-3c def2/J RI DEFGRID2 scfconv6 printgap
|  2> %output
|  3>     printlevel normal
|  4> end
|  5> * xyz 0 1
|  6> C -2.365440228 0.1156309976 0.1741261644
|  7> C -0.9384886085 0.404878347 -0.2778481473
|  8> C 0.0005721732 -0.7096634556 0.0723394536
|  9> C 1.3189181299 -0.6059888403 0.1500079243
| 10> C 2.0984839899 0.6460552843 -0.1020697613
| 11> H -2.4019924869 -0.0179229708 1.2532534117
| 12> H -2.7400318046 -0.7907635767 -0.2969686955
| 13> H -3.0257543811 0.9380326504 -0.0926072999
| 14> H -0.9255216741 0.5537789527 -1.363025873
| 15> H -0.5935068274 1.3378326466 0.175370172
| 16> H -0.4666379249 -1.6677781725 0.2568963852
| 17> H 1.9031709124 -1.4830463293 0.3936913276
| 18> H 1.6055844664 1.5107828869 0.3393978385
| 19> H 2.1847089716 0.8288915725 -1.1738866604
| 20> H 3.1009173723 0.5668487218 0.3105882778
| 21> *
| 22>
| 23>                          ****END OF INPUT****

CARTESIAN COORDINATES (ANGSTROEM)
---------------------------------
  C     -2.365440    0.115631    0.174126
  C     -0.938489    0.404878   -0.277848
  C      0.000572   -0.709663    0.072339
  C      1.318918   -0.605989    0.150008
  C      2.098484    0.646055   -0.102070
  H     -2.401992   -0.017923    1.253253
  H     -2.740032   -0.790764   -0.296969
  H     -3.025754    0.938033   -0.092607
  H     -0.925522    0.553779   -1.363026
  H     -0.593507    1.337833    0.175370
  H     -0.466638   -1.667778    0.256896
  H      1.903171   -1.483046    0.393691
  H      1.605584    1.510783    0.339398
  H      2.184709    0.828892   -1.173887
  H      3.100917    0.566849    0.310588

 Total Charge           Charge          ....    0
 Multiplicity           Mult            ....    1
 Number of Electrons    NEL             ....   40
 Basis Dimension        Dim             ....  145

ORBITAL ENERGIES
----------------

  NO   OCC          E(Eh)            E(eV)
   0   2.0000     -10.028368      -272.8858
   1   2.0000     -10.022147      -272.7165
   2   2.0000     -10.021632      -272.7025
   3   2.0000     -10.019005      -272.6310
   4   2.0000     -10.017678      -272.5949
   5   2.0000      -0.772583       -21.0231
   6   2.0000      -0.718413       -19.5490
   7   2.0000      -0.646464       -17.5912
   8   2.0000      -0.581834       -15.8325
   9   2.0000      -0.495590       -13.4857
  10   2.0000      -0.440516       -11.9871
  11   2.0000      -0.414147       -11.2695
  12   2.0000      -0.397757       -10.8235
  13   2.0000      -0.379042       -10.3142
  14   2.0000      -0.349401        -9.5077
  15   2.0000      -0.338847        -9.2205
  16   2.0000      -0.323507        -8.8031
  17   2.0000      -0.314785        -8.5657
  18   2.0000      -0.291089        -7.9209
  19   2.0000      -0.217085        -5.9072
  20   0.0000      -0.004689        -0.1276
  21   0.0000       0.094698         2.5769
  22   0.0000       0.110188         2.9984
  23   0.0000       0.127335         3.4650
  24   0.0000       0.144679         3.9369

MULLIKEN ATOMIC CHARGES
-----------------------
   0 C :   -0.477232
   1 C :   -0.226748
   2 C :   -0.165920
   3 C :   -0.143422
   4 C :   -0.469546
   5 H :    0.151882
   6 H :    0.141406
   7 H :    0.144283
   8 H :    0.154172
   9 H :    0.137350
  10 H :    0.149532
  11 H :    0.151189
  12 H :    0.147349
  13 H :    0.160066
  14 H :    0.145637
Sum of atomic charges:   -0.0000000

LOEWDIN ATOMIC CHARGES
----------------------
   0 C :   -0.421628
   1 C :   -0.308165
   2 C :   -0.212498
   3 C :   -0.213759
   4 C :   -0.416665
   5 H :    0.152487
   6 H :    0.150554
   7 H :    0.150076
   8 H :    0.162377
   9 H :    0.157370
  10 H :    0.163996
  11 H :    0.160209
  12 H :    0.157423
  13 H :    0.163034
  14 H :    0.155189

  Mayer bond orders larger than 0.100000
B(  0-C ,  1-C ) :   0.8922 B(  0-C ,  5-H ) :   0.9873 B(  0-C ,  6-H ) :   0.9755
B(  0-C ,  7-H ) :   0.9753 B(  1-C ,  2-C ) :   0.9203 B(  1-C ,  8-H ) :   0.9618
B(  1-C ,  9-H ) :   0.9859 B(  2-C ,  3-C ) :   1.9441 B(  2-C , 10-H ) :   0.9491
B(  3-C ,  4-C ) :   0.9092 B(  3-C , 11-H ) :   0.9500 B(  4-C , 12-H ) :   0.9851
B(  4-C , 13-H ) :   0.9700 B(  4-C , 14-H ) :   0.9727

Dispersion correction           -0.003234223
FINAL SINGLE POINT ENERGY      -196.458669089325

DIPOLE MOMENT
-------------

Method             : SCF
Type of density    : Electron Density
Multiplicity       :   1
Irrep              :   0
Energy             :  -196.4616094368780921 Eh
Relativity type    :
Basis              : AO
                                X                 Y                 Z
Electronic contribution:      1.277346806      -1.530761847       0.111022989
Nuclear contribution   :     -1.275023028       1.666793351      -0.185091233
                        -----------------------------------------
Total Dipole Moment    :      0.002323778       0.136031505      -0.074068244
                        -----------------------------------------
Magnitude (a.u.)       :      0.154906666
Magnitude (Debye)      :      0.393741453

Rotational constants in cm-1:             0.459703             0.083309             0.074202
Rotational constants in MHz :         13781.547799          2497.546679          2224.517735

                             ****ORCA TERMINATED NORMALLY****
TOTAL RUN TIME: 0 days 0 hours 0 minutes 10 seconds 33 msec
