                         Program Version 6.0.1  -  RELEASE   -
|  1> ! pbe def2-sv(p) def2/J RI DEFGRID1 loosescf d4 GCP(DFT/SV(P)) printgap
|  2> %output
|  3>     printlevel normal
|  4> end
|  5> * xyz 0 1
|  6> C -2.1944439346 -0.9006998344 -0.1740986554
|  7> C -1.1341988133 -0.3354648034 0.7988622379
|  8> H -1.6181197923 -0.3350717559 1.7873592568
|  9> C -0.7319315878 1.122208169 0.4859506476
| 10> H -1.5881994728 1.6259871855 0.0098470586
| 11> C 0.4765208184 1.2425578614 -0.4700143195
| 12> H 0.813724011 2.2874694826 -0.4193458986
| 13> C 1.6110549394 0.3296593057 0.0119294311
| 14> H 2.4105844997 0.3125216462 -0.7388745308
| 15> C 1.0699331944 -1.1178017873 0.1348337543
| 16> H 1.8353151325 -1.7347695412 0.6269291394
| 17> O -0.0338183728 -1.2134690325 0.987310118
| 18> O 0.8486383492 -1.6370545045 -1.1500475318
| 19> O 2.1925491041 0.7797934406 1.1979603617
| 20> O 0.0862588142 0.9615300948 -1.796361911
| 21> O -0.3639472341 1.8066442357 1.6662463328
| 22> O -1.7811491276 -1.024289756 -1.5071769287
| 23> H -3.0905245463 -0.2682353823 -0.1028130656
| 24> H -2.4520762134 -1.910989399 0.1537866799
| 25> H -0.1136003946 -1.7508537133 -1.2930471654
| 26> H 1.4857764944 1.0394412678 1.8076559084
| 27> H 0.5953768388 0.1947792531 -2.1060067601
| 28> H -1.1082417698 1.8297200481 2.2777692845
| 29> H -1.4652991279 -0.158854868 -1.8300954494
| 30> *
| 31>
| 32>                          ****END OF INPUT****

CARTESIAN COORDINATES (ANGSTROEM)
---------------------------------
  C     -2.194444   -0.900700   -0.174099
  C     -1.134199   -0.335465    0.798862
  H     -1.618120   -0.335072    1.787359
  C     -0.731932    1.122208    0.485951
  H     -1.588199    1.625987    0.009847
  C      0.476521    1.242558   -0.470014
  H      0.813724    2.287469   -0.419346
  C      1.611055    0.329659    0.011929
  H      2.410584    0.312522   -0.738875
  C      1.069933   -1.117802    0.134834
  H      1.835315   -1.734770    0.626929
  O     -0.033818   -1.213469    0.987310
  O      0.848638   -1.637055   -1.150048
  O      2.192549    0.779793    1.197960
  O      0.086259    0.961530   -1.796362
  O     -0.363947    1.806644    1.666246
  O     -1.781149   -1.024290   -1.507177
  H     -3.090525   -0.268235   -0.102813
  H     -2.452076   -1.910989    0.153787
  H     -0.113600   -1.750854   -1.293047
  H      1.485776    1.039441    1.807656
  H      0.595377    0.194779   -2.106007
  H     -1.108242    1.829720    2.277769
  H     -1.465299   -0.158855   -1.830095

 Total Charge           Charge          ....    0
 Multiplicity           Mult            ....    1
 Number of Electrons    NEL             ....   96
 Basis Dimension        Dim             ....  192

ORBITAL ENERGIES
----------------

  NO   OCC          E(Eh)            E(eV)
   0   2.0000     -18.787644      -511.2378
   1   2.0000     -18.782117      -511.0874
   2   2.0000     -18.774452      -510.8788
   3   2.0000     -18.771824      -510.8073
   4   2.0000     -18.746891      -510.1288
   5   2.0000     -18.743347      -510.0324
   6   2.0000      -9.981561      -271.6121
   7   2.0000      -9.965563      -271.1767
   8   2.0000      -9.962223      -271.0859
   9   2.0000      -9.953729      -270.8547
  10   2.0000      -9.949423      -270.7376
  11   2.0000      -9.939527      -270.4683
  12   2.0000      -0.991020       -26.9670
  13   2.0000      -0.962460       -26.1899
  14   2.0000      -0.952236       -25.9117
  15   2.0000      -0.943372       -25.6705
  16   2.0000      -0.922395       -25.0996
  17   2.0000      -0.907691       -24.6995
  18   2.0000      -0.718859       -19.5611
  19   2.0000      -0.692630       -18.8474
  20   2.0000      -0.637664       -17.3517
  21   2.0000      -0.595094       -16.1933
  22   2.0000      -0.590276       -16.0622
  23   2.0000      -0.533960       -14.5298
  24   2.0000      -0.512046       -13.9335
  25   2.0000      -0.501716       -13.6524
  26   2.0000      -0.482936       -13.1414
  27   2.0000      -0.460337       -12.5264
  28   2.0000      -0.448116       -12.1939
  29   2.0000      -0.436012       -11.8645
  30   2.0000      -0.427336       -11.6284
  31   2.0000      -0.423660       -11.5284
  32   2.0000      -0.402680       -10.9575
  33   2.0000      -0.387148       -10.5348
  34   2.0000      -0.369427       -10.0526
  35   2.0000      -0.356693        -9.7061
  36   2.0000      -0.345193        -9.3932
  37   2.0000      -0.335262        -9.1229
  38   2.0000      -0.329838        -8.9754
  39   2.0000      -0.301000        -8.1906
  40   2.0000      -0.299187        -8.1413
  41   2.0000      -0.278197        -7.5701
  42   2.0000      -0.268875        -7.3165
  43   2.0000      -0.253491        -6.8978
  44   2.0000      -0.248831        -6.7710
  45   2.0000      -0.237348        -6.4586
  46   2.0000      -0.225275        -6.1300
  47   2.0000      -0.198048        -5.3892
  48   0.0000      -0.004664        -0.1269
  49   0.0000       0.017156         0.4668
  50   0.0000       0.048219         1.3121
  51   0.0000       0.054657         1.4873
  52   0.0000       0.061255         1.6668

MULLIKEN ATOMIC CHARGES
-----------------------
   0 C :    0.037560
   1 C :    0.037521
   2 H :    0.062219
   3 C :    0.003527
   4 H :    0.080982
   5 C :    0.052579
   6 H :    0.091912
   7 C :    0.005677
   8 H :    0.089683
   9 C :    0.211878
  10 H :    0.074579
  11 O :   -0.306461
  12 O :   -0.437780
  13 O :   -0.418351
  14 O :   -0.431261
  15 O :   -0.418891
  16 O :   -0.448186
  17 H :    0.083121
  18 H :    0.103800
  19 H :    0.299542
  20 H :    0.301736
  21 H :    0.310643
  22 H :    0.311906
  23 H :    0.302065
Sum of atomic charges:   -0.0000000

LOEWDIN ATOMIC CHARGES
----------------------
   0 C :   -0.136369
   1 C :   -0.082040
   2 H :    0.118606
   3 C :   -0.076417
   4 H :    0.109190
   5 C :   -0.065537
   6 H :    0.118233
   7 C :   -0.094190
   8 H :    0.121048
   9 C :   -0.000984
  10 H :    0.107358
  11 O :   -0.134482
  12 O :   -0.338093
  13 O :   -0.312295
  14 O :   -0.310733
  15 O :   -0.305262
  16 O :   -0.325609
  17 H :    0.105350
  18 H :    0.121673
  19 H :    0.268488
  20 H :    0.272242
  21 H :    0.278636
  22 H :    0.291697
  23 H :    0.269490

  Mayer bond orders larger than 0.100000
B(  0-C ,  1-C ) :   1.0279 B(  0-C , 16-O ) :   1.0584 B(  0-C , 17-H ) :   0.9103
B(  0-C , 18-H ) :   0.9166 B(  1-C ,  2-H ) :   0.8822 B(  1-C ,  3-C ) :   0.9593
B(  1-C , 11-O ) :   1.0088 B(  3-C ,  4-H ) :   0.8985 B(  3-C ,  5-C ) :   0.9860
B(  3-C , 15-O ) :   1.0113 B(  5-C ,  6-H ) :   0.8993 B(  5-C ,  7-C ) :   1.0064
B(  5-C , 14-O ) :   1.0431 B(  7-C ,  8-H ) :   0.8973 B(  7-C ,  9-C ) :   0.9445
B(  7-C , 13-O ) :   1.0787 B(  9-C , 10-H ) :   0.9054 B(  9-C , 11-O ) :   1.0580
B(  9-C , 12-O ) :   1.0683 B( 12-O , 19-H ) :   0.7574 B( 12-O , 21-H ) :   0.1156
B( 13-O , 20-H ) :   0.8119 B( 14-O , 21-H ) :   0.7862 B( 14-O , 23-H ) :   0.1416
B( 15-O , 22-H ) :   0.8403 B( 16-O , 19-H ) :   0.1546 B( 16-O , 23-H ) :   0.7716

Dispersion correction           -0.026923846
FINAL SINGLE POINT ENERGY      -685.702508429668

DIPOLE MOMENT
-------------

Method             : SCF
Type of density    : Electron Density
Multiplicity       :   1
Irrep              :   0
Energy             :  -685.8410881945933397 Eh
Relativity type    :
Basis              : AO
                                X                 Y                 Z
Electronic contribution:      2.670224011      -0.482312762       0.428657279
Nuclear contribution   :     -4.015655405       1.056363660       0.153538365
                        -----------------------------------------
Total Dipole Moment    :     -1.345431394       0.574050897       0.582195644
                        -----------------------------------------
Magnitude (a.u.)       :      1.574379826
Magnitude (Debye)      :      4.001755492

Rotational constants in cm-1:             0.041434             0.031599             0.027427
Rotational constants in MHz :          1242.166070           947.303735           822.250887

                             ****ORCA TERMINATED NORMALLY****
TOTAL RUN TIME: 0 days 0 hours 0 minutes 7 seconds 693 msec
