                         Program Version 6.0.1  -  RELEASE   -
|  1> ! r2scan-3c def2/J RI DEFGRID2 scfconv6 printgap
|  2> %output
|  3>     printlevel normal
|  4> end
|  5> * xyz 0 1
|  6> C -1.5458151808 0.1240014297 0.5466257936
|  7> C -0.6700444311 -0.4781700669 -0.5439958469
|  8> C 0.670737828 0.2463990082 -0.6520961219
|  9> N 1.4186716007 0.1079625943 0.587985359
| 10> H -2.4624074888 -0.4494282013 0.6633263715
| 11> H -1.0054296739 0.1260331095 1.4888831245
| 12> H -1.8076494663 1.1498001253 0.2986637815
| 13> H -1.1805048207 -0.4227829196 -1.507735425
| 14> H -0.4853891187 -1.5323379759 -0.3226976598
| 15> H 1.2173540458 -0.1398120809 -1.5311524794
| 16> H 0.4950786074 1.3143592644 -0.8106378567
| 17> H 1.6283388148 -0.8703456388 0.7601753419
| 18> H 2.2984464225 0.6084426291 0.5295880404
| 19> *
| 20>
| 21>                          ****END OF INPUT****

CARTESIAN COORDINATES (ANGSTROEM)
---------------------------------
  C     -1.545815    0.124001    0.546626
  C     -0.670044   -0.478170   -0.543996
  C      0.670738    0.246399   -0.652096
  N      1.418672    0.107963    0.587985
  H     -2.462407   -0.449428    0.663326
  H     -1.005430    0.126033    1.488883
  H     -1.807649    1.149800    0.298664
  H     -1.180505   -0.422783   -1.507735
  H     -0.485389   -1.532338   -0.322698
  H      1.217354   -0.139812   -1.531152
  H      0.495079    1.314359   -0.810638
  H      1.628339   -0.870346    0.760175
  H      2.298446    0.608443    0.529588

 Total Charge           Charge          ....    0
 Multiplicity           Mult            ....    1
 Number of Electrons    NEL             ....   34
 Basis Dimension        Dim             ....  126

ORBITAL ENERGIES
----------------

  NO   OCC          E(Eh)            E(eV)
   0   2.0000     -14.133900      -384.6030
   1   2.0000     -10.047243      -273.3994
   2   2.0000     -10.021519      -272.6994
   3   2.0000     -10.005091      -272.2524
   4   2.0000      -0.846341       -23.0301
   5   2.0000      -0.726807       -19.7774
   6   2.0000      -0.624397       -16.9907
   7   2.0000      -0.543493       -14.7892
   8   2.0000      -0.458196       -12.4682
   9   2.0000      -0.423340       -11.5197
  10   2.0000      -0.409442       -11.1415
  11   2.0000      -0.370780       -10.0894
  12   2.0000      -0.347018        -9.4428
  13   2.0000      -0.313683        -8.5357
  14   2.0000      -0.299727        -8.1560
  15   2.0000      -0.297005        -8.0819
  16   2.0000      -0.202722        -5.5163
  17   0.0000       0.079513         2.1637
  18   0.0000       0.117187         3.1888
  19   0.0000       0.127689         3.4746
  20   0.0000       0.132953         3.6178
  21   0.0000       0.149751         4.0749

MULLIKEN ATOMIC CHARGES
-----------------------
   0 C :   -0.489543
   1 C :   -0.211148
   2 C :   -0.175229
   3 N :   -0.572137
   4 H :    0.140718
   5 H :    0.174628
   6 H :    0.136050
   7 H :    0.135396
   8 H :    0.125578
   9 H :    0.122578
  10 H :    0.138130
  11 H :    0.237979
  12 H :    0.237002
Sum of atomic charges:   -0.0000000

LOEWDIN ATOMIC CHARGES
----------------------
   0 C :   -0.425642
   1 C :   -0.294760
   2 C :   -0.077373
   3 N :   -0.753582
   4 H :    0.147293
   5 H :    0.163716
   6 H :    0.149563
   7 H :    0.152919
   8 H :    0.150274
   9 H :    0.147012
  10 H :    0.169880
  11 H :    0.234671
  12 H :    0.236029

  Mayer bond orders larger than 0.100000
B(  0-C ,  1-C ) :   0.9111 B(  0-C ,  4-H ) :   0.9746 B(  0-C ,  5-H ) :   0.9771
B(  0-C ,  6-H ) :   0.9773 B(  1-C ,  2-C ) :   0.9534 B(  1-C ,  7-H ) :   0.9655
B(  1-C ,  8-H ) :   0.9730 B(  2-C ,  3-N ) :   0.8937 B(  2-C ,  9-H ) :   0.9546
B(  2-C , 10-H ) :   0.9875 B(  3-N , 11-H ) :   0.9210 B(  3-N , 12-H ) :   0.9181

Dispersion correction           -0.002460980
FINAL SINGLE POINT ENERGY      -174.423902383815

DIPOLE MOMENT
-------------

Method             : SCF
Type of density    : Electron Density
Multiplicity       :   1
Irrep              :   0
Energy             :  -174.4306791499010956 Eh
Relativity type    :
Basis              : AO
                                X                 Y                 Z
Electronic contribution:      1.532615776       0.023116149       0.088642652
Nuclear contribution   :     -1.213888402      -0.202120391      -0.401685733
                        -----------------------------------------
Total Dipole Moment    :      0.318727374      -0.179004242      -0.313043081
                        -----------------------------------------
Magnitude (a.u.)       :      0.481275003
Magnitude (Debye)      :      1.223303840

Rotational constants in cm-1:             0.462322             0.169046             0.144404
Rotational constants in MHz :         13860.060537          5067.877099          4329.120406

                             ****ORCA TERMINATED NORMALLY****
TOTAL RUN TIME: 0 days 0 hours 0 minutes 14 seconds 146 msec
