                         Program Version 6.0.1  -  RELEASE   -
|  1> ! pbe def2-sv(p) def2/J RI DEFGRID1 loosescf d4 GCP(DFT/SV(P)) printgap
|  2> %output
|  3>     printlevel normal
|  4> end
|  5> * xyz 0 1
|  6> C -2.4626395367 -0.521029361 -0.1565334361
|  7> C -1.030248289 -0.1919545109 0.2732778007
|  8> H -0.9609906838 -0.2763725283 1.369333459
|  9> C -0.6187890037 1.2367696952 -0.1390789416
| 10> H -1.1360898313 1.5236239851 -1.0598209166
| 11> C 0.8984120519 1.2963080942 -0.4211991612
| 12> H 1.2392560877 2.308814904 -0.1615685117
| 13> C 1.6205499721 0.275309836 0.4724066222
| 14> H 2.7052979881 0.3087501008 0.2798468057
| 15> C 1.1437481479 -1.1469719383 0.07568284
| 16> H 1.297429209 -1.8283995848 0.9334653198
| 17> O -0.1989248537 -1.1707541928 -0.3272756792
| 18> O 1.9083894697 -1.644346868 -0.9657078678
| 19> O 1.3453505119 0.6076112765 1.8129307883
| 20> O 1.1260831547 1.019649702 -1.782176029
| 21> O -0.9911992865 2.170097194 0.8323757413
| 22> O -2.8658640321 -1.7782022342 0.3103500241
| 23> H -2.5160426136 -0.4750020378 -1.2529246948
| 24> H -3.1457550969 0.2142104737 0.2717090228
| 25> H 1.5730488418 -1.2289875316 -1.7751144838
| 26> H 1.8063792502 -0.0078770819 2.3943111918
| 27> H 2.0410183158 1.2319984636 -2.0000924346
| 28> H -0.4890806146 1.9786060723 1.6367056213
| 29> H -2.2047542129 -2.4168621492 0.0151644585
| 30> *
| 31>
| 32>                          ****END OF INPUT****

CARTESIAN COORDINATES (ANGSTROEM)
---------------------------------
  C     -2.462640   -0.521029   -0.156533
  C     -1.030248   -0.191955    0.273278
  H     -0.960991   -0.276373    1.369333
  C     -0.618789    1.236770   -0.139079
  H     -1.136090    1.523624   -1.059821
  C      0.898412    1.296308   -0.421199
  H      1.239256    2.308815   -0.161569
  C      1.620550    0.275310    0.472407
  H      2.705298    0.308750    0.279847
  C      1.143748   -1.146972    0.075683
  H      1.297429   -1.828400    0.933465
  O     -0.198925   -1.170754   -0.327276
  O      1.908389   -1.644347   -0.965708
  O      1.345351    0.607611    1.812931
  O      1.126083    1.019650   -1.782176
  O     -0.991199    2.170097    0.832376
  O     -2.865864   -1.778202    0.310350
  H     -2.516043   -0.475002   -1.252925
  H     -3.145755    0.214210    0.271709
  H      1.573049   -1.228988   -1.775114
  H      1.806379   -0.007877    2.394311
  H      2.041018    1.231998   -2.000092
  H     -0.489081    1.978606    1.636706
  H     -2.204754   -2.416862    0.015164

 Total Charge           Charge          ....    0
 Multiplicity           Mult            ....    1
 Number of Electrons    NEL             ....   96
 Basis Dimension        Dim             ....  192

ORBITAL ENERGIES
----------------

  NO   OCC          E(Eh)            E(eV)
   0   2.0000     -18.783902      -511.1360
   1   2.0000     -18.777674      -510.9665
   2   2.0000     -18.775647      -510.9113
   3   2.0000     -18.756238      -510.3832
   4   2.0000     -18.748361      -510.1688
   5   2.0000     -18.736652      -509.8502
   6   2.0000      -9.993800      -271.9451
   7   2.0000      -9.954724      -270.8818
   8   2.0000      -9.954229      -270.8683
   9   2.0000      -9.942440      -270.5476
  10   2.0000      -9.939067      -270.4557
  11   2.0000      -9.925864      -270.0965
  12   2.0000      -0.992079       -26.9959
  13   2.0000      -0.958169       -26.0731
  14   2.0000      -0.950491       -25.8642
  15   2.0000      -0.932072       -25.3630
  16   2.0000      -0.922533       -25.1034
  17   2.0000      -0.907891       -24.7050
  18   2.0000      -0.705816       -19.2062
  19   2.0000      -0.690832       -18.7985
  20   2.0000      -0.621416       -16.9096
  21   2.0000      -0.593418       -16.1477
  22   2.0000      -0.565953       -15.4004
  23   2.0000      -0.531667       -14.4674
  24   2.0000      -0.508919       -13.8484
  25   2.0000      -0.504719       -13.7341
  26   2.0000      -0.477483       -12.9930
  27   2.0000      -0.463415       -12.6102
  28   2.0000      -0.458268       -12.4701
  29   2.0000      -0.440716       -11.9925
  30   2.0000      -0.417434       -11.3589
  31   2.0000      -0.391456       -10.6521
  32   2.0000      -0.382271       -10.4021
  33   2.0000      -0.377223       -10.2648
  34   2.0000      -0.366722        -9.9790
  35   2.0000      -0.356683        -9.7058
  36   2.0000      -0.338790        -9.2190
  37   2.0000      -0.324883        -8.8405
  38   2.0000      -0.313062        -8.5188
  39   2.0000      -0.307056        -8.3554
  40   2.0000      -0.278160        -7.5691
  41   2.0000      -0.275985        -7.5099
  42   2.0000      -0.264676        -7.2022
  43   2.0000      -0.258084        -7.0228
  44   2.0000      -0.241582        -6.5738
  45   2.0000      -0.220607        -6.0030
  46   2.0000      -0.212243        -5.7754
  47   2.0000      -0.201846        -5.4925
  48   0.0000      -0.004127        -0.1123
  49   0.0000       0.009034         0.2458
  50   0.0000       0.044210         1.2030
  51   0.0000       0.060299         1.6408
  52   0.0000       0.063290         1.7222

MULLIKEN ATOMIC CHARGES
-----------------------
   0 C :    0.078533
   1 C :    0.001131
   2 H :    0.051814
   3 C :    0.084029
   4 H :    0.072253
   5 C :    0.041302
   6 H :    0.077671
   7 C :   -0.051782
   8 H :    0.070732
   9 C :    0.245134
  10 H :    0.047520
  11 O :   -0.315761
  12 O :   -0.402071
  13 O :   -0.416584
  14 O :   -0.408697
  15 O :   -0.422117
  16 O :   -0.433601
  17 H :    0.072331
  18 H :    0.095607
  19 H :    0.292172
  20 H :    0.312971
  21 H :    0.306112
  22 H :    0.304110
  23 H :    0.297192
Sum of atomic charges:   -0.0000000

LOEWDIN ATOMIC CHARGES
----------------------
   0 C :   -0.125223
   1 C :   -0.083706
   2 H :    0.101871
   3 C :   -0.062164
   4 H :    0.121236
   5 C :   -0.070803
   6 H :    0.109073
   7 C :   -0.106206
   8 H :    0.103976
   9 C :    0.004402
  10 H :    0.088939
  11 O :   -0.149380
  12 O :   -0.304052
  13 O :   -0.313075
  14 O :   -0.307205
  15 O :   -0.307213
  16 O :   -0.334943
  17 H :    0.099620
  18 H :    0.121491
  19 H :    0.273270
  20 H :    0.292746
  21 H :    0.289408
  22 H :    0.278325
  23 H :    0.279610

  Mayer bond orders larger than 0.100000
B(  0-C ,  1-C ) :   1.0539 B(  0-C , 16-O ) :   1.0763 B(  0-C , 17-H ) :   0.9039
B(  0-C , 18-H ) :   0.9184 B(  1-C ,  2-H ) :   0.8656 B(  1-C ,  3-C ) :   0.9781
B(  1-C , 11-O ) :   0.9895 B(  3-C ,  4-H ) :   0.8774 B(  3-C ,  5-C ) :   0.9859
B(  3-C , 15-O ) :   1.0414 B(  5-C ,  6-H ) :   0.8952 B(  5-C ,  7-C ) :   1.0148
B(  5-C , 14-O ) :   1.0479 B(  7-C ,  8-H ) :   0.8973 B(  7-C ,  9-C ) :   0.9253
B(  7-C , 13-O ) :   1.0335 B(  9-C , 10-H ) :   0.9016 B(  9-C , 11-O ) :   1.0427
B(  9-C , 12-O ) :   1.1256 B( 12-O , 19-H ) :   0.8270 B( 13-O , 20-H ) :   0.8391
B( 14-O , 21-H ) :   0.8397 B( 15-O , 22-H ) :   0.8337 B( 16-O , 23-H ) :   0.8445

Dispersion correction           -0.024964809
FINAL SINGLE POINT ENERGY      -685.693760269547

DIPOLE MOMENT
-------------

Method             : SCF
Type of density    : Electron Density
Multiplicity       :   1
Irrep              :   0
Energy             :  -685.8256941639095885 Eh
Relativity type    :
Basis              : AO
                                X                 Y                 Z
Electronic contribution:      1.316520778      -0.994527812      -0.415671249
Nuclear contribution   :      0.201547335       1.238323055       0.608992290
                        -----------------------------------------
Total Dipole Moment    :      1.518068113       0.243795244       0.193321041
                        -----------------------------------------
Magnitude (a.u.)       :      1.549625742
Magnitude (Debye)      :      3.938835612

Rotational constants in cm-1:             0.038360             0.027671             0.022195
Rotational constants in MHz :          1150.005379           829.541516           665.393315

                             ****ORCA TERMINATED NORMALLY****
TOTAL RUN TIME: 0 days 0 hours 0 minutes 8 seconds 77 msec
