                         Program Version 6.0.1  -  RELEASE   -
|  1> ! pbe def2-sv(p) def2/J RI DEFGRID1 loosescf d4 GCP(DFT/SV(P)) printgap
|  2> %output
|  3>     printlevel normal
|  4> end
|  5> * xyz 0 1
|  6> C -2.5597084216 -0.7081799911 -0.2785753038
|  7> C -1.1735402033 -0.3006499748 0.2362422914
|  8> H -1.2027608283 -0.2247606246 1.338993625
|  9> C -0.716942027 1.0419569936 -0.3480478865
| 10> H -0.7082300929 0.9785202314 -1.4414049952
| 11> C 0.7009970863 1.3414171748 0.152426104
| 12> H 0.6681675911 1.4734453595 1.2507884415
| 13> C 1.6554098398 0.1804945547 -0.1580048615
| 14> H 1.8123754538 0.1256625455 -1.2447785327
| 15> C 1.0531106467 -1.1551387055 0.3011677575
| 16> H 1.0776930175 -1.1798310647 1.4113307056
| 17> O -0.2792599853 -1.3273244067 -0.138380114
| 18> O 1.7994900768 -2.1736175531 -0.2476973646
| 19> O 2.8681681098 0.3537675602 0.5188310787
| 20> O 1.2185985797 2.5066565733 -0.4432796959
| 21> O -1.5856529064 2.1035931522 -0.0384581427
| 22> O -3.0430879004 -1.8454040333 0.3774184763
| 23> H -2.4883898896 -0.8751701208 -1.3612608406
| 24> H -3.2730161992 0.0951668407 -0.0860357163
| 25> H 1.3736893979 -3.0167233336 -0.0509784719
| 26> H 3.2317810709 1.2040843208 0.241100322
| 27> H 0.488629293 3.1307039673 -0.5510131417
| 28> H -1.7115274322 2.1422004423 0.9181612443
| 29> H -2.3956901612 -2.5497660723 0.253353892
| 30> *
| 31>
| 32>                          ****END OF INPUT****

CARTESIAN COORDINATES (ANGSTROEM)
---------------------------------
  C     -2.559708   -0.708180   -0.278575
  C     -1.173540   -0.300650    0.236242
  H     -1.202761   -0.224761    1.338994
  C     -0.716942    1.041957   -0.348048
  H     -0.708230    0.978520   -1.441405
  C      0.700997    1.341417    0.152426
  H      0.668168    1.473445    1.250788
  C      1.655410    0.180495   -0.158005
  H      1.812375    0.125663   -1.244779
  C      1.053111   -1.155139    0.301168
  H      1.077693   -1.179831    1.411331
  O     -0.279260   -1.327324   -0.138380
  O      1.799490   -2.173618   -0.247697
  O      2.868168    0.353768    0.518831
  O      1.218599    2.506657   -0.443280
  O     -1.585653    2.103593   -0.038458
  O     -3.043088   -1.845404    0.377418
  H     -2.488390   -0.875170   -1.361261
  H     -3.273016    0.095167   -0.086036
  H      1.373689   -3.016723   -0.050978
  H      3.231781    1.204084    0.241100
  H      0.488629    3.130704   -0.551013
  H     -1.711527    2.142200    0.918161
  H     -2.395690   -2.549766    0.253354

 Total Charge           Charge          ....    0
 Multiplicity           Mult            ....    1
 Number of Electrons    NEL             ....   96
 Basis Dimension        Dim             ....  192

ORBITAL ENERGIES
----------------

  NO   OCC          E(Eh)            E(eV)
   0   2.0000     -18.784599      -511.1549
   1   2.0000     -18.777374      -510.9583
   2   2.0000     -18.762821      -510.5623
   3   2.0000     -18.758106      -510.4340
   4   2.0000     -18.749524      -510.2005
   5   2.0000     -18.749144      -510.1901
   6   2.0000      -9.992718      -271.9157
   7   2.0000      -9.953588      -270.8509
   8   2.0000      -9.953488      -270.8482
   9   2.0000      -9.946844      -270.6674
  10   2.0000      -9.942663      -270.5536
  11   2.0000      -9.936682      -270.3909
  12   2.0000      -0.992815       -27.0159
  13   2.0000      -0.961428       -26.1618
  14   2.0000      -0.941558       -25.6211
  15   2.0000      -0.933000       -25.3882
  16   2.0000      -0.921610       -25.0783
  17   2.0000      -0.917127       -24.9563
  18   2.0000      -0.711436       -19.3592
  19   2.0000      -0.696626       -18.9562
  20   2.0000      -0.624859       -17.0033
  21   2.0000      -0.591281       -16.0896
  22   2.0000      -0.567843       -15.4518
  23   2.0000      -0.540593       -14.7103
  24   2.0000      -0.501631       -13.6501
  25   2.0000      -0.496765       -13.5177
  26   2.0000      -0.486012       -13.2251
  27   2.0000      -0.467778       -12.7289
  28   2.0000      -0.457036       -12.4366
  29   2.0000      -0.437998       -11.9185
  30   2.0000      -0.426062       -11.5937
  31   2.0000      -0.402079       -10.9411
  32   2.0000      -0.391529       -10.6540
  33   2.0000      -0.380038       -10.3414
  34   2.0000      -0.371259       -10.1025
  35   2.0000      -0.359060        -9.7705
  36   2.0000      -0.327993        -8.9252
  37   2.0000      -0.319870        -8.7041
  38   2.0000      -0.307452        -8.3662
  39   2.0000      -0.302806        -8.2398
  40   2.0000      -0.292903        -7.9703
  41   2.0000      -0.284478        -7.7410
  42   2.0000      -0.260771        -7.0959
  43   2.0000      -0.249106        -6.7785
  44   2.0000      -0.237988        -6.4760
  45   2.0000      -0.225134        -6.1262
  46   2.0000      -0.216398        -5.8885
  47   2.0000      -0.212952        -5.7947
  48   0.0000       0.004547         0.1237
  49   0.0000       0.021663         0.5895
  50   0.0000       0.028035         0.7629
  51   0.0000       0.043067         1.1719
  52   0.0000       0.056549         1.5388

MULLIKEN ATOMIC CHARGES
-----------------------
   0 C :    0.115026
   1 C :   -0.045452
   2 H :    0.043520
   3 C :    0.036294
   4 H :    0.072926
   5 C :    0.063246
   6 H :    0.036285
   7 C :    0.055829
   8 H :    0.064893
   9 C :    0.199806
  10 H :    0.043875
  11 O :   -0.325395
  12 O :   -0.364381
  13 O :   -0.408631
  14 O :   -0.420145
  15 O :   -0.413669
  16 O :   -0.428291
  17 H :    0.073529
  18 H :    0.083229
  19 H :    0.302379
  20 H :    0.310334
  21 H :    0.305682
  22 H :    0.303461
  23 H :    0.295650
Sum of atomic charges:    0.0000000

LOEWDIN ATOMIC CHARGES
----------------------
   0 C :   -0.125031
   1 C :   -0.084177
   2 H :    0.097172
   3 C :   -0.084901
   4 H :    0.121716
   5 C :   -0.086359
   6 H :    0.095072
   7 C :   -0.076569
   8 H :    0.112883
   9 C :    0.011110
  10 H :    0.084040
  11 O :   -0.158510
  12 O :   -0.283824
  13 O :   -0.311068
  14 O :   -0.327339
  15 O :   -0.304840
  16 O :   -0.331926
  17 H :    0.103830
  18 H :    0.116685
  19 H :    0.288025
  20 H :    0.291338
  21 H :    0.284698
  22 H :    0.287827
  23 H :    0.280145

  Mayer bond orders larger than 0.100000
B(  0-C ,  1-C ) :   1.0440 B(  0-C , 16-O ) :   1.0831 B(  0-C , 17-H ) :   0.9055
B(  0-C , 18-H ) :   0.9122 B(  1-C ,  2-H ) :   0.8675 B(  1-C ,  3-C ) :   0.9900
B(  1-C , 11-O ) :   0.9816 B(  3-C ,  4-H ) :   0.8613 B(  3-C ,  5-C ) :   1.0085
B(  3-C , 15-O ) :   1.0053 B(  5-C ,  6-H ) :   0.8630 B(  5-C ,  7-C ) :   1.0141
B(  5-C , 14-O ) :   1.0934 B(  7-C ,  8-H ) :   0.8654 B(  7-C ,  9-C ) :   0.9962
B(  7-C , 13-O ) :   1.0796 B(  9-C , 10-H ) :   0.8862 B(  9-C , 11-O ) :   0.9935
B(  9-C , 12-O ) :   1.2001 B( 12-O , 19-H ) :   0.8431 B( 13-O , 20-H ) :   0.8416
B( 14-O , 21-H ) :   0.8299 B( 15-O , 22-H ) :   0.8444 B( 16-O , 23-H ) :   0.8477

Dispersion correction           -0.023627558
FINAL SINGLE POINT ENERGY      -685.698465648191

DIPOLE MOMENT
-------------

Method             : SCF
Type of density    : Electron Density
Multiplicity       :   1
Irrep              :   0
Energy             :  -685.8286258346034856 Eh
Relativity type    :
Basis              : AO
                                X                 Y                 Z
Electronic contribution:      2.601352220      -0.972095938      -0.310202549
Nuclear contribution   :     -2.919427137       1.217271226       0.636741249
                        -----------------------------------------
Total Dipole Moment    :     -0.318074917       0.245175289       0.326538700
                        -----------------------------------------
Magnitude (a.u.)       :      0.517600326
Magnitude (Debye)      :      1.315635474

Rotational constants in cm-1:             0.039094             0.026091             0.016466
Rotational constants in MHz :          1172.009571           782.176224           493.651301

                             ****ORCA TERMINATED NORMALLY****
TOTAL RUN TIME: 0 days 0 hours 0 minutes 13 seconds 522 msec
