                         Program Version 6.0.1  -  RELEASE   -
|  1> ! pbe def2-sv(p) def2/J RI DEFGRID1 loosescf d4 GCP(DFT/SV(P)) printgap
|  2> %output
|  3>     printlevel normal
|  4> end
|  5> * xyz 0 1
|  6> C -1.8288754426 0.6307331831 -0.1334796187
|  7> C -1.3561639541 -0.5354921679 0.2589368653
|  8> C 0.0801015605 -0.9369084533 0.3305369339
|  9> Cl 1.2074509867 0.3438666703 -0.1832524791
| 10> H -2.8855363882 0.8318089865 -0.1524601871
| 11> H -1.1796331551 1.4287922541 -0.4505384312
| 12> H -2.0236183932 -1.3278537053 0.5749202064
| 13> H 0.3505562442 -1.2005181044 1.3558593722
| 14> H 0.2671021323 -1.7977492889 -0.3158710093
| 15> *
| 16>
| 17>                          ****END OF INPUT****

CARTESIAN COORDINATES (ANGSTROEM)
---------------------------------
  C     -1.828875    0.630733   -0.133480
  C     -1.356164   -0.535492    0.258937
  C      0.080102   -0.936908    0.330537
  Cl     1.207451    0.343867   -0.183252
  H     -2.885536    0.831809   -0.152460
  H     -1.179633    1.428792   -0.450538
  H     -2.023618   -1.327854    0.574920
  H      0.350556   -1.200518    1.355859
  H      0.267102   -1.797749   -0.315871

 Total Charge           Charge          ....    0
 Multiplicity           Mult            ....    1
 Number of Electrons    NEL             ....   40
 Basis Dimension        Dim             ....   70

ORBITAL ENERGIES
----------------

  NO   OCC          E(Eh)            E(eV)
   0   2.0000    -100.622729     -2738.0836
   1   2.0000      -9.948456      -270.7113
   2   2.0000      -9.903618      -269.4912
   3   2.0000      -9.886217      -269.0176
   4   2.0000      -9.158501      -249.2155
   5   2.0000      -6.990151      -190.2117
   6   2.0000      -6.978197      -189.8864
   7   2.0000      -6.977913      -189.8787
   8   2.0000      -0.784501       -21.3474
   9   2.0000      -0.694887       -18.9088
  10   2.0000      -0.611326       -16.6350
  11   2.0000      -0.496513       -13.5108
  12   2.0000      -0.437982       -11.9181
  13   2.0000      -0.416237       -11.3264
  14   2.0000      -0.394923       -10.7464
  15   2.0000      -0.354432        -9.6446
  16   2.0000      -0.318429        -8.6649
  17   2.0000      -0.253723        -6.9041
  18   2.0000      -0.252816        -6.8795
  19   2.0000      -0.237086        -6.4514
  20   0.0000      -0.023014        -0.6262
  21   0.0000       0.013548         0.3687
  22   0.0000       0.043713         1.1895
  23   0.0000       0.084431         2.2975
  24   0.0000       0.093951         2.5565

MULLIKEN ATOMIC CHARGES
-----------------------
   0 C :   -0.176832
   1 C :   -0.158702
   2 C :   -0.112778
   3 Cl:   -0.143646
   4 H :    0.103753
   5 H :    0.107821
   6 H :    0.088079
   7 H :    0.146165
   8 H :    0.146139
Sum of atomic charges:    0.0000000

LOEWDIN ATOMIC CHARGES
----------------------
   0 C :   -0.251664
   1 C :   -0.167605
   2 C :   -0.272802
   3 Cl:    0.045546
   4 H :    0.126279
   5 H :    0.120966
   6 H :    0.128482
   7 H :    0.135410
   8 H :    0.135389

  Mayer bond orders larger than 0.100000
B(  0-C ,  1-C ) :   2.0982 B(  0-C ,  4-H ) :   0.9223 B(  0-C ,  5-H ) :   0.9005
B(  1-C ,  2-C ) :   1.0659 B(  1-C ,  6-H ) :   0.9220 B(  2-C ,  3-Cl) :   1.0519
B(  2-C ,  7-H ) :   0.9131 B(  2-C ,  8-H ) :   0.9131

Dispersion correction           -0.006165032
FINAL SINGLE POINT ENERGY      -576.873747387211

DIPOLE MOMENT
-------------

Method             : SCF
Type of density    : Electron Density
Multiplicity       :   1
Irrep              :   0
Energy             :  -576.9012170170394711 Eh
Relativity type    :
Basis              : AO
                                X                 Y                 Z
Electronic contribution:      6.379231353       1.889469518      -0.994439180
Nuclear contribution   :     -6.753510489      -2.399353385       1.195308466
                        -----------------------------------------
Total Dipole Moment    :     -0.374279137      -0.509883867       0.200869286
                        -----------------------------------------
Magnitude (a.u.)       :      0.663637627
Magnitude (Debye)      :      1.686832794

Rotational constants in cm-1:             0.454344             0.128807             0.102295
Rotational constants in MHz :         13620.884993          3861.529232          3066.713228

                             ****ORCA TERMINATED NORMALLY****
TOTAL RUN TIME: 0 days 0 hours 0 minutes 3 seconds 681 msec
