                         Program Version 6.0.1  -  RELEASE   -
|  1> ! pbe def2-sv(p) def2/J RI DEFGRID1 loosescf d4 GCP(DFT/SV(P)) printgap
|  2> %output
|  3>     printlevel normal
|  4> end
|  5> * xyz 0 1
|  6> C -1.0765530412 -1.8706175168 5.0328e-06
|  7> C 0.2500681684 -1.4842425481 -1.3842e-06
|  8> C 0.548050306 -0.1266614008 -9.5692e-06
|  9> C -0.4452489226 0.8391426777 -3.102e-07
| 10> C -1.7776638409 0.4389884689 5.8165e-06
| 11> C -2.0842845509 -0.9208472027 9.3099e-06
| 12> O -2.7295442872 1.397048335 1.06108e-05
| 13> N 1.9295829652 0.2929982589 -4.27157e-05
| 14> O 2.1580288286 1.4825863516 -2.06584e-05
| 15> O 2.778542672 -0.5723478662 3.88476e-05
| 16> H -1.3320536095 -2.9186542429 1.03297e-05
| 17> H 1.0521071698 -2.2046832869 -1.14459e-05
| 18> H -0.1929094684 1.8873876731 -7.0543e-06
| 19> H -3.1198089774 -1.2333267363 2.25374e-05
| 20> H -3.6106056694 1.0027356722 1.60703e-05
| 21> *
| 22>
| 23>                          ****END OF INPUT****

CARTESIAN COORDINATES (ANGSTROEM)
---------------------------------
  C     -1.076553   -1.870618    0.000005
  C      0.250068   -1.484243   -0.000001
  C      0.548050   -0.126661   -0.000010
  C     -0.445249    0.839143   -0.000000
  C     -1.777664    0.438988    0.000006
  C     -2.084285   -0.920847    0.000009
  O     -2.729544    1.397048    0.000011
  N      1.929583    0.292998   -0.000043
  O      2.158029    1.482586   -0.000021
  O      2.778543   -0.572348    0.000039
  H     -1.332054   -2.918654    0.000010
  H      1.052107   -2.204683   -0.000011
  H     -0.192909    1.887388   -0.000007
  H     -3.119809   -1.233327    0.000023
  H     -3.610606    1.002736    0.000016

 Total Charge           Charge          ....    0
 Multiplicity           Mult            ....    1
 Number of Electrons    NEL             ....   72
 Basis Dimension        Dim             ....  150

ORBITAL ENERGIES
----------------

  NO   OCC          E(Eh)            E(eV)
   0   2.0000     -18.805856      -511.7334
   1   2.0000     -18.774485      -510.8797
   2   2.0000     -18.774241      -510.8731
   3   2.0000     -14.209337      -386.6557
   4   2.0000      -9.980295      -271.5776
   5   2.0000      -9.953404      -270.8459
   6   2.0000      -9.923476      -270.0315
   7   2.0000      -9.922204      -269.9969
   8   2.0000      -9.915631      -269.8180
   9   2.0000      -9.915076      -269.8029
  10   2.0000      -1.133900       -30.8550
  11   2.0000      -0.991132       -26.9701
  12   2.0000      -0.963999       -26.2318
  13   2.0000      -0.810455       -22.0536
  14   2.0000      -0.735067       -20.0022
  15   2.0000      -0.696430       -18.9508
  16   2.0000      -0.639204       -17.3936
  17   2.0000      -0.577418       -15.7123
  18   2.0000      -0.564342       -15.3565
  19   2.0000      -0.500895       -13.6301
  20   2.0000      -0.491726       -13.3805
  21   2.0000      -0.473793       -12.8926
  22   2.0000      -0.460806       -12.5392
  23   2.0000      -0.456117       -12.4116
  24   2.0000      -0.431465       -11.7407
  25   2.0000      -0.408974       -11.1287
  26   2.0000      -0.390670       -10.6307
  27   2.0000      -0.364114        -9.9081
  28   2.0000      -0.357511        -9.7284
  29   2.0000      -0.324925        -8.8417
  30   2.0000      -0.324522        -8.8307
  31   2.0000      -0.271052        -7.3757
  32   2.0000      -0.260068        -7.0768
  33   2.0000      -0.255300        -6.9471
  34   2.0000      -0.233502        -6.3539
  35   2.0000      -0.222819        -6.0632
  36   0.0000      -0.113482        -3.0880
  37   0.0000      -0.051339        -1.3970
  38   0.0000      -0.025705        -0.6995
  39   0.0000       0.005061         0.1377
  40   0.0000       0.034889         0.9494

MULLIKEN ATOMIC CHARGES
-----------------------
   0 C :   -0.058992
   1 C :   -0.115882
   2 C :    0.228620
   3 C :   -0.205414
   4 C :    0.244152
   5 C :   -0.128887
   6 O :   -0.316939
   7 N :    0.195900
   8 O :   -0.207780
   9 O :   -0.210959
  10 H :    0.069197
  11 H :    0.070634
  12 H :    0.069593
  13 H :    0.043842
  14 H :    0.322915
Sum of atomic charges:    0.0000000

LOEWDIN ATOMIC CHARGES
----------------------
   0 C :   -0.106033
   1 C :   -0.130632
   2 C :   -0.032715
   3 C :   -0.129146
   4 C :    0.025802
   5 C :   -0.154749
   6 O :   -0.218579
   7 N :    0.250657
   8 O :   -0.179066
   9 O :   -0.180864
  10 H :    0.132912
  11 H :    0.142401
  12 H :    0.150602
  13 H :    0.126493
  14 H :    0.302915

  Mayer bond orders larger than 0.100000
B(  0-C ,  1-C ) :   1.3289 B(  0-C ,  5-C ) :   1.3657 B(  0-C , 10-H ) :   0.9600
B(  1-C ,  2-C ) :   1.3710 B(  1-C , 11-H ) :   0.9517 B(  2-C ,  3-C ) :   1.3464
B(  2-C ,  7-N ) :   0.8658 B(  3-C ,  4-C ) :   1.2807 B(  3-C , 12-H ) :   0.9622
B(  4-C ,  5-C ) :   1.3121 B(  4-C ,  6-O ) :   1.2080 B(  5-C , 13-H ) :   0.9571
B(  6-O , 14-H ) :   0.8386 B(  7-N ,  8-O ) :   1.5588 B(  7-N ,  9-O ) :   1.5546
B(  8-O ,  9-O ) :   0.3006

Dispersion correction           -0.016046862
FINAL SINGLE POINT ENERGY      -510.970621544781

DIPOLE MOMENT
-------------

Method             : SCF
Type of density    : Electron Density
Multiplicity       :   1
Irrep              :   0
Energy             :  -511.0210026365773501 Eh
Relativity type    :
Basis              : AO
                                X                 Y                 Z
Electronic contribution:      4.634908813       2.491527701      -0.000056597
Nuclear contribution   :     -6.714637721      -3.216450076       0.000028747
                        -----------------------------------------
Total Dipole Moment    :     -2.079728908      -0.724922374      -0.000027850
                        -----------------------------------------
Magnitude (a.u.)       :      2.202449723
Magnitude (Debye)      :      5.598182301

Rotational constants in cm-1:             0.092582             0.033310             0.024497
Rotational constants in MHz :          2775.529479           998.615273           734.387871

                             ****ORCA TERMINATED NORMALLY****
TOTAL RUN TIME: 0 days 0 hours 0 minutes 15 seconds 709 msec
