                         Program Version 6.0.1  -  RELEASE   -
|  1> ! pbe def2-sv(p) def2/J RI DEFGRID1 loosescf d4 GCP(DFT/SV(P)) printgap
|  2> %output
|  3>     printlevel normal
|  4> end
|  5> * xyz 0 1
|  6> C -2.3441370105 -0.8224252392 0.5757453658
|  7> C -0.9145677881 -0.2864226731 0.7960113666
|  8> H -0.823339684 0.059431367 1.8379938363
|  9> C -0.64037861 0.9028457072 -0.1423515004
| 10> H -0.9002608208 0.6037280144 -1.1642758796
| 11> C 0.8421112994 1.3401725021 -0.1035037642
| 12> H 0.9699886089 2.123394215 0.6547123572
| 13> C 1.7824225478 0.16620711 0.2772446729
| 14> H 2.7300550727 0.3126206785 -0.2503688477
| 15> C 1.1294489482 -1.144165529 -0.1685279249
| 16> H 1.7845908654 -2.0017641529 0.057208457
| 17> O -0.0214677407 -1.3899178233 0.5966177196
| 18> O 0.874389193 -1.0573948658 -1.5375686132
| 19> O 2.0837600011 0.1192757268 1.6454742215
| 20> O 1.2357900365 1.9222179988 -1.3128832272
| 21> O -1.5151791011 1.9575766683 0.1579686816
| 22> O -2.4246365145 -1.5970653547 -0.5873826345
| 23> H -3.0239553139 0.0210307707 0.4473034044
| 24> H -2.6478974756 -1.4100035354 1.4529891738
| 25> H 0.3706712476 -1.8284125976 -1.8261768781
| 26> H 1.3995862657 -0.3870250894 2.1011175871
| 27> H 1.1615986611 1.2545485589 -2.0071798788
| 28> H -1.2208515487 2.4071172109 0.9590579276
| 29> H -1.7642209312 -2.2970065981 -0.501532386
| 30> *
| 31>
| 32>                          ****END OF INPUT****

CARTESIAN COORDINATES (ANGSTROEM)
---------------------------------
  C     -2.344137   -0.822425    0.575745
  C     -0.914568   -0.286423    0.796011
  H     -0.823340    0.059431    1.837994
  C     -0.640379    0.902846   -0.142352
  H     -0.900261    0.603728   -1.164276
  C      0.842111    1.340173   -0.103504
  H      0.969989    2.123394    0.654712
  C      1.782423    0.166207    0.277245
  H      2.730055    0.312621   -0.250369
  C      1.129449   -1.144166   -0.168528
  H      1.784591   -2.001764    0.057208
  O     -0.021468   -1.389918    0.596618
  O      0.874389   -1.057395   -1.537569
  O      2.083760    0.119276    1.645474
  O      1.235790    1.922218   -1.312883
  O     -1.515179    1.957577    0.157969
  O     -2.424637   -1.597065   -0.587383
  H     -3.023955    0.021031    0.447303
  H     -2.647897   -1.410004    1.452989
  H      0.370671   -1.828413   -1.826177
  H      1.399586   -0.387025    2.101118
  H      1.161599    1.254549   -2.007180
  H     -1.220852    2.407117    0.959058
  H     -1.764221   -2.297007   -0.501532

 Total Charge           Charge          ....    0
 Multiplicity           Mult            ....    1
 Number of Electrons    NEL             ....   96
 Basis Dimension        Dim             ....  192

ORBITAL ENERGIES
----------------

  NO   OCC          E(Eh)            E(eV)
   0   2.0000     -18.799216      -511.5527
   1   2.0000     -18.787888      -511.2444
   2   2.0000     -18.761667      -510.5309
   3   2.0000     -18.756998      -510.4039
   4   2.0000     -18.755273      -510.3569
   5   2.0000     -18.742848      -510.0188
   6   2.0000     -10.004610      -272.2393
   7   2.0000      -9.955646      -270.9069
   8   2.0000      -9.946995      -270.6715
   9   2.0000      -9.944023      -270.5906
  10   2.0000      -9.942095      -270.5382
  11   2.0000      -9.935320      -270.3538
  12   2.0000      -1.006508       -27.3885
  13   2.0000      -0.947763       -25.7899
  14   2.0000      -0.941166       -25.6104
  15   2.0000      -0.939526       -25.5658
  16   2.0000      -0.925478       -25.1835
  17   2.0000      -0.919466       -25.0200
  18   2.0000      -0.709248       -19.2996
  19   2.0000      -0.696338       -18.9483
  20   2.0000      -0.627238       -17.0680
  21   2.0000      -0.600237       -16.3333
  22   2.0000      -0.573896       -15.6165
  23   2.0000      -0.542366       -14.7585
  24   2.0000      -0.513029       -13.9602
  25   2.0000      -0.503895       -13.7117
  26   2.0000      -0.474231       -12.9045
  27   2.0000      -0.456917       -12.4333
  28   2.0000      -0.452770       -12.3205
  29   2.0000      -0.445211       -12.1148
  30   2.0000      -0.425411       -11.5760
  31   2.0000      -0.406126       -11.0512
  32   2.0000      -0.386261       -10.5107
  33   2.0000      -0.381767       -10.3884
  34   2.0000      -0.373817       -10.1721
  35   2.0000      -0.360499        -9.8097
  36   2.0000      -0.348008        -9.4698
  37   2.0000      -0.328389        -8.9359
  38   2.0000      -0.298584        -8.1249
  39   2.0000      -0.293328        -7.9819
  40   2.0000      -0.290454        -7.9037
  41   2.0000      -0.282581        -7.6894
  42   2.0000      -0.268994        -7.3197
  43   2.0000      -0.255126        -6.9423
  44   2.0000      -0.249008        -6.7758
  45   2.0000      -0.231875        -6.3096
  46   2.0000      -0.223087        -6.0705
  47   2.0000      -0.200361        -5.4521
  48   0.0000       0.000035         0.0010
  49   0.0000       0.011784         0.3207
  50   0.0000       0.027187         0.7398
  51   0.0000       0.053162         1.4466
  52   0.0000       0.062968         1.7134

MULLIKEN ATOMIC CHARGES
-----------------------
   0 C :    0.082121
   1 C :   -0.026040
   2 H :    0.040941
   3 C :    0.074009
   4 H :    0.058233
   5 C :    0.109668
   6 H :    0.051940
   7 C :    0.029389
   8 H :    0.087338
   9 C :    0.134121
  10 H :    0.079549
  11 O :   -0.331420
  12 O :   -0.393668
  13 O :   -0.411817
  14 O :   -0.420163
  15 O :   -0.405231
  16 O :   -0.434559
  17 H :    0.102659
  18 H :    0.076181
  19 H :    0.306534
  20 H :    0.305367
  21 H :    0.303155
  22 H :    0.296844
  23 H :    0.284850
Sum of atomic charges:    0.0000000

LOEWDIN ATOMIC CHARGES
----------------------
   0 C :   -0.127123
   1 C :   -0.087073
   2 H :    0.096861
   3 C :   -0.083823
   4 H :    0.119853
   5 C :   -0.074344
   6 H :    0.114321
   7 C :   -0.086421
   8 H :    0.124480
   9 C :   -0.013038
  10 H :    0.101854
  11 O :   -0.153137
  12 O :   -0.304223
  13 O :   -0.307382
  14 O :   -0.308819
  15 O :   -0.300988
  16 O :   -0.329134
  17 H :    0.125237
  18 H :    0.097608
  19 H :    0.286529
  20 H :    0.280640
  21 H :    0.279746
  22 H :    0.281397
  23 H :    0.266979

  Mayer bond orders larger than 0.100000
B(  0-C ,  1-C ) :   1.0245 B(  0-C , 16-O ) :   1.0714 B(  0-C , 17-H ) :   0.9105
B(  0-C , 18-H ) :   0.9164 B(  1-C ,  2-H ) :   0.8731 B(  1-C ,  3-C ) :   0.9999
B(  1-C , 11-O ) :   0.9450 B(  3-C ,  4-H ) :   0.8458 B(  3-C ,  5-C ) :   1.0106
B(  3-C , 15-O ) :   1.0172 B(  5-C ,  6-H ) :   0.8628 B(  5-C ,  7-C ) :   0.9518
B(  5-C , 14-O ) :   1.0453 B(  7-C ,  8-H ) :   0.8824 B(  7-C ,  9-C ) :   1.0457
B(  7-C , 13-O ) :   1.0582 B(  9-C , 10-H ) :   0.8978 B(  9-C , 11-O ) :   1.0406
B(  9-C , 12-O ) :   1.1087 B( 12-O , 19-H ) :   0.8302 B( 13-O , 20-H ) :   0.8357
B( 14-O , 21-H ) :   0.8404 B( 15-O , 22-H ) :   0.8477 B( 16-O , 23-H ) :   0.8330

Dispersion correction           -0.025464404
FINAL SINGLE POINT ENERGY      -685.689477061036

DIPOLE MOMENT
-------------

Method             : SCF
Type of density    : Electron Density
Multiplicity       :   1
Irrep              :   0
Energy             :  -685.8224790246408702 Eh
Relativity type    :
Basis              : AO
                                X                 Y                 Z
Electronic contribution:      1.876216342       0.014427628      -1.138102998
Nuclear contribution   :     -1.839152319      -1.072381549       1.636601704
                        -----------------------------------------
Total Dipole Moment    :      0.037064024      -1.057953920       0.498498706
                        -----------------------------------------
Magnitude (a.u.)       :      1.170103072
Magnitude (Debye)      :      2.974165648

Rotational constants in cm-1:             0.040243             0.028090             0.023658
Rotational constants in MHz :          1206.467482           842.104740           709.253308

                             ****ORCA TERMINATED NORMALLY****
TOTAL RUN TIME: 0 days 0 hours 0 minutes 8 seconds 263 msec
