                         Program Version 6.0.1  -  RELEASE   -
|  1> ! r2scan-3c def2/J RI DEFGRID2 scfconv6 printgap
|  2> %output
|  3>     printlevel normal
|  4> end
|  5> * xyz 0 1
|  6> C -2.7002269299 -0.3830206602 0.7306298482
|  7> C -1.8266429522 -0.7078244883 -0.4993466885
|  8> C -0.3621859954 -0.4431847155 -0.2513005773
|  9> C 0.5393325107 -1.492164402 -0.1438059786
| 10> C 1.8841111247 -1.2678031879 0.08975912
| 11> C 2.3495270742 0.0292623353 0.2183486469
| 12> C 1.4710652003 1.089866215 0.1182394438
| 13> C 0.1186327739 0.8624045741 -0.1105131069
| 14> O -0.6950320979 1.9517285963 -0.191583049
| 15> H -2.0810875708 -0.0750967194 1.5710978089
| 16> H -3.2655192373 -1.2567788916 1.0431484396
| 17> H -3.4144634151 0.4120846619 0.5241272313
| 18> H -2.1641434261 -0.1291395519 -1.3655940004
| 19> H -1.9421632006 -1.7592301141 -0.7635774501
| 20> H 0.1763107531 -2.5050204022 -0.2470670824
| 21> H 2.5645458078 -2.1019884474 0.1691138539
| 22> H 3.397417199 0.2171435631 0.3976984625
| 23> H 1.8077772 2.1099864081 0.2154709357
| 24> H -1.606570598 1.6636150033 -0.3147195908
| 25> *
| 26>
| 27>                          ****END OF INPUT****

CARTESIAN COORDINATES (ANGSTROEM)
---------------------------------
  C     -2.700227   -0.383021    0.730630
  C     -1.826643   -0.707824   -0.499347
  C     -0.362186   -0.443185   -0.251301
  C      0.539333   -1.492164   -0.143806
  C      1.884111   -1.267803    0.089759
  C      2.349527    0.029262    0.218349
  C      1.471065    1.089866    0.118239
  C      0.118633    0.862405   -0.110513
  O     -0.695032    1.951729   -0.191583
  H     -2.081088   -0.075097    1.571098
  H     -3.265519   -1.256779    1.043148
  H     -3.414463    0.412085    0.524127
  H     -2.164143   -0.129140   -1.365594
  H     -1.942163   -1.759230   -0.763577
  H      0.176311   -2.505020   -0.247067
  H      2.564546   -2.101988    0.169114
  H      3.397417    0.217144    0.397698
  H      1.807777    2.109986    0.215471
  H     -1.606571    1.663615   -0.314720

 Total Charge           Charge          ....    0
 Multiplicity           Mult            ....    1
 Number of Electrons    NEL             ....   66
 Basis Dimension        Dim             ....  226

ORBITAL ENERGIES
----------------

  NO   OCC          E(Eh)            E(eV)
   0   2.0000     -18.984403      -516.5919
   1   2.0000     -10.091881      -274.6140
   2   2.0000     -10.047533      -273.4073
   3   2.0000     -10.039790      -273.1966
   4   2.0000     -10.033393      -273.0225
   5   2.0000     -10.031491      -272.9708
   6   2.0000     -10.030589      -272.9462
   7   2.0000     -10.026416      -272.8327
   8   2.0000     -10.023700      -272.7587
   9   2.0000      -1.029649       -28.0182
  10   2.0000      -0.823423       -22.4065
  11   2.0000      -0.762731       -20.7550
  12   2.0000      -0.708981       -19.2924
  13   2.0000      -0.695053       -18.9134
  14   2.0000      -0.614007       -16.7080
  15   2.0000      -0.573409       -15.6033
  16   2.0000      -0.569032       -15.4842
  17   2.0000      -0.506995       -13.7960
  18   2.0000      -0.466928       -12.7058
  19   2.0000      -0.439962       -11.9720
  20   2.0000      -0.416443       -11.3320
  21   2.0000      -0.412037       -11.2121
  22   2.0000      -0.396047       -10.7770
  23   2.0000      -0.383203       -10.4275
  24   2.0000      -0.363302        -9.8859
  25   2.0000      -0.354616        -9.6496
  26   2.0000      -0.346903        -9.4397
  27   2.0000      -0.330663        -8.9978
  28   2.0000      -0.312605        -8.5064
  29   2.0000      -0.309355        -8.4180
  30   2.0000      -0.299270        -8.1436
  31   2.0000      -0.229660        -6.2494
  32   2.0000      -0.201716        -5.4890
  33   0.0000      -0.027081        -0.7369
  34   0.0000      -0.014886        -0.4051
  35   0.0000       0.045940         1.2501
  36   0.0000       0.078510         2.1364
  37   0.0000       0.105028         2.8580

MULLIKEN ATOMIC CHARGES
-----------------------
   0 C :   -0.486577
   1 C :   -0.361275
   2 C :   -0.011472
   3 C :   -0.193749
   4 C :   -0.193767
   5 C :   -0.122570
   6 C :   -0.288873
   7 C :    0.333799
   8 O :   -0.403764
   9 H :    0.182872
  10 H :    0.158267
  11 H :    0.144796
  12 H :    0.173133
  13 H :    0.157566
  14 H :    0.145341
  15 H :    0.144626
  16 H :    0.147127
  17 H :    0.156163
  18 H :    0.318357
Sum of atomic charges:    0.0000000

LOEWDIN ATOMIC CHARGES
----------------------
   0 C :   -0.422350
   1 C :   -0.293205
   2 C :   -0.099490
   3 C :   -0.154190
   4 C :   -0.188581
   5 C :   -0.159512
   6 C :   -0.140822
   7 C :    0.186775
   8 O :   -0.493614
   9 H :    0.165308
  10 H :    0.157638
  11 H :    0.149173
  12 H :    0.161131
  13 H :    0.166974
  14 H :    0.167918
  15 H :    0.166201
  16 H :    0.167527
  17 H :    0.179406
  18 H :    0.283714

  Mayer bond orders larger than 0.100000
B(  0-C ,  1-C ) :   0.8279 B(  0-C ,  9-H ) :   0.9856 B(  0-C , 10-H ) :   0.9703
B(  0-C , 11-H ) :   0.9729 B(  1-C ,  2-C ) :   0.7793 B(  1-C , 12-H ) :   1.0278
B(  1-C , 13-H ) :   0.9733 B(  2-C ,  3-C ) :   1.3596 B(  2-C ,  7-C ) :   1.4317
B(  3-C ,  4-C ) :   1.4565 B(  3-C , 14-H ) :   0.9311 B(  4-C ,  5-C ) :   1.4236
B(  4-C , 15-H ) :   0.9439 B(  5-C ,  6-C ) :   1.3896 B(  5-C , 16-H ) :   0.9473
B(  6-C ,  7-C ) :   1.4043 B(  6-C , 17-H ) :   0.9459 B(  7-C ,  8-O ) :   0.9571
B(  8-O , 18-H ) :   0.8638

Dispersion correction           -0.006286725
FINAL SINGLE POINT ENERGY      -385.996993781912

DIPOLE MOMENT
-------------

Method             : SCF
Type of density    : Electron Density
Multiplicity       :   1
Irrep              :   0
Energy             :  -385.9976901467595667 Eh
Relativity type    :
Basis              : AO
                                X                 Y                 Z
Electronic contribution:      5.543294568       2.806449151      -1.181066379
Nuclear contribution   :     -6.134568744      -3.183763214       1.150825502
                        -----------------------------------------
Total Dipole Moment    :     -0.591274176      -0.377314063      -0.030240877
                        -----------------------------------------
Magnitude (a.u.)       :      0.702058091
Magnitude (Debye)      :      1.784489852

Rotational constants in cm-1:             0.092713             0.047613             0.033816
Rotational constants in MHz :          2779.470157          1427.406904          1013.781160

                             ****ORCA TERMINATED NORMALLY****
TOTAL RUN TIME: 0 days 0 hours 0 minutes 23 seconds 828 msec
