                         Program Version 6.0.1  -  RELEASE   -
|  1> ! r2scan-3c def2/J RI DEFGRID2 scfconv6 printgap
|  2> %output
|  3>     printlevel normal
|  4> end
|  5> * xyz 0 1
|  6> C -3.3616342112 -0.1237175011 -0.1120603116
|  7> C -2.1749117936 0.8042406619 0.1135912046
|  8> C -0.8165689306 0.1558440706 0.0305719137
|  9> C -0.6308877119 -1.21029176 -0.135935459
| 10> C 0.6463825463 -1.7400487463 -0.2005058096
| 11> C 1.7566638047 -0.9238406765 -0.0997204533
| 12> C 1.583186912 0.4446961043 0.0688307327
| 13> C 0.301633862 0.9733529644 0.1320598634
| 14> O 2.6387652142 1.3003722914 0.1745116626
| 15> H -3.3027365354 -0.5960306128 -1.0899687498
| 16> H -4.2871222625 0.4463204085 -0.0648044832
| 17> H -3.4020304761 -0.8971477483 0.6513941394
| 18> H -2.2693040223 1.269496469 1.0997535985
| 19> H -2.2101153844 1.6127403969 -0.6223727295
| 20> H -1.4764172579 -1.8734955307 -0.2168827456
| 21> H 0.7791699053 -2.8041424923 -0.3312521508
| 22> H 2.7537536695 -1.3415515746 -0.1513604559
| 23> H 0.192263134 2.0392644265 0.2623882846
| 24> H 3.4642532789 0.804948645 0.1140357279
| 25> *
| 26>
| 27>                          ****END OF INPUT****

CARTESIAN COORDINATES (ANGSTROEM)
---------------------------------
  C     -3.361634   -0.123718   -0.112060
  C     -2.174912    0.804241    0.113591
  C     -0.816569    0.155844    0.030572
  C     -0.630888   -1.210292   -0.135935
  C      0.646383   -1.740049   -0.200506
  C      1.756664   -0.923841   -0.099720
  C      1.583187    0.444696    0.068831
  C      0.301634    0.973353    0.132060
  O      2.638765    1.300372    0.174512
  H     -3.302737   -0.596031   -1.089969
  H     -4.287122    0.446320   -0.064804
  H     -3.402030   -0.897148    0.651394
  H     -2.269304    1.269496    1.099754
  H     -2.210115    1.612740   -0.622373
  H     -1.476417   -1.873496   -0.216883
  H      0.779170   -2.804142   -0.331252
  H      2.753754   -1.341552   -0.151360
  H      0.192263    2.039264    0.262388
  H      3.464253    0.804949    0.114036

 Total Charge           Charge          ....    0
 Multiplicity           Mult            ....    1
 Number of Electrons    NEL             ....   66
 Basis Dimension        Dim             ....  226

ORBITAL ENERGIES
----------------

  NO   OCC          E(Eh)            E(eV)
   0   2.0000     -18.983127      -516.5571
   1   2.0000     -10.093474      -274.6574
   2   2.0000     -10.041431      -273.2412
   3   2.0000     -10.034248      -273.0458
   4   2.0000     -10.034023      -273.0397
   5   2.0000     -10.030373      -272.9403
   6   2.0000     -10.023111      -272.7427
   7   2.0000     -10.021616      -272.7020
   8   2.0000     -10.021129      -272.6888
   9   2.0000      -1.027653       -27.9639
  10   2.0000      -0.824100       -22.4249
  11   2.0000      -0.754973       -20.5439
  12   2.0000      -0.711211       -19.3530
  13   2.0000      -0.689940       -18.7742
  14   2.0000      -0.613047       -16.6818
  15   2.0000      -0.572712       -15.5843
  16   2.0000      -0.562924       -15.3179
  17   2.0000      -0.494485       -13.4556
  18   2.0000      -0.466994       -12.7076
  19   2.0000      -0.436311       -11.8726
  20   2.0000      -0.423390       -11.5210
  21   2.0000      -0.413167       -11.2428
  22   2.0000      -0.390951       -10.6383
  23   2.0000      -0.378457       -10.2983
  24   2.0000      -0.363073        -9.8797
  25   2.0000      -0.347688        -9.4611
  26   2.0000      -0.330876        -9.0036
  27   2.0000      -0.328496        -8.9388
  28   2.0000      -0.316142        -8.6027
  29   2.0000      -0.300771        -8.1844
  30   2.0000      -0.298119        -8.1122
  31   2.0000      -0.225619        -6.1394
  32   2.0000      -0.203542        -5.5387
  33   0.0000      -0.030731        -0.8362
  34   0.0000      -0.009725        -0.2646
  35   0.0000       0.060135         1.6364
  36   0.0000       0.086364         2.3501
  37   0.0000       0.098765         2.6875

MULLIKEN ATOMIC CHARGES
-----------------------
   0 C :   -0.503035
   1 C :   -0.297339
   2 C :    0.184467
   3 C :   -0.218651
   4 C :   -0.154231
   5 C :   -0.334090
   6 C :    0.433046
   7 C :   -0.366787
   8 O :   -0.413220
   9 H :    0.159924
  10 H :    0.149843
  11 H :    0.152674
  12 H :    0.162404
  13 H :    0.157944
  14 H :    0.144249
  15 H :    0.144484
  16 H :    0.135836
  17 H :    0.154265
  18 H :    0.308218
Sum of atomic charges:   -0.0000000

LOEWDIN ATOMIC CHARGES
----------------------
   0 C :   -0.420626
   1 C :   -0.286042
   2 C :   -0.077109
   3 C :   -0.192285
   4 C :   -0.149027
   5 C :   -0.181786
   6 C :    0.184410
   7 C :   -0.142300
   8 O :   -0.496303
   9 H :    0.154046
  10 H :    0.153196
  11 H :    0.152606
  12 H :    0.167334
  13 H :    0.166158
  14 H :    0.170330
  15 H :    0.167234
  16 H :    0.167547
  17 H :    0.181866
  18 H :    0.280752

  Mayer bond orders larger than 0.100000
B(  0-C ,  1-C ) :   0.8553 B(  0-C ,  9-H ) :   0.9880 B(  0-C , 10-H ) :   0.9705
B(  0-C , 11-H ) :   0.9768 B(  1-C ,  2-C ) :   0.8421 B(  1-C , 12-H ) :   0.9711
B(  1-C , 13-H ) :   0.9891 B(  2-C ,  3-C ) :   1.4401 B(  2-C ,  7-C ) :   1.3711
B(  3-C ,  4-C ) :   1.4403 B(  3-C , 14-H ) :   0.9446 B(  4-C ,  5-C ) :   1.4260
B(  4-C , 15-H ) :   0.9411 B(  5-C ,  6-C ) :   1.3254 B(  5-C , 16-H ) :   0.9387
B(  6-C ,  7-C ) :   1.4862 B(  6-C ,  8-O ) :   0.8933 B(  7-C ,  8-O ) :   0.1270
B(  7-C , 17-H ) :   0.9535 B(  8-O , 18-H ) :   0.8855

Dispersion correction           -0.006068405
FINAL SINGLE POINT ENERGY      -386.000560985052

DIPOLE MOMENT
-------------

Method             : SCF
Type of density    : Electron Density
Multiplicity       :   1
Irrep              :   0
Energy             :  -386.0013218638767967 Eh
Relativity type    :
Basis              : AO
                                X                 Y                 Z
Electronic contribution:      9.247138600       0.951194923       0.292554698
Nuclear contribution   :     -9.115812017      -1.237496983      -0.324899874
                        -----------------------------------------
Total Dipole Moment    :      0.131326583      -0.286302060      -0.032345176
                        -----------------------------------------
Magnitude (a.u.)       :      0.316641361
Magnitude (Debye)      :      0.804838378

Rotational constants in cm-1:             0.119811             0.035956             0.027953
Rotational constants in MHz :          3591.851882          1077.937271           837.997330

                             ****ORCA TERMINATED NORMALLY****
TOTAL RUN TIME: 0 days 0 hours 0 minutes 25 seconds 444 msec
