                         Program Version 6.0.0  -   RELEASE  -
|  1> ! r2SCAN-3c DEF2-TZVP FREQ
|  2> * xyzfile 0 1 censo.xyz
|  3>
|  4>                          ****END OF INPUT****

CARTESIAN COORDINATES (ANGSTROEM)
---------------------------------
  C     -1.676095    1.175980    0.000390
  C     -2.310576   -0.063152    0.000304
  C     -1.527635   -1.206803    0.000235
  N     -0.182178   -1.179049    0.000058
  C      0.382281    0.011232    0.000028
  C     -0.288479    1.228238    0.000286
  Cl     2.154963    0.039109    0.000125
  H     -2.250880    2.096000    0.000474
  H     -3.391468   -0.142402    0.000318
  H     -1.983035   -2.193229    0.000026
  H      0.248048    2.168882    0.000362

 Total Charge           Charge          ....    0
 Multiplicity           Mult            ....    1
 Number of Electrons    NEL             ....   58
 Basis Dimension        Dim             ....  247

ORBITAL ENERGIES
----------------

  NO   OCC          E(Eh)            E(eV)
   0   2.0000    -101.189709     -2753.5120
   1   2.0000     -14.178336      -385.8121
   2   2.0000     -10.136751      -275.8350
   3   2.0000     -10.087962      -274.5074
   4   2.0000     -10.073597      -274.1165
   5   2.0000     -10.066099      -273.9125
   6   2.0000     -10.059626      -273.7363
   7   2.0000      -9.365665      -254.8527
   8   2.0000      -7.110476      -193.4859
   9   2.0000      -7.100880      -193.2248
  10   2.0000      -7.100050      -193.2022
  11   2.0000      -0.939335       -25.5606
  12   2.0000      -0.816707       -22.2237
  13   2.0000      -0.792555       -21.5665
  14   2.0000      -0.725855       -19.7515
  15   2.0000      -0.622541       -16.9402
  16   2.0000      -0.599784       -16.3209
  17   2.0000      -0.506082       -13.7712
  18   2.0000      -0.475091       -12.9279
  19   2.0000      -0.451972       -12.2988
  20   2.0000      -0.414306       -11.2739
  21   2.0000      -0.405994       -11.0477
  22   2.0000      -0.390724       -10.6321
  23   2.0000      -0.356843        -9.7102
  24   2.0000      -0.318889        -8.6774
  25   2.0000      -0.287715        -7.8291
  26   2.0000      -0.287363        -7.8196
  27   2.0000      -0.252291        -6.8652
  28   2.0000      -0.247351        -6.7308
  29   0.0000      -0.073833        -2.0091
  30   0.0000      -0.057343        -1.5604
  31   0.0000       0.000465         0.0126
  32   0.0000       0.058712         1.5976
  33   0.0000       0.088833         2.4173

MULLIKEN ATOMIC CHARGES
-----------------------
   0 C :   -0.077739
   1 C :   -0.107446
   2 C :   -0.001226
   3 N :   -0.223083
   4 C :    0.206756
   5 C :   -0.191782
   6 Cl:   -0.112579
   7 H :    0.127142
   8 H :    0.122739
   9 H :    0.124353
  10 H :    0.132866
Sum of atomic charges:    0.0000000

LOEWDIN ATOMIC CHARGES
----------------------
   0 C :   -0.112147
   1 C :   -0.150163
   2 C :   -0.186272
   3 N :    0.140045
   4 C :   -0.489436
   5 C :   -0.149634
   6 Cl:    0.360055
   7 H :    0.149535
   8 H :    0.147758
   9 H :    0.139858
  10 H :    0.150402

  Mayer bond orders larger than 0.100000
B(  0-C ,  1-C ) :   1.3861 B(  0-C ,  5-C ) :   1.4073 B(  0-C ,  7-H ) :   0.9610
B(  1-C ,  2-C ) :   1.4028 B(  1-C ,  8-H ) :   0.9610 B(  2-C ,  3-N ) :   1.4015
B(  2-C ,  9-H ) :   0.9773 B(  3-N ,  4-C ) :   1.4755 B(  4-C ,  5-C ) :   1.3800
B(  4-C ,  6-Cl) :   1.0542 B(  5-C , 10-H ) :   0.9590

Dispersion correction           -0.003629227
FINAL SINGLE POINT ENERGY      -707.823475304261

DIPOLE MOMENT
-------------

Method             : SCF
Type of density    : Electron Density
Multiplicity       :   1
Irrep              :   0
Energy             :  -707.8256338253736430 Eh
Relativity type    :
Basis              : AO
                                X                 Y                 Z
Electronic contribution:      8.675503221      -1.049305501      -0.000407110
Nuclear contribution   :     -9.842444568       1.738761944       0.000485638
                        -----------------------------------------
Total Dipole Moment    :     -1.166941347       0.689456442       0.000078528
                        -----------------------------------------
Magnitude (a.u.)       :      1.355397469
Magnitude (Debye)      :      3.445146577

VIBRATIONAL FREQUENCIES
-----------------------

Scaling factor for frequencies =  1.000000000  (already applied!)

     0:       0.00 cm**-1
     1:       0.00 cm**-1
     2:       0.00 cm**-1
     3:       0.00 cm**-1
     4:       0.00 cm**-1
     5:       0.00 cm**-1
     6:     177.01 cm**-1
     7:     314.99 cm**-1
     8:     406.02 cm**-1
     9:     416.37 cm**-1
    10:     489.50 cm**-1
    11:     628.42 cm**-1
    12:     727.62 cm**-1
    13:     750.68 cm**-1
    14:     771.27 cm**-1
    15:     887.65 cm**-1
    16:     968.68 cm**-1
    17:     994.54 cm**-1
    18:    1002.64 cm**-1
    19:    1064.80 cm**-1
    20:    1095.21 cm**-1
    21:    1129.74 cm**-1
    22:    1172.50 cm**-1
    23:    1291.47 cm**-1
    24:    1315.88 cm**-1
    25:    1443.52 cm**-1
    26:    1474.14 cm**-1
    27:    1592.91 cm**-1
    28:    1612.44 cm**-1
    29:    3158.33 cm**-1
    30:    3175.39 cm**-1
    31:    3193.25 cm**-1
    32:    3204.17 cm**-1

IR SPECTRUM
-----------

 Mode   freq       eps      Int      T**2         TX        TY        TZ
       cm**-1   L/(mol*cm) km/mol    a.u.
----------------------------------------------------------------------------
  6:    177.01   0.000109    0.55  0.000192  ( 0.000030 -0.000012 -0.013858)
  7:    314.99   0.000166    0.84  0.000164  ( 0.007923  0.010082 -0.000000)
  8:    406.02   0.002802   14.16  0.002154  (-0.046024 -0.005956 -0.000008)
  9:    416.37   0.000826    4.17  0.000619  (-0.000009 -0.000015 -0.024883)
 10:    489.50   0.000831    4.20  0.000530  (-0.000039  0.000010  0.023017)
 11:    628.42   0.000510    2.58  0.000253  (-0.004402  0.015293  0.000002)
 12:    727.62   0.008770   44.32  0.003761  (-0.061330  0.000233 -0.000011)
 13:    750.68   0.001774    8.97  0.000738  (-0.000039 -0.000020  0.027158)
 14:    771.27   0.009190   46.44  0.003718  (-0.000017 -0.000039 -0.060978)
 15:    887.65   0.000038    0.19  0.000013  (-0.000013  0.000002 -0.003646)
 16:    968.68   0.000046    0.23  0.000015  (-0.000006  0.000008  0.003869)
 17:    994.54   0.000000    0.00  0.000000  (-0.000001 -0.000017  0.000295)
 18:   1002.64   0.001432    7.24  0.000446  ( 0.002307  0.020985  0.000002)
 19:   1064.80   0.002440   12.33  0.000715  ( 0.020912 -0.016667 -0.000004)
 20:   1095.21   0.012619   63.77  0.003596  (-0.059455 -0.007794 -0.000002)
 21:   1129.74   0.010947   55.32  0.003024  (-0.054962  0.001716  0.000000)
 22:   1172.50   0.000568    2.87  0.000151  (-0.008955 -0.008419  0.000000)
 23:   1291.47   0.001129    5.71  0.000273  (-0.016515 -0.000274 -0.000002)
 24:   1315.88   0.000293    1.48  0.000070  ( 0.002925  0.007808  0.000004)
 25:   1443.52   0.014165   71.58  0.003062  ( 0.053180  0.015298 -0.000002)
 26:   1474.14   0.009115   46.06  0.001930  (-0.043784 -0.003549  0.000001)
 27:   1592.91   0.011263   56.92  0.002206  (-0.046749 -0.004575  0.000002)
 28:   1612.44   0.007474   37.77  0.001447  ( 0.013030 -0.035731 -0.000004)
 29:   3158.33   0.002109   10.66  0.000208  (-0.009109 -0.011198  0.000001)
 30:   3175.39   0.001295    6.54  0.000127  (-0.000325 -0.011275 -0.000001)
 31:   3193.25   0.002115   10.69  0.000207  ( 0.014169  0.002425 -0.000001)
 32:   3204.17   0.000203    1.03  0.000020  (-0.001761  0.004083  0.000001)

--------------------------
THERMOCHEMISTRY AT 298.15K
--------------------------

Temperature         ...   298.15 K
Pressure            ...     1.00 atm
Total Mass          ...   113.55 AMU
Quasi RRHO          ...     True
Cut-Off Frequency   ...     1.00 cm^-1

Throughout the following assumptions are being made:
  (1) The electronic state is orbitally nondegenerate
  (2) There are no thermally accessible electronically excited states
  (3) Hindered rotations indicated by low frequency modes are not
      treated as such but are treated as vibrations and this may
      cause some error
  (4) All equations used are the standard statistical mechanics
      equations for an ideal gas
  (5) All vibrations are strictly harmonic

freq.     177.01  E(vib)   ...       0.38
freq.     314.99  E(vib)   ...       0.25
freq.     406.02  E(vib)   ...       0.19
freq.     416.37  E(vib)   ...       0.18
freq.     489.50  E(vib)   ...       0.15
freq.     628.42  E(vib)   ...       0.09
freq.     727.62  E(vib)   ...       0.06
freq.     750.68  E(vib)   ...       0.06
freq.     771.27  E(vib)   ...       0.05
freq.     887.65  E(vib)   ...       0.04
freq.     968.68  E(vib)   ...       0.03
freq.     994.54  E(vib)   ...       0.02
freq.    1002.64  E(vib)   ...       0.02
freq.    1064.80  E(vib)   ...       0.02
freq.    1095.21  E(vib)   ...       0.02
freq.    1129.74  E(vib)   ...       0.01
freq.    1172.50  E(vib)   ...       0.01
freq.    1291.47  E(vib)   ...       0.01
freq.    1315.88  E(vib)   ...       0.01
freq.    1443.52  E(vib)   ...       0.00
freq.    1474.14  E(vib)   ...       0.00
freq.    1592.91  E(vib)   ...       0.00
freq.    1612.44  E(vib)   ...       0.00
freq.    3158.33  E(vib)   ...       0.00
freq.    3175.39  E(vib)   ...       0.00
freq.    3193.25  E(vib)   ...       0.00
freq.    3204.17  E(vib)   ...       0.00

------------
INNER ENERGY
------------

The inner energy is: U= E(el) + E(ZPE) + E(vib) + E(rot) + E(trans)
    E(el)   - is the total energy from the electronic structure calculation
              = E(kin-el) + E(nuc-el) + E(el-el) + E(nuc-nuc)
    E(ZPE)  - the the zero temperature vibrational energy from the frequency calculation
    E(vib)  - the the finite temperature correction to E(ZPE) due to population
              of excited vibrational states
    E(rot)  - is the rotational thermal energy
    E(trans)- is the translational thermal energy

Summary of contributions to the inner energy U:
Electronic energy                ...   -707.82347530 Eh
Zero point energy                ...      0.07850367 Eh      49.26 kcal/mol
Thermal vibrational correction   ...      0.00256420 Eh       1.61 kcal/mol
Thermal rotational correction    ...      0.00141627 Eh       0.89 kcal/mol
Thermal translational correction ...      0.00141627 Eh       0.89 kcal/mol
-----------------------------------------------------------------------
Total thermal energy                   -707.73957489 Eh

Summary of corrections to the electronic energy:
(perhaps to be used in another calculation)
Total thermal correction                  0.00539674 Eh       3.39 kcal/mol
Non-thermal (ZPE) correction              0.07850367 Eh      49.26 kcal/mol
-----------------------------------------------------------------------
Total correction                          0.08390041 Eh      52.65 kcal/mol

--------
ENTHALPY
--------

The enthalpy is H = U + kB*T
                kB is Boltzmann's constant
Total thermal energy              ...   -707.73957489 Eh
Thermal Enthalpy correction       ...      0.00094421 Eh       0.59 kcal/mol
-----------------------------------------------------------------------
Total Enthalpy                    ...   -707.73863069 Eh

Note: Only C1 symmetry has been detected, increase convergence thresholds
      if your molecule has a higher symmetry. Symmetry factor of 1.0 is
      used for the rotational entropy correction.

Note: Rotational entropy computed according to Herzberg
Infrared and Raman Spectra, Chapter V,1, Van Nostrand Reinhold, 1945
Point Group:  C1, Symmetry Number:   1
Rotational constants in cm-1:     0.196469     0.053602     0.042112

Vibrational entropy computed according to the QRRHO of S. Grimme
Chem.Eur.J. 2012 18 9955 using a reference frequency of 100.0 cm-1

-------
ENTROPY
-------

The entropy contributions are T*S = T*(S(el)+S(vib)+S(rot)+S(trans))
     S(el)   - electronic entropy
     S(vib)  - vibrational entropy
     S(rot)  - rotational entropy
     S(trans)- translational entropy
The entropies will be listed as multiplied by the temperature to get
units of energy

Electronic entropy                ...      0.00000000 Eh      0.00 kcal/mol
Vibrational entropy               ...      0.00388000 Eh      2.43 kcal/mol
Rotational entropy                ...      0.01315574 Eh      8.26 kcal/mol
Translational entropy             ...      0.01905117 Eh     11.95 kcal/mol
-----------------------------------------------------------------------
Final entropy term                ...      0.03608691 Eh     22.64 kcal/mol

In case the symmetry of your molecule has not been determined correctly
or in case you have a reason to use a different symmetry number we print
out the resulting rotational entropy values for sn=1,12:

 non-linear molecules -----------------------------------
|  sn= 1 | S(rot)=       0.01315574 Eh      8.26 kcal/mol|
|  sn= 2 | S(rot)=       0.01250129 Eh      7.84 kcal/mol|
|  sn= 3 | S(rot)=       0.01211845 Eh      7.60 kcal/mol|
|  sn= 4 | S(rot)=       0.01184683 Eh      7.43 kcal/mol|
|  sn= 5 | S(rot)=       0.01163614 Eh      7.30 kcal/mol|
|  sn= 6 | S(rot)=       0.01146400 Eh      7.19 kcal/mol|
|  sn= 7 | S(rot)=       0.01131845 Eh      7.10 kcal/mol|
|  sn= 8 | S(rot)=       0.01119237 Eh      7.02 kcal/mol|
|  sn= 9 | S(rot)=       0.01108117 Eh      6.95 kcal/mol|
|  sn=10 | S(rot)=       0.01098169 Eh      6.89 kcal/mol|
|  sn=11 | S(rot)=       0.01089170 Eh      6.83 kcal/mol|
|  sn=12 | S(rot)=       0.01080954 Eh      6.78 kcal/mol|
 linear molecules ---------------------------------------
|  Dinfh | S(rot)=       0.00831642 Eh      5.22 kcal/mol|
|  Cinfv | S(rot)=       0.00897087 Eh      5.63 kcal/mol|
 --------------------------------------------------------

-------------------
GIBBS FREE ENERGY
-------------------

The Gibbs free energy is G = H - T*S

Total enthalpy                    ...   -707.73863069 Eh
Total entropy correction          ...     -0.03608691 Eh    -22.64 kcal/mol
-----------------------------------------------------------------------
Final Gibbs free energy         ...   -707.77471760 Eh

For completeness - the Gibbs free energy minus the electronic energy
G-E(el)                           ...      0.04875770 Eh     30.60 kcal/mol

                             ****ORCA TERMINATED NORMALLY****
TOTAL RUN TIME: 0 days 0 hours 5 minutes 55 seconds 831 msec
