                         Program Version 6.0.0  -   RELEASE  -
|  1> ! r2SCAN-3c DEF2-TZVP FREQ
|  2> * xyzfile 0 1 vacuum_censo.xyz
|  3>
|  4>                          ****END OF INPUT****

CARTESIAN COORDINATES (ANGSTROEM)
---------------------------------
  C     -1.675938    1.176215    0.000071
  C     -2.311168   -0.062942    0.000131
  C     -1.522802   -1.205373    0.000119
  N     -0.182799   -1.174294    0.000005
  C      0.388643    0.010347   -0.000075
  C     -0.289729    1.227971   -0.000026
  Cl     2.151242    0.040088   -0.000195
  H     -2.251994    2.095794    0.000091
  H     -3.392275   -0.141995    0.000200
  H     -1.974073   -2.195244    0.000129
  H      0.250997    2.166030   -0.000078

 Total Charge           Charge          ....    0
 Multiplicity           Mult            ....    1
 Number of Electrons    NEL             ....   58
 Basis Dimension        Dim             ....  247

ORBITAL ENERGIES
----------------

  NO   OCC          E(Eh)            E(eV)
   0   2.0000    -101.190858     -2753.5432
   1   2.0000     -14.176945      -385.7743
   2   2.0000     -10.136179      -275.8195
   3   2.0000     -10.087286      -274.4890
   4   2.0000     -10.072916      -274.0980
   5   2.0000     -10.065548      -273.8975
   6   2.0000     -10.059373      -273.7295
   7   2.0000      -9.366923      -254.8869
   8   2.0000      -7.111717      -193.5197
   9   2.0000      -7.102142      -193.2591
  10   2.0000      -7.101288      -193.2359
  11   2.0000      -0.940208       -25.5844
  12   2.0000      -0.819103       -22.2889
  13   2.0000      -0.791937       -21.5497
  14   2.0000      -0.725271       -19.7356
  15   2.0000      -0.622022       -16.9261
  16   2.0000      -0.599735       -16.3196
  17   2.0000      -0.505646       -13.7593
  18   2.0000      -0.475046       -12.9267
  19   2.0000      -0.451906       -12.2970
  20   2.0000      -0.414247       -11.2722
  21   2.0000      -0.406380       -11.0581
  22   2.0000      -0.390635       -10.6297
  23   2.0000      -0.357413        -9.7257
  24   2.0000      -0.319869        -8.7041
  25   2.0000      -0.288703        -7.8560
  26   2.0000      -0.287391        -7.8203
  27   2.0000      -0.250676        -6.8212
  28   2.0000      -0.246597        -6.7102
  29   0.0000      -0.072398        -1.9701
  30   0.0000      -0.057697        -1.5700
  31   0.0000       0.002891         0.0787
  32   0.0000       0.059245         1.6121
  33   0.0000       0.089367         2.4318

MULLIKEN ATOMIC CHARGES
-----------------------
   0 C :   -0.078978
   1 C :   -0.107700
   2 C :   -0.001465
   3 N :   -0.222122
   4 C :    0.203539
   5 C :   -0.191309
   6 Cl:   -0.106667
   7 H :    0.126697
   8 H :    0.122822
   9 H :    0.123579
  10 H :    0.131604
Sum of atomic charges:   -0.0000000

LOEWDIN ATOMIC CHARGES
----------------------
   0 C :   -0.113723
   1 C :   -0.149278
   2 C :   -0.189031
   3 N :    0.141146
   4 C :   -0.498321
   5 C :   -0.149337
   6 Cl:    0.371809
   7 H :    0.149557
   8 H :    0.147457
   9 H :    0.139985
  10 H :    0.149736

  Mayer bond orders larger than 0.100000
B(  0-C ,  1-C ) :   1.3865 B(  0-C ,  5-C ) :   1.4106 B(  0-C ,  7-H ) :   0.9612
B(  1-C ,  2-C ) :   1.3996 B(  1-C ,  8-H ) :   0.9613 B(  2-C ,  3-N ) :   1.4069
B(  2-C ,  9-H ) :   0.9773 B(  3-N ,  4-C ) :   1.4734 B(  4-C ,  5-C ) :   1.3754
B(  4-C ,  6-Cl) :   1.0623 B(  5-C , 10-H ) :   0.9594

Dispersion correction           -0.003630925
FINAL SINGLE POINT ENERGY      -707.823699035223

DIPOLE MOMENT
-------------

Method             : SCF
Type of density    : Electron Density
Multiplicity       :   1
Irrep              :   0
Energy             :  -707.8258854767439061 Eh
Relativity type    :
Basis              : AO
                                X                 Y                 Z
Electronic contribution:      8.691835799      -1.046609156      -0.000602898
Nuclear contribution   :     -9.827732378       1.730855709       0.000663397
                        -----------------------------------------
Total Dipole Moment    :     -1.135896579       0.684246553       0.000060499
                        -----------------------------------------
Magnitude (a.u.)       :      1.326067263
Magnitude (Debye)      :      3.370595117

VIBRATIONAL FREQUENCIES
-----------------------

Scaling factor for frequencies =  1.000000000  (already applied!)

     0:       0.00 cm**-1
     1:       0.00 cm**-1
     2:       0.00 cm**-1
     3:       0.00 cm**-1
     4:       0.00 cm**-1
     5:       0.00 cm**-1
     6:     174.97 cm**-1
     7:     314.87 cm**-1
     8:     411.99 cm**-1
     9:     413.40 cm**-1
    10:     489.27 cm**-1
    11:     627.65 cm**-1
    12:     732.42 cm**-1
    13:     749.96 cm**-1
    14:     773.11 cm**-1
    15:     888.92 cm**-1
    16:     971.49 cm**-1
    17:     995.41 cm**-1
    18:    1004.75 cm**-1
    19:    1064.41 cm**-1
    20:    1100.75 cm**-1
    21:    1131.27 cm**-1
    22:    1172.31 cm**-1
    23:    1304.07 cm**-1
    24:    1316.32 cm**-1
    25:    1442.53 cm**-1
    26:    1478.81 cm**-1
    27:    1599.75 cm**-1
    28:    1606.42 cm**-1
    29:    3145.20 cm**-1
    30:    3172.43 cm**-1
    31:    3191.34 cm**-1
    32:    3204.64 cm**-1

IR SPECTRUM
-----------

 Mode   freq       eps      Int      T**2         TX        TY        TZ
       cm**-1   L/(mol*cm) km/mol    a.u.
----------------------------------------------------------------------------
  6:    174.97   0.000118    0.60  0.000211  (-0.000013  0.000027  0.014538)
  7:    314.87   0.000173    0.87  0.000172  (-0.007875 -0.010465  0.000001)
  8:    411.99   0.002475   12.51  0.001875  ( 0.042883  0.005989  0.000019)
  9:    413.40   0.000792    4.00  0.000598  (-0.000029 -0.000007  0.024454)
 10:    489.27   0.000848    4.29  0.000541  ( 0.000007 -0.000001 -0.023262)
 11:    627.65   0.000535    2.70  0.000266  ( 0.004908 -0.015557 -0.000000)
 12:    732.42   0.008306   41.98  0.003539  ( 0.059491 -0.000018 -0.000000)
 13:    749.96   0.001673    8.46  0.000696  (-0.000020 -0.000003  0.026388)
 14:    773.11   0.009256   46.78  0.003736  (-0.000003 -0.000000  0.061125)
 15:    888.92   0.000031    0.16  0.000011  (-0.000006  0.000004 -0.003308)
 16:    971.49   0.000052    0.26  0.000017  ( 0.000005  0.000000 -0.004081)
 17:    995.41   0.000000    0.00  0.000000  ( 0.000002  0.000003  0.000143)
 18:   1004.75   0.001402    7.08  0.000435  (-0.002094 -0.020758  0.000001)
 19:   1064.41   0.002379   12.02  0.000697  (-0.020590  0.016538  0.000002)
 20:   1100.75   0.010041   50.74  0.002847  ( 0.052717  0.008222 -0.000004)
 21:   1131.27   0.013775   69.61  0.003800  ( 0.061630 -0.001268 -0.000004)
 22:   1172.31   0.000489    2.47  0.000130  ( 0.007401  0.008679 -0.000001)
 23:   1304.07   0.000732    3.70  0.000175  (-0.013178  0.001252  0.000000)
 24:   1316.32   0.000258    1.30  0.000061  (-0.002450 -0.007423 -0.000000)
 25:   1442.53   0.013790   69.69  0.002983  ( 0.052573  0.014805 -0.000004)
 26:   1478.81   0.009197   46.48  0.001941  (-0.043908 -0.003586  0.000003)
 27:   1599.75   0.012287   62.09  0.002397  ( 0.048691  0.005102 -0.000004)
 28:   1606.42   0.007404   37.42  0.001438  ( 0.011896 -0.036011 -0.000000)
 29:   3145.20   0.002728   13.78  0.000271  ( 0.010375  0.012767 -0.000001)
 30:   3172.43   0.001100    5.56  0.000108  (-0.000695  0.010377 -0.000000)
 31:   3191.34   0.001955    9.88  0.000191  (-0.013725 -0.001676  0.000001)
 32:   3204.64   0.000218    1.10  0.000021  ( 0.000572 -0.004569 -0.000000)

--------------------------
THERMOCHEMISTRY AT 298.15K
--------------------------

Temperature         ...   298.15 K
Pressure            ...     1.00 atm
Total Mass          ...   113.55 AMU
Quasi RRHO          ...     True
Cut-Off Frequency   ...     1.00 cm^-1

Throughout the following assumptions are being made:
  (1) The electronic state is orbitally nondegenerate
  (2) There are no thermally accessible electronically excited states
  (3) Hindered rotations indicated by low frequency modes are not
      treated as such but are treated as vibrations and this may
      cause some error
  (4) All equations used are the standard statistical mechanics
      equations for an ideal gas
  (5) All vibrations are strictly harmonic

freq.     174.97  E(vib)   ...       0.38
freq.     314.87  E(vib)   ...       0.25
freq.     411.99  E(vib)   ...       0.19
freq.     413.40  E(vib)   ...       0.19
freq.     489.27  E(vib)   ...       0.15
freq.     627.65  E(vib)   ...       0.09
freq.     732.42  E(vib)   ...       0.06
freq.     749.96  E(vib)   ...       0.06
freq.     773.11  E(vib)   ...       0.05
freq.     888.92  E(vib)   ...       0.04
freq.     971.49  E(vib)   ...       0.03
freq.     995.41  E(vib)   ...       0.02
freq.    1004.75  E(vib)   ...       0.02
freq.    1064.41  E(vib)   ...       0.02
freq.    1100.75  E(vib)   ...       0.02
freq.    1131.27  E(vib)   ...       0.01
freq.    1172.31  E(vib)   ...       0.01
freq.    1304.07  E(vib)   ...       0.01
freq.    1316.32  E(vib)   ...       0.01
freq.    1442.53  E(vib)   ...       0.00
freq.    1478.81  E(vib)   ...       0.00
freq.    1599.75  E(vib)   ...       0.00
freq.    1606.42  E(vib)   ...       0.00
freq.    3145.20  E(vib)   ...       0.00
freq.    3172.43  E(vib)   ...       0.00
freq.    3191.34  E(vib)   ...       0.00
freq.    3204.64  E(vib)   ...       0.00

------------
INNER ENERGY
------------

The inner energy is: U= E(el) + E(ZPE) + E(vib) + E(rot) + E(trans)
    E(el)   - is the total energy from the electronic structure calculation
              = E(kin-el) + E(nuc-el) + E(el-el) + E(nuc-nuc)
    E(ZPE)  - the the zero temperature vibrational energy from the frequency calculation
    E(vib)  - the the finite temperature correction to E(ZPE) due to population
              of excited vibrational states
    E(rot)  - is the rotational thermal energy
    E(trans)- is the translational thermal energy

Summary of contributions to the inner energy U:
Electronic energy                ...   -707.82369904 Eh
Zero point energy                ...      0.07854773 Eh      49.29 kcal/mol
Thermal vibrational correction   ...      0.00256084 Eh       1.61 kcal/mol
Thermal rotational correction    ...      0.00141627 Eh       0.89 kcal/mol
Thermal translational correction ...      0.00141627 Eh       0.89 kcal/mol
-----------------------------------------------------------------------
Total thermal energy                   -707.73975792 Eh

Summary of corrections to the electronic energy:
(perhaps to be used in another calculation)
Total thermal correction                  0.00539338 Eh       3.38 kcal/mol
Non-thermal (ZPE) correction              0.07854773 Eh      49.29 kcal/mol
-----------------------------------------------------------------------
Total correction                          0.08394111 Eh      52.67 kcal/mol

--------
ENTHALPY
--------

The enthalpy is H = U + kB*T
                kB is Boltzmann's constant
Total thermal energy              ...   -707.73975792 Eh
Thermal Enthalpy correction       ...      0.00094421 Eh       0.59 kcal/mol
-----------------------------------------------------------------------
Total Enthalpy                    ...   -707.73881371 Eh

Note: Rotational entropy computed according to Herzberg
Infrared and Raman Spectra, Chapter V,1, Van Nostrand Reinhold, 1945
Point Group:  Cs, Symmetry Number:   1
Rotational constants in cm-1:     0.196931     0.053717     0.042205

Vibrational entropy computed according to the QRRHO of S. Grimme
Chem.Eur.J. 2012 18 9955 using a reference frequency of 100.0 cm-1

-------
ENTROPY
-------

The entropy contributions are T*S = T*(S(el)+S(vib)+S(rot)+S(trans))
     S(el)   - electronic entropy
     S(vib)  - vibrational entropy
     S(rot)  - rotational entropy
     S(trans)- translational entropy
The entropies will be listed as multiplied by the temperature to get
units of energy

Electronic entropy                ...      0.00000000 Eh      0.00 kcal/mol
Vibrational entropy               ...      0.00387977 Eh      2.43 kcal/mol
Rotational entropy                ...      0.01315259 Eh      8.25 kcal/mol
Translational entropy             ...      0.01905117 Eh     11.95 kcal/mol
-----------------------------------------------------------------------
Final entropy term                ...      0.03608354 Eh     22.64 kcal/mol

In case the symmetry of your molecule has not been determined correctly
or in case you have a reason to use a different symmetry number we print
out the resulting rotational entropy values for sn=1,12:

 non-linear molecules -----------------------------------
|  sn= 1 | S(rot)=       0.01315259 Eh      8.25 kcal/mol|
|  sn= 2 | S(rot)=       0.01249813 Eh      7.84 kcal/mol|
|  sn= 3 | S(rot)=       0.01211530 Eh      7.60 kcal/mol|
|  sn= 4 | S(rot)=       0.01184368 Eh      7.43 kcal/mol|
|  sn= 5 | S(rot)=       0.01163299 Eh      7.30 kcal/mol|
|  sn= 6 | S(rot)=       0.01146085 Eh      7.19 kcal/mol|
|  sn= 7 | S(rot)=       0.01131530 Eh      7.10 kcal/mol|
|  sn= 8 | S(rot)=       0.01118922 Eh      7.02 kcal/mol|
|  sn= 9 | S(rot)=       0.01107801 Eh      6.95 kcal/mol|
|  sn=10 | S(rot)=       0.01097853 Eh      6.89 kcal/mol|
|  sn=11 | S(rot)=       0.01088854 Eh      6.83 kcal/mol|
|  sn=12 | S(rot)=       0.01080639 Eh      6.78 kcal/mol|
 linear molecules ---------------------------------------
|  Dinfh | S(rot)=       0.00831435 Eh      5.22 kcal/mol|
|  Cinfv | S(rot)=       0.00896881 Eh      5.63 kcal/mol|
 --------------------------------------------------------

-------------------
GIBBS FREE ENERGY
-------------------

The Gibbs free energy is G = H - T*S

Total enthalpy                    ...   -707.73881371 Eh
Total entropy correction          ...     -0.03608354 Eh    -22.64 kcal/mol
-----------------------------------------------------------------------
Final Gibbs free energy         ...   -707.77489725 Eh

For completeness - the Gibbs free energy minus the electronic energy
G-E(el)                           ...      0.04880178 Eh     30.62 kcal/mol

                             ****ORCA TERMINATED NORMALLY****
TOTAL RUN TIME: 0 days 0 hours 5 minutes 54 seconds 709 msec
