                         Program Version 6.0.1  -  RELEASE   -
|  1> ! r2scan-3c def2/J RI DEFGRID2 scfconv6 printgap
|  2> %output
|  3>     printlevel normal
|  4> end
|  5> * xyz 0 1
|  6> C -1.7308084003 1.4484911653 -0.1523677294
|  7> C -1.6334639348 0.0010709578 0.3221174476
|  8> C -2.9565183001 -0.7513476201 0.0860990173
|  9> C -0.5097782437 -0.7332241847 -0.3978366071
| 10> Br 1.2491754183 0.0030328585 0.0329844272
| 11> H -2.5269817194 1.9643212432 0.3788298584
| 12> H -0.8001529573 1.9807173616 0.033095213
| 13> H -1.9441896269 1.4863118671 -1.2194552251
| 14> H -1.4050166916 0.0047478776 1.3932814854
| 15> H -3.3860377107 -1.0903349566 1.0246064868
| 16> H -2.808259752 -1.6232308456 -0.5476165601
| 17> H -3.6820063441 -0.1069527768 -0.4029406031
| 18> H -0.6138396929 -0.6576972178 -1.4801372578
| 19> H -0.466365811 -1.7811152519 -0.1025439881
| 20> *
| 21>
| 22>                          ****END OF INPUT****

CARTESIAN COORDINATES (ANGSTROEM)
---------------------------------
  C     -1.730808    1.448491   -0.152368
  C     -1.633464    0.001071    0.322117
  C     -2.956518   -0.751348    0.086099
  C     -0.509778   -0.733224   -0.397837
  Br     1.249175    0.003033    0.032984
  H     -2.526982    1.964321    0.378830
  H     -0.800153    1.980717    0.033095
  H     -1.944190    1.486312   -1.219455
  H     -1.405017    0.004748    1.393281
  H     -3.386038   -1.090335    1.024606
  H     -2.808260   -1.623231   -0.547617
  H     -3.682006   -0.106953   -0.402941
  H     -0.613840   -0.657697   -1.480137
  H     -0.466366   -1.781115   -0.102544

 Total Charge           Charge          ....    0
 Multiplicity           Mult            ....    1
 Number of Electrons    NEL             ....   68
 Basis Dimension        Dim             ....  157

ORBITAL ENERGIES
----------------

  NO   OCC          E(Eh)            E(eV)
   0   2.0000    -482.210598    -13121.6175
   1   2.0000     -62.282647     -1694.7970
   2   2.0000     -56.063089     -1525.5542
   3   2.0000     -56.060393     -1525.4808
   4   2.0000     -56.060356     -1525.4799
   5   2.0000     -10.089910      -274.5604
   6   2.0000     -10.053690      -273.5748
   7   2.0000     -10.031526      -272.9717
   8   2.0000     -10.021960      -272.7114
   9   2.0000      -8.614938      -234.4244
  10   2.0000      -6.422239      -174.7580
  11   2.0000      -6.408887      -174.3947
  12   2.0000      -6.408713      -174.3899
  13   2.0000      -2.519863       -68.5690
  14   2.0000      -2.516567       -68.4793
  15   2.0000      -2.516448       -68.4760
  16   2.0000      -2.506502       -68.2054
  17   2.0000      -2.506474       -68.2046
  18   2.0000      -0.803765       -21.8716
  19   2.0000      -0.737559       -20.0700
  20   2.0000      -0.662215       -18.0198
  21   2.0000      -0.634447       -17.2642
  22   2.0000      -0.543943       -14.8014
  23   2.0000      -0.450842       -12.2680
  24   2.0000      -0.420505       -11.4425
  25   2.0000      -0.414495       -11.2790
  26   2.0000      -0.385570       -10.4919
  27   2.0000      -0.368715       -10.0333
  28   2.0000      -0.342867        -9.3299
  29   2.0000      -0.323574        -8.8049
  30   2.0000      -0.312327        -8.4988
  31   2.0000      -0.307964        -8.3801
  32   2.0000      -0.249806        -6.7976
  33   2.0000      -0.247849        -6.7443
  34   0.0000      -0.019199        -0.5224
  35   0.0000       0.083134         2.2622
  36   0.0000       0.108448         2.9510
  37   0.0000       0.119985         3.2649
  38   0.0000       0.124256         3.3812

MULLIKEN ATOMIC CHARGES
-----------------------
   0 C :   -0.515599
   1 C :    0.043890
   2 C :   -0.546865
   3 C :   -0.248479
   4 Br:   -0.182816
   5 H :    0.151782
   6 H :    0.163703
   7 H :    0.148077
   8 H :    0.163995
   9 H :    0.158673
  10 H :    0.156918
  11 H :    0.165014
  12 H :    0.167053
  13 H :    0.174655
Sum of atomic charges:   -0.0000000

LOEWDIN ATOMIC CHARGES
----------------------
   0 C :   -0.424682
   1 C :   -0.273836
   2 C :   -0.412766
   3 C :   -0.393853
   4 Br:    0.074850
   5 H :    0.155121
   6 H :    0.161220
   7 H :    0.153160
   8 H :    0.162031
   9 H :    0.159711
  10 H :    0.157106
  11 H :    0.160289
  12 H :    0.161313
  13 H :    0.160335

  Mayer bond orders larger than 0.100000
B(  0-C ,  1-C ) :   0.9154 B(  0-C ,  5-H ) :   0.9735 B(  0-C ,  6-H ) :   0.9624
B(  0-C ,  7-H ) :   0.9839 B(  1-C ,  2-C ) :   0.8101 B(  1-C ,  3-C ) :   0.9134
B(  1-C ,  8-H ) :   0.9534 B(  2-C ,  9-H ) :   0.9690 B(  2-C , 10-H ) :   0.9833
B(  2-C , 11-H ) :   0.9818 B(  3-C ,  4-Br) :   0.9604 B(  3-C , 12-H ) :   0.9641
B(  3-C , 13-H ) :   0.9586

Dispersion correction           -0.003529075
FINAL SINGLE POINT ENERGY     -2731.928785915681

DIPOLE MOMENT
-------------

Method             : SCF
Type of density    : Electron Density
Multiplicity       :   1
Irrep              :   0
Energy             : -2731.9323689193906830 Eh
Relativity type    :
Basis              : AO
                                X                 Y                 Z
Electronic contribution:     27.255612198      -0.373938187       1.085322198
Nuclear contribution   :    -28.141365072       0.137678842      -1.172086734
                        -----------------------------------------
Total Dipole Moment    :     -0.885752874      -0.236259345      -0.086764536
                        -----------------------------------------
Magnitude (a.u.)       :      0.920817418
Magnitude (Debye)      :      2.340531871

Rotational constants in cm-1:             0.251815             0.047032             0.041780
Rotational constants in MHz :          7549.217520          1409.987754          1252.546938

                             ****ORCA TERMINATED NORMALLY****
TOTAL RUN TIME: 0 days 0 hours 0 minutes 12 seconds 368 msec
