                         Program Version 6.0.1  -  RELEASE   -
|  1> ! r2scan-3c def2/J RI DEFGRID2 scfconv6 printgap
|  2> %output
|  3>     printlevel normal
|  4> end
|  5> * xyz 0 1
|  6> C -0.7119776509 -0.6171592002 0.2984289964
|  7> C 0.715645683 -0.6251758654 -0.2719954605
|  8> O 1.438352555 0.5286981945 0.093541462
|  9> O -1.4414236172 0.5158643966 -0.1157720953
| 10> H -0.6690425313 -0.666722517 1.3936366095
| 11> H -1.2563304422 -1.4855121033 -0.0764184601
| 12> H 0.6731024499 -0.721456215 -1.3640795313
| 13> H 1.2650588929 -1.4736024726 0.1393176775
| 14> H 1.0681413296 1.2808769495 -0.382974475
| 15> H -1.0758910842 1.2897636674 0.3284024871
| 16> *
| 17>
| 18>                          ****END OF INPUT****

CARTESIAN COORDINATES (ANGSTROEM)
---------------------------------
  C     -0.711978   -0.617159    0.298429
  C      0.715646   -0.625176   -0.271995
  O      1.438353    0.528698    0.093541
  O     -1.441424    0.515864   -0.115772
  H     -0.669043   -0.666723    1.393637
  H     -1.256330   -1.485512   -0.076418
  H      0.673102   -0.721456   -1.364080
  H      1.265059   -1.473602    0.139318
  H      1.068141    1.280877   -0.382974
  H     -1.075891    1.289764    0.328402

 Total Charge           Charge          ....    0
 Multiplicity           Mult            ....    1
 Number of Electrons    NEL             ....   34
 Basis Dimension        Dim             ....  116

ORBITAL ENERGIES
----------------

  NO   OCC          E(Eh)            E(eV)
   0   2.0000     -18.958129      -515.8769
   1   2.0000     -18.958117      -515.8766
   2   2.0000     -10.079594      -274.2797
   3   2.0000     -10.079474      -274.2764
   4   2.0000      -1.006479       -27.3877
   5   2.0000      -0.984374       -26.7862
   6   2.0000      -0.704761       -19.1775
   7   2.0000      -0.595160       -16.1951
   8   2.0000      -0.488990       -13.3061
   9   2.0000      -0.484323       -13.1791
  10   2.0000      -0.434254       -11.8167
  11   2.0000      -0.390333       -10.6215
  12   2.0000      -0.380079       -10.3425
  13   2.0000      -0.329484        -8.9657
  14   2.0000      -0.293969        -7.9993
  15   2.0000      -0.270473        -7.3599
  16   2.0000      -0.232509        -6.3269
  17   0.0000       0.032975         0.8973
  18   0.0000       0.098943         2.6924
  19   0.0000       0.113306         3.0832
  20   0.0000       0.129517         3.5243
  21   0.0000       0.136045         3.7020

MULLIKEN ATOMIC CHARGES
-----------------------
   0 C :   -0.136558
   1 C :   -0.136532
   2 O :   -0.429904
   3 O :   -0.429895
   4 H :    0.135296
   5 H :    0.133919
   6 H :    0.135296
   7 H :    0.133917
   8 H :    0.297238
   9 H :    0.297224
Sum of atomic charges:    0.0000000

LOEWDIN ATOMIC CHARGES
----------------------
   0 C :    0.005887
   1 C :    0.005880
   2 O :   -0.607628
   3 O :   -0.607598
   4 H :    0.160497
   5 H :    0.178026
   6 H :    0.160496
   7 H :    0.178028
   8 H :    0.263217
   9 H :    0.263195

  Mayer bond orders larger than 0.100000
B(  0-C ,  1-C ) :   0.9254 B(  0-C ,  3-O ) :   0.9437 B(  0-C ,  4-H ) :   0.9746
B(  0-C ,  5-H ) :   0.9672 B(  1-C ,  2-O ) :   0.9437 B(  1-C ,  6-H ) :   0.9746
B(  1-C ,  7-H ) :   0.9672 B(  2-O ,  8-H ) :   0.8905 B(  3-O ,  9-H ) :   0.8905

Dispersion correction           -0.001586416
FINAL SINGLE POINT ENERGY      -230.209235209360

DIPOLE MOMENT
-------------

Method             : SCF
Type of density    : Electron Density
Multiplicity       :   1
Irrep              :   0
Energy             :  -230.2152367344513095 Eh
Relativity type    :
Basis              : AO
                                X                 Y                 Z
Electronic contribution:     -0.004778546       1.644766632      -0.034974605
Nuclear contribution   :      0.004681533      -1.651311018       0.035212233
                        -----------------------------------------
Total Dipole Moment    :     -0.000097014      -0.006544385       0.000237628
                        -----------------------------------------
Magnitude (a.u.)       :      0.006549416
Magnitude (Debye)      :      0.016647293

Rotational constants in cm-1:             0.509781             0.184380             0.150771
Rotational constants in MHz :         15282.850212          5527.576549          4520.011405

                             ****ORCA TERMINATED NORMALLY****
TOTAL RUN TIME: 0 days 0 hours 0 minutes 11 seconds 550 msec
