                         Program Version 6.0.1  -  RELEASE   -
|  1> ! pbe def2-sv(p) def2/J RI DEFGRID1 loosescf d4 GCP(DFT/SV(P)) printgap
|  2> %output
|  3>     printlevel normal
|  4> end
|  5> * xyz 0 1
|  6> C -2.335753017 -0.7959653686 0.666283097
|  7> C -0.8771450745 -0.315897446 0.7668531881
|  8> H -0.6545144178 -0.0249772897 1.8036586975
|  9> C -0.6372201281 0.8970297363 -0.1496349594
| 10> H -0.934527801 0.6308213492 -1.1706886938
| 11> C 0.8523123753 1.3208557533 -0.1451469005
| 12> H 0.9822419563 2.154766207 0.554704397
| 13> C 1.7576363647 0.1706416346 0.3424549338
| 14> H 2.7503305018 0.3071213611 -0.1116293758
| 15> C 1.175329792 -1.1584921793 -0.1564688505
| 16> H 1.8229175051 -2.005643558 0.1363688427
| 17> O -0.0642156762 -1.4396944822 0.415925713
| 18> O 1.1047339653 -1.0733499463 -1.5551205614
| 19> O 1.828319923 0.2133488479 1.7438037496
| 20> O 1.2727064453 1.7973110866 -1.3890886247
| 21> O -1.4838275493 1.9543820892 0.2114060777
| 22> O -2.5798111247 -1.449743304 -0.547793359
| 23> H -3.0007247021 0.0682394926 0.7014348973
| 24> H -2.5511419517 -1.4620485038 1.513317463
| 25> H 0.6245836886 -1.8385705147 -1.8941882021
| 26> H 2.3893577302 -0.5034532297 2.0612016491
| 27> H 1.225207822 1.0668677708 -2.021120384
| 28> H -1.2137401344 2.2971063631 1.0717796886
| 29> H -1.9039841476 -2.1342544133 -0.634177498
| 30> *
| 31>
| 32>                          ****END OF INPUT****

CARTESIAN COORDINATES (ANGSTROEM)
---------------------------------
  C     -2.335753   -0.795965    0.666283
  C     -0.877145   -0.315897    0.766853
  H     -0.654514   -0.024977    1.803659
  C     -0.637220    0.897030   -0.149635
  H     -0.934528    0.630821   -1.170689
  C      0.852312    1.320856   -0.145147
  H      0.982242    2.154766    0.554704
  C      1.757636    0.170642    0.342455
  H      2.750331    0.307121   -0.111629
  C      1.175330   -1.158492   -0.156469
  H      1.822918   -2.005644    0.136369
  O     -0.064216   -1.439694    0.415926
  O      1.104734   -1.073350   -1.555121
  O      1.828320    0.213349    1.743804
  O      1.272706    1.797311   -1.389089
  O     -1.483828    1.954382    0.211406
  O     -2.579811   -1.449743   -0.547793
  H     -3.000725    0.068239    0.701435
  H     -2.551142   -1.462049    1.513317
  H      0.624584   -1.838571   -1.894188
  H      2.389358   -0.503453    2.061202
  H      1.225208    1.066868   -2.021120
  H     -1.213740    2.297106    1.071780
  H     -1.903984   -2.134254   -0.634177

 Total Charge           Charge          ....    0
 Multiplicity           Mult            ....    1
 Number of Electrons    NEL             ....   96
 Basis Dimension        Dim             ....  192

ORBITAL ENERGIES
----------------

  NO   OCC          E(Eh)            E(eV)
   0   2.0000     -18.787247      -511.2270
   1   2.0000     -18.785050      -511.1672
   2   2.0000     -18.771597      -510.8011
   3   2.0000     -18.751150      -510.2447
   4   2.0000     -18.742957      -510.0218
   5   2.0000     -18.738806      -509.9088
   6   2.0000     -10.002251      -272.1751
   7   2.0000      -9.950992      -270.7802
   8   2.0000      -9.942005      -270.5357
   9   2.0000      -9.941677      -270.5268
  10   2.0000      -9.937388      -270.4101
  11   2.0000      -9.925710      -270.0923
  12   2.0000      -1.000008       -27.2116
  13   2.0000      -0.948842       -25.8193
  14   2.0000      -0.938772       -25.5453
  15   2.0000      -0.934268       -25.4227
  16   2.0000      -0.917790       -24.9743
  17   2.0000      -0.914907       -24.8959
  18   2.0000      -0.700897       -19.0724
  19   2.0000      -0.697032       -18.9672
  20   2.0000      -0.621533       -16.9128
  21   2.0000      -0.596556       -16.2331
  22   2.0000      -0.568249       -15.4628
  23   2.0000      -0.532509       -14.4903
  24   2.0000      -0.507545       -13.8110
  25   2.0000      -0.498410       -13.5624
  26   2.0000      -0.475641       -12.9429
  27   2.0000      -0.456022       -12.4090
  28   2.0000      -0.445816       -12.1313
  29   2.0000      -0.436206       -11.8698
  30   2.0000      -0.428676       -11.6649
  31   2.0000      -0.392425       -10.6784
  32   2.0000      -0.388049       -10.5594
  33   2.0000      -0.377968       -10.2850
  34   2.0000      -0.363939        -9.9033
  35   2.0000      -0.355414        -9.6713
  36   2.0000      -0.348026        -9.4703
  37   2.0000      -0.318122        -8.6565
  38   2.0000      -0.311442        -8.4748
  39   2.0000      -0.290498        -7.9048
  40   2.0000      -0.278505        -7.5785
  41   2.0000      -0.275258        -7.4901
  42   2.0000      -0.261856        -7.1255
  43   2.0000      -0.257311        -7.0018
  44   2.0000      -0.232793        -6.3346
  45   2.0000      -0.226685        -6.1684
  46   2.0000      -0.216104        -5.8805
  47   2.0000      -0.200787        -5.4637
  48   0.0000       0.002678         0.0729
  49   0.0000       0.009809         0.2669
  50   0.0000       0.032043         0.8719
  51   0.0000       0.050395         1.3713
  52   0.0000       0.062876         1.7109

MULLIKEN ATOMIC CHARGES
-----------------------
   0 C :    0.096337
   1 C :    0.002142
   2 H :    0.053560
   3 C :    0.058125
   4 H :    0.048103
   5 C :    0.126155
   6 H :    0.057207
   7 C :    0.004350
   8 H :    0.081280
   9 C :    0.159546
  10 H :    0.057563
  11 O :   -0.321808
  12 O :   -0.404544
  13 O :   -0.408602
  14 O :   -0.422776
  15 O :   -0.409333
  16 O :   -0.437837
  17 H :    0.093013
  18 H :    0.072801
  19 H :    0.306529
  20 H :    0.304453
  21 H :    0.302775
  22 H :    0.297056
  23 H :    0.283906
Sum of atomic charges:    0.0000000

LOEWDIN ATOMIC CHARGES
----------------------
   0 C :   -0.127562
   1 C :   -0.083127
   2 H :    0.105967
   3 C :   -0.078730
   4 H :    0.116947
   5 C :   -0.063450
   6 H :    0.117948
   7 C :   -0.090542
   8 H :    0.111436
   9 C :   -0.010581
  10 H :    0.090890
  11 O :   -0.143948
  12 O :   -0.313533
  13 O :   -0.308086
  14 O :   -0.309402
  15 O :   -0.299376
  16 O :   -0.332594
  17 H :    0.121655
  18 H :    0.096333
  19 H :    0.286804
  20 H :    0.289752
  21 H :    0.275130
  22 H :    0.281371
  23 H :    0.266697

  Mayer bond orders larger than 0.100000
B(  0-C ,  1-C ) :   1.0251 B(  0-C , 16-O ) :   1.0664 B(  0-C , 17-H ) :   0.9099
B(  0-C , 18-H ) :   0.9145 B(  1-C ,  2-H ) :   0.8636 B(  1-C ,  3-C ) :   1.0359
B(  1-C , 11-O ) :   0.9483 B(  3-C ,  4-H ) :   0.8459 B(  3-C ,  5-C ) :   0.9971
B(  3-C , 15-O ) :   1.0123 B(  5-C ,  6-H ) :   0.8613 B(  5-C ,  7-C ) :   0.9894
B(  5-C , 14-O ) :   1.0589 B(  7-C ,  8-H ) :   0.8842 B(  7-C ,  9-C ) :   1.0153
B(  7-C , 13-O ) :   1.0260 B(  9-C , 10-H ) :   0.8955 B(  9-C , 11-O ) :   1.0874
B(  9-C , 12-O ) :   1.0951 B( 12-O , 19-H ) :   0.8343 B( 13-O , 20-H ) :   0.8450
B( 14-O , 21-H ) :   0.8318 B( 15-O , 22-H ) :   0.8490 B( 16-O , 23-H ) :   0.8364

Dispersion correction           -0.025287377
FINAL SINGLE POINT ENERGY      -685.691639480578

DIPOLE MOMENT
-------------

Method             : SCF
Type of density    : Electron Density
Multiplicity       :   1
Irrep              :   0
Energy             :  -685.8237652924601662 Eh
Relativity type    :
Basis              : AO
                                X                 Y                 Z
Electronic contribution:      1.405316754       0.106136670      -1.225615995
Nuclear contribution   :     -0.434151122      -1.354707676       1.869737445
                        -----------------------------------------
Total Dipole Moment    :      0.971165632      -1.248571006       0.644121450
                        -----------------------------------------
Magnitude (a.u.)       :      1.707918231
Magnitude (Debye)      :      4.341183143

Rotational constants in cm-1:             0.040125             0.027669             0.023877
Rotational constants in MHz :          1202.916531           829.486177           715.806345

                             ****ORCA TERMINATED NORMALLY****
TOTAL RUN TIME: 0 days 0 hours 0 minutes 10 seconds 551 msec
