                         Program Version 6.0.1  -  RELEASE   -
|  1> ! r2scan-3c def2/J RI DEFGRID2 scfconv6 printgap
|  2> %output
|  3>     printlevel normal
|  4> end
|  5> * xyz 0 1
|  6> C -2.4637057646 -1.2375542444 -0.1929222109
|  7> C -1.7884711451 0.0945080344 0.0073978821
|  8> O -2.4011998801 1.0630899245 0.3852684717
|  9> C -0.299541818 0.1879546507 -0.2982920121
| 10> C 0.4124121068 -1.1261047695 -0.6095141563
| 11> C 1.8800495967 -0.8607267012 -0.94326514
| 12> C 2.5795849509 -0.1525477229 0.2124570298
| 13> C 1.8688178056 1.156978304 0.53974199
| 14> C 0.4031759708 0.8984439683 0.8679680858
| 15> H -3.5161803518 -1.1531833336 0.0654296179
| 16> H -2.3703781776 -1.5496042897 -1.2304654794
| 17> H -1.9948604608 -1.9928526355 0.4326488234
| 18> H -0.2236196787 0.8419746857 -1.1776004277
| 19> H 0.3611551201 -1.788817687 0.257189497
| 20> H -0.0599094786 -1.6308215799 -1.45406553
| 21> H 2.3829258972 -1.805691091 -1.1598702441
| 22> H 1.9408580428 -0.2380269823 -1.8390616936
| 23> H 2.5704230287 -0.7996870681 1.0926910869
| 24> H 3.6217776774 0.0426947843 -0.0478673914
| 25> H 2.3547513454 1.6436633808 1.3875963883
| 26> H 1.9367284018 1.8311439131 -0.3171694395
| 27> H 0.3337482211 0.269803672 1.7594819687
| 28> H -0.1131102448 1.8361116065 1.0778320513
| 29> *
| 30>
| 31>                          ****END OF INPUT****

CARTESIAN COORDINATES (ANGSTROEM)
---------------------------------
  C     -2.463706   -1.237554   -0.192922
  C     -1.788471    0.094508    0.007398
  O     -2.401200    1.063090    0.385268
  C     -0.299542    0.187955   -0.298292
  C      0.412412   -1.126105   -0.609514
  C      1.880050   -0.860727   -0.943265
  C      2.579585   -0.152548    0.212457
  C      1.868818    1.156978    0.539742
  C      0.403176    0.898444    0.867968
  H     -3.516180   -1.153183    0.065430
  H     -2.370378   -1.549604   -1.230465
  H     -1.994860   -1.992853    0.432649
  H     -0.223620    0.841975   -1.177600
  H      0.361155   -1.788818    0.257189
  H     -0.059909   -1.630822   -1.454066
  H      2.382926   -1.805691   -1.159870
  H      1.940858   -0.238027   -1.839062
  H      2.570423   -0.799687    1.092691
  H      3.621778    0.042695   -0.047867
  H      2.354751    1.643663    1.387596
  H      1.936728    1.831144   -0.317169
  H      0.333748    0.269804    1.759482
  H     -0.113110    1.836112    1.077832

 Total Charge           Charge          ....    0
 Multiplicity           Mult            ....    1
 Number of Electrons    NEL             ....   70
 Basis Dimension        Dim             ....  246

ORBITAL ENERGIES
----------------

  NO   OCC          E(Eh)            E(eV)
   0   2.0000     -18.933959      -515.2192
   1   2.0000     -10.114931      -275.2413
   2   2.0000     -10.041309      -273.2379
   3   2.0000     -10.034250      -273.0458
   4   2.0000     -10.031856      -272.9807
   5   2.0000     -10.030216      -272.9361
   6   2.0000     -10.027479      -272.8616
   7   2.0000     -10.026542      -272.8361
   8   2.0000     -10.026094      -272.8239
   9   2.0000      -1.005851       -27.3706
  10   2.0000      -0.810623       -22.0582
  11   2.0000      -0.737447       -20.0670
  12   2.0000      -0.714804       -19.4508
  13   2.0000      -0.696755       -18.9597
  14   2.0000      -0.598325       -16.2812
  15   2.0000      -0.578942       -15.7538
  16   2.0000      -0.533488       -14.5169
  17   2.0000      -0.498791       -13.5728
  18   2.0000      -0.456717       -12.4279
  19   2.0000      -0.433898       -11.8070
  20   2.0000      -0.420093       -11.4313
  21   2.0000      -0.414347       -11.2750
  22   2.0000      -0.402810       -10.9610
  23   2.0000      -0.395901       -10.7730
  24   2.0000      -0.383817       -10.4442
  25   2.0000      -0.355860        -9.6834
  26   2.0000      -0.350812        -9.5461
  27   2.0000      -0.345600        -9.4042
  28   2.0000      -0.332818        -9.0564
  29   2.0000      -0.318093        -8.6557
  30   2.0000      -0.309799        -8.4301
  31   2.0000      -0.297318        -8.0904
  32   2.0000      -0.282492        -7.6870
  33   2.0000      -0.271695        -7.3932
  34   2.0000      -0.208939        -5.6855
  35   0.0000      -0.042634        -1.1601
  36   0.0000       0.076593         2.0842
  37   0.0000       0.097302         2.6477
  38   0.0000       0.103991         2.8297
  39   0.0000       0.113967         3.1012

MULLIKEN ATOMIC CHARGES
-----------------------
   0 C :   -0.481388
   1 C :    0.244676
   2 O :   -0.345311
   3 C :   -0.049234
   4 C :   -0.379592
   5 C :   -0.297270
   6 C :   -0.274282
   7 C :   -0.303565
   8 C :   -0.328775
   9 H :    0.178424
  10 H :    0.169826
  11 H :    0.155253
  12 H :    0.181140
  13 H :    0.167910
  14 H :    0.142567
  15 H :    0.147696
  16 H :    0.148257
  17 H :    0.139564
  18 H :    0.147511
  19 H :    0.149174
  20 H :    0.149217
  21 H :    0.155264
  22 H :    0.182936
Sum of atomic charges:    0.0000000

LOEWDIN ATOMIC CHARGES
----------------------
   0 C :   -0.384058
   1 C :    0.229316
   2 O :   -0.465135
   3 C :   -0.203768
   4 C :   -0.295467
   5 C :   -0.300597
   6 C :   -0.304464
   7 C :   -0.300879
   8 C :   -0.270341
   9 H :    0.173720
  10 H :    0.173516
  11 H :    0.173084
  12 H :    0.186558
  13 H :    0.159136
  14 H :    0.158762
  15 H :    0.155739
  16 H :    0.156243
  17 H :    0.154443
  18 H :    0.155454
  19 H :    0.156816
  20 H :    0.155703
  21 H :    0.159633
  22 H :    0.176584

  Mayer bond orders larger than 0.100000
B(  0-C ,  1-C ) :   0.9169 B(  0-C ,  9-H ) :   0.9808 B(  0-C , 10-H ) :   0.9621
B(  0-C , 11-H ) :   0.9400 B(  1-C ,  2-O ) :   1.9457 B(  1-C ,  3-C ) :   0.8531
B(  3-C ,  4-C ) :   0.8751 B(  3-C ,  8-C ) :   0.9080 B(  3-C , 12-H ) :   0.9384
B(  4-C ,  5-C ) :   0.9072 B(  4-C , 13-H ) :   1.0179 B(  4-C , 14-H ) :   0.9290
B(  5-C ,  6-C ) :   0.9256 B(  5-C , 15-H ) :   0.9414 B(  5-C , 16-H ) :   0.9986
B(  6-C ,  7-C ) :   0.9151 B(  6-C , 17-H ) :   0.9852 B(  6-C , 18-H ) :   0.9473
B(  7-C ,  8-C ) :   0.8853 B(  7-C , 19-H ) :   0.9449 B(  7-C , 20-H ) :   1.0049
B(  8-C , 21-H ) :   0.9970 B(  8-C , 22-H ) :   0.9414

Dispersion correction           -0.007325768
FINAL SINGLE POINT ENERGY      -388.406093962439

DIPOLE MOMENT
-------------

Method             : SCF
Type of density    : Electron Density
Multiplicity       :   1
Irrep              :   0
Energy             :  -388.4086401777745436 Eh
Relativity type    :
Basis              : AO
                                X                 Y                 Z
Electronic contribution:     -6.041025332       3.355439666       0.734142662
Nuclear contribution   :      6.741989239      -4.199687694      -1.076207989
                        -----------------------------------------
Total Dipole Moment    :      0.700963907      -0.844248027      -0.342065327
                        -----------------------------------------
Magnitude (a.u.)       :      1.149397154
Magnitude (Debye)      :      2.921535388

Rotational constants in cm-1:             0.102373             0.036963             0.029194
Rotational constants in MHz :          3069.055244          1108.124729           875.228598

                             ****ORCA TERMINATED NORMALLY****
TOTAL RUN TIME: 0 days 0 hours 0 minutes 30 seconds 211 msec
