                         Program Version 6.0.1  -  RELEASE   -
|  1> ! r2scan-3c def2/J RI DEFGRID2 scfconv6 printgap
|  2> %output
|  3>     printlevel normal
|  4> end
|  5> * xyz 0 1
|  6> C -2.6892093631 -0.9672949944 -0.0012252917
|  7> S -1.8224513693 0.6280071863 0.000489295
|  8> C -0.1094158423 0.1895499943 0.0004333852
|  9> C 0.7950934902 1.2489063663 -0.0002227788
| 10> C 2.1525023122 1.0016806408 -0.0005681645
| 11> C 2.6240765092 -0.3023153567 -0.0003570305
| 12> C 1.7244302045 -1.3526881545 0.0003045198
| 13> C 0.3599935249 -1.1157137992 0.0007605325
| 14> H -2.4385253975 -1.5262784704 -0.8981454221
| 15> H -3.7471278161 -0.7235590441 -0.0032021233
| 16> H -2.4418591398 -1.5265263989 0.8964965866
| 17> H 0.4169545282 2.2601002347 -0.0003369836
| 18> H 2.8461773306 1.8293453068 -0.0009306038
| 19> H 3.6859218134 -0.4967815588 -0.0007497813
| 20> H 2.0815310858 -2.3723455383 0.0004438111
| 21> H -0.3190276641 -1.9534595654 0.0012858705
| 22> *
| 23>
| 24>                          ****END OF INPUT****

CARTESIAN COORDINATES (ANGSTROEM)
---------------------------------
  C     -2.689209   -0.967295   -0.001225
  S     -1.822451    0.628007    0.000489
  C     -0.109416    0.189550    0.000433
  C      0.795093    1.248906   -0.000223
  C      2.152502    1.001681   -0.000568
  C      2.624077   -0.302315   -0.000357
  C      1.724430   -1.352688    0.000305
  C      0.359994   -1.115714    0.000761
  H     -2.438525   -1.526278   -0.898145
  H     -3.747128   -0.723559   -0.003202
  H     -2.441859   -1.526526    0.896497
  H      0.416955    2.260100   -0.000337
  H      2.846177    1.829345   -0.000931
  H      3.685922   -0.496782   -0.000750
  H      2.081531   -2.372346    0.000444
  H     -0.319028   -1.953460    0.001286

 Total Charge           Charge          ....    0
 Multiplicity           Mult            ....    1
 Number of Electrons    NEL             ....   66
 Basis Dimension        Dim             ....  200

ORBITAL ENERGIES
----------------

  NO   OCC          E(Eh)            E(eV)
   0   2.0000     -88.566170     -2410.0080
   1   2.0000     -10.072032      -274.0739
   2   2.0000     -10.067177      -273.9418
   3   2.0000     -10.038392      -273.1585
   4   2.0000     -10.037896      -273.1450
   5   2.0000     -10.037722      -273.1403
   6   2.0000     -10.037175      -273.1254
   7   2.0000     -10.031623      -272.9743
   8   2.0000      -7.859915      -213.8791
   9   2.0000      -5.807537      -158.0311
  10   2.0000      -5.803141      -157.9115
  11   2.0000      -5.796949      -157.7430
  12   2.0000      -0.836983       -22.7755
  13   2.0000      -0.770191       -20.9580
  14   2.0000      -0.721677       -19.6378
  15   2.0000      -0.709137       -19.2966
  16   2.0000      -0.624749       -17.0003
  17   2.0000      -0.579608       -15.7719
  18   2.0000      -0.550700       -14.9853
  19   2.0000      -0.488451       -13.2914
  20   2.0000      -0.431755       -11.7486
  21   2.0000      -0.425520       -11.5790
  22   2.0000      -0.416446       -11.3321
  23   2.0000      -0.410866       -11.1802
  24   2.0000      -0.393763       -10.7148
  25   2.0000      -0.371288       -10.1033
  26   2.0000      -0.354516        -9.6469
  27   2.0000      -0.331222        -9.0130
  28   2.0000      -0.316340        -8.6080
  29   2.0000      -0.293599        -7.9892
  30   2.0000      -0.268879        -7.3166
  31   2.0000      -0.240990        -6.5577
  32   2.0000      -0.190163        -5.1746
  33   0.0000      -0.035153        -0.9566
  34   0.0000      -0.029605        -0.8056
  35   0.0000       0.013191         0.3589
  36   0.0000       0.052004         1.4151
  37   0.0000       0.090514         2.4630

MULLIKEN ATOMIC CHARGES
-----------------------
   0 C :   -0.439021
   1 S :   -0.073656
   2 C :    0.222740
   3 C :   -0.220418
   4 C :   -0.134347
   5 C :   -0.167679
   6 C :   -0.169019
   7 C :   -0.255866
   8 H :    0.169625
   9 H :    0.165049
  10 H :    0.169649
  11 H :    0.148594
  12 H :    0.147515
  13 H :    0.147488
  14 H :    0.145261
  15 H :    0.144085
Sum of atomic charges:   -0.0000000

LOEWDIN ATOMIC CHARGES
----------------------
   0 C :   -0.452232
   1 S :    0.126298
   2 C :   -0.165026
   3 C :   -0.169869
   4 C :   -0.155372
   5 C :   -0.181388
   6 C :   -0.155894
   7 C :   -0.183946
   8 H :    0.160181
   9 H :    0.170944
  10 H :    0.160140
  11 H :    0.173099
  12 H :    0.168588
  13 H :    0.166872
  14 H :    0.167523
  15 H :    0.170081

  Mayer bond orders larger than 0.100000
B(  0-C ,  1-S ) :   0.9806 B(  0-C ,  8-H ) :   0.9499 B(  0-C ,  9-H ) :   0.9452
B(  0-C , 10-H ) :   0.9499 B(  1-S ,  2-C ) :   0.9720 B(  2-C ,  3-C ) :   1.3504
B(  2-C ,  7-C ) :   1.3904 B(  3-C ,  4-C ) :   1.4421 B(  3-C , 11-H ) :   0.9537
B(  4-C ,  5-C ) :   1.3979 B(  4-C , 12-H ) :   0.9493 B(  5-C ,  6-C ) :   1.4326
B(  5-C , 13-H ) :   0.9473 B(  6-C ,  7-C ) :   1.4321 B(  6-C , 14-H ) :   0.9478
B(  7-C , 15-H ) :   0.9403

Dispersion correction           -0.005514351
FINAL SINGLE POINT ENERGY      -669.647117429137

DIPOLE MOMENT
-------------

Method             : SCF
Type of density    : Electron Density
Multiplicity       :   1
Irrep              :   0
Energy             :  -669.6493731903793787 Eh
Relativity type    :
Basis              : AO
                                X                 Y                 Z
Electronic contribution:     -0.232536022       3.703174517       0.004123056
Nuclear contribution   :      0.131606913      -4.248864473      -0.004835090
                        -----------------------------------------
Total Dipole Moment    :     -0.100929109      -0.545689956      -0.000712034
                        -----------------------------------------
Magnitude (a.u.)       :      0.554945691
Magnitude (Debye)      :      1.410559847

Rotational constants in cm-1:             0.142541             0.039113             0.030874
Rotational constants in MHz :          4273.281011          1172.587125           925.580379

                             ****ORCA TERMINATED NORMALLY****
TOTAL RUN TIME: 0 days 0 hours 0 minutes 19 seconds 505 msec
