                         Program Version 6.0.1  -  RELEASE   -
|  1> ! pbe def2-sv(p) def2/J RI DEFGRID1 loosescf d4 GCP(DFT/SV(P)) printgap
|  2> %output
|  3>     printlevel normal
|  4> end
|  5> * xyz 0 1
|  6> C -2.3330846227 -0.811652072 0.6935580975
|  7> C -0.8781522494 -0.32364921 0.764452625
|  8> H -0.6408359435 -0.0205850266 1.7917736686
|  9> C -0.6515241671 0.8683812946 -0.1690219778
| 10> H -0.90301625 0.5543109842 -1.1951077109
| 11> C 0.8281222199 1.3207361616 -0.1383031627
| 12> H 0.9069846537 2.1689551008 0.554237187
| 13> C 1.7561847085 0.1891384803 0.354631884
| 14> H 2.7393434604 0.327995461 -0.1222702182
| 15> C 1.1931841025 -1.1505115653 -0.1271550522
| 16> H 1.8450050764 -1.9738257996 0.2047397603
| 17> O -0.0662583875 -1.4374013818 0.3919607679
| 18> O 1.1675939249 -1.0843145334 -1.5335616925
| 19> O 1.8793346085 0.1252120926 1.7496414695
| 20> O 1.2452653066 1.8039071967 -1.3881957907
| 21> O -1.5046118396 1.9066204828 0.2469282054
| 22> O -2.6189966924 -1.400062913 -0.5461628703
| 23> H -3.0007243077 0.0422215196 0.808304501
| 24> H -2.5034520869 -1.5267783749 1.5091921447
| 25> H 0.7503839602 -1.8853378245 -1.8721659318
| 26> H 2.2434945667 0.9583231451 2.0707025321
| 27> H 1.2903770699 1.0495925328 -1.9923720525
| 28> H -1.3881750542 2.6486861164 -0.3576647618
| 29> H -1.9475717361 -2.0794053115 -0.6885027789
| 30> *
| 31>
| 32>                          ****END OF INPUT****

CARTESIAN COORDINATES (ANGSTROEM)
---------------------------------
  C     -2.333085   -0.811652    0.693558
  C     -0.878152   -0.323649    0.764453
  H     -0.640836   -0.020585    1.791774
  C     -0.651524    0.868381   -0.169022
  H     -0.903016    0.554311   -1.195108
  C      0.828122    1.320736   -0.138303
  H      0.906985    2.168955    0.554237
  C      1.756185    0.189138    0.354632
  H      2.739343    0.327995   -0.122270
  C      1.193184   -1.150512   -0.127155
  H      1.845005   -1.973826    0.204740
  O     -0.066258   -1.437401    0.391961
  O      1.167594   -1.084315   -1.533562
  O      1.879335    0.125212    1.749641
  O      1.245265    1.803907   -1.388196
  O     -1.504612    1.906620    0.246928
  O     -2.618997   -1.400063   -0.546163
  H     -3.000724    0.042222    0.808305
  H     -2.503452   -1.526778    1.509192
  H      0.750384   -1.885338   -1.872166
  H      2.243495    0.958323    2.070703
  H      1.290377    1.049593   -1.992372
  H     -1.388175    2.648686   -0.357665
  H     -1.947572   -2.079405   -0.688503

 Total Charge           Charge          ....    0
 Multiplicity           Mult            ....    1
 Number of Electrons    NEL             ....   96
 Basis Dimension        Dim             ....  192

ORBITAL ENERGIES
----------------

  NO   OCC          E(Eh)            E(eV)
   0   2.0000     -18.781460      -511.0695
   1   2.0000     -18.781376      -511.0672
   2   2.0000     -18.766465      -510.6615
   3   2.0000     -18.751909      -510.2654
   4   2.0000     -18.745190      -510.0825
   5   2.0000     -18.740439      -509.9533
   6   2.0000      -9.997443      -272.0443
   7   2.0000      -9.949981      -270.7528
   8   2.0000      -9.941118      -270.5116
   9   2.0000      -9.939349      -270.4634
  10   2.0000      -9.937111      -270.4025
  11   2.0000      -9.922243      -269.9980
  12   2.0000      -0.995601       -27.0917
  13   2.0000      -0.945770       -25.7357
  14   2.0000      -0.936755       -25.4904
  15   2.0000      -0.933286       -25.3960
  16   2.0000      -0.918658       -24.9979
  17   2.0000      -0.912330       -24.8258
  18   2.0000      -0.701284       -19.0829
  19   2.0000      -0.695801       -18.9337
  20   2.0000      -0.621777       -16.9194
  21   2.0000      -0.586086       -15.9482
  22   2.0000      -0.569541       -15.4980
  23   2.0000      -0.531509       -14.4631
  24   2.0000      -0.503858       -13.7107
  25   2.0000      -0.482861       -13.1393
  26   2.0000      -0.478555       -13.0221
  27   2.0000      -0.452853       -12.3228
  28   2.0000      -0.445871       -12.1328
  29   2.0000      -0.441181       -12.0052
  30   2.0000      -0.424434       -11.5494
  31   2.0000      -0.390775       -10.6335
  32   2.0000      -0.379277       -10.3207
  33   2.0000      -0.372605       -10.1391
  34   2.0000      -0.363969        -9.9041
  35   2.0000      -0.359984        -9.7957
  36   2.0000      -0.346293        -9.4231
  37   2.0000      -0.323396        -8.8001
  38   2.0000      -0.305677        -8.3179
  39   2.0000      -0.300868        -8.1870
  40   2.0000      -0.279740        -7.6121
  41   2.0000      -0.264972        -7.2103
  42   2.0000      -0.255190        -6.9441
  43   2.0000      -0.249494        -6.7891
  44   2.0000      -0.237794        -6.4707
  45   2.0000      -0.229343        -6.2407
  46   2.0000      -0.211483        -5.7547
  47   2.0000      -0.200632        -5.4595
  48   0.0000       0.005653         0.1538
  49   0.0000       0.017681         0.4811
  50   0.0000       0.037280         1.0144
  51   0.0000       0.052646         1.4326
  52   0.0000       0.066073         1.7979

MULLIKEN ATOMIC CHARGES
-----------------------
   0 C :    0.087375
   1 C :    0.016230
   2 H :    0.065710
   3 C :    0.064491
   4 H :    0.036452
   5 C :    0.088821
   6 H :    0.044415
   7 C :   -0.005932
   8 H :    0.079008
   9 C :    0.187643
  10 H :    0.074444
  11 O :   -0.321981
  12 O :   -0.412051
  13 O :   -0.406393
  14 O :   -0.432947
  15 O :   -0.416666
  16 O :   -0.439589
  17 H :    0.100680
  18 H :    0.076665
  19 H :    0.306652
  20 H :    0.308825
  21 H :    0.304835
  22 H :    0.308248
  23 H :    0.285064
Sum of atomic charges:    0.0000000

LOEWDIN ATOMIC CHARGES
----------------------
   0 C :   -0.125904
   1 C :   -0.067810
   2 H :    0.113840
   3 C :   -0.078640
   4 H :    0.101684
   5 C :   -0.081076
   6 H :    0.109902
   7 C :   -0.091912
   8 H :    0.109908
   9 C :    0.006248
  10 H :    0.102630
  11 O :   -0.137845
  12 O :   -0.319065
  13 O :   -0.306732
  14 O :   -0.321218
  15 O :   -0.316724
  16 O :   -0.333899
  17 H :    0.124057
  18 H :    0.098608
  19 H :    0.286870
  20 H :    0.291208
  21 H :    0.276035
  22 H :    0.291437
  23 H :    0.268398

  Mayer bond orders larger than 0.100000
B(  0-C ,  1-C ) :   1.0378 B(  0-C , 16-O ) :   1.0584 B(  0-C , 17-H ) :   0.9128
B(  0-C , 18-H ) :   0.9166 B(  1-C ,  2-H ) :   0.8604 B(  1-C ,  3-C ) :   1.0720
B(  1-C , 11-O ) :   0.9622 B(  3-C ,  4-H ) :   0.8435 B(  3-C ,  5-C ) :   1.0123
B(  3-C , 15-O ) :   1.0527 B(  5-C ,  6-H ) :   0.8568 B(  5-C ,  7-C ) :   0.9902
B(  5-C , 14-O ) :   1.0401 B(  7-C ,  8-H ) :   0.8860 B(  7-C ,  9-C ) :   1.0338
B(  7-C , 13-O ) :   1.0402 B(  9-C , 10-H ) :   0.8948 B(  9-C , 11-O ) :   1.0835
B(  9-C , 12-O ) :   1.0854 B( 12-O , 19-H ) :   0.8376 B( 13-O , 20-H ) :   0.8466
B( 14-O , 21-H ) :   0.8298 B( 15-O , 22-H ) :   0.8458 B( 16-O , 23-H ) :   0.8384

Dispersion correction           -0.025199456
FINAL SINGLE POINT ENERGY      -685.694790005055

DIPOLE MOMENT
-------------

Method             : SCF
Type of density    : Electron Density
Multiplicity       :   1
Irrep              :   0
Energy             :  -685.8268170143569478 Eh
Relativity type    :
Basis              : AO
                                X                 Y                 Z
Electronic contribution:      1.378999643      -0.402550878      -0.773084644
Nuclear contribution   :     -0.569066564       0.246545379       0.650922945
                        -----------------------------------------
Total Dipole Moment    :      0.809933079      -0.156005499      -0.122161699
                        -----------------------------------------
Magnitude (a.u.)       :      0.833818199
Magnitude (Debye)      :      2.119397430

Rotational constants in cm-1:             0.040284             0.027478             0.023696
Rotational constants in MHz :          1207.694309           823.761946           710.391804

                             ****ORCA TERMINATED NORMALLY****
TOTAL RUN TIME: 0 days 0 hours 0 minutes 8 seconds 163 msec
