                         Program Version 6.0.1  -  RELEASE   -
|  1> ! pbe def2-sv(p) def2/J RI DEFGRID1 loosescf d4 GCP(DFT/SV(P)) printgap
|  2> %output
|  3>     printlevel normal
|  4> end
|  5> * xyz 0 1
|  6> C -2.8848625015 -0.0756470924 -0.0072510294
|  7> C -1.390518696 0.0029271357 0.002887161
|  8> C -0.7128476703 1.2168596171 0.0034119596
|  9> C 0.6698859029 1.2260066068 0.0029808929
| 10> C 1.3534607503 0.012811972 0.0013948154
| 11> N 0.7107957525 -1.1473399981 0.0032351994
| 12> C -0.608767208 -1.1477454389 0.0041220768
| 13> C 2.8495956447 -0.0409896714 -0.0063625045
| 14> H -3.2382547522 -0.7271799426 0.7903369692
| 15> H -3.3258223411 0.909933943 0.1221424857
| 16> H -3.2332315975 -0.489374935 -0.953450581
| 17> H -1.2653581225 2.146892969 0.0047030366
| 18> H 1.2165929297 2.1574425879 0.0039721174
| 19> H -1.0716459488 -2.1273262095 0.0064950355
| 20> H 3.2560356411 0.5264275001 0.8290314419
| 21> H 3.1753026437 -1.074224552 0.0661167551
| 22> H 3.2369590468 0.3905083011 -0.9284086224
| 23> *
| 24>
| 25>                          ****END OF INPUT****

CARTESIAN COORDINATES (ANGSTROEM)
---------------------------------
  C     -2.884863   -0.075647   -0.007251
  C     -1.390519    0.002927    0.002887
  C     -0.712848    1.216860    0.003412
  C      0.669886    1.226007    0.002981
  C      1.353461    0.012812    0.001395
  N      0.710796   -1.147340    0.003235
  C     -0.608767   -1.147745    0.004122
  C      2.849596   -0.040990   -0.006363
  H     -3.238255   -0.727180    0.790337
  H     -3.325822    0.909934    0.122142
  H     -3.233232   -0.489375   -0.953451
  H     -1.265358    2.146893    0.004703
  H      1.216593    2.157443    0.003972
  H     -1.071646   -2.127326    0.006495
  H      3.256036    0.526428    0.829031
  H      3.175303   -1.074225    0.066117
  H      3.236959    0.390508   -0.928409

 Total Charge           Charge          ....    0
 Multiplicity           Mult            ....    1
 Number of Electrons    NEL             ....   58
 Basis Dimension        Dim             ....  130

ORBITAL ENERGIES
----------------

  NO   OCC          E(Eh)            E(eV)
   0   2.0000     -13.974467      -380.2646
   1   2.0000      -9.925134      -270.0766
   2   2.0000      -9.912357      -269.7290
   3   2.0000      -9.905973      -269.5552
   4   2.0000      -9.901272      -269.4273
   5   2.0000      -9.892987      -269.2019
   6   2.0000      -9.890055      -269.1221
   7   2.0000      -9.875465      -268.7251
   8   2.0000      -0.854511       -23.2524
   9   2.0000      -0.733395       -19.9567
  10   2.0000      -0.704873       -19.1806
  11   2.0000      -0.655267       -17.8307
  12   2.0000      -0.596166       -16.2225
  13   2.0000      -0.562466       -15.3055
  14   2.0000      -0.529357       -14.4045
  15   2.0000      -0.450857       -12.2685
  16   2.0000      -0.440656       -11.9909
  17   2.0000      -0.399266       -10.8646
  18   2.0000      -0.391970       -10.6660
  19   2.0000      -0.376324       -10.2403
  20   2.0000      -0.364411        -9.9161
  21   2.0000      -0.358050        -9.7430
  22   2.0000      -0.346149        -9.4192
  23   2.0000      -0.328027        -8.9261
  24   2.0000      -0.327440        -8.9101
  25   2.0000      -0.309179        -8.4132
  26   2.0000      -0.254843        -6.9346
  27   2.0000      -0.218953        -5.9580
  28   2.0000      -0.198137        -5.3916
  29   0.0000      -0.047548        -1.2939
  30   0.0000      -0.038332        -1.0431
  31   0.0000       0.046544         1.2665
  32   0.0000       0.058062         1.5799
  33   0.0000       0.073214         1.9922

MULLIKEN ATOMIC CHARGES
-----------------------
   0 C :   -0.220163
   1 C :   -0.017711
   2 C :   -0.055115
   3 C :   -0.083715
   4 C :   -0.087043
   5 N :   -0.048322
   6 C :   -0.096788
   7 C :   -0.204012
   8 H :    0.117959
   9 H :    0.102397
  10 H :    0.121557
  11 H :    0.048157
  12 H :    0.042876
  13 H :    0.050405
  14 H :    0.109627
  15 H :    0.107164
  16 H :    0.112727
Sum of atomic charges:   -0.0000000

LOEWDIN ATOMIC CHARGES
----------------------
   0 C :   -0.322519
   1 C :   -0.074039
   2 C :   -0.101159
   3 C :   -0.136895
   4 C :   -0.021378
   5 N :   -0.072572
   6 C :   -0.082571
   7 C :   -0.335663
   8 H :    0.133489
   9 H :    0.124950
  10 H :    0.135432
  11 H :    0.123502
  12 H :    0.124683
  13 H :    0.110440
  14 H :    0.130574
  15 H :    0.131129
  16 H :    0.132597

  Mayer bond orders larger than 0.100000
B(  0-C ,  1-C ) :   1.0962 B(  0-C ,  8-H ) :   0.9372 B(  0-C ,  9-H ) :   0.9447
B(  0-C , 10-H ) :   0.9339 B(  1-C ,  2-C ) :   1.4240 B(  1-C ,  6-C ) :   1.3520
B(  2-C ,  3-C ) :   1.4088 B(  2-C , 11-H ) :   0.9510 B(  3-C ,  4-C ) :   1.3626
B(  3-C , 12-H ) :   0.9488 B(  4-C ,  5-N ) :   1.5676 B(  4-C ,  7-C ) :   1.0967
B(  5-N ,  6-C ) :   1.5498 B(  6-C , 13-H ) :   0.9575 B(  7-C , 14-H ) :   0.9378
B(  7-C , 15-H ) :   0.9373 B(  7-C , 16-H ) :   0.9354

Dispersion correction           -0.016172663
FINAL SINGLE POINT ENERGY      -326.184581777921

DIPOLE MOMENT
-------------

Method             : SCF
Type of density    : Electron Density
Multiplicity       :   1
Irrep              :   0
Energy             :  -326.2329837098190524 Eh
Relativity type    :
Basis              : AO
                                X                 Y                 Z
Electronic contribution:      0.759664079      -0.971822648       0.037216075
Nuclear contribution   :     -1.168271581       1.600885330      -0.055391773
                        -----------------------------------------
Total Dipole Moment    :     -0.408607502       0.629062682      -0.018175697
                        -----------------------------------------
Magnitude (a.u.)       :      0.750340126
Magnitude (Debye)      :      1.907213031

Rotational constants in cm-1:             0.186429             0.050052             0.040045
Rotational constants in MHz :          5589.014663          1500.523964          1200.518145

                             ****ORCA TERMINATED NORMALLY****
TOTAL RUN TIME: 0 days 0 hours 0 minutes 10 seconds 14 msec
