                         Program Version 6.0.1  -  RELEASE   -
|  1> ! pbe def2-sv(p) def2/J RI DEFGRID1 loosescf d4 GCP(DFT/SV(P)) printgap
|  2> %output
|  3>     printlevel normal
|  4> end
|  5> * xyz 0 1
|  6> C -2.6337296759 -0.6871164929 -0.74956077
|  7> C -1.8774005215 -0.4521995201 0.5599001401
|  8> C -0.4034879379 -0.2950350224 0.3017101817
|  9> C 0.3922464159 -1.4327054338 0.2549486694
| 10> C 1.7455183582 -1.3548724103 -0.0166375634
| 11> C 2.3233984085 -0.1195041918 -0.2460796262
| 12> C 1.5406055182 1.0195721816 -0.2008453124
| 13> C 0.1792766977 0.952875452 0.0675260171
| 14> C -0.6272184512 2.2178074215 0.1141227843
| 15> H -2.2681259397 -1.5870625456 -1.2389932101
| 16> H -2.4931177606 0.1484902898 -1.4313173963
| 17> H -3.6985163797 -0.8030924057 -0.5592884867
| 18> H -2.0380572042 -1.3093690249 1.2178328435
| 19> H -2.2781116414 0.4313048556 1.0574301625
| 20> H -0.0612298589 -2.3972608598 0.4374823391
| 21> H 2.345088889 -2.2528644203 -0.0476203633
| 22> H 3.3796421322 -0.0416813652 -0.4585453742
| 23> H 1.9954664937 1.9841635612 -0.3793474853
| 24> H -0.0098887375 3.0717280403 -0.1542724844
| 25> H -1.4692175061 2.1725520724 -0.5740601748
| 26> H -1.0212923831 2.3846585776 1.116759581
| 27> *
| 28>
| 29>                          ****END OF INPUT****

CARTESIAN COORDINATES (ANGSTROEM)
---------------------------------
  C     -2.633730   -0.687116   -0.749561
  C     -1.877401   -0.452200    0.559900
  C     -0.403488   -0.295035    0.301710
  C      0.392246   -1.432705    0.254949
  C      1.745518   -1.354872   -0.016638
  C      2.323398   -0.119504   -0.246080
  C      1.540606    1.019572   -0.200845
  C      0.179277    0.952875    0.067526
  C     -0.627218    2.217807    0.114123
  H     -2.268126   -1.587063   -1.238993
  H     -2.493118    0.148490   -1.431317
  H     -3.698516   -0.803092   -0.559288
  H     -2.038057   -1.309369    1.217833
  H     -2.278112    0.431305    1.057430
  H     -0.061230   -2.397261    0.437482
  H      2.345089   -2.252864   -0.047620
  H      3.379642   -0.041681   -0.458545
  H      1.995466    1.984164   -0.379347
  H     -0.009889    3.071728   -0.154272
  H     -1.469218    2.172552   -0.574060
  H     -1.021292    2.384659    1.116760

 Total Charge           Charge          ....    0
 Multiplicity           Mult            ....    1
 Number of Electrons    NEL             ....   66
 Basis Dimension        Dim             ....  150

ORBITAL ENERGIES
----------------

  NO   OCC          E(Eh)            E(eV)
   0   2.0000      -9.896883      -269.3079
   1   2.0000      -9.894582      -269.2453
   2   2.0000      -9.889250      -269.1002
   3   2.0000      -9.883023      -268.9307
   4   2.0000      -9.882541      -268.9176
   5   2.0000      -9.882340      -268.9122
   6   2.0000      -9.881963      -268.9019
   7   2.0000      -9.881831      -268.8983
   8   2.0000      -9.878703      -268.8132
   9   2.0000      -0.776961       -21.1422
  10   2.0000      -0.708707       -19.2849
  11   2.0000      -0.689125       -18.7520
  12   2.0000      -0.646065       -17.5803
  13   2.0000      -0.610083       -16.6012
  14   2.0000      -0.561855       -15.2889
  15   2.0000      -0.529748       -14.4152
  16   2.0000      -0.503067       -13.6892
  17   2.0000      -0.447962       -12.1897
  18   2.0000      -0.427304       -11.6275
  19   2.0000      -0.400604       -10.9010
  20   2.0000      -0.382385       -10.4052
  21   2.0000      -0.378941       -10.3115
  22   2.0000      -0.369869       -10.0647
  23   2.0000      -0.359235        -9.7753
  24   2.0000      -0.346622        -9.4321
  25   2.0000      -0.336706        -9.1622
  26   2.0000      -0.325125        -8.8471
  27   2.0000      -0.310274        -8.4430
  28   2.0000      -0.304998        -8.2994
  29   2.0000      -0.286782        -7.8037
  30   2.0000      -0.280506        -7.6330
  31   2.0000      -0.218264        -5.9393
  32   2.0000      -0.210397        -5.7252
  33   0.0000      -0.028190        -0.7671
  34   0.0000      -0.025671        -0.6985
  35   0.0000       0.039511         1.0751
  36   0.0000       0.052350         1.4245
  37   0.0000       0.062919         1.7121

MULLIKEN ATOMIC CHARGES
-----------------------
   0 C :   -0.274577
   1 C :   -0.131380
   2 C :    0.018509
   3 C :   -0.136981
   4 C :   -0.041421
   5 C :   -0.039388
   6 C :   -0.135184
   7 C :   -0.008528
   8 C :   -0.224612
   9 H :    0.102542
  10 H :    0.106179
  11 H :    0.105298
  12 H :    0.086203
  13 H :    0.082726
  14 H :    0.033904
  15 H :    0.046304
  16 H :    0.046479
  17 H :    0.031638
  18 H :    0.099705
  19 H :    0.112982
  20 H :    0.119603
Sum of atomic charges:   -0.0000000

LOEWDIN ATOMIC CHARGES
----------------------
   0 C :   -0.332401
   1 C :   -0.218380
   2 C :   -0.037740
   3 C :   -0.122475
   4 C :   -0.128526
   5 C :   -0.128412
   6 C :   -0.125265
   7 C :   -0.047727
   8 C :   -0.324401
   9 H :    0.120230
  10 H :    0.118464
  11 H :    0.118598
  12 H :    0.122573
  13 H :    0.119825
  14 H :    0.119088
  15 H :    0.121385
  16 H :    0.121524
  17 H :    0.119082
  18 H :    0.124644
  19 H :    0.128051
  20 H :    0.131862

  Mayer bond orders larger than 0.100000
B(  0-C ,  1-C ) :   1.1519 B(  0-C ,  9-H ) :   0.9531 B(  0-C , 10-H ) :   0.9489
B(  0-C , 11-H ) :   0.9485 B(  1-C ,  2-C ) :   1.0960 B(  1-C , 12-H ) :   0.9052
B(  1-C , 13-H ) :   0.8939 B(  2-C ,  3-C ) :   1.3879 B(  2-C ,  7-C ) :   1.4154
B(  3-C ,  4-C ) :   1.3664 B(  3-C , 14-H ) :   0.9597 B(  4-C ,  5-C ) :   1.3686
B(  4-C , 15-H ) :   0.9655 B(  5-C ,  6-C ) :   1.3677 B(  5-C , 16-H ) :   0.9638
B(  6-C ,  7-C ) :   1.3975 B(  6-C , 17-H ) :   0.9564 B(  7-C ,  8-C ) :   1.1298
B(  8-C , 18-H ) :   0.9353 B(  8-C , 19-H ) :   0.9207 B(  8-C , 20-H ) :   0.9244

Dispersion correction           -0.021536134
FINAL SINGLE POINT ENERGY      -349.372234334162

DIPOLE MOMENT
-------------

Method             : SCF
Type of density    : Electron Density
Multiplicity       :   1
Irrep              :   0
Energy             :  -349.4312392014025477 Eh
Relativity type    :
Basis              : AO
                                X                 Y                 Z
Electronic contribution:      6.921780315      -1.599173579       0.964028495
Nuclear contribution   :     -7.146356061       1.690170587      -0.951245145
                        -----------------------------------------
Total Dipole Moment    :     -0.224575746       0.090997008       0.012783350
                        -----------------------------------------
Magnitude (a.u.)       :      0.242648172
Magnitude (Debye)      :      0.616762638

Rotational constants in cm-1:             0.083847             0.048723             0.033582
Rotational constants in MHz :          2513.673600          1460.663883          1006.759170

                             ****ORCA TERMINATED NORMALLY****
TOTAL RUN TIME: 0 days 0 hours 0 minutes 16 seconds 275 msec
