                         Program Version 6.0.1  -  RELEASE   -
|  1> ! r2scan-3c def2/J RI DEFGRID2 scfconv6 printgap
|  2> %output
|  3>     printlevel normal
|  4> end
|  5> * xyz 0 1
|  6> C 2.1656015173 0.579405069 0.2565557336
|  7> C 1.0796757016 -0.1498900655 -0.5243403197
|  8> C -0.0337858064 -0.6855909428 0.4028082364
|  9> C -1.3123221896 -0.1183790602 0.0623624931
| 10> N -2.3158733999 0.3470721357 -0.2263163393
| 11> H 2.9354688791 0.9427307709 -0.4200452839
| 12> H 1.7487973189 1.4326281288 0.7876853386
| 13> H 2.6329282592 -0.0862142619 0.979793873
| 14> H 0.6455449024 0.5332787415 -1.2578202437
| 15> H 1.5244302735 -0.9800449197 -1.0754248402
| 16> H 0.1812069033 -0.4301645533 1.4440856817
| 17> H -0.1170099183 -1.7731190385 0.3346018529
| 18> *
| 19>
| 20>                          ****END OF INPUT****

CARTESIAN COORDINATES (ANGSTROEM)
---------------------------------
  C      2.165602    0.579405    0.256556
  C      1.079676   -0.149890   -0.524340
  C     -0.033786   -0.685591    0.402808
  C     -1.312322   -0.118379    0.062362
  N     -2.315873    0.347072   -0.226316
  H      2.935469    0.942731   -0.420045
  H      1.748797    1.432628    0.787685
  H      2.632928   -0.086214    0.979794
  H      0.645545    0.533279   -1.257820
  H      1.524430   -0.980045   -1.075425
  H      0.181207   -0.430165    1.444086
  H     -0.117010   -1.773119    0.334602

 Total Charge           Charge          ....    0
 Multiplicity           Mult            ....    1
 Number of Electrons    NEL             ....   38
 Basis Dimension        Dim             ....  135

ORBITAL ENERGIES
----------------

  NO   OCC          E(Eh)            E(eV)
   0   2.0000     -14.147792      -384.9810
   1   2.0000     -10.084153      -274.4038
   2   2.0000     -10.063897      -273.8526
   3   2.0000     -10.058212      -273.6979
   4   2.0000     -10.038461      -273.1604
   5   2.0000      -0.875010       -23.8102
   6   2.0000      -0.792065       -21.5532
   7   2.0000      -0.704519       -19.1709
   8   2.0000      -0.593186       -16.1414
   9   2.0000      -0.497056       -13.5256
  10   2.0000      -0.461712       -12.5638
  11   2.0000      -0.416546       -11.3348
  12   2.0000      -0.409930       -11.1548
  13   2.0000      -0.360317        -9.8047
  14   2.0000      -0.345411        -9.3991
  15   2.0000      -0.331992        -9.0340
  16   2.0000      -0.320746        -8.7279
  17   2.0000      -0.298922        -8.1341
  18   2.0000      -0.298218        -8.1149
  19   0.0000       0.009338         0.2541
  20   0.0000       0.011772         0.3203
  21   0.0000       0.060240         1.6392
  22   0.0000       0.093942         2.5563
  23   0.0000       0.112086         3.0500

MULLIKEN ATOMIC CHARGES
-----------------------
   0 C :   -0.479272
   1 C :   -0.222780
   2 C :   -0.334172
   3 C :    0.140285
   4 N :   -0.235096
   5 H :    0.150609
   6 H :    0.153027
   7 H :    0.151138
   8 H :    0.170066
   9 H :    0.147638
  10 H :    0.180287
  11 H :    0.178271
Sum of atomic charges:   -0.0000000

LOEWDIN ATOMIC CHARGES
----------------------
   0 C :   -0.417900
   1 C :   -0.288585
   2 C :   -0.259733
   3 C :    0.128994
   4 N :   -0.322132
   5 H :    0.155955
   6 H :    0.153752
   7 H :    0.150754
   8 H :    0.166426
   9 H :    0.158134
  10 H :    0.187515
  11 H :    0.186819

  Mayer bond orders larger than 0.100000
B(  0-C ,  1-C ) :   0.9041 B(  0-C ,  5-H ) :   0.9677 B(  0-C ,  6-H ) :   0.9748
B(  0-C ,  7-H ) :   0.9806 B(  1-C ,  2-C ) :   0.8151 B(  1-C ,  8-H ) :   0.9801
B(  1-C ,  9-H ) :   0.9628 B(  2-C ,  3-C ) :   0.9929 B(  2-C , 10-H ) :   0.9718
B(  2-C , 11-H ) :   0.9634 B(  3-C ,  4-N ) :   2.9039

Dispersion correction           -0.002452564
FINAL SINGLE POINT ENERGY      -211.308071391538

DIPOLE MOMENT
-------------

Method             : SCF
Type of density    : Electron Density
Multiplicity       :   1
Irrep              :   0
Energy             :  -211.3105580388610178 Eh
Relativity type    :
Basis              : AO
                                X                 Y                 Z
Electronic contribution:     -7.398865234      -0.229850411      -0.435501407
Nuclear contribution   :      8.948089428      -0.336687948       0.742610590
                        -----------------------------------------
Total Dipole Moment    :      1.549224194      -0.566538359       0.307109183
                        -----------------------------------------
Magnitude (a.u.)       :      1.677908628
Magnitude (Debye)      :      4.264904796

Rotational constants in cm-1:             0.521703             0.083927             0.080992
Rotational constants in MHz :         15640.252847          2516.060390          2428.077513

                             ****ORCA TERMINATED NORMALLY****
TOTAL RUN TIME: 0 days 0 hours 0 minutes 10 seconds 999 msec
