                         Program Version 6.0.1  -  RELEASE   -
|  1> ! r2scan-3c def2/J RI DEFGRID2 scfconv6 printgap
|  2> %output
|  3>     printlevel normal
|  4> end
|  5> * xyz 0 1
|  6> C -2.6632044932 -0.1441771812 -0.0015011825
|  7> O -1.3602813282 -0.7127193466 -0.0004012433
|  8> C -0.3123945532 0.1283200834 0.0010891459
|  9> O -0.4084318335 1.3292032217 0.001918666
| 10> C 0.959943961 -0.6302004876 0.0016869718
| 11> C 2.1287802069 -0.0333714259 -0.7439708205
| 12> C 2.1305856236 -0.0298229182 0.7414241753
| 13> H -3.1832956011 -0.4774051112 -0.8998520041
| 14> H -2.5911585123 0.9450859752 0.009559748
| 15> H -3.1915225459 -0.4956056355 0.8849078566
| 16> H 0.8315705576 -1.7033294152 0.0040691393
| 17> H 2.782382035 -0.7113510387 -1.2705546718
| 18> H 1.9510788631 0.9038470042 -1.2485513953
| 19> H 2.7856266166 -0.7050906773 1.2696772973
| 20> H 1.9538835239 0.9098403789 1.2418112548
| 21> *
| 22>
| 23>                          ****END OF INPUT****

CARTESIAN COORDINATES (ANGSTROEM)
---------------------------------
  C     -2.663204   -0.144177   -0.001501
  O     -1.360281   -0.712719   -0.000401
  C     -0.312395    0.128320    0.001089
  O     -0.408432    1.329203    0.001919
  C      0.959944   -0.630200    0.001687
  C      2.128780   -0.033371   -0.743971
  C      2.130586   -0.029823    0.741424
  H     -3.183296   -0.477405   -0.899852
  H     -2.591159    0.945086    0.009560
  H     -3.191523   -0.495606    0.884908
  H      0.831571   -1.703329    0.004069
  H      2.782382   -0.711351   -1.270555
  H      1.951079    0.903847   -1.248551
  H      2.785627   -0.705091    1.269677
  H      1.953884    0.909840    1.241811

 Total Charge           Charge          ....    0
 Multiplicity           Mult            ....    1
 Number of Electrons    NEL             ....   54
 Basis Dimension        Dim             ....  183

ORBITAL ENERGIES
----------------

  NO   OCC          E(Eh)            E(eV)
   0   2.0000     -18.997236      -516.9411
   1   2.0000     -18.930155      -515.1157
   2   2.0000     -10.154046      -276.3056
   3   2.0000     -10.081404      -274.3289
   4   2.0000     -10.056212      -273.6434
   5   2.0000     -10.046461      -273.3781
   6   2.0000     -10.046249      -273.3723
   7   2.0000      -1.070551       -29.1312
   8   2.0000      -0.982210       -26.7273
   9   2.0000      -0.843113       -22.9423
  10   2.0000      -0.710300       -19.3282
  11   2.0000      -0.609726       -16.5915
  12   2.0000      -0.579625       -15.7724
  13   2.0000      -0.523962       -14.2577
  14   2.0000      -0.498294       -13.5593
  15   2.0000      -0.463405       -12.6099
  16   2.0000      -0.448675       -12.2091
  17   2.0000      -0.430124       -11.7043
  18   2.0000      -0.410793       -11.1782
  19   2.0000      -0.377692       -10.2775
  20   2.0000      -0.361374        -9.8335
  21   2.0000      -0.339350        -9.2342
  22   2.0000      -0.318431        -8.6649
  23   2.0000      -0.287782        -7.8309
  24   2.0000      -0.278303        -7.5730
  25   2.0000      -0.270809        -7.3691
  26   2.0000      -0.245030        -6.6676
  27   0.0000      -0.017114        -0.4657
  28   0.0000       0.069343         1.8869
  29   0.0000       0.088892         2.4189
  30   0.0000       0.103154         2.8070
  31   0.0000       0.105653         2.8750

MULLIKEN ATOMIC CHARGES
-----------------------
   0 C :   -0.307348
   1 O :   -0.195204
   2 C :    0.417158
   3 O :   -0.464056
   4 C :   -0.111164
   5 C :   -0.344298
   6 C :   -0.344489
   7 H :    0.145687
   8 H :    0.190095
   9 H :    0.145632
  10 H :    0.182779
  11 H :    0.163871
  12 H :    0.178665
  13 H :    0.163870
  14 H :    0.178803
Sum of atomic charges:    0.0000000

LOEWDIN ATOMIC CHARGES
----------------------
   0 C :   -0.049060
   1 O :   -0.604228
   2 C :    0.373210
   3 O :   -0.448724
   4 C :   -0.151155
   5 C :   -0.262176
   6 C :   -0.262279
   7 H :    0.171809
   8 H :    0.194741
   9 H :    0.171887
  10 H :    0.183290
  11 H :    0.163892
  12 H :    0.177397
  13 H :    0.163894
  14 H :    0.177501

  Mayer bond orders larger than 0.100000
B(  0-C ,  1-O ) :   0.8445 B(  0-C ,  7-H ) :   0.9638 B(  0-C ,  8-H ) :   0.9727
B(  0-C ,  9-H ) :   0.9641 B(  1-O ,  2-C ) :   1.0684 B(  2-C ,  3-O ) :   1.8754
B(  2-C ,  4-C ) :   1.0983 B(  4-C ,  5-C ) :   0.8794 B(  4-C ,  6-C ) :   0.8792
B(  4-C , 10-H ) :   0.9000 B(  5-C ,  6-C ) :   0.9949 B(  5-C , 11-H ) :   0.9443
B(  5-C , 12-H ) :   0.9500 B(  6-C , 13-H ) :   0.9443 B(  6-C , 14-H ) :   0.9500

Dispersion correction           -0.003486418
FINAL SINGLE POINT ENERGY      -345.699345757898

DIPOLE MOMENT
-------------

Method             : SCF
Type of density    : Electron Density
Multiplicity       :   1
Irrep              :   0
Energy             :  -345.7047705299249856 Eh
Relativity type    :
Basis              : AO
                                X                 Y                 Z
Electronic contribution:     -1.240975095       0.582255181       0.007246691
Nuclear contribution   :      1.229588709      -1.242389369      -0.008357964
                        -----------------------------------------
Total Dipole Moment    :     -0.011386386      -0.660134189      -0.001111274
                        -----------------------------------------
Magnitude (a.u.)       :      0.660233316
Magnitude (Debye)      :      1.678179723

Rotational constants in cm-1:             0.241383             0.054178             0.049798
Rotational constants in MHz :          7236.481896          1624.226749          1492.907578

                             ****ORCA TERMINATED NORMALLY****
TOTAL RUN TIME: 0 days 0 hours 0 minutes 16 seconds 320 msec
