                         Program Version 6.0.1  -  RELEASE   -
|  1> ! pbe def2-sv(p) def2/J RI DEFGRID1 loosescf d4 GCP(DFT/SV(P)) printgap
|  2> %output
|  3>     printlevel normal
|  4> end
|  5> * xyz 0 1
|  6> C 1.6715998864 -1.0475273151 -0.1732139069
|  7> C 1.0497046621 0.2801927991 0.2358761981
|  8> C -0.4450604511 0.3497527662 0.0444853367
|  9> O -1.087106017 1.3664344634 0.0720424051
| 10> O -1.0145041596 -0.8457499928 -0.1458952294
| 11> H 1.4854473623 -1.2489810188 -1.2248588264
| 12> H 2.7460042299 -1.0181692347 -0.0101179892
| 13> H 1.252035682 -1.8625687203 0.4096759538
| 14> H 1.2376475441 0.4761919505 1.2953354309
| 15> H 1.4877654235 1.1092519828 -0.3236014082
| 16> H -1.9736249119 -0.7448059415 -0.2509567064
| 17> *
| 18>
| 19>                          ****END OF INPUT****

CARTESIAN COORDINATES (ANGSTROEM)
---------------------------------
  C      1.671600   -1.047527   -0.173214
  C      1.049705    0.280193    0.235876
  C     -0.445060    0.349753    0.044485
  O     -1.087106    1.366434    0.072042
  O     -1.014504   -0.845750   -0.145895
  H      1.485447   -1.248981   -1.224859
  H      2.746004   -1.018169   -0.010118
  H      1.252036   -1.862569    0.409676
  H      1.237648    0.476192    1.295335
  H      1.487765    1.109252   -0.323601
  H     -1.973625   -0.744806   -0.250957

 Total Charge           Charge          ....    0
 Multiplicity           Mult            ....    1
 Number of Electrons    NEL             ....   40
 Basis Dimension        Dim             ....   82

ORBITAL ENERGIES
----------------

  NO   OCC          E(Eh)            E(eV)
   0   2.0000     -18.798227      -511.5258
   1   2.0000     -18.736388      -509.8430
   2   2.0000     -10.010784      -272.4073
   3   2.0000      -9.903592      -269.4904
   4   2.0000      -9.882905      -268.9275
   5   2.0000      -1.007720       -27.4214
   6   2.0000      -0.912987       -24.8436
   7   2.0000      -0.712291       -19.3824
   8   2.0000      -0.597925       -16.2704
   9   2.0000      -0.552943       -15.0463
  10   2.0000      -0.434680       -11.8283
  11   2.0000      -0.428478       -11.6595
  12   2.0000      -0.409291       -11.1374
  13   2.0000      -0.372932       -10.1480
  14   2.0000      -0.359771        -9.7899
  15   2.0000      -0.331019        -9.0075
  16   2.0000      -0.325694        -8.8626
  17   2.0000      -0.314530        -8.5588
  18   2.0000      -0.271223        -7.3803
  19   2.0000      -0.220488        -5.9998
  20   0.0000      -0.020235        -0.5506
  21   0.0000       0.023846         0.6489
  22   0.0000       0.055805         1.5185
  23   0.0000       0.089988         2.4487
  24   0.0000       0.096746         2.6326

MULLIKEN ATOMIC CHARGES
-----------------------
   0 C :   -0.265270
   1 C :   -0.226268
   2 C :    0.085767
   3 O :   -0.185901
   4 O :   -0.296157
   5 H :    0.109537
   6 H :    0.103126
   7 H :    0.114289
   8 H :    0.128578
   9 H :    0.122411
  10 H :    0.309887
Sum of atomic charges:   -0.0000000

LOEWDIN ATOMIC CHARGES
----------------------
   0 C :   -0.342250
   1 C :   -0.256902
   2 C :    0.023768
   3 O :   -0.164810
   4 O :   -0.212862
   5 H :    0.122946
   6 H :    0.121603
   7 H :    0.124373
   8 H :    0.146816
   9 H :    0.142096
  10 H :    0.295223

  Mayer bond orders larger than 0.100000
B(  0-C ,  1-C ) :   1.1464 B(  0-C ,  5-H ) :   0.9596 B(  0-C ,  6-H ) :   0.9454
B(  0-C ,  7-H ) :   0.9495 B(  1-C ,  2-C ) :   1.0236 B(  1-C ,  8-H ) :   0.9027
B(  1-C ,  9-H ) :   0.9165 B(  2-C ,  3-O ) :   2.1129 B(  2-C ,  4-O ) :   1.2611
B(  4-O , 10-H ) :   0.8258

Dispersion correction           -0.006538317
FINAL SINGLE POINT ENERGY      -267.819229785486

DIPOLE MOMENT
-------------

Method             : SCF
Type of density    : Electron Density
Multiplicity       :   1
Irrep              :   0
Energy             :  -267.8640956331272491 Eh
Relativity type    :
Basis              : AO
                                X                 Y                 Z
Electronic contribution:     -5.627851929       2.476202324       0.084175301
Nuclear contribution   :      5.818595082      -3.077996618      -0.099155215
                        -----------------------------------------
Total Dipole Moment    :      0.190743153      -0.601794293      -0.014979914
                        -----------------------------------------
Magnitude (a.u.)       :      0.631477410
Magnitude (Debye)      :      1.605088019

Rotational constants in cm-1:             0.328633             0.133654             0.099148
Rotational constants in MHz :          9852.180997          4006.848278          2972.385260

                             ****ORCA TERMINATED NORMALLY****
TOTAL RUN TIME: 0 days 0 hours 0 minutes 2 seconds 922 msec
