                         Program Version 6.0.1  -  RELEASE   -
|  1> ! pbe def2-sv(p) def2/J RI DEFGRID1 loosescf d4 GCP(DFT/SV(P)) printgap
|  2> %output
|  3>     printlevel normal
|  4> end
|  5> * xyz 0 1
|  6> C -2.5000744281 -0.7527562195 -0.0208140417
|  7> C -1.115928021 -0.499502576 0.5962571833
|  8> H -1.1283066438 -0.8505409253 1.6405776367
|  9> C -0.7182812166 1.0042009396 0.6146284856
| 10> H -1.5979497343 1.6136023564 0.3686924327
| 11> C 0.3765506807 1.2520939408 -0.4396895778
| 12> H 0.6952075864 2.298855292 -0.3873538066
| 13> C 1.6010703615 0.3671886083 -0.1173059938
| 14> H 2.2284499151 0.3153267973 -1.0190059936
| 15> C 1.1388437401 -1.0713354197 0.2530273393
| 16> H 1.229022954 -1.1973947227 1.3477910308
| 17> O -0.1892550585 -1.2755026873 -0.1491325861
| 18> O 1.9315037897 -2.0451427523 -0.3314486035
| 19> O 2.3074743124 0.9632999344 0.9495982282
| 20> O -0.0855143196 1.0425062379 -1.7422188887
| 21> O -0.3133066804 1.4139029757 1.8932399037
| 22> O -2.6040447761 -0.3492036368 -1.3581746092
| 23> H -3.2542930607 -0.2626244274 0.6088689445
| 24> H -2.6828089323 -1.8290542925 -0.0279793182
| 25> H 1.5634445556 -2.2487136963 -1.2000635629
| 26> H 3.1212553367 0.4697581968 1.1023617616
| 27> H -0.4389390214 0.139624749 -1.8063167196
| 28> H 0.6510807346 1.3404334599 1.9566515154
| 29> H -2.4913978957 0.607709758 -1.4266149007
| 30> *
| 31>
| 32>                          ****END OF INPUT****

CARTESIAN COORDINATES (ANGSTROEM)
---------------------------------
  C     -2.500074   -0.752756   -0.020814
  C     -1.115928   -0.499503    0.596257
  H     -1.128307   -0.850541    1.640578
  C     -0.718281    1.004201    0.614628
  H     -1.597950    1.613602    0.368692
  C      0.376551    1.252094   -0.439690
  H      0.695208    2.298855   -0.387354
  C      1.601070    0.367189   -0.117306
  H      2.228450    0.315327   -1.019006
  C      1.138844   -1.071335    0.253027
  H      1.229023   -1.197395    1.347791
  O     -0.189255   -1.275503   -0.149133
  O      1.931504   -2.045143   -0.331449
  O      2.307474    0.963300    0.949598
  O     -0.085514    1.042506   -1.742219
  O     -0.313307    1.413903    1.893240
  O     -2.604045   -0.349204   -1.358175
  H     -3.254293   -0.262624    0.608869
  H     -2.682809   -1.829054   -0.027979
  H      1.563445   -2.248714   -1.200064
  H      3.121255    0.469758    1.102362
  H     -0.438939    0.139625   -1.806317
  H      0.651081    1.340433    1.956652
  H     -2.491398    0.607710   -1.426615

 Total Charge           Charge          ....    0
 Multiplicity           Mult            ....    1
 Number of Electrons    NEL             ....   96
 Basis Dimension        Dim             ....  192

ORBITAL ENERGIES
----------------

  NO   OCC          E(Eh)            E(eV)
   0   2.0000     -18.788001      -511.2475
   1   2.0000     -18.784493      -511.1520
   2   2.0000     -18.768281      -510.7109
   3   2.0000     -18.762669      -510.5582
   4   2.0000     -18.758475      -510.4441
   5   2.0000     -18.744895      -510.0745
   6   2.0000      -9.997892      -272.0565
   7   2.0000      -9.951201      -270.7860
   8   2.0000      -9.951074      -270.7825
   9   2.0000      -9.950936      -270.7787
  10   2.0000      -9.948489      -270.7121
  11   2.0000      -9.943224      -270.5689
  12   2.0000      -1.001499       -27.2522
  13   2.0000      -0.959030       -26.0965
  14   2.0000      -0.948308       -25.8048
  15   2.0000      -0.934599       -25.4317
  16   2.0000      -0.927494       -25.2384
  17   2.0000      -0.921040       -25.0628
  18   2.0000      -0.702930       -19.1277
  19   2.0000      -0.697710       -18.9857
  20   2.0000      -0.625972       -17.0336
  21   2.0000      -0.604883       -16.4597
  22   2.0000      -0.574846       -15.6424
  23   2.0000      -0.538881       -14.6637
  24   2.0000      -0.506559       -13.7842
  25   2.0000      -0.501272       -13.6403
  26   2.0000      -0.499442       -13.5905
  27   2.0000      -0.477056       -12.9814
  28   2.0000      -0.447336       -12.1726
  29   2.0000      -0.444161       -12.0862
  30   2.0000      -0.409126       -11.1329
  31   2.0000      -0.406762       -11.0685
  32   2.0000      -0.399057       -10.8589
  33   2.0000      -0.385190       -10.4815
  34   2.0000      -0.367105        -9.9894
  35   2.0000      -0.353625        -9.6226
  36   2.0000      -0.338169        -9.2021
  37   2.0000      -0.335233        -9.1221
  38   2.0000      -0.323071        -8.7912
  39   2.0000      -0.309669        -8.4265
  40   2.0000      -0.294646        -8.0177
  41   2.0000      -0.282209        -7.6793
  42   2.0000      -0.263544        -7.1714
  43   2.0000      -0.257176        -6.9981
  44   2.0000      -0.242681        -6.6037
  45   2.0000      -0.232911        -6.3378
  46   2.0000      -0.217096        -5.9075
  47   2.0000      -0.209176        -5.6920
  48   0.0000       0.005659         0.1540
  49   0.0000       0.020033         0.5451
  50   0.0000       0.030976         0.8429
  51   0.0000       0.043259         1.1771
  52   0.0000       0.060970         1.6591

MULLIKEN ATOMIC CHARGES
-----------------------
   0 C :    0.065765
   1 C :    0.016222
   2 H :    0.074593
   3 C :   -0.009726
   4 H :    0.069538
   5 C :    0.044067
   6 H :    0.090610
   7 C :    0.024915
   8 H :    0.069906
   9 C :    0.192544
  10 H :    0.048763
  11 O :   -0.307116
  12 O :   -0.389031
  13 O :   -0.419898
  14 O :   -0.427145
  15 O :   -0.422008
  16 O :   -0.434392
  17 H :    0.090969
  18 H :    0.096229
  19 H :    0.305581
  20 H :    0.317227
  21 H :    0.297613
  22 H :    0.305056
  23 H :    0.299717
Sum of atomic charges:   -0.0000000

LOEWDIN ATOMIC CHARGES
----------------------
   0 C :   -0.124153
   1 C :   -0.083030
   2 H :    0.115827
   3 C :   -0.079033
   4 H :    0.107508
   5 C :   -0.074055
   6 H :    0.123407
   7 C :   -0.098926
   8 H :    0.111802
   9 C :   -0.003880
  10 H :    0.093268
  11 O :   -0.149956
  12 O :   -0.300992
  13 O :   -0.309338
  14 O :   -0.309597
  15 O :   -0.322181
  16 O :   -0.322660
  17 H :    0.106231
  18 H :    0.121175
  19 H :    0.289577
  20 H :    0.297087
  21 H :    0.263568
  22 H :    0.273140
  23 H :    0.275211

  Mayer bond orders larger than 0.100000
B(  0-C ,  1-C ) :   1.0231 B(  0-C , 16-O ) :   1.0864 B(  0-C , 17-H ) :   0.9206
B(  0-C , 18-H ) :   0.9156 B(  1-C ,  2-H ) :   0.8747 B(  1-C ,  3-C ) :   0.9275
B(  1-C , 11-O ) :   0.9675 B(  3-C ,  4-H ) :   0.9024 B(  3-C ,  5-C ) :   1.0063
B(  3-C , 15-O ) :   1.0908 B(  5-C ,  6-H ) :   0.8893 B(  5-C ,  7-C ) :   0.9754
B(  5-C , 14-O ) :   1.0578 B(  7-C ,  8-H ) :   0.8857 B(  7-C ,  9-C ) :   0.9628
B(  7-C , 13-O ) :   1.0186 B(  9-C , 10-H ) :   0.8729 B(  9-C , 11-O ) :   1.0490
B(  9-C , 12-O ) :   1.1270 B( 12-O , 19-H ) :   0.8420 B( 13-O , 20-H ) :   0.8394
B( 13-O , 22-H ) :   0.1050 B( 14-O , 21-H ) :   0.7969 B( 15-O , 22-H ) :   0.8076
B( 16-O , 23-H ) :   0.8218

Dispersion correction           -0.025561240
FINAL SINGLE POINT ENERGY      -685.691883824181

DIPOLE MOMENT
-------------

Method             : SCF
Type of density    : Electron Density
Multiplicity       :   1
Irrep              :   0
Energy             :  -685.8264861120203477 Eh
Relativity type    :
Basis              : AO
                                X                 Y                 Z
Electronic contribution:      2.443517339      -0.624929183      -0.933907556
Nuclear contribution   :     -1.959559165       0.368731465       1.075099073
                        -----------------------------------------
Total Dipole Moment    :      0.483958173      -0.256197717       0.141191518
                        -----------------------------------------
Magnitude (a.u.)       :      0.565497859
Magnitude (Debye)      :      1.437381327

Rotational constants in cm-1:             0.041772             0.027625             0.023439
Rotational constants in MHz :          1252.288847           828.186295           702.681292

                             ****ORCA TERMINATED NORMALLY****
TOTAL RUN TIME: 0 days 0 hours 0 minutes 8 seconds 988 msec
