                         Program Version 6.0.0  -   RELEASE  -
|  1> ! r2SCAN-3c DEF2-TZVP FREQ
|  2> * xyzfile 0 1 censo.xyz
|  3>
|  4>                          ****END OF INPUT****

CARTESIAN COORDINATES (ANGSTROEM)
---------------------------------
  C     -0.762707    0.000129   -0.000015
  C      0.762668   -0.000093   -0.000060
  H     -1.159732    0.394422    0.941153
  H     -1.159767    0.618220   -0.811928
  H     -1.159975   -1.011984   -0.129270
  H      1.159943    1.012015    0.129222
  H      1.159692   -0.394361   -0.941237
  H      1.159722   -0.618202    0.811840

 Total Charge           Charge          ....    0
 Multiplicity           Mult            ....    1
 Number of Electrons    NEL             ....   18
 Basis Dimension        Dim             ....   98

ORBITAL ENERGIES
----------------

  NO   OCC          E(Eh)            E(eV)
   0   2.0000     -10.018260      -272.6107
   1   2.0000     -10.018130      -272.6072
   2   2.0000      -0.717671       -19.5288
   3   2.0000      -0.580754       -15.8031
   4   2.0000      -0.401600       -10.9281
   5   2.0000      -0.401580       -10.9275
   6   2.0000      -0.337380        -9.1806
   7   2.0000      -0.310104        -8.4384
   8   2.0000      -0.310086        -8.4379
   9   0.0000       0.057190         1.5562
  10   0.0000       0.098609         2.6833
  11   0.0000       0.123568         3.3625
  12   0.0000       0.123573         3.3626
  13   0.0000       0.138211         3.7609

MULLIKEN ATOMIC CHARGES
-----------------------
   0 C :   -0.290470
   1 C :   -0.290470
   2 H :    0.096803
   3 H :    0.096831
   4 H :    0.096836
   5 H :    0.096835
   6 H :    0.096803
   7 H :    0.096831
Sum of atomic charges:    0.0000000

LOEWDIN ATOMIC CHARGES
----------------------
   0 C :   -0.341969
   1 C :   -0.341969
   2 H :    0.113988
   3 H :    0.113989
   4 H :    0.113992
   5 H :    0.113992
   6 H :    0.113988
   7 H :    0.113989

  Mayer bond orders larger than 0.100000
B(  0-C ,  1-C ) :   0.9849 B(  0-C ,  2-H ) :   0.9766 B(  0-C ,  3-H ) :   0.9766
B(  0-C ,  4-H ) :   0.9766 B(  1-C ,  5-H ) :   0.9766 B(  1-C ,  6-H ) :   0.9766
B(  1-C ,  7-H ) :   0.9766

Dispersion correction           -0.000882210
FINAL SINGLE POINT ENERGY       -79.796327375995

DIPOLE MOMENT
-------------

Method             : SCF
Type of density    : Electron Density
Multiplicity       :   1
Irrep              :   0
Energy             :   -79.7994188875264854 Eh
Relativity type    :
Basis              : AO
                                X                 Y                 Z
Electronic contribution:     -0.000000893       0.000001240      -0.000003829
Nuclear contribution   :      0.000001053      -0.000001516       0.000004270
                        -----------------------------------------
Total Dipole Moment    :      0.000000160      -0.000000277       0.000000441
                        -----------------------------------------
Magnitude (a.u.)       :      0.000000545
Magnitude (Debye)      :      0.000001384

VIBRATIONAL FREQUENCIES
-----------------------

Scaling factor for frequencies =  1.000000000  (already applied!)

     0:       0.00 cm**-1
     1:       0.00 cm**-1
     2:       0.00 cm**-1
     3:       0.00 cm**-1
     4:       0.00 cm**-1
     5:       0.00 cm**-1
     6:     325.92 cm**-1
     7:     833.32 cm**-1
     8:     833.95 cm**-1
     9:    1001.70 cm**-1
    10:    1222.68 cm**-1
    11:    1223.01 cm**-1
    12:    1401.75 cm**-1
    13:    1415.86 cm**-1
    14:    1500.11 cm**-1
    15:    1500.20 cm**-1
    16:    1500.67 cm**-1
    17:    1500.88 cm**-1
    18:    3005.86 cm**-1
    19:    3006.42 cm**-1
    20:    3064.12 cm**-1
    21:    3065.21 cm**-1
    22:    3090.89 cm**-1
    23:    3091.58 cm**-1

IR SPECTRUM
-----------

 Mode   freq       eps      Int      T**2         TX        TY        TZ
       cm**-1   L/(mol*cm) km/mol    a.u.
----------------------------------------------------------------------------
  6:    325.92   0.000001    0.00  0.000001  ( 0.000106  0.000660 -0.000564)
  7:    833.32   0.000842    4.26  0.000315  (-0.000110 -0.010011  0.014666)
  8:    833.95   0.000818    4.13  0.000306  (-0.000053 -0.014415 -0.009915)
  9:   1001.70   0.000000    0.00  0.000000  (-0.000000  0.000000 -0.000000)
 10:   1222.68   0.000000    0.00  0.000000  (-0.000000 -0.000000 -0.000000)
 11:   1223.01   0.000000    0.00  0.000000  ( 0.000000  0.000000 -0.000000)
 12:   1401.75   0.000251    1.27  0.000056  ( 0.007473 -0.000026  0.000007)
 13:   1415.86   0.000000    0.00  0.000000  (-0.000000 -0.000000  0.000000)
 14:   1500.11   0.000000    0.00  0.000000  ( 0.000000 -0.000021  0.000009)
 15:   1500.20   0.000000    0.00  0.000000  (-0.000000  0.000021  0.000019)
 16:   1500.67   0.002141   10.82  0.000445  ( 0.000050 -0.018482 -0.010181)
 17:   1500.88   0.002203   11.13  0.000458  ( 0.000032 -0.010396  0.018710)
 18:   3005.86   0.000000    0.00  0.000000  ( 0.000052 -0.000001 -0.000000)
 19:   3006.42   0.013165   66.53  0.001366  (-0.036966  0.000009  0.000033)
 20:   3064.12   0.000000    0.00  0.000000  ( 0.000001 -0.000002 -0.000001)
 21:   3065.21   0.000000    0.00  0.000000  (-0.000001  0.000001 -0.000004)
 22:   3090.89   0.013234   66.88  0.001336  (-0.000102 -0.034778  0.011254)
 23:   3091.58   0.013045   65.93  0.001317  (-0.000137  0.011052  0.034563)

--------------------------
THERMOCHEMISTRY AT 298.15K
--------------------------

Temperature         ...   298.15 K
Pressure            ...     1.00 atm
Total Mass          ...    30.07 AMU
Quasi RRHO          ...     True
Cut-Off Frequency   ...     1.00 cm^-1

Throughout the following assumptions are being made:
  (1) The electronic state is orbitally nondegenerate
  (2) There are no thermally accessible electronically excited states
  (3) Hindered rotations indicated by low frequency modes are not
      treated as such but are treated as vibrations and this may
      cause some error
  (4) All equations used are the standard statistical mechanics
      equations for an ideal gas
  (5) All vibrations are strictly harmonic

freq.     325.92  E(vib)   ...       0.24
freq.     833.32  E(vib)   ...       0.04
freq.     833.95  E(vib)   ...       0.04
freq.    1001.70  E(vib)   ...       0.02
freq.    1222.68  E(vib)   ...       0.01
freq.    1223.01  E(vib)   ...       0.01
freq.    1401.75  E(vib)   ...       0.00
freq.    1415.86  E(vib)   ...       0.00
freq.    1500.11  E(vib)   ...       0.00
freq.    1500.20  E(vib)   ...       0.00
freq.    1500.67  E(vib)   ...       0.00
freq.    1500.88  E(vib)   ...       0.00
freq.    3005.86  E(vib)   ...       0.00
freq.    3006.42  E(vib)   ...       0.00
freq.    3064.12  E(vib)   ...       0.00
freq.    3065.21  E(vib)   ...       0.00
freq.    3090.89  E(vib)   ...       0.00
freq.    3091.58  E(vib)   ...       0.00

------------
INNER ENERGY
------------

The inner energy is: U= E(el) + E(ZPE) + E(vib) + E(rot) + E(trans)
    E(el)   - is the total energy from the electronic structure calculation
              = E(kin-el) + E(nuc-el) + E(el-el) + E(nuc-nuc)
    E(ZPE)  - the the zero temperature vibrational energy from the frequency calculation
    E(vib)  - the the finite temperature correction to E(ZPE) due to population
              of excited vibrational states
    E(rot)  - is the rotational thermal energy
    E(trans)- is the translational thermal energy

Summary of contributions to the inner energy U:
Electronic energy                ...    -79.79632738 Eh
Zero point energy                ...      0.07423211 Eh      46.58 kcal/mol
Thermal vibrational correction   ...      0.00062843 Eh       0.39 kcal/mol
Thermal rotational correction    ...      0.00141627 Eh       0.89 kcal/mol
Thermal translational correction ...      0.00141627 Eh       0.89 kcal/mol
-----------------------------------------------------------------------
Total thermal energy                    -79.71863430 Eh

Summary of corrections to the electronic energy:
(perhaps to be used in another calculation)
Total thermal correction                  0.00346097 Eh       2.17 kcal/mol
Non-thermal (ZPE) correction              0.07423211 Eh      46.58 kcal/mol
-----------------------------------------------------------------------
Total correction                          0.07769308 Eh      48.75 kcal/mol

--------
ENTHALPY
--------

The enthalpy is H = U + kB*T
                kB is Boltzmann's constant
Total thermal energy              ...    -79.71863430 Eh
Thermal Enthalpy correction       ...      0.00094421 Eh       0.59 kcal/mol
-----------------------------------------------------------------------
Total Enthalpy                    ...    -79.71769009 Eh

Note: Rotational entropy computed according to Herzberg
Infrared and Raman Spectra, Chapter V,1, Van Nostrand Reinhold, 1945
Point Group:  C2h, Symmetry Number:   2
Rotational constants in cm-1:     2.677032     0.667439     0.667427

Vibrational entropy computed according to the QRRHO of S. Grimme
Chem.Eur.J. 2012 18 9955 using a reference frequency of 100.0 cm-1

-------
ENTROPY
-------

The entropy contributions are T*S = T*(S(el)+S(vib)+S(rot)+S(trans))
     S(el)   - electronic entropy
     S(vib)  - vibrational entropy
     S(rot)  - rotational entropy
     S(trans)- translational entropy
The entropies will be listed as multiplied by the temperature to get
units of energy

Electronic entropy                ...      0.00000000 Eh      0.00 kcal/mol
Vibrational entropy               ...      0.00090143 Eh      0.57 kcal/mol
Rotational entropy                ...      0.00877323 Eh      5.51 kcal/mol
Translational entropy             ...      0.01716939 Eh     10.77 kcal/mol
-----------------------------------------------------------------------
Final entropy term                ...      0.02684405 Eh     16.84 kcal/mol

In case the symmetry of your molecule has not been determined correctly
or in case you have a reason to use a different symmetry number we print
out the resulting rotational entropy values for sn=1,12:

 non-linear molecules -----------------------------------
|  sn= 1 | S(rot)=       0.00942769 Eh      5.92 kcal/mol|
|  sn= 2 | S(rot)=       0.00877323 Eh      5.51 kcal/mol|
|  sn= 3 | S(rot)=       0.00839040 Eh      5.27 kcal/mol|
|  sn= 4 | S(rot)=       0.00811877 Eh      5.09 kcal/mol|
|  sn= 5 | S(rot)=       0.00790809 Eh      4.96 kcal/mol|
|  sn= 6 | S(rot)=       0.00773594 Eh      4.85 kcal/mol|
|  sn= 7 | S(rot)=       0.00759039 Eh      4.76 kcal/mol|
|  sn= 8 | S(rot)=       0.00746432 Eh      4.68 kcal/mol|
|  sn= 9 | S(rot)=       0.00735311 Eh      4.61 kcal/mol|
|  sn=10 | S(rot)=       0.00725363 Eh      4.55 kcal/mol|
|  sn=11 | S(rot)=       0.00716364 Eh      4.50 kcal/mol|
|  sn=12 | S(rot)=       0.00708148 Eh      4.44 kcal/mol|
 linear molecules ---------------------------------------
|  Dinfh | S(rot)=       0.00570756 Eh      3.58 kcal/mol|
|  Cinfv | S(rot)=       0.00636202 Eh      3.99 kcal/mol|
 --------------------------------------------------------

-------------------
GIBBS FREE ENERGY
-------------------

The Gibbs free energy is G = H - T*S

Total enthalpy                    ...    -79.71769009 Eh
Total entropy correction          ...     -0.02684405 Eh    -16.84 kcal/mol
-----------------------------------------------------------------------
Final Gibbs free energy         ...    -79.74453413 Eh

For completeness - the Gibbs free energy minus the electronic energy
G-E(el)                           ...      0.05179324 Eh     32.50 kcal/mol

                             ****ORCA TERMINATED NORMALLY****
TOTAL RUN TIME: 0 days 0 hours 1 minutes 2 seconds 593 msec
