                         Program Version 6.0.0  -   RELEASE  -
|  1> ! r2SCAN-3c DEF2-TZVP FREQ
|  2> * xyzfile 0 1 vacuum_censo.xyz
|  3>
|  4>                          ****END OF INPUT****

CARTESIAN COORDINATES (ANGSTROEM)
---------------------------------
  C     -0.763588   -0.000000   -0.000001
  C      0.763573    0.000005    0.000007
  H     -1.160831    0.639044    0.794602
  H     -1.160802    0.368608   -0.950735
  H     -1.160788   -1.007689    0.156166
  H      1.160787   -0.368925    0.950616
  H      1.160773    1.007747   -0.155820
  H      1.160816   -0.638771   -0.794812

 Total Charge           Charge          ....    0
 Multiplicity           Mult            ....    1
 Number of Electrons    NEL             ....   18
 Basis Dimension        Dim             ....   98

ORBITAL ENERGIES
----------------

  NO   OCC          E(Eh)            E(eV)
   0   2.0000     -10.018197      -272.6090
   1   2.0000     -10.018069      -272.6055
   2   2.0000      -0.717423       -19.5221
   3   2.0000      -0.581124       -15.8132
   4   2.0000      -0.401467       -10.9245
   5   2.0000      -0.401459       -10.9243
   6   2.0000      -0.337234        -9.1766
   7   2.0000      -0.310322        -8.4443
   8   2.0000      -0.310314        -8.4441
   9   0.0000       0.057336         1.5602
  10   0.0000       0.098522         2.6809
  11   0.0000       0.123851         3.3701
  12   0.0000       0.123858         3.3703
  13   0.0000       0.138364         3.7651

MULLIKEN ATOMIC CHARGES
-----------------------
   0 C :   -0.290821
   1 C :   -0.290821
   2 H :    0.096950
   3 H :    0.096922
   4 H :    0.096949
   5 H :    0.096922
   6 H :    0.096949
   7 H :    0.096950
Sum of atomic charges:    0.0000000

LOEWDIN ATOMIC CHARGES
----------------------
   0 C :   -0.341454
   1 C :   -0.341454
   2 H :    0.113818
   3 H :    0.113814
   4 H :    0.113822
   5 H :    0.113814
   6 H :    0.113822
   7 H :    0.113818

  Mayer bond orders larger than 0.100000
B(  0-C ,  1-C ) :   0.9846 B(  0-C ,  2-H ) :   0.9767 B(  0-C ,  3-H ) :   0.9767
B(  0-C ,  4-H ) :   0.9767 B(  1-C ,  5-H ) :   0.9767 B(  1-C ,  6-H ) :   0.9767
B(  1-C ,  7-H ) :   0.9767

Dispersion correction           -0.000882118
FINAL SINGLE POINT ENERGY       -79.796328163636

DIPOLE MOMENT
-------------

Method             : SCF
Type of density    : Electron Density
Multiplicity       :   1
Irrep              :   0
Energy             :   -79.7994211793393191 Eh
Relativity type    :
Basis              : AO
                                X                 Y                 Z
Electronic contribution:      0.000000418       0.000000380      -0.000000390
Nuclear contribution   :     -0.000000414      -0.000000501       0.000000367
                        -----------------------------------------
Total Dipole Moment    :      0.000000003      -0.000000122      -0.000000023
                        -----------------------------------------
Magnitude (a.u.)       :      0.000000124
Magnitude (Debye)      :      0.000000314

VIBRATIONAL FREQUENCIES
-----------------------

Scaling factor for frequencies =  1.000000000  (already applied!)

     0:       0.00 cm**-1
     1:       0.00 cm**-1
     2:       0.00 cm**-1
     3:       0.00 cm**-1
     4:       0.00 cm**-1
     5:       0.00 cm**-1
     6:     316.33 cm**-1
     7:     829.98 cm**-1
     8:     830.32 cm**-1
     9:     997.29 cm**-1
    10:    1220.47 cm**-1
    11:    1220.69 cm**-1
    12:    1400.21 cm**-1
    13:    1413.78 cm**-1
    14:    1499.48 cm**-1
    15:    1499.61 cm**-1
    16:    1499.90 cm**-1
    17:    1500.19 cm**-1
    18:    3011.03 cm**-1
    19:    3011.74 cm**-1
    20:    3069.85 cm**-1
    21:    3070.98 cm**-1
    22:    3096.44 cm**-1
    23:    3097.07 cm**-1

IR SPECTRUM
-----------

 Mode   freq       eps      Int      T**2         TX        TY        TZ
       cm**-1   L/(mol*cm) km/mol    a.u.
----------------------------------------------------------------------------
  6:    316.33   0.000001    0.01  0.000001  ( 0.000018  0.000901 -0.000767)
  7:    829.98   0.000870    4.40  0.000327  (-0.000138 -0.010604 -0.014651)
  8:    830.32   0.000805    4.07  0.000303  ( 0.000059  0.014094 -0.010202)
  9:    997.29   0.000000    0.00  0.000000  (-0.000000  0.000000 -0.000000)
 10:   1220.47   0.000000    0.00  0.000000  (-0.000000  0.000002 -0.000001)
 11:   1220.69   0.000000    0.00  0.000000  (-0.000000  0.000001  0.000002)
 12:   1400.21   0.000246    1.24  0.000055  (-0.007407  0.000020 -0.000103)
 13:   1413.78   0.000000    0.00  0.000000  (-0.000000  0.000000  0.000000)
 14:   1499.48   0.000000    0.00  0.000000  (-0.000000  0.000006 -0.000004)
 15:   1499.61   0.000000    0.00  0.000000  (-0.000000  0.000025 -0.000061)
 16:   1499.90   0.002124   10.74  0.000442  (-0.000025  0.012974 -0.016542)
 17:   1500.19   0.002299   11.62  0.000478  (-0.000006  0.016780  0.014021)
 18:   3011.03   0.000000    0.00  0.000000  (-0.000020 -0.000000  0.000000)
 19:   3011.74   0.013096   66.18  0.001357  (-0.036837 -0.000014 -0.000193)
 20:   3069.85   0.000000    0.00  0.000000  (-0.000000  0.000000 -0.000002)
 21:   3070.98   0.000000    0.00  0.000000  ( 0.000000 -0.000001 -0.000000)
 22:   3096.44   0.013190   66.66  0.001329  ( 0.000121  0.033691  0.013937)
 23:   3097.07   0.013109   66.25  0.001321  (-0.000135  0.013729 -0.033650)

--------------------------
THERMOCHEMISTRY AT 298.15K
--------------------------

Temperature         ...   298.15 K
Pressure            ...     1.00 atm
Total Mass          ...    30.07 AMU
Quasi RRHO          ...     True
Cut-Off Frequency   ...     1.00 cm^-1

Throughout the following assumptions are being made:
  (1) The electronic state is orbitally nondegenerate
  (2) There are no thermally accessible electronically excited states
  (3) Hindered rotations indicated by low frequency modes are not
      treated as such but are treated as vibrations and this may
      cause some error
  (4) All equations used are the standard statistical mechanics
      equations for an ideal gas
  (5) All vibrations are strictly harmonic

freq.     316.33  E(vib)   ...       0.25
freq.     829.98  E(vib)   ...       0.04
freq.     830.32  E(vib)   ...       0.04
freq.     997.29  E(vib)   ...       0.02
freq.    1220.47  E(vib)   ...       0.01
freq.    1220.69  E(vib)   ...       0.01
freq.    1400.21  E(vib)   ...       0.00
freq.    1413.78  E(vib)   ...       0.00
freq.    1499.48  E(vib)   ...       0.00
freq.    1499.61  E(vib)   ...       0.00
freq.    1499.90  E(vib)   ...       0.00
freq.    1500.19  E(vib)   ...       0.00
freq.    3011.03  E(vib)   ...       0.00
freq.    3011.74  E(vib)   ...       0.00
freq.    3069.85  E(vib)   ...       0.00
freq.    3070.98  E(vib)   ...       0.00
freq.    3096.44  E(vib)   ...       0.00
freq.    3097.07  E(vib)   ...       0.00

------------
INNER ENERGY
------------

The inner energy is: U= E(el) + E(ZPE) + E(vib) + E(rot) + E(trans)
    E(el)   - is the total energy from the electronic structure calculation
              = E(kin-el) + E(nuc-el) + E(el-el) + E(nuc-nuc)
    E(ZPE)  - the the zero temperature vibrational energy from the frequency calculation
    E(vib)  - the the finite temperature correction to E(ZPE) due to population
              of excited vibrational states
    E(rot)  - is the rotational thermal energy
    E(trans)- is the translational thermal energy

Summary of contributions to the inner energy U:
Electronic energy                ...    -79.79632816 Eh
Zero point energy                ...      0.07423491 Eh      46.58 kcal/mol
Thermal vibrational correction   ...      0.00064269 Eh       0.40 kcal/mol
Thermal rotational correction    ...      0.00141627 Eh       0.89 kcal/mol
Thermal translational correction ...      0.00141627 Eh       0.89 kcal/mol
-----------------------------------------------------------------------
Total thermal energy                    -79.71861802 Eh

Summary of corrections to the electronic energy:
(perhaps to be used in another calculation)
Total thermal correction                  0.00347523 Eh       2.18 kcal/mol
Non-thermal (ZPE) correction              0.07423491 Eh      46.58 kcal/mol
-----------------------------------------------------------------------
Total correction                          0.07771015 Eh      48.76 kcal/mol

--------
ENTHALPY
--------

The enthalpy is H = U + kB*T
                kB is Boltzmann's constant
Total thermal energy              ...    -79.71861802 Eh
Thermal Enthalpy correction       ...      0.00094421 Eh       0.59 kcal/mol
-----------------------------------------------------------------------
Total Enthalpy                    ...    -79.71767381 Eh

Note: Rotational entropy computed according to Herzberg
Infrared and Raman Spectra, Chapter V,1, Van Nostrand Reinhold, 1945
Point Group:  D3, Symmetry Number:   6
Rotational constants in cm-1:     2.680650     0.666315     0.666311

Vibrational entropy computed according to the QRRHO of S. Grimme
Chem.Eur.J. 2012 18 9955 using a reference frequency of 100.0 cm-1

-------
ENTROPY
-------

The entropy contributions are T*S = T*(S(el)+S(vib)+S(rot)+S(trans))
     S(el)   - electronic entropy
     S(vib)  - vibrational entropy
     S(rot)  - rotational entropy
     S(trans)- translational entropy
The entropies will be listed as multiplied by the temperature to get
units of energy

Electronic entropy                ...      0.00000000 Eh      0.00 kcal/mol
Vibrational entropy               ...      0.00092842 Eh      0.58 kcal/mol
Rotational entropy                ...      0.00773689 Eh      4.85 kcal/mol
Translational entropy             ...      0.01716939 Eh     10.77 kcal/mol
-----------------------------------------------------------------------
Final entropy term                ...      0.02583470 Eh     16.21 kcal/mol

In case the symmetry of your molecule has not been determined correctly
or in case you have a reason to use a different symmetry number we print
out the resulting rotational entropy values for sn=1,12:

 non-linear molecules -----------------------------------
|  sn= 1 | S(rot)=       0.00942863 Eh      5.92 kcal/mol|
|  sn= 2 | S(rot)=       0.00877418 Eh      5.51 kcal/mol|
|  sn= 3 | S(rot)=       0.00839135 Eh      5.27 kcal/mol|
|  sn= 4 | S(rot)=       0.00811972 Eh      5.10 kcal/mol|
|  sn= 5 | S(rot)=       0.00790903 Eh      4.96 kcal/mol|
|  sn= 6 | S(rot)=       0.00773689 Eh      4.85 kcal/mol|
|  sn= 7 | S(rot)=       0.00759134 Eh      4.76 kcal/mol|
|  sn= 8 | S(rot)=       0.00746527 Eh      4.68 kcal/mol|
|  sn= 9 | S(rot)=       0.00735406 Eh      4.61 kcal/mol|
|  sn=10 | S(rot)=       0.00725458 Eh      4.55 kcal/mol|
|  sn=11 | S(rot)=       0.00716459 Eh      4.50 kcal/mol|
|  sn=12 | S(rot)=       0.00708243 Eh      4.44 kcal/mol|
 linear molecules ---------------------------------------
|  Dinfh | S(rot)=       0.00570914 Eh      3.58 kcal/mol|
|  Cinfv | S(rot)=       0.00636360 Eh      3.99 kcal/mol|
 --------------------------------------------------------

-------------------
GIBBS FREE ENERGY
-------------------

The Gibbs free energy is G = H - T*S

Total enthalpy                    ...    -79.71767381 Eh
Total entropy correction          ...     -0.02583470 Eh    -16.21 kcal/mol
-----------------------------------------------------------------------
Final Gibbs free energy         ...    -79.74350851 Eh

For completeness - the Gibbs free energy minus the electronic energy
G-E(el)                           ...      0.05281965 Eh     33.14 kcal/mol

                             ****ORCA TERMINATED NORMALLY****
TOTAL RUN TIME: 0 days 0 hours 1 minutes 2 seconds 619 msec
