                         Program Version 6.0.1  -  RELEASE   -
|  1> ! pbe def2-sv(p) def2/J RI DEFGRID1 loosescf d4 GCP(DFT/SV(P)) printgap
|  2> %output
|  3>     printlevel normal
|  4> end
|  5> * xyz 0 1
|  6> C -3.5950629342 -0.494526007 -1.5355746034
|  7> N -2.4374133236 -0.1269287629 -0.7586044635
|  8> C -2.4265423199 -0.2169834456 0.5925558315
|  9> O -3.3590833468 -0.5754136204 1.2590248849
| 10> O -1.254207981 0.1140054245 1.1948867779
| 11> C -0.1972891022 0.662348166 0.4870959872
| 12> C -0.2409992438 1.9667478868 0.061705395
| 13> C 0.8589644559 2.5277489462 -0.6023946005
| 14> C 1.9812685136 1.7840710705 -0.8371405745
| 15> C 2.0575902252 0.4407254336 -0.413106769
| 16> C 0.9525143072 -0.139098696 0.263811223
| 17> C 1.0248969948 -1.481933749 0.6872939983
| 18> C 2.1478227171 -2.2231063334 0.4472673349
| 19> C 3.243138667 -1.6551215027 -0.2218787209
| 20> C 3.2000939233 -0.3548851672 -0.6411685302
| 21> H -4.387244798 -0.7565558424 -0.8367356064
| 22> H -3.3774916475 -1.353201385 -2.1740403439
| 23> H -3.9194090108 0.3424437802 -2.1564277031
| 24> H -1.5941229748 0.1267566438 -1.2499095335
| 25> H -1.1250524117 2.5580077517 0.2488818221
| 26> H 0.8059330511 3.5568740791 -0.923893467
| 27> H 2.8288494594 2.2153658888 -1.349073367
| 28> H 0.1792360039 -1.9047878733 1.2085999255
| 29> H 2.1999686601 -3.2512059651 0.7730164434
| 30> H 4.1227378373 -2.2556255548 -0.401345807
| 31> H 4.0425514439 0.0862427073 -1.154087646
| 32> *
| 33>
| 34>                          ****END OF INPUT****

CARTESIAN COORDINATES (ANGSTROEM)
---------------------------------
  C     -3.595063   -0.494526   -1.535575
  N     -2.437413   -0.126929   -0.758604
  C     -2.426542   -0.216983    0.592556
  O     -3.359083   -0.575414    1.259025
  O     -1.254208    0.114005    1.194887
  C     -0.197289    0.662348    0.487096
  C     -0.240999    1.966748    0.061705
  C      0.858964    2.527749   -0.602395
  C      1.981269    1.784071   -0.837141
  C      2.057590    0.440725   -0.413107
  C      0.952514   -0.139099    0.263811
  C      1.024897   -1.481934    0.687294
  C      2.147823   -2.223106    0.447267
  C      3.243139   -1.655122   -0.221879
  C      3.200094   -0.354885   -0.641169
  H     -4.387245   -0.756556   -0.836736
  H     -3.377492   -1.353201   -2.174040
  H     -3.919409    0.342444   -2.156428
  H     -1.594123    0.126757   -1.249910
  H     -1.125052    2.558008    0.248882
  H      0.805933    3.556874   -0.923893
  H      2.828849    2.215366   -1.349073
  H      0.179236   -1.904788    1.208600
  H      2.199969   -3.251206    0.773016
  H      4.122738   -2.255626   -0.401346
  H      4.042551    0.086243   -1.154088

 Total Charge           Charge          ....    0
 Multiplicity           Mult            ....    1
 Number of Electrons    NEL             ....  106
 Basis Dimension        Dim             ....  232

ORBITAL ENERGIES
----------------

  NO   OCC          E(Eh)            E(eV)
   0   2.0000     -18.804880      -511.7068
   1   2.0000     -18.715072      -509.2630
   2   2.0000     -14.020795      -381.5252
   3   2.0000     -10.024393      -272.7776
   4   2.0000      -9.967524      -271.2301
   5   2.0000      -9.920907      -269.9616
   6   2.0000      -9.917307      -269.8636
   7   2.0000      -9.917027      -269.8560
   8   2.0000      -9.909127      -269.6411
   9   2.0000      -9.908433      -269.6222
  10   2.0000      -9.905515      -269.5428
  11   2.0000      -9.904968      -269.5279
  12   2.0000      -9.904476      -269.5145
  13   2.0000      -9.903583      -269.4902
  14   2.0000      -9.903233      -269.4807
  15   2.0000      -1.013866       -27.5887
  16   2.0000      -0.922102       -25.0917
  17   2.0000      -0.840349       -22.8671
  18   2.0000      -0.807129       -21.9631
  19   2.0000      -0.757855       -20.6223
  20   2.0000      -0.709529       -19.3073
  21   2.0000      -0.682151       -18.5623
  22   2.0000      -0.662578       -18.0297
  23   2.0000      -0.642623       -17.4867
  24   2.0000      -0.590317       -16.0634
  25   2.0000      -0.567593       -15.4450
  26   2.0000      -0.566361       -15.4115
  27   2.0000      -0.535408       -14.5692
  28   2.0000      -0.514455       -13.9990
  29   2.0000      -0.478126       -13.0105
  30   2.0000      -0.462307       -12.5800
  31   2.0000      -0.455999       -12.4084
  32   2.0000      -0.437981       -11.9181
  33   2.0000      -0.425604       -11.5813
  34   2.0000      -0.408007       -11.1024
  35   2.0000      -0.393069       -10.6960
  36   2.0000      -0.390796       -10.6341
  37   2.0000      -0.383425       -10.4335
  38   2.0000      -0.371949       -10.1212
  39   2.0000      -0.368406       -10.0248
  40   2.0000      -0.363010        -9.8780
  41   2.0000      -0.354716        -9.6523
  42   2.0000      -0.349454        -9.5091
  43   2.0000      -0.337089        -9.1727
  44   2.0000      -0.314246        -8.5511
  45   2.0000      -0.310764        -8.4563
  46   2.0000      -0.304444        -8.2843
  47   2.0000      -0.269692        -7.3387
  48   2.0000      -0.257106        -6.9962
  49   2.0000      -0.240446        -6.5429
  50   2.0000      -0.225424        -6.1341
  51   2.0000      -0.218419        -5.9435
  52   2.0000      -0.204465        -5.5638
  53   0.0000      -0.081964        -2.2304
  54   0.0000      -0.053642        -1.4597
  55   0.0000      -0.016368        -0.4454
  56   0.0000       0.025136         0.6840
  57   0.0000       0.035142         0.9563

MULLIKEN ATOMIC CHARGES
-----------------------
   0 C :   -0.180210
   1 N :   -0.333469
   2 C :    0.200603
   3 O :   -0.192406
   4 O :   -0.210274
   5 C :    0.079560
   6 C :   -0.131257
   7 C :   -0.038408
   8 C :   -0.111414
   9 C :    0.140032
  10 C :    0.116960
  11 C :   -0.136512
  12 C :   -0.036871
  13 C :   -0.033985
  14 C :   -0.130962
  15 H :    0.140598
  16 H :    0.114659
  17 H :    0.112670
  18 H :    0.248924
  19 H :    0.053762
  20 H :    0.060347
  21 H :    0.042312
  22 H :    0.064148
  23 H :    0.059559
  24 H :    0.058175
  25 H :    0.043456
Sum of atomic charges:    0.0000000

LOEWDIN ATOMIC CHARGES
----------------------
   0 C :   -0.257821
   1 N :   -0.193446
   2 C :    0.027178
   3 O :   -0.180428
   4 O :   -0.038970
   5 C :    0.024369
   6 C :   -0.144671
   7 C :   -0.121025
   8 C :   -0.115296
   9 C :   -0.023538
  10 C :   -0.039828
  11 C :   -0.108525
  12 C :   -0.117816
  13 C :   -0.119110
  14 C :   -0.109058
  15 H :    0.138796
  16 H :    0.117035
  17 H :    0.116645
  18 H :    0.238502
  19 H :    0.135395
  20 H :    0.128959
  21 H :    0.126678
  22 H :    0.135092
  23 H :    0.127877
  24 H :    0.126867
  25 H :    0.126140

  Mayer bond orders larger than 0.100000
B(  0-C ,  1-N ) :   1.0272 B(  0-C , 15-H ) :   0.9349 B(  0-C , 16-H ) :   0.9589
B(  0-C , 17-H ) :   0.9579 B(  1-N ,  2-C ) :   1.1909 B(  1-N , 18-H ) :   0.8372
B(  2-C ,  3-O ) :   2.1007 B(  2-C ,  4-O ) :   1.0343 B(  4-O ,  5-C ) :   1.0664
B(  5-C ,  6-C ) :   1.4543 B(  5-C , 10-C ) :   1.2238 B(  6-C ,  7-C ) :   1.2149
B(  6-C , 19-H ) :   0.9636 B(  7-C ,  8-C ) :   1.4392 B(  7-C , 20-H ) :   0.9621
B(  8-C ,  9-C ) :   1.2356 B(  8-C , 21-H ) :   0.9679 B(  9-C , 10-C ) :   1.2517
B(  9-C , 14-C ) :   1.2400 B( 10-C , 11-C ) :   1.2652 B( 11-C , 12-C ) :   1.4396
B( 11-C , 22-H ) :   0.9618 B( 12-C , 13-C ) :   1.2548 B( 12-C , 23-H ) :   0.9637
B( 13-C , 14-C ) :   1.4615 B( 13-C , 24-H ) :   0.9622 B( 14-C , 25-H ) :   0.9654

Dispersion correction           -0.032957038
FINAL SINGLE POINT ENERGY      -667.732314853907

DIPOLE MOMENT
-------------

Method             : SCF
Type of density    : Electron Density
Multiplicity       :   1
Irrep              :   0
Energy             :  -667.8077981005893662 Eh
Relativity type    :
Basis              : AO
                                X                 Y                 Z
Electronic contribution:      1.260123700       0.898208124       5.955482987
Nuclear contribution   :     -0.291898668      -0.603912520      -7.487280588
                        -----------------------------------------
Total Dipole Moment    :      0.968225032       0.294295603      -1.531797601
                        -----------------------------------------
Magnitude (a.u.)       :      1.835884938
Magnitude (Debye)      :      4.666448663

Rotational constants in cm-1:             0.035103             0.014376             0.011936
Rotational constants in MHz :          1052.348992           430.988254           357.829225

                             ****ORCA TERMINATED NORMALLY****
TOTAL RUN TIME: 0 days 0 hours 0 minutes 46 seconds 450 msec
