                         Program Version 6.0.1  -  RELEASE   -
|  1> ! r2scan-3c def2/J RI DEFGRID2 scfconv6 printgap
|  2> %output
|  3>     printlevel normal
|  4> end
|  5> * xyz 0 1
|  6> C -2.3393453125 0.1529814221 -1.2586693587
|  7> C -1.6950775038 -0.432911278 -0.0004763124
|  8> C -2.3376118377 0.1497918969 1.2601189539
|  9> C -0.2042552882 -0.1971730029 -0.0007192208
| 10> C 0.3208741581 1.0897987219 0.000153507
| 11> C 1.68802879 1.2972446371 0.0007390666
| 12> C 2.5565957508 0.2191528722 0.0004206735
| 13> C 2.0465746699 -1.0668766336 -0.0006875756
| 14> C 0.6775576188 -1.270017229 -0.0012548625
| 15> H -1.8763719366 -0.2640283208 -2.1504833888
| 16> H -2.2228664487 1.2335770013 -1.2856631683
| 17> H -3.4023602457 -0.0778600808 -1.2797499518
| 18> H -1.8688203244 -1.5150624741 -0.0017776511
| 19> H -1.8736954347 -0.2699148457 2.1502161232
| 20> H -3.4006950484 -0.0805397007 1.2818936146
| 21> H -2.2204351475 1.2301956381 1.2899604613
| 22> H -0.3421107984 1.9425991205 0.00048148
| 23> H 2.0781937193 2.3050198669 0.0015406509
| 24> H 3.6245488282 0.3812437937 0.0010703936
| 25> H 2.7159173323 -1.9151535661 -0.0009936379
| 26> H 0.2879123941 -2.278796333 -0.0020245657
| 27> *
| 28>
| 29>                          ****END OF INPUT****

CARTESIAN COORDINATES (ANGSTROEM)
---------------------------------
  C     -2.339345    0.152981   -1.258669
  C     -1.695078   -0.432911   -0.000476
  C     -2.337612    0.149792    1.260119
  C     -0.204255   -0.197173   -0.000719
  C      0.320874    1.089799    0.000154
  C      1.688029    1.297245    0.000739
  C      2.556596    0.219153    0.000421
  C      2.046575   -1.066877   -0.000688
  C      0.677558   -1.270017   -0.001255
  H     -1.876372   -0.264028   -2.150483
  H     -2.222866    1.233577   -1.285663
  H     -3.402360   -0.077860   -1.279750
  H     -1.868820   -1.515062   -0.001778
  H     -1.873695   -0.269915    2.150216
  H     -3.400695   -0.080540    1.281894
  H     -2.220435    1.230196    1.289960
  H     -0.342111    1.942599    0.000481
  H      2.078194    2.305020    0.001541
  H      3.624549    0.381244    0.001070
  H      2.715917   -1.915154   -0.000994
  H      0.287912   -2.278796   -0.002025

 Total Charge           Charge          ....    0
 Multiplicity           Mult            ....    1
 Number of Electrons    NEL             ....   66
 Basis Dimension        Dim             ....  231

ORBITAL ENERGIES
----------------

  NO   OCC          E(Eh)            E(eV)
   0   2.0000     -10.041259      -273.2366
   1   2.0000     -10.038441      -273.1599
   2   2.0000     -10.031816      -272.9796
   3   2.0000     -10.031106      -272.9603
   4   2.0000     -10.029882      -272.9270
   5   2.0000     -10.029213      -272.9088
   6   2.0000     -10.029075      -272.9050
   7   2.0000     -10.018964      -272.6299
   8   2.0000     -10.018956      -272.6297
   9   2.0000      -0.829011       -22.5585
  10   2.0000      -0.771174       -20.9847
  11   2.0000      -0.713387       -19.4122
  12   2.0000      -0.698097       -18.9962
  13   2.0000      -0.652668       -17.7600
  14   2.0000      -0.588649       -16.0180
  15   2.0000      -0.572159       -15.5692
  16   2.0000      -0.530882       -14.4460
  17   2.0000      -0.480738       -13.0815
  18   2.0000      -0.439425       -11.9574
  19   2.0000      -0.422143       -11.4871
  20   2.0000      -0.403014       -10.9666
  21   2.0000      -0.397020       -10.8035
  22   2.0000      -0.386881       -10.5276
  23   2.0000      -0.384428       -10.4608
  24   2.0000      -0.357874        -9.7383
  25   2.0000      -0.344400        -9.3716
  26   2.0000      -0.335557        -9.1310
  27   2.0000      -0.317942        -8.6516
  28   2.0000      -0.310121        -8.4388
  29   2.0000      -0.295434        -8.0392
  30   2.0000      -0.290447        -7.9035
  31   2.0000      -0.234468        -6.3802
  32   2.0000      -0.224811        -6.1174
  33   0.0000      -0.029859        -0.8125
  34   0.0000      -0.025475        -0.6932
  35   0.0000       0.076242         2.0747
  36   0.0000       0.098050         2.6681
  37   0.0000       0.102861         2.7990

MULLIKEN ATOMIC CHARGES
-----------------------
   0 C :   -0.479219
   1 C :   -0.083784
   2 C :   -0.479257
   3 C :    0.189974
   4 C :   -0.227741
   5 C :   -0.160904
   6 C :   -0.150904
   7 C :   -0.157846
   8 C :   -0.231065
   9 H :    0.155095
  10 H :    0.150683
  11 H :    0.147147
  12 H :    0.144647
  13 H :    0.155077
  14 H :    0.147121
  15 H :    0.150767
  16 H :    0.148908
  17 H :    0.144101
  18 H :    0.145683
  19 H :    0.144508
  20 H :    0.147008
Sum of atomic charges:    0.0000000

LOEWDIN ATOMIC CHARGES
----------------------
   0 C :   -0.400227
   1 C :   -0.222275
   2 C :   -0.400195
   3 C :   -0.084655
   4 C :   -0.159283
   5 C :   -0.161009
   6 C :   -0.173746
   7 C :   -0.162632
   8 C :   -0.162287
   9 H :    0.158683
  10 H :    0.154080
  11 H :    0.152544
  12 H :    0.160651
  13 H :    0.158690
  14 H :    0.152528
  15 H :    0.154098
  16 H :    0.168318
  17 H :    0.166233
  18 H :    0.166141
  19 H :    0.166409
  20 H :    0.167936

  Mayer bond orders larger than 0.100000
B(  0-C ,  1-C ) :   0.9361 B(  0-C ,  9-H ) :   0.9719 B(  0-C , 10-H ) :   0.9755
B(  0-C , 11-H ) :   0.9748 B(  1-C ,  2-C ) :   0.9362 B(  1-C ,  3-C ) :   0.7946
B(  1-C , 12-H ) :   1.0037 B(  2-C , 13-H ) :   0.9719 B(  2-C , 14-H ) :   0.9748
B(  2-C , 15-H ) :   0.9755 B(  3-C ,  4-C ) :   1.3848 B(  3-C ,  8-C ) :   1.4158
B(  4-C ,  5-C ) :   1.4619 B(  4-C , 16-H ) :   0.9423 B(  5-C ,  6-C ) :   1.4247
B(  5-C , 17-H ) :   0.9506 B(  6-C ,  7-C ) :   1.4349 B(  6-C , 18-H ) :   0.9481
B(  7-C ,  8-C ) :   1.4362 B(  7-C , 19-H ) :   0.9483 B(  8-C , 20-H ) :   0.9466

Dispersion correction           -0.007044456
FINAL SINGLE POINT ENERGY      -350.080448097013

DIPOLE MOMENT
-------------

Method             : SCF
Type of density    : Electron Density
Multiplicity       :   1
Irrep              :   0
Energy             :  -350.0803861802170331 Eh
Relativity type    :
Basis              : AO
                                X                 Y                 Z
Electronic contribution:      7.823149247      -0.678076438      -0.003929928
Nuclear contribution   :     -7.975154612       0.648536212       0.004193944
                        -----------------------------------------
Total Dipole Moment    :     -0.152005365      -0.029540226       0.000264017
                        -----------------------------------------
Magnitude (a.u.)       :      0.154849364
Magnitude (Debye)      :      0.393595805

Rotational constants in cm-1:             0.112981             0.036698             0.033687
Rotational constants in MHz :          3387.082001          1100.191794          1009.917016

                             ****ORCA TERMINATED NORMALLY****
TOTAL RUN TIME: 0 days 0 hours 0 minutes 22 seconds 709 msec
