                         Program Version 6.0.1  -  RELEASE   -
|  1> ! r2scan-3c def2/J RI DEFGRID2 scfconv6 printgap
|  2> %output
|  3>     printlevel normal
|  4> end
|  5> * xyz 0 1
|  6> C 2.0749511878 -1.0207542342 -8.3578e-05
|  7> C 2.3288494414 0.3500055873 9.78666e-05
|  8> C 1.295825009 1.2596165122 9.97395e-05
|  9> C -0.0321882219 0.8214121129 -0.0001029491
| 10> C -0.2950366191 -0.5676881142 -5.72078e-05
| 11> C 0.7765537068 -1.4703284347 -5.81583e-05
| 12> C -1.6604521805 -1.0457223049 0.0001539739
| 13> O -2.6520707943 -0.3361545895 -1.79549e-05
| 14> O -1.0101582136 1.7258781073 -4.77627e-05
| 15> H 2.8954249866 -1.7212257772 -0.0001721079
| 16> H 3.3490486457 0.7035691477 3.17151e-05
| 17> H 1.4808284614 2.3221340093 0.0003594633
| 18> H 0.5606792268 -2.5291344819 -5.41094e-05
| 19> H -1.7650984711 -2.1453114829 0.0005407841
| 20> H -1.8755158662 1.2518736412 -0.0002546544
| 21> *
| 22>
| 23>                          ****END OF INPUT****

CARTESIAN COORDINATES (ANGSTROEM)
---------------------------------
  C      2.074951   -1.020754   -0.000084
  C      2.328849    0.350006    0.000098
  C      1.295825    1.259617    0.000100
  C     -0.032188    0.821412   -0.000103
  C     -0.295037   -0.567688   -0.000057
  C      0.776554   -1.470328   -0.000058
  C     -1.660452   -1.045722    0.000154
  O     -2.652071   -0.336155   -0.000018
  O     -1.010158    1.725878   -0.000048
  H      2.895425   -1.721226   -0.000172
  H      3.349049    0.703569    0.000032
  H      1.480828    2.322134    0.000359
  H      0.560679   -2.529134   -0.000054
  H     -1.765098   -2.145311    0.000541
  H     -1.875516    1.251874   -0.000255

 Total Charge           Charge          ....    0
 Multiplicity           Mult            ....    1
 Number of Electrons    NEL             ....   64
 Basis Dimension        Dim             ....  211

ORBITAL ENERGIES
----------------

  NO   OCC          E(Eh)            E(eV)
   0   2.0000     -18.988964      -516.7160
   1   2.0000     -18.964287      -516.0445
   2   2.0000     -10.131420      -275.6899
   3   2.0000     -10.121737      -275.4265
   4   2.0000     -10.062439      -273.8129
   5   2.0000     -10.060802      -273.7683
   6   2.0000     -10.058020      -273.6927
   7   2.0000     -10.047553      -273.4078
   8   2.0000     -10.047248      -273.3995
   9   2.0000      -1.048954       -28.5435
  10   2.0000      -1.021512       -27.7968
  11   2.0000      -0.843393       -22.9499
  12   2.0000      -0.754773       -20.5384
  13   2.0000      -0.728097       -19.8125
  14   2.0000      -0.638012       -17.3612
  15   2.0000      -0.596596       -16.2342
  16   2.0000      -0.580194       -15.7879
  17   2.0000      -0.507253       -13.8031
  18   2.0000      -0.497680       -13.5426
  19   2.0000      -0.454283       -12.3617
  20   2.0000      -0.440410       -11.9842
  21   2.0000      -0.418527       -11.3887
  22   2.0000      -0.414633       -11.2827
  23   2.0000      -0.414242       -11.2721
  24   2.0000      -0.370927       -10.0934
  25   2.0000      -0.370588       -10.0842
  26   2.0000      -0.357822        -9.7368
  27   2.0000      -0.331099        -9.0097
  28   2.0000      -0.327841        -8.9210
  29   2.0000      -0.261832        -7.1248
  30   2.0000      -0.242490        -6.5985
  31   2.0000      -0.223827        -6.0906
  32   0.0000      -0.101394        -2.7591
  33   0.0000      -0.039450        -1.0735
  34   0.0000      -0.001307        -0.0356
  35   0.0000       0.073064         1.9882
  36   0.0000       0.081294         2.2121

MULLIKEN ATOMIC CHARGES
-----------------------
   0 C :   -0.187297
   1 C :   -0.079250
   2 C :   -0.283433
   3 C :    0.320759
   4 C :    0.060442
   5 C :   -0.172430
   6 C :    0.036884
   7 O :   -0.418749
   8 O :   -0.379226
   9 H :    0.149838
  10 H :    0.152511
  11 H :    0.162304
  12 H :    0.152236
  13 H :    0.113486
  14 H :    0.371925
Sum of atomic charges:   -0.0000000

LOEWDIN ATOMIC CHARGES
----------------------
   0 C :   -0.189363
   1 C :   -0.122719
   2 C :   -0.138361
   3 C :    0.234457
   4 C :   -0.104109
   5 C :   -0.120498
   6 C :    0.222691
   7 O :   -0.501081
   8 O :   -0.453265
   9 H :    0.170028
  10 H :    0.172050
  11 H :    0.183531
  12 H :    0.174019
  13 H :    0.165664
  14 H :    0.306957

  Mayer bond orders larger than 0.100000
B(  0-C ,  1-C ) :   1.3527 B(  0-C ,  5-C ) :   1.4841 B(  0-C ,  9-H ) :   0.9470
B(  1-C ,  2-C ) :   1.4243 B(  1-C , 10-H ) :   0.9476 B(  2-C ,  3-C ) :   1.3862
B(  2-C , 11-H ) :   0.9445 B(  3-C ,  4-C ) :   1.3257 B(  3-C ,  8-O ) :   1.1092
B(  4-C ,  5-C ) :   1.2479 B(  4-C ,  6-C ) :   0.9544 B(  4-C , 13-H ) :  -0.1147
B(  5-C , 12-H ) :   0.9291 B(  6-C ,  7-O ) :   1.8191 B(  6-C , 13-H ) :   1.0423
B(  7-O , 14-H ) :   0.1012 B(  8-O , 14-H ) :   0.7592

Dispersion correction           -0.005053133
FINAL SINGLE POINT ENERGY      -420.724127638365

DIPOLE MOMENT
-------------

Method             : SCF
Type of density    : Electron Density
Multiplicity       :   1
Irrep              :   0
Energy             :  -420.7253711368481390 Eh
Relativity type    :
Basis              : AO
                                X                 Y                 Z
Electronic contribution:     -3.318100247       1.378191286      -0.000387590
Nuclear contribution   :      4.303922552      -1.966558117       0.000422228
                        -----------------------------------------
Total Dipole Moment    :      0.985822305      -0.588366831       0.000034638
                        -----------------------------------------
Magnitude (a.u.)       :      1.148051021
Magnitude (Debye)      :      2.918113789

Rotational constants in cm-1:             0.108640             0.050132             0.034303
Rotational constants in MHz :          3256.954349          1502.925777          1028.378981

                             ****ORCA TERMINATED NORMALLY****
TOTAL RUN TIME: 0 days 0 hours 0 minutes 22 seconds 929 msec
