                         Program Version 6.0.1  -  RELEASE   -
|  1> ! r2scan-3c def2/J RI DEFGRID2 scfconv6 printgap
|  2> %output
|  3>     printlevel normal
|  4> end
|  5> * xyz 0 1
|  6> C -0.7178152353 -0.5870731986 -0.2871030944
|  7> C 0.6979431168 -0.6182760957 0.2903976138
|  8> O 1.3723357116 0.5301042325 -0.1878286524
|  9> O -1.4399064249 0.5225070549 0.1744845273
| 10> H -1.2689080426 -1.4752149038 0.027914464
| 11> H -0.6488230757 -0.5742778487 -1.3840073063
| 12> H 1.2068565287 -1.5359267226 -0.0323412337
| 13> H 0.6453411958 -0.6033755251 1.3872842753
| 14> H 2.2676635274 0.5426072121 0.1629080986
| 15> H -0.8926997477 1.3010159886 0.0108059663
| 16> *
| 17>
| 18>                          ****END OF INPUT****

CARTESIAN COORDINATES (ANGSTROEM)
---------------------------------
  C     -0.717815   -0.587073   -0.287103
  C      0.697943   -0.618276    0.290398
  O      1.372336    0.530104   -0.187829
  O     -1.439906    0.522507    0.174485
  H     -1.268908   -1.475215    0.027914
  H     -0.648823   -0.574278   -1.384007
  H      1.206857   -1.535927   -0.032341
  H      0.645341   -0.603376    1.387284
  H      2.267664    0.542607    0.162908
  H     -0.892700    1.301016    0.010806

 Total Charge           Charge          ....    0
 Multiplicity           Mult            ....    1
 Number of Electrons    NEL             ....   34
 Basis Dimension        Dim             ....  116

ORBITAL ENERGIES
----------------

  NO   OCC          E(Eh)            E(eV)
   0   2.0000     -18.961104      -515.9579
   1   2.0000     -18.942982      -515.4647
   2   2.0000     -10.081932      -274.3433
   3   2.0000     -10.075803      -274.1765
   4   2.0000      -1.003633       -27.3103
   5   2.0000      -0.978729       -26.6326
   6   2.0000      -0.704024       -19.1575
   7   2.0000      -0.587606       -15.9896
   8   2.0000      -0.502129       -13.6636
   9   2.0000      -0.467152       -12.7119
  10   2.0000      -0.429175       -11.6784
  11   2.0000      -0.391507       -10.6534
  12   2.0000      -0.378589       -10.3019
  13   2.0000      -0.327528        -8.9125
  14   2.0000      -0.295963        -8.0536
  15   2.0000      -0.250679        -6.8213
  16   2.0000      -0.233731        -6.3601
  17   0.0000       0.046544         1.2665
  18   0.0000       0.095240         2.5916
  19   0.0000       0.111668         3.0386
  20   0.0000       0.136069         3.7026
  21   0.0000       0.148367         4.0373

MULLIKEN ATOMIC CHARGES
-----------------------
   0 C :   -0.132783
   1 C :   -0.110374
   2 O :   -0.447535
   3 O :   -0.425277
   4 H :    0.131212
   5 H :    0.130141
   6 H :    0.116389
   7 H :    0.127425
   8 H :    0.296289
   9 H :    0.314513
Sum of atomic charges:    0.0000000

LOEWDIN ATOMIC CHARGES
----------------------
   0 C :    0.017345
   1 C :    0.009541
   2 O :   -0.628054
   3 O :   -0.598335
   4 H :    0.177549
   5 H :    0.161982
   6 H :    0.158755
   7 H :    0.161395
   8 H :    0.267041
   9 H :    0.272783

  Mayer bond orders larger than 0.100000
B(  0-C ,  1-C ) :   0.9763 B(  0-C ,  3-O ) :   0.9538 B(  0-C ,  4-H ) :   0.9667
B(  0-C ,  5-H ) :   0.9662 B(  1-C ,  2-O ) :   0.9247 B(  1-C ,  6-H ) :   0.9527
B(  1-C ,  7-H ) :   0.9608 B(  2-O ,  8-H ) :   0.9010 B(  3-O ,  9-H ) :   0.8768

Dispersion correction           -0.001571268
FINAL SINGLE POINT ENERGY      -230.210607049216

DIPOLE MOMENT
-------------

Method             : SCF
Type of density    : Electron Density
Multiplicity       :   1
Irrep              :   0
Energy             :  -230.2165730372979624 Eh
Relativity type    :
Basis              : AO
                                X                 Y                 Z
Electronic contribution:     -0.342436616       1.815471314      -0.037479388
Nuclear contribution   :      1.227462981      -2.184557726       0.161696313
                        -----------------------------------------
Total Dipole Moment    :      0.885026366      -0.369086413       0.124216925
                        -----------------------------------------
Magnitude (a.u.)       :      0.966915866
Magnitude (Debye)      :      2.457704815

Rotational constants in cm-1:             0.530066             0.182801             0.153040
Rotational constants in MHz :         15890.964646          5480.223723          4588.036305

                             ****ORCA TERMINATED NORMALLY****
TOTAL RUN TIME: 0 days 0 hours 0 minutes 11 seconds 554 msec
