                         Program Version 6.0.1  -  RELEASE   -
|  1> ! pbe def2-sv(p) def2/J RI DEFGRID1 loosescf d4 GCP(DFT/SV(P)) printgap
|  2> %output
|  3>     printlevel normal
|  4> end
|  5> * xyz 0 1
|  6> C -2.341969479 -0.9510354263 -0.0872807976
|  7> C -1.2008590996 -0.1275065641 0.5840166382
|  8> H -1.5870171921 0.3424523154 1.49761807
|  9> C -0.6499632523 0.9825663424 -0.3326911975
| 10> H -0.5809745733 0.6152538384 -1.3639870816
| 11> C 0.7608514831 1.3380751634 0.1643287687
| 12> H 0.7344011957 1.5224646411 1.2466590863
| 13> C 1.6840559546 0.1335581477 -0.0989419768
| 14> H 1.9919570723 0.1425325801 -1.1573650669
| 15> C 0.8951804347 -1.170974636 0.1297256662
| 16> H 1.5558416711 -1.8934294312 0.6344191743
| 17> O -0.1658040911 -0.9919920149 1.0336240857
| 18> O 0.4695519739 -1.6341015635 -1.1095126981
| 19> O 2.8048873337 0.1431872387 0.7421595715
| 20> O 1.2566678568 2.5224981099 -0.403423398
| 21> O -1.5039493822 2.0917015373 -0.3874889267
| 22> O -2.0430204413 -2.3250585821 -0.1279344404
| 23> H -2.4779192914 -0.638495841 -1.1240006159
| 24> H -3.2816924121 -0.783581338 0.4528358038
| 25> H -0.3048170227 -2.2137364058 -0.9763055011
| 26> H 3.2077104933 1.0193065673 0.69105976
| 27> H 1.0922667151 2.5087962812 -1.3540216607
| 28> H -1.407892599 2.608323452 0.4219377884
| 29> H -1.7705313328 -2.5932359031 0.7605136815
| 30> *
| 31>
| 32>                          ****END OF INPUT****

CARTESIAN COORDINATES (ANGSTROEM)
---------------------------------
  C     -2.341969   -0.951035   -0.087281
  C     -1.200859   -0.127507    0.584017
  H     -1.587017    0.342452    1.497618
  C     -0.649963    0.982566   -0.332691
  H     -0.580975    0.615254   -1.363987
  C      0.760851    1.338075    0.164329
  H      0.734401    1.522465    1.246659
  C      1.684056    0.133558   -0.098942
  H      1.991957    0.142533   -1.157365
  C      0.895180   -1.170975    0.129726
  H      1.555842   -1.893429    0.634419
  O     -0.165804   -0.991992    1.033624
  O      0.469552   -1.634102   -1.109513
  O      2.804887    0.143187    0.742160
  O      1.256668    2.522498   -0.403423
  O     -1.503949    2.091702   -0.387489
  O     -2.043020   -2.325059   -0.127934
  H     -2.477919   -0.638496   -1.124001
  H     -3.281692   -0.783581    0.452836
  H     -0.304817   -2.213736   -0.976306
  H      3.207710    1.019307    0.691060
  H      1.092267    2.508796   -1.354022
  H     -1.407893    2.608323    0.421938
  H     -1.770531   -2.593236    0.760514

 Total Charge           Charge          ....    0
 Multiplicity           Mult            ....    1
 Number of Electrons    NEL             ....   96
 Basis Dimension        Dim             ....  192

ORBITAL ENERGIES
----------------

  NO   OCC          E(Eh)            E(eV)
   0   2.0000     -18.778884      -510.9994
   1   2.0000     -18.774429      -510.8782
   2   2.0000     -18.761052      -510.5142
   3   2.0000     -18.760922      -510.5106
   4   2.0000     -18.751242      -510.2472
   5   2.0000     -18.750157      -510.2177
   6   2.0000      -9.983861      -271.6747
   7   2.0000      -9.952850      -270.8308
   8   2.0000      -9.948545      -270.7137
   9   2.0000      -9.945720      -270.6368
  10   2.0000      -9.942775      -270.5567
  11   2.0000      -9.938138      -270.4305
  12   2.0000      -0.991122       -26.9698
  13   2.0000      -0.953501       -25.9461
  14   2.0000      -0.944119       -25.6908
  15   2.0000      -0.934351       -25.4250
  16   2.0000      -0.921491       -25.0750
  17   2.0000      -0.908195       -24.7132
  18   2.0000      -0.709012       -19.2932
  19   2.0000      -0.693215       -18.8633
  20   2.0000      -0.627613       -17.0782
  21   2.0000      -0.588844       -16.0233
  22   2.0000      -0.576788       -15.6952
  23   2.0000      -0.528381       -14.3780
  24   2.0000      -0.506357       -13.7787
  25   2.0000      -0.496366       -13.5068
  26   2.0000      -0.478791       -13.0286
  27   2.0000      -0.459686       -12.5087
  28   2.0000      -0.443953       -12.0806
  29   2.0000      -0.431007       -11.7283
  30   2.0000      -0.416457       -11.3324
  31   2.0000      -0.403233       -10.9725
  32   2.0000      -0.395605       -10.7650
  33   2.0000      -0.386651       -10.5213
  34   2.0000      -0.370028       -10.0690
  35   2.0000      -0.354425        -9.6444
  36   2.0000      -0.343575        -9.3492
  37   2.0000      -0.320701        -8.7267
  38   2.0000      -0.311946        -8.4885
  39   2.0000      -0.301095        -8.1932
  40   2.0000      -0.283090        -7.7033
  41   2.0000      -0.276790        -7.5318
  42   2.0000      -0.254666        -6.9298
  43   2.0000      -0.250010        -6.8031
  44   2.0000      -0.240495        -6.5442
  45   2.0000      -0.232650        -6.3307
  46   2.0000      -0.217166        -5.9094
  47   2.0000      -0.205318        -5.5870
  48   0.0000       0.012708         0.3458
  49   0.0000       0.022463         0.6112
  50   0.0000       0.027968         0.7610
  51   0.0000       0.046894         1.2760
  52   0.0000       0.061572         1.6754

MULLIKEN ATOMIC CHARGES
-----------------------
   0 C :    0.057971
   1 C :    0.048366
   2 H :    0.059048
   3 C :   -0.010092
   4 H :    0.074128
   5 C :   -0.006169
   6 H :    0.057385
   7 C :    0.116221
   8 H :    0.058356
   9 C :    0.162344
  10 H :    0.070583
  11 O :   -0.321335
  12 O :   -0.419190
  13 O :   -0.410078
  14 O :   -0.410150
  15 O :   -0.402468
  16 O :   -0.433454
  17 H :    0.102621
  18 H :    0.086830
  19 H :    0.301702
  20 H :    0.304652
  21 H :    0.303571
  22 H :    0.301156
  23 H :    0.308004
Sum of atomic charges:   -0.0000000

LOEWDIN ATOMIC CHARGES
----------------------
   0 C :   -0.132814
   1 C :   -0.078603
   2 H :    0.111513
   3 C :   -0.093277
   4 H :    0.114937
   5 C :   -0.090620
   6 H :    0.113496
   7 C :   -0.082145
   8 H :    0.104981
   9 C :    0.006222
  10 H :    0.102191
  11 O :   -0.144239
  12 O :   -0.321790
  13 O :   -0.316222
  14 O :   -0.313236
  15 O :   -0.308143
  16 O :   -0.314517
  17 H :    0.119916
  18 H :    0.105777
  19 H :    0.272057
  20 H :    0.287486
  21 H :    0.287802
  22 H :    0.286104
  23 H :    0.283126

  Mayer bond orders larger than 0.100000
B(  0-C ,  1-C ) :   1.0118 B(  0-C , 16-O ) :   1.0405 B(  0-C , 17-H ) :   0.9276
B(  0-C , 18-H ) :   0.9227 B(  1-C ,  2-H ) :   0.8864 B(  1-C ,  3-C ) :   0.9681
B(  1-C , 11-O ) :   1.0228 B(  3-C ,  4-H ) :   0.8665 B(  3-C ,  5-C ) :   1.0389
B(  3-C , 15-O ) :   1.0578 B(  5-C ,  6-H ) :   0.8476 B(  5-C ,  7-C ) :   1.0203
B(  5-C , 14-O ) :   1.0628 B(  7-C ,  8-H ) :   0.8776 B(  7-C ,  9-C ) :   0.9692
B(  7-C , 13-O ) :   1.0929 B(  9-C , 10-H ) :   0.8885 B(  9-C , 11-O ) :   1.0387
B(  9-C , 12-O ) :   1.1042 B( 12-O , 19-H ) :   0.7768 B( 13-O , 20-H ) :   0.8437
B( 14-O , 21-H ) :   0.8481 B( 15-O , 22-H ) :   0.8477 B( 16-O , 19-H ) :   0.1342
B( 16-O , 23-H ) :   0.8279

Dispersion correction           -0.025159329
FINAL SINGLE POINT ENERGY      -685.689399732589

DIPOLE MOMENT
-------------

Method             : SCF
Type of density    : Electron Density
Multiplicity       :   1
Irrep              :   0
Energy             :  -685.8230421712559064 Eh
Relativity type    :
Basis              : AO
                                X                 Y                 Z
Electronic contribution:      2.211197558      -0.180310031       0.638096637
Nuclear contribution   :     -2.641647921       0.594416181      -0.257644917
                        -----------------------------------------
Total Dipole Moment    :     -0.430450363       0.414106150       0.380451720
                        -----------------------------------------
Magnitude (a.u.)       :      0.708177188
Magnitude (Debye)      :      1.800043360

Rotational constants in cm-1:             0.043325             0.028087             0.019717
Rotational constants in MHz :          1298.840318           842.037412           591.100468

                             ****ORCA TERMINATED NORMALLY****
TOTAL RUN TIME: 0 days 0 hours 0 minutes 33 seconds 456 msec
