                         Program Version 6.0.1  -  RELEASE   -
|  1> ! pbe def2-sv(p) def2/J RI DEFGRID1 loosescf d4 GCP(DFT/SV(P)) printgap
|  2> %output
|  3>     printlevel normal
|  4> end
|  5> * xyz 0 1
|  6> C -1.8162136325 -0.9921897725 -0.8238114316
|  7> C -1.3083977898 -0.1721607691 0.3811021919
|  8> H -2.1274305518 -0.0884008103 1.104409991
|  9> C -0.8388284715 1.2406898446 -0.0338594602
| 10> H -1.0487612039 1.4087605966 -1.0964931546
| 11> C 0.6778356112 1.3706017152 0.1844312751
| 12> H 0.8823679604 1.448668158 1.2666716477
| 13> C 1.376607292 0.1203489488 -0.3531585839
| 14> H 1.087603344 -0.0127519573 -1.4090188786
| 15> C 0.9024834875 -1.0926447499 0.4733635415
| 16> H 1.6330978087 -1.2609375966 1.280128577
| 17> O -0.3026771969 -0.8571995205 1.1213398118
| 18> O 0.7871513042 -2.2495526371 -0.3194964446
| 19> O 2.7712029987 0.2092008928 -0.245137507
| 20> O 1.2025313858 2.492671412 -0.483545735
| 21> O -1.5224501333 2.2731616638 0.6334955211
| 22> O -2.1247075518 -2.3039071323 -0.4661797906
| 23> H -1.0659812352 -0.9732165477 -1.6271034411
| 24> H -2.7385591513 -0.5363392733 -1.1912589331
| 25> H 1.6559409245 -2.4720366238 -0.6698215385
| 26> H 3.0222369884 1.0975835764 -0.5316818443
| 27> H 0.5947510289 3.2295317568 -0.3451068731
| 28> H -1.4669250636 2.1246636988 1.5856188672
| 29> H -1.3084803384 -2.7066897125 -0.1347624584
| 30> *
| 31>
| 32>                          ****END OF INPUT****

CARTESIAN COORDINATES (ANGSTROEM)
---------------------------------
  C     -1.816214   -0.992190   -0.823811
  C     -1.308398   -0.172161    0.381102
  H     -2.127431   -0.088401    1.104410
  C     -0.838828    1.240690   -0.033859
  H     -1.048761    1.408761   -1.096493
  C      0.677836    1.370602    0.184431
  H      0.882368    1.448668    1.266672
  C      1.376607    0.120349   -0.353159
  H      1.087603   -0.012752   -1.409019
  C      0.902483   -1.092645    0.473364
  H      1.633098   -1.260938    1.280129
  O     -0.302677   -0.857200    1.121340
  O      0.787151   -2.249553   -0.319496
  O      2.771203    0.209201   -0.245138
  O      1.202531    2.492671   -0.483546
  O     -1.522450    2.273162    0.633496
  O     -2.124708   -2.303907   -0.466180
  H     -1.065981   -0.973217   -1.627103
  H     -2.738559   -0.536339   -1.191259
  H      1.655941   -2.472037   -0.669822
  H      3.022237    1.097584   -0.531682
  H      0.594751    3.229532   -0.345107
  H     -1.466925    2.124664    1.585619
  H     -1.308480   -2.706690   -0.134762

 Total Charge           Charge          ....    0
 Multiplicity           Mult            ....    1
 Number of Electrons    NEL             ....   96
 Basis Dimension        Dim             ....  192

ORBITAL ENERGIES
----------------

  NO   OCC          E(Eh)            E(eV)
   0   2.0000     -18.780569      -511.0453
   1   2.0000     -18.773326      -510.8482
   2   2.0000     -18.767954      -510.7020
   3   2.0000     -18.766509      -510.6627
   4   2.0000     -18.759056      -510.4599
   5   2.0000     -18.732471      -509.7365
   6   2.0000      -9.995966      -272.0041
   7   2.0000      -9.952928      -270.8329
   8   2.0000      -9.950889      -270.7775
   9   2.0000      -9.948777      -270.7200
  10   2.0000      -9.948215      -270.7047
  11   2.0000      -9.929604      -270.1983
  12   2.0000      -0.993741       -27.0411
  13   2.0000      -0.958456       -26.0809
  14   2.0000      -0.944769       -25.7085
  15   2.0000      -0.928262       -25.2593
  16   2.0000      -0.925669       -25.1887
  17   2.0000      -0.911043       -24.7908
  18   2.0000      -0.713474       -19.4146
  19   2.0000      -0.696393       -18.9498
  20   2.0000      -0.620762       -16.8918
  21   2.0000      -0.597736       -16.2652
  22   2.0000      -0.570641       -15.5279
  23   2.0000      -0.524250       -14.2656
  24   2.0000      -0.516881       -14.0650
  25   2.0000      -0.500498       -13.6192
  26   2.0000      -0.483578       -13.1588
  27   2.0000      -0.459328       -12.4989
  28   2.0000      -0.445555       -12.1242
  29   2.0000      -0.436675       -11.8825
  30   2.0000      -0.420957       -11.4548
  31   2.0000      -0.407315       -11.0836
  32   2.0000      -0.403790       -10.9877
  33   2.0000      -0.383178       -10.4268
  34   2.0000      -0.367317        -9.9952
  35   2.0000      -0.356222        -9.6933
  36   2.0000      -0.330462        -8.9923
  37   2.0000      -0.324903        -8.8411
  38   2.0000      -0.315095        -8.5742
  39   2.0000      -0.305539        -8.3141
  40   2.0000      -0.286833        -7.8051
  41   2.0000      -0.275764        -7.5039
  42   2.0000      -0.258177        -7.0254
  43   2.0000      -0.253757        -6.9051
  44   2.0000      -0.236327        -6.4308
  45   2.0000      -0.226935        -6.1752
  46   2.0000      -0.224600        -6.1117
  47   2.0000      -0.201157        -5.4738
  48   0.0000       0.013258         0.3608
  49   0.0000       0.024695         0.6720
  50   0.0000       0.026919         0.7325
  51   0.0000       0.046491         1.2651
  52   0.0000       0.058590         1.5943

MULLIKEN ATOMIC CHARGES
-----------------------
   0 C :    0.025318
   1 C :    0.019240
   2 H :    0.069582
   3 C :    0.036125
   4 H :    0.072097
   5 C :    0.055011
   6 H :    0.049461
   7 C :   -0.001843
   8 H :    0.061776
   9 C :    0.235549
  10 H :    0.074433
  11 O :   -0.298783
  12 O :   -0.418565
  13 O :   -0.419687
  14 O :   -0.425137
  15 O :   -0.417576
  16 O :   -0.437037
  17 H :    0.078748
  18 H :    0.094361
  19 H :    0.314584
  20 H :    0.314013
  21 H :    0.309410
  22 H :    0.303494
  23 H :    0.305425
Sum of atomic charges:    0.0000000

LOEWDIN ATOMIC CHARGES
----------------------
   0 C :   -0.142608
   1 C :   -0.075920
   2 H :    0.119575
   3 C :   -0.080753
   4 H :    0.118536
   5 C :   -0.082846
   6 H :    0.101985
   7 C :   -0.093064
   8 H :    0.102840
   9 C :    0.010232
  10 H :    0.107178
  11 O :   -0.124589
  12 O :   -0.320497
  13 O :   -0.320857
  14 O :   -0.326022
  15 O :   -0.312787
  16 O :   -0.331130
  17 H :    0.094127
  18 H :    0.119370
  19 H :    0.298559
  20 H :    0.289839
  21 H :    0.289923
  22 H :    0.286175
  23 H :    0.272734

  Mayer bond orders larger than 0.100000
B(  0-C ,  1-C ) :   1.0304 B(  0-C , 16-O ) :   1.0972 B(  0-C , 17-H ) :   0.9030
B(  0-C , 18-H ) :   0.9129 B(  1-C ,  2-H ) :   0.8858 B(  1-C ,  3-C ) :   0.9579
B(  1-C , 11-O ) :   1.0284 B(  3-C ,  4-H ) :   0.8764 B(  3-C ,  5-C ) :   1.0126
B(  3-C , 15-O ) :   1.0174 B(  5-C ,  6-H ) :   0.8633 B(  5-C ,  7-C ) :   1.0220
B(  5-C , 14-O ) :   1.0753 B(  7-C ,  8-H ) :   0.8691 B(  7-C ,  9-C ) :   0.9854
B(  7-C , 13-O ) :   1.0840 B(  9-C , 10-H ) :   0.8899 B(  9-C , 11-O ) :   1.0870
B(  9-C , 12-O ) :   1.0260 B( 12-O , 19-H ) :   0.8364 B( 13-O , 20-H ) :   0.8322
B( 14-O , 21-H ) :   0.8324 B( 15-O , 22-H ) :   0.8496 B( 16-O , 23-H ) :   0.8236

Dispersion correction           -0.024991142
FINAL SINGLE POINT ENERGY      -685.693408353007

DIPOLE MOMENT
-------------

Method             : SCF
Type of density    : Electron Density
Multiplicity       :   1
Irrep              :   0
Energy             :  -685.8254592831608534 Eh
Relativity type    :
Basis              : AO
                                X                 Y                 Z
Electronic contribution:      1.476160898      -0.441399034       1.775555029
Nuclear contribution   :     -0.813705263       1.174548062      -1.655514433
                        -----------------------------------------
Total Dipole Moment    :      0.662455635       0.733149028       0.120040597
                        -----------------------------------------
Magnitude (a.u.)       :      0.995371644
Magnitude (Debye)      :      2.530033655

Rotational constants in cm-1:             0.039571             0.029221             0.019234
Rotational constants in MHz :          1186.318567           876.032312           576.606373

                             ****ORCA TERMINATED NORMALLY****
TOTAL RUN TIME: 0 days 0 hours 0 minutes 9 seconds 323 msec
