                         Program Version 6.0.1  -  RELEASE   -
|  1> ! pbe def2-sv(p) def2/J RI DEFGRID1 loosescf d4 GCP(DFT/SV(P)) printgap
|  2> %output
|  3>     printlevel normal
|  4> end
|  5> * xyz 0 1
|  6> C -0.1398075351 -1.354316966 4.254e-07
|  7> C 1.2271327543 -1.1954357471 -5.3387e-06
|  8> C 1.7802185676 0.0864977046 -1.3135e-06
|  9> C 0.9437578556 1.2020492254 1.18e-08
| 10> C -0.4234162363 1.036823602 -5.874e-07
| 11> C -0.9844685453 -0.2419404163 6.1105e-06
| 12> C -2.4376079835 -0.402884457 1.99323e-05
| 13> O -3.2423643534 0.4957471702 -1.1556e-05
| 14> O 3.1270249893 0.1971540154 3.63e-07
| 15> H -0.5661218344 -2.3469276816 -5.8235e-06
| 16> H 1.8938555772 -2.0428989076 -1.31987e-05
| 17> H 1.3751751467 2.1944526087 3.9767e-06
| 18> H -1.08548506 1.8895579654 5.985e-06
| 19> H -2.7678938747 -1.4617547625 -5.0085e-05
| 20> H 3.3888172994 1.1266765437 7.5389e-06
| 21> *
| 22>
| 23>                          ****END OF INPUT****

CARTESIAN COORDINATES (ANGSTROEM)
---------------------------------
  C     -0.139808   -1.354317    0.000000
  C      1.227133   -1.195436   -0.000005
  C      1.780219    0.086498   -0.000001
  C      0.943758    1.202049    0.000000
  C     -0.423416    1.036824   -0.000001
  C     -0.984469   -0.241940    0.000006
  C     -2.437608   -0.402884    0.000020
  O     -3.242364    0.495747   -0.000012
  O      3.127025    0.197154    0.000000
  H     -0.566122   -2.346928   -0.000006
  H      1.893856   -2.042899   -0.000013
  H      1.375175    2.194453    0.000004
  H     -1.085485    1.889558    0.000006
  H     -2.767894   -1.461755   -0.000050
  H      3.388817    1.126677    0.000008

 Total Charge           Charge          ....    0
 Multiplicity           Mult            ....    1
 Number of Electrons    NEL             ....   64
 Basis Dimension        Dim             ....  138

ORBITAL ENERGIES
----------------

  NO   OCC          E(Eh)            E(eV)
   0   2.0000     -18.807695      -511.7834
   1   2.0000     -18.741365      -509.9785
   2   2.0000      -9.977381      -271.4983
   3   2.0000      -9.962916      -271.1047
   4   2.0000      -9.913534      -269.7610
   5   2.0000      -9.910676      -269.6832
   6   2.0000      -9.909777      -269.6587
   7   2.0000      -9.904868      -269.5252
   8   2.0000      -9.902288      -269.4550
   9   2.0000      -0.990331       -26.9483
  10   2.0000      -0.937410       -25.5082
  11   2.0000      -0.790901       -21.5215
  12   2.0000      -0.693830       -18.8801
  13   2.0000      -0.691830       -18.8256
  14   2.0000      -0.596019       -16.2185
  15   2.0000      -0.575906       -15.6712
  16   2.0000      -0.517542       -14.0830
  17   2.0000      -0.513769       -13.9804
  18   2.0000      -0.463884       -12.6229
  19   2.0000      -0.423170       -11.5150
  20   2.0000      -0.404762       -11.0141
  21   2.0000      -0.393165       -10.6986
  22   2.0000      -0.388558       -10.5732
  23   2.0000      -0.382675       -10.4131
  24   2.0000      -0.357638        -9.7318
  25   2.0000      -0.353755        -9.6262
  26   2.0000      -0.343233        -9.3398
  27   2.0000      -0.309559        -8.4235
  28   2.0000      -0.305776        -8.3206
  29   2.0000      -0.249026        -6.7763
  30   2.0000      -0.216558        -5.8929
  31   2.0000      -0.201596        -5.4857
  32   0.0000      -0.084524        -2.3000
  33   0.0000      -0.051072        -1.3897
  34   0.0000       0.008237         0.2241
  35   0.0000       0.010965         0.2984
  36   0.0000       0.046279         1.2593

MULLIKEN ATOMIC CHARGES
-----------------------
   0 C :   -0.098192
   1 C :   -0.110959
   2 C :    0.241954
   3 C :   -0.146299
   4 C :   -0.101333
   5 C :    0.092506
   6 C :    0.032599
   7 O :   -0.161766
   8 O :   -0.313672
   9 H :    0.055973
  10 H :    0.054745
  11 H :    0.039787
  12 H :    0.064014
  13 H :    0.028091
  14 H :    0.322552
Sum of atomic charges:    0.0000000

LOEWDIN ATOMIC CHARGES
----------------------
   0 C :   -0.087755
   1 C :   -0.145483
   2 C :    0.036770
   3 C :   -0.168384
   4 C :   -0.072606
   5 C :   -0.116417
   6 C :   -0.004320
   7 O :   -0.128998
   8 O :   -0.213844
   9 H :    0.129157
  10 H :    0.134883
  11 H :    0.124622
  12 H :    0.135191
  13 H :    0.074882
  14 H :    0.302301

  Mayer bond orders larger than 0.100000
B(  0-C ,  1-C ) :   1.3869 B(  0-C ,  5-C ) :   1.2959 B(  0-C ,  9-H ) :   0.9600
B(  1-C ,  2-C ) :   1.3392 B(  1-C , 10-H ) :   0.9660 B(  2-C ,  3-C ) :   1.2771
B(  2-C ,  8-O ) :   1.2150 B(  3-C ,  4-C ) :   1.3789 B(  3-C , 11-H ) :   0.9602
B(  4-C ,  5-C ) :   1.3322 B(  4-C , 12-H ) :   0.9568 B(  5-C ,  6-C ) :   1.0046
B(  6-C ,  7-O ) :   2.1394 B(  6-C , 13-H ) :   0.9126 B(  8-O , 14-H ) :   0.8390

Dispersion correction           -0.015444110
FINAL SINGLE POINT ENERGY      -419.927876425005

DIPOLE MOMENT
-------------

Method             : SCF
Type of density    : Electron Density
Multiplicity       :   1
Irrep              :   0
Energy             :  -419.9742506729941738 Eh
Relativity type    :
Basis              : AO
                                X                 Y                 Z
Electronic contribution:     -0.691119073       0.707931587       0.000061543
Nuclear contribution   :      2.098246308      -0.591008522      -0.000048582
                        -----------------------------------------
Total Dipole Moment    :      1.407127235       0.116923066       0.000012962
                        -----------------------------------------
Magnitude (a.u.)       :      1.411976650
Magnitude (Debye)      :      3.588959425

Rotational constants in cm-1:             0.171311             0.033500             0.028020
Rotational constants in MHz :          5135.789278          1004.296919           840.030121

                             ****ORCA TERMINATED NORMALLY****
TOTAL RUN TIME: 0 days 0 hours 0 minutes 11 seconds 478 msec
