                         Program Version 6.0.1  -  RELEASE   -
|  1> ! pbe def2-sv(p) def2/J RI DEFGRID1 loosescf d4 GCP(DFT/SV(P)) printgap
|  2> %output
|  3>     printlevel normal
|  4> end
|  5> * xyz 0 1
|  6> C -2.6552671467 -0.5611987747 0.7708866591
|  7> C -1.8742366675 -0.538323071 -0.5447337344
|  8> C -0.4043051559 -0.3320832534 -0.2924029309
|  9> C 0.415847745 -1.4536763533 -0.2196704797
| 10> C 1.7686622319 -1.3479995718 0.0378693052
| 11> C 2.3286501742 -0.0967622512 0.2286307849
| 12> C 1.5242692416 1.0235110872 0.1622634682
| 13> C 0.1589469594 0.928647333 -0.0907721388
| 14> C -0.6276890122 2.208216563 -0.1402440299
| 15> H -3.7142363559 -0.725624549 0.5830865563
| 16> H -2.5388639799 0.3783389869 1.3057691112
| 17> H -2.2878559022 -1.361511134 1.4095020538
| 18> H -2.2695364612 0.2430569438 -1.1958914593
| 19> H -2.0168424693 -1.492899023 -1.0557994401
| 20> H -0.0214034097 -2.4309177984 -0.3718631533
| 21> H 2.3827548729 -2.2352236997 0.0877180486
| 22> H 3.3853062156 0.0045799966 0.428803592
| 23> H 1.9579971601 2.0026768098 0.3123882487
| 24> H -0.2785254499 2.8244459835 -0.9691095072
| 25> H -1.692013456 2.0419609492 -0.2622418947
| 26> H -0.4725354029 2.7730292801 0.7783840088
| 27> *
| 28>
| 29>                          ****END OF INPUT****

CARTESIAN COORDINATES (ANGSTROEM)
---------------------------------
  C     -2.655267   -0.561199    0.770887
  C     -1.874237   -0.538323   -0.544734
  C     -0.404305   -0.332083   -0.292403
  C      0.415848   -1.453676   -0.219670
  C      1.768662   -1.348000    0.037869
  C      2.328650   -0.096762    0.228631
  C      1.524269    1.023511    0.162263
  C      0.158947    0.928647   -0.090772
  C     -0.627689    2.208217   -0.140244
  H     -3.714236   -0.725625    0.583087
  H     -2.538864    0.378339    1.305769
  H     -2.287856   -1.361511    1.409502
  H     -2.269536    0.243057   -1.195891
  H     -2.016842   -1.492899   -1.055799
  H     -0.021403   -2.430918   -0.371863
  H      2.382755   -2.235224    0.087718
  H      3.385306    0.004580    0.428804
  H      1.957997    2.002677    0.312388
  H     -0.278525    2.824446   -0.969110
  H     -1.692013    2.041961   -0.262242
  H     -0.472535    2.773029    0.778384

 Total Charge           Charge          ....    0
 Multiplicity           Mult            ....    1
 Number of Electrons    NEL             ....   66
 Basis Dimension        Dim             ....  150

ORBITAL ENERGIES
----------------

  NO   OCC          E(Eh)            E(eV)
   0   2.0000      -9.897338      -269.3203
   1   2.0000      -9.895281      -269.2643
   2   2.0000      -9.889070      -269.0953
   3   2.0000      -9.882740      -268.9230
   4   2.0000      -9.882262      -268.9100
   5   2.0000      -9.881842      -268.8986
   6   2.0000      -9.881727      -268.8955
   7   2.0000      -9.881536      -268.8903
   8   2.0000      -9.877726      -268.7866
   9   2.0000      -0.776560       -21.1313
  10   2.0000      -0.708132       -19.2692
  11   2.0000      -0.689257       -18.7556
  12   2.0000      -0.645783       -17.5727
  13   2.0000      -0.610179       -16.6038
  14   2.0000      -0.560666       -15.2565
  15   2.0000      -0.530633       -14.4393
  16   2.0000      -0.502382       -13.6705
  17   2.0000      -0.447837       -12.1863
  18   2.0000      -0.428285       -11.6542
  19   2.0000      -0.399426       -10.8689
  20   2.0000      -0.381614       -10.3842
  21   2.0000      -0.377034       -10.2596
  22   2.0000      -0.370369       -10.0783
  23   2.0000      -0.359170        -9.7735
  24   2.0000      -0.347168        -9.4469
  25   2.0000      -0.337934        -9.1957
  26   2.0000      -0.325034        -8.8446
  27   2.0000      -0.307424        -8.3654
  28   2.0000      -0.305489        -8.3128
  29   2.0000      -0.287477        -7.8227
  30   2.0000      -0.279666        -7.6101
  31   2.0000      -0.217091        -5.9073
  32   2.0000      -0.210485        -5.7276
  33   0.0000      -0.029757        -0.8097
  34   0.0000      -0.024867        -0.6767
  35   0.0000       0.040664         1.1065
  36   0.0000       0.054041         1.4705
  37   0.0000       0.063551         1.7293

MULLIKEN ATOMIC CHARGES
-----------------------
   0 C :   -0.268584
   1 C :   -0.153117
   2 C :    0.023086
   3 C :   -0.133594
   4 C :   -0.043101
   5 C :   -0.040482
   6 C :   -0.120658
   7 C :   -0.012967
   8 C :   -0.233167
   9 H :    0.104488
  10 H :    0.104497
  11 H :    0.101333
  12 H :    0.095108
  13 H :    0.083451
  14 H :    0.033230
  15 H :    0.045981
  16 H :    0.047582
  17 H :    0.030626
  18 H :    0.115711
  19 H :    0.107730
  20 H :    0.112849
Sum of atomic charges:    0.0000000

LOEWDIN ATOMIC CHARGES
----------------------
   0 C :   -0.333830
   1 C :   -0.219548
   2 C :   -0.039657
   3 C :   -0.122997
   4 C :   -0.129424
   5 C :   -0.127685
   6 C :   -0.121698
   7 C :   -0.046943
   8 C :   -0.326891
   9 H :    0.118409
  10 H :    0.118346
  11 H :    0.120962
  12 H :    0.120533
  13 H :    0.121490
  14 H :    0.119105
  15 H :    0.121390
  16 H :    0.121410
  17 H :    0.118882
  18 H :    0.133381
  19 H :    0.122605
  20 H :    0.132158

  Mayer bond orders larger than 0.100000
B(  0-C ,  1-C ) :   1.1474 B(  0-C ,  9-H ) :   0.9486 B(  0-C , 10-H ) :   0.9537
B(  0-C , 11-H ) :   0.9519 B(  1-C ,  2-C ) :   1.0792 B(  1-C , 12-H ) :   0.9000
B(  1-C , 13-H ) :   0.9054 B(  2-C ,  3-C ) :   1.3798 B(  2-C ,  7-C ) :   1.4317
B(  3-C ,  4-C ) :   1.3781 B(  3-C , 14-H ) :   0.9571 B(  4-C ,  5-C ) :   1.3571
B(  4-C , 15-H ) :   0.9650 B(  5-C ,  6-C ) :   1.3820 B(  5-C , 16-H ) :   0.9651
B(  6-C ,  7-C ) :   1.3774 B(  6-C , 17-H ) :   0.9648 B(  7-C ,  8-C ) :   1.1148
B(  8-C , 18-H ) :   0.9348 B(  8-C , 19-H ) :   0.9267 B(  8-C , 20-H ) :   0.9354

Dispersion correction           -0.021511217
FINAL SINGLE POINT ENERGY      -349.370321551780

DIPOLE MOMENT
-------------

Method             : SCF
Type of density    : Electron Density
Multiplicity       :   1
Irrep              :   0
Energy             :  -349.4293508971762776 Eh
Relativity type    :
Basis              : AO
                                X                 Y                 Z
Electronic contribution:      6.903742132      -1.772155909      -0.990719267
Nuclear contribution   :     -7.097941709       1.896891916       0.985775430
                        -----------------------------------------
Total Dipole Moment    :     -0.194199577       0.124736006      -0.004943838
                        -----------------------------------------
Magnitude (a.u.)       :      0.230861405
Magnitude (Debye)      :      0.586803058

Rotational constants in cm-1:             0.084489             0.048414             0.033502
Rotational constants in MHz :          2532.924546          1451.412407          1004.378441

                             ****ORCA TERMINATED NORMALLY****
TOTAL RUN TIME: 0 days 0 hours 0 minutes 16 seconds 274 msec
