                         Program Version 6.0.1  -  RELEASE   -
|  1> ! pbe def2-sv(p) def2/J RI DEFGRID1 loosescf d4 GCP(DFT/SV(P)) printgap
|  2> %output
|  3>     printlevel normal
|  4> end
|  5> * xyz 0 1
|  6> C 2.8634188494 -0.7326800717 -0.1142027858
|  7> C 1.9748713367 0.4894487344 0.0875496045
|  8> C 0.4972455729 0.2123825623 0.0458962627
|  9> C -0.0597009774 -1.0460168659 0.2359996628
| 10> C -1.4374720762 -1.1940248467 0.1937257908
| 11> C -2.2172739259 -0.0730072764 -0.0355991462
| 12> N -1.7042812327 1.1326348359 -0.217293593
| 13> C -0.3927273728 1.2627430547 -0.1779531196
| 14> H 2.6015524613 -1.2493355214 -1.0351761404
| 15> H 2.7716288922 -1.427973575 0.7168377651
| 16> H 3.9043361007 -0.4239096906 -0.1788101673
| 17> H 2.2045859393 1.2328781488 -0.6805831527
| 18> H 2.2095359971 0.9477648294 1.0541264864
| 19> H 0.5659119227 -1.9074984718 0.4146134702
| 20> H -1.8928846955 -2.1622161493 0.3365992976
| 21> H -3.2967586953 -0.1346268353 -0.0776512846
| 22> H -0.021864578 2.2687538135 -0.3356677933
| 23> *
| 24>
| 25>                          ****END OF INPUT****

CARTESIAN COORDINATES (ANGSTROEM)
---------------------------------
  C      2.863419   -0.732680   -0.114203
  C      1.974871    0.489449    0.087550
  C      0.497246    0.212383    0.045896
  C     -0.059701   -1.046017    0.236000
  C     -1.437472   -1.194025    0.193726
  C     -2.217274   -0.073007   -0.035599
  N     -1.704281    1.132635   -0.217294
  C     -0.392727    1.262743   -0.177953
  H      2.601552   -1.249336   -1.035176
  H      2.771629   -1.427974    0.716838
  H      3.904336   -0.423910   -0.178810
  H      2.204586    1.232878   -0.680583
  H      2.209536    0.947765    1.054126
  H      0.565912   -1.907498    0.414613
  H     -1.892885   -2.162216    0.336599
  H     -3.296759   -0.134627   -0.077651
  H     -0.021865    2.268754   -0.335668

 Total Charge           Charge          ....    0
 Multiplicity           Mult            ....    1
 Number of Electrons    NEL             ....   58
 Basis Dimension        Dim             ....  130

ORBITAL ENERGIES
----------------

  NO   OCC          E(Eh)            E(eV)
   0   2.0000     -13.975190      -380.2842
   1   2.0000      -9.915856      -269.8242
   2   2.0000      -9.915291      -269.8088
   3   2.0000      -9.910307      -269.6732
   4   2.0000      -9.906646      -269.5736
   5   2.0000      -9.901872      -269.4436
   6   2.0000      -9.899137      -269.3692
   7   2.0000      -9.887268      -269.0462
   8   2.0000      -0.855068       -23.2676
   9   2.0000      -0.743108       -20.2210
  10   2.0000      -0.702647       -19.1200
  11   2.0000      -0.664331       -18.0774
  12   2.0000      -0.586876       -15.9697
  13   2.0000      -0.562837       -15.3156
  14   2.0000      -0.526569       -14.3287
  15   2.0000      -0.469677       -12.7806
  16   2.0000      -0.440351       -11.9825
  17   2.0000      -0.415697       -11.3117
  18   2.0000      -0.408367       -11.1122
  19   2.0000      -0.384184       -10.4542
  20   2.0000      -0.358788        -9.7631
  21   2.0000      -0.356572        -9.7028
  22   2.0000      -0.339135        -9.2283
  23   2.0000      -0.331703        -9.0261
  24   2.0000      -0.318198        -8.6586
  25   2.0000      -0.305944        -8.3251
  26   2.0000      -0.258310        -7.0290
  27   2.0000      -0.229512        -6.2454
  28   2.0000      -0.198326        -5.3967
  29   0.0000      -0.050866        -1.3841
  30   0.0000      -0.042282        -1.1505
  31   0.0000       0.038513         1.0480
  32   0.0000       0.055144         1.5005
  33   0.0000       0.071153         1.9362

MULLIKEN ATOMIC CHARGES
-----------------------
   0 C :   -0.281198
   1 C :   -0.142829
   2 C :    0.001173
   3 C :   -0.075031
   4 C :   -0.064484
   5 C :   -0.060464
   6 N :   -0.048544
   7 C :   -0.105130
   8 H :    0.110139
   9 H :    0.112773
  10 H :    0.108776
  11 H :    0.099392
  12 H :    0.110702
  13 H :    0.054600
  14 H :    0.058851
  15 H :    0.067004
  16 H :    0.054268
Sum of atomic charges:   -0.0000000

LOEWDIN ATOMIC CHARGES
----------------------
   0 C :   -0.340048
   1 C :   -0.220503
   2 C :   -0.059732
   3 C :   -0.106151
   4 C :   -0.139957
   5 C :   -0.087543
   6 N :   -0.071527
   7 C :   -0.082643
   8 H :    0.122412
   9 H :    0.120045
  10 H :    0.124560
  11 H :    0.128920
  12 H :    0.134627
  13 H :    0.125952
  14 H :    0.127181
  15 H :    0.113176
  16 H :    0.111230

  Mayer bond orders larger than 0.100000
B(  0-C ,  1-C ) :   1.1838 B(  0-C ,  8-H ) :   0.9539 B(  0-C ,  9-H ) :   0.9393
B(  0-C , 10-H ) :   0.9477 B(  1-C ,  2-C ) :   1.0542 B(  1-C , 11-H ) :   0.9113
B(  1-C , 12-H ) :   0.8979 B(  2-C ,  3-C ) :   1.4406 B(  2-C ,  7-C ) :   1.3505
B(  3-C ,  4-C ) :   1.3946 B(  3-C , 13-H ) :   0.9484 B(  4-C ,  5-C ) :   1.3879
B(  4-C , 14-H ) :   0.9452 B(  5-C ,  6-N ) :   1.5394 B(  5-C , 15-H ) :   0.9533
B(  6-N ,  7-C ) :   1.5740 B(  7-C , 16-H ) :   0.9547

Dispersion correction           -0.016217148
FINAL SINGLE POINT ENERGY      -326.176187742930

DIPOLE MOMENT
-------------

Method             : SCF
Type of density    : Electron Density
Multiplicity       :   1
Irrep              :   0
Energy             :  -326.2257464721317319 Eh
Relativity type    :
Basis              : AO
                                X                 Y                 Z
Electronic contribution:     -7.771128134       2.092699234      -0.050114615
Nuclear contribution   :      8.477368628      -2.673352436       0.199847289
                        -----------------------------------------
Total Dipole Moment    :      0.706240494      -0.580653201       0.149732674
                        -----------------------------------------
Magnitude (a.u.)       :      0.926473771
Magnitude (Debye)      :      2.354909179

Rotational constants in cm-1:             0.166872             0.050156             0.039378
Rotational constants in MHz :          5002.691831          1503.653545          1180.515469

                             ****ORCA TERMINATED NORMALLY****
TOTAL RUN TIME: 0 days 0 hours 0 minutes 14 seconds 515 msec
