                         Program Version 6.0.1  -  RELEASE   -
|  1> ! pbe def2-sv(p) def2/J RI DEFGRID1 loosescf d4 GCP(DFT/SV(P)) printgap
|  2> %output
|  3>     printlevel normal
|  4> end
|  5> * xyz 0 1
|  6> C 3.7136044952 -0.1519863668 0.0790985049
|  7> C 2.2250922533 -0.1751069157 -0.0286427939
|  8> C 1.4693031263 0.9026081612 0.2026252669
|  9> C 0.0105389068 0.9424768924 0.0678449351
| 10> O -0.6102246802 1.9565548498 0.3112107234
| 11> C -0.6288798158 -0.3383346432 -0.4509647327
| 12> H -0.5008234243 -0.2965732928 -1.5428996376
| 13> C 0.155688521 -1.5487633087 0.0601439504
| 14> C 1.6021026544 -1.4808234991 -0.4153579285
| 15> C -2.1401048981 -0.458693797 -0.1694607232
| 16> C -2.4742991619 -0.2643734536 1.3079282129
| 17> C -2.9364268935 0.5258509084 -1.0244102594
| 18> H 4.038188335 -0.8006220393 0.8929742094
| 19> H 4.0820813512 0.852943268 0.2653541782
| 20> H 4.1612370362 -0.5311489182 -0.8391056559
| 21> H 1.9206158135 1.8403766042 0.4974076037
| 22> H 0.1399245075 -1.5616348169 1.1518012426
| 23> H -0.3127094925 -2.4691448794 -0.2953039634
| 24> H 2.1825112955 -2.3084335429 -0.001005998
| 25> H 1.6356520927 -1.575190685 -1.5069392868
| 26> H -2.4359863946 -1.4767303287 -0.4569498095
| 27> H -2.2128628664 0.7415180273 1.6232671841
| 28> H -1.9399381365 -0.9783342517 1.9305493378
| 29> H -3.5407320526 -0.4072156805 1.4675243056
| 30> H -4.0021647062 0.4002651685 -0.8466707518
| 31> H -2.7444642805 0.361719323 -2.0833512763
| 32> H -2.6603934647 1.5454093452 -0.7733248502
| 33> *
| 34>
| 35>                          ****END OF INPUT****

CARTESIAN COORDINATES (ANGSTROEM)
---------------------------------
  C      3.713604   -0.151986    0.079099
  C      2.225092   -0.175107   -0.028643
  C      1.469303    0.902608    0.202625
  C      0.010539    0.942477    0.067845
  O     -0.610225    1.956555    0.311211
  C     -0.628880   -0.338335   -0.450965
  H     -0.500823   -0.296573   -1.542900
  C      0.155689   -1.548763    0.060144
  C      1.602103   -1.480823   -0.415358
  C     -2.140105   -0.458694   -0.169461
  C     -2.474299   -0.264373    1.307928
  C     -2.936427    0.525851   -1.024410
  H      4.038188   -0.800622    0.892974
  H      4.082081    0.852943    0.265354
  H      4.161237   -0.531149   -0.839106
  H      1.920616    1.840377    0.497408
  H      0.139925   -1.561635    1.151801
  H     -0.312709   -2.469145   -0.295304
  H      2.182511   -2.308434   -0.001006
  H      1.635652   -1.575191   -1.506939
  H     -2.435986   -1.476730   -0.456950
  H     -2.212863    0.741518    1.623267
  H     -1.939938   -0.978334    1.930549
  H     -3.540732   -0.407216    1.467524
  H     -4.002165    0.400265   -0.846671
  H     -2.744464    0.361719   -2.083351
  H     -2.660393    1.545409   -0.773325

 Total Charge           Charge          ....    0
 Multiplicity           Mult            ....    1
 Number of Electrons    NEL             ....   84
 Basis Dimension        Dim             ....  186

ORBITAL ENERGIES
----------------

  NO   OCC          E(Eh)            E(eV)
   0   2.0000     -18.728218      -509.6207
   1   2.0000      -9.964663      -271.1523
   2   2.0000      -9.922032      -269.9922
   3   2.0000      -9.902523      -269.4613
   4   2.0000      -9.897563      -269.3264
   5   2.0000      -9.896000      -269.2839
   6   2.0000      -9.895188      -269.2617
   7   2.0000      -9.892473      -269.1879
   8   2.0000      -9.888066      -269.0679
   9   2.0000      -9.862635      -268.3759
  10   2.0000      -9.858437      -268.2617
  11   2.0000      -0.930338       -25.3158
  12   2.0000      -0.774840       -21.0845
  13   2.0000      -0.728850       -19.8330
  14   2.0000      -0.682629       -18.5753
  15   2.0000      -0.655579       -17.8392
  16   2.0000      -0.619883       -16.8679
  17   2.0000      -0.601102       -16.3568
  18   2.0000      -0.553030       -15.0487
  19   2.0000      -0.524095       -14.2613
  20   2.0000      -0.496331       -13.5058
  21   2.0000      -0.461199       -12.5498
  22   2.0000      -0.434058       -11.8113
  23   2.0000      -0.417187       -11.3522
  24   2.0000      -0.403154       -10.9704
  25   2.0000      -0.394661       -10.7393
  26   2.0000      -0.381761       -10.3883
  27   2.0000      -0.378902       -10.3104
  28   2.0000      -0.370693       -10.0871
  29   2.0000      -0.359019        -9.7694
  30   2.0000      -0.349209        -9.5024
  31   2.0000      -0.347132        -9.4459
  32   2.0000      -0.333946        -9.0871
  33   2.0000      -0.324433        -8.8283
  34   2.0000      -0.320330        -8.7166
  35   2.0000      -0.303565        -8.2604
  36   2.0000      -0.298622        -8.1259
  37   2.0000      -0.283541        -7.7155
  38   2.0000      -0.276770        -7.5313
  39   2.0000      -0.268785        -7.3140
  40   2.0000      -0.234402        -6.3784
  41   2.0000      -0.186369        -5.0714
  42   0.0000      -0.078133        -2.1261
  43   0.0000       0.012788         0.3480
  44   0.0000       0.035149         0.9564
  45   0.0000       0.047714         1.2984
  46   0.0000       0.064650         1.7592

MULLIKEN ATOMIC CHARGES
-----------------------
   0 C :   -0.216460
   1 C :   -0.094728
   2 C :   -0.113673
   3 C :    0.080289
   4 O :   -0.159913
   5 C :   -0.189666
   6 H :    0.087622
   7 C :   -0.137259
   8 C :   -0.067633
   9 C :   -0.108062
  10 C :   -0.268202
  11 C :   -0.246533
  12 H :    0.122111
  13 H :    0.111910
  14 H :    0.117952
  15 H :    0.042480
  16 H :    0.100315
  17 H :    0.081942
  18 H :    0.089998
  19 H :    0.099257
  20 H :    0.059178
  21 H :    0.122975
  22 H :    0.095005
  23 H :    0.093845
  24 H :    0.090651
  25 H :    0.084642
  26 H :    0.121957
Sum of atomic charges:   -0.0000000

LOEWDIN ATOMIC CHARGES
----------------------
   0 C :   -0.321699
   1 C :   -0.016334
   2 C :   -0.171085
   3 C :    0.044817
   4 O :   -0.128058
   5 C :   -0.158431
   6 H :    0.135472
   7 C :   -0.207553
   8 C :   -0.213375
   9 C :   -0.140090
  10 C :   -0.337272
  11 C :   -0.337354
  12 H :    0.137626
  13 H :    0.129103
  14 H :    0.135509
  15 H :    0.127756
  16 H :    0.121659
  17 H :    0.118931
  18 H :    0.125292
  19 H :    0.135816
  20 H :    0.111055
  21 H :    0.126366
  22 H :    0.111746
  23 H :    0.117927
  24 H :    0.114503
  25 H :    0.110885
  26 H :    0.126789

  Mayer bond orders larger than 0.100000
B(  0-C ,  1-C ) :   1.1263 B(  0-C , 12-H ) :   0.9230 B(  0-C , 13-H ) :   0.9425
B(  0-C , 14-H ) :   0.9289 B(  1-C ,  2-C ) :   1.7350 B(  1-C ,  8-C ) :   1.0683
B(  2-C ,  3-C ) :   1.0540 B(  2-C , 15-H ) :   0.9346 B(  3-C ,  4-O ) :   2.0890
B(  3-C ,  5-C ) :   0.9363 B(  5-C ,  6-H ) :   0.8610 B(  5-C ,  7-C ) :   1.0708
B(  5-C ,  9-C ) :   1.0310 B(  7-C ,  8-C ) :   1.1253 B(  7-C , 16-H ) :   0.9104
B(  7-C , 17-H ) :   0.9083 B(  8-C , 18-H ) :   0.9060 B(  8-C , 19-H ) :   0.8718
B(  9-C , 10-C ) :   1.1062 B(  9-C , 11-C ) :   1.1074 B(  9-C , 20-H ) :   0.9000
B( 10-C , 21-H ) :   0.9373 B( 10-C , 22-H ) :   0.9473 B( 10-C , 23-H ) :   0.9465
B( 11-C , 24-H ) :   0.9474 B( 11-C , 25-H ) :   0.9468 B( 11-C , 26-H ) :   0.9364

Dispersion correction           -0.028289004
FINAL SINGLE POINT ENERGY      -464.843365050941

DIPOLE MOMENT
-------------

Method             : SCF
Type of density    : Electron Density
Multiplicity       :   1
Irrep              :   0
Energy             :  -464.9294585659886252 Eh
Relativity type    :
Basis              : AO
                                X                 Y                 Z
Electronic contribution:      3.043945087       5.117558071       0.215149723
Nuclear contribution   :     -2.063506395      -6.221799653      -0.480110607
                        -----------------------------------------
Total Dipole Moment    :      0.980438692      -1.104241581      -0.264960884
                        -----------------------------------------
Magnitude (a.u.)       :      1.500271232
Magnitude (Debye)      :      3.813386417

Rotational constants in cm-1:             0.072845             0.023673             0.020549
Rotational constants in MHz :          2183.833870           709.692066           616.053056

                             ****ORCA TERMINATED NORMALLY****
TOTAL RUN TIME: 0 days 0 hours 0 minutes 29 seconds 767 msec
