                         Program Version 6.0.1  -  RELEASE   -
|  1> ! pbe def2-sv(p) def2/J RI DEFGRID1 loosescf d4 GCP(DFT/SV(P)) printgap
|  2> %output
|  3>     printlevel normal
|  4> end
|  5> * xyz 0 1
|  6> C -4.2134942828 -0.3291996844 0.098281857
|  7> C -2.7308585656 -0.1215524629 0.0363532288
|  8> C -2.0105314399 0.2438505149 1.1661035301
|  9> C -0.6442183607 0.4500657646 1.1009394925
| 10> C 0.0296926213 0.2915285495 -0.1032504978
| 11> C -0.6857113808 -0.0611104432 -1.2409516792
| 12> C -2.0499646544 -0.2700407481 -1.1666878162
| 13> C 1.4958017437 0.5907029026 -0.1974376126
| 14> O 1.8974492479 1.6794085646 -0.5653036307
| 15> N 2.3333685875 -0.4136755814 0.1540005728
| 16> C 3.7604968309 -0.2008062864 0.1091399017
| 17> C 1.9149714439 -1.728523542 0.5630959556
| 18> H -4.5054833358 -1.2022978712 -0.4820406686
| 19> H -4.5468476258 -0.4596432575 1.1248286315
| 20> H -4.727833263 0.5363242958 -0.3199844457
| 21> H -2.5241355137 0.3707601927 2.1085281177
| 22> H -0.0964135387 0.7386858512 1.9863822636
| 23> H -0.16857932 -0.1710301792 -2.182923009
| 24> H -2.5974132657 -0.5489027365 -2.0557888614
| 25> H 3.9374722269 0.8235814736 -0.2128485837
| 26> H 4.2276060352 -0.8911210753 -0.5974249044
| 27> H 4.1987216387 -0.3544701809 1.0980783705
| 28> H 2.2522307058 -1.9324535442 1.5838299492
| 29> H 2.3512485763 -2.4819311513 -0.0994338229
| 30> H 0.8316533072 -1.8109609487 0.52565113
| 31> *
| 32>
| 33>                          ****END OF INPUT****

CARTESIAN COORDINATES (ANGSTROEM)
---------------------------------
  C     -4.213494   -0.329200    0.098282
  C     -2.730859   -0.121552    0.036353
  C     -2.010531    0.243851    1.166104
  C     -0.644218    0.450066    1.100939
  C      0.029693    0.291529   -0.103250
  C     -0.685711   -0.061110   -1.240952
  C     -2.049965   -0.270041   -1.166688
  C      1.495802    0.590703   -0.197438
  O      1.897449    1.679409   -0.565304
  N      2.333369   -0.413676    0.154001
  C      3.760497   -0.200806    0.109140
  C      1.914971   -1.728524    0.563096
  H     -4.505483   -1.202298   -0.482041
  H     -4.546848   -0.459643    1.124829
  H     -4.727833    0.536324   -0.319984
  H     -2.524136    0.370760    2.108528
  H     -0.096414    0.738686    1.986382
  H     -0.168579   -0.171030   -2.182923
  H     -2.597413   -0.548903   -2.055789
  H      3.937472    0.823581   -0.212849
  H      4.227606   -0.891121   -0.597425
  H      4.198722   -0.354470    1.098078
  H      2.252231   -1.932454    1.583830
  H      2.351249   -2.481931   -0.099434
  H      0.831653   -1.810961    0.525651

 Total Charge           Charge          ....    0
 Multiplicity           Mult            ....    1
 Number of Electrons    NEL             ....   88
 Basis Dimension        Dim             ....  194

ORBITAL ENERGIES
----------------

  NO   OCC          E(Eh)            E(eV)
   0   2.0000     -18.708439      -509.0825
   1   2.0000     -14.024242      -381.6190
   2   2.0000      -9.975495      -271.4470
   3   2.0000      -9.921767      -269.9850
   4   2.0000      -9.912003      -269.7193
   5   2.0000      -9.903606      -269.4908
   6   2.0000      -9.901913      -269.4448
   7   2.0000      -9.896222      -269.2899
   8   2.0000      -9.895776      -269.2777
   9   2.0000      -9.892819      -269.1973
  10   2.0000      -9.892363      -269.1849
  11   2.0000      -9.886535      -269.0263
  12   2.0000      -0.933116       -25.3914
  13   2.0000      -0.848407       -23.0863
  14   2.0000      -0.782505       -21.2930
  15   2.0000      -0.707624       -19.2554
  16   2.0000      -0.673145       -18.3172
  17   2.0000      -0.656790       -17.8722
  18   2.0000      -0.640534       -17.4298
  19   2.0000      -0.609617       -16.5885
  20   2.0000      -0.549818       -14.9613
  21   2.0000      -0.533394       -14.5144
  22   2.0000      -0.495710       -13.4890
  23   2.0000      -0.474638       -12.9156
  24   2.0000      -0.436388       -11.8747
  25   2.0000      -0.427664       -11.6373
  26   2.0000      -0.417657       -11.3650
  27   2.0000      -0.410798       -11.1784
  28   2.0000      -0.392256       -10.6738
  29   2.0000      -0.380826       -10.3628
  30   2.0000      -0.377206       -10.2643
  31   2.0000      -0.361085        -9.8256
  32   2.0000      -0.358553        -9.7567
  33   2.0000      -0.349676        -9.5152
  34   2.0000      -0.348728        -9.4894
  35   2.0000      -0.337427        -9.1819
  36   2.0000      -0.322737        -8.7821
  37   2.0000      -0.317860        -8.6494
  38   2.0000      -0.309039        -8.4094
  39   2.0000      -0.297581        -8.0976
  40   2.0000      -0.233046        -6.3415
  41   2.0000      -0.226310        -6.1582
  42   2.0000      -0.202523        -5.5109
  43   2.0000      -0.191166        -5.2019
  44   0.0000      -0.039227        -1.0674
  45   0.0000      -0.036090        -0.9821
  46   0.0000       0.000390         0.0106
  47   0.0000       0.033568         0.9134
  48   0.0000       0.046492         1.2651

MULLIKEN ATOMIC CHARGES
-----------------------
   0 C :   -0.223396
   1 C :    0.056450
   2 C :   -0.112093
   3 C :   -0.070997
   4 C :   -0.033386
   5 C :   -0.067778
   6 C :   -0.107778
   7 C :    0.145710
   8 O :   -0.216546
   9 N :   -0.241028
  10 C :   -0.179779
  11 C :   -0.180353
  12 H :    0.109998
  13 H :    0.103207
  14 H :    0.122459
  15 H :    0.037535
  16 H :    0.045480
  17 H :    0.047807
  18 H :    0.037457
  19 H :    0.142614
  20 H :    0.106555
  21 H :    0.105985
  22 H :    0.105271
  23 H :    0.105686
  24 H :    0.160922
Sum of atomic charges:   -0.0000000

LOEWDIN ATOMIC CHARGES
----------------------
   0 C :   -0.322421
   1 C :   -0.047704
   2 C :   -0.122218
   3 C :   -0.111921
   4 C :   -0.067623
   5 C :   -0.107744
   6 C :   -0.119711
   7 C :    0.027717
   8 O :   -0.185510
   9 N :   -0.051989
  10 C :   -0.256039
  11 C :   -0.251308
  12 H :    0.128836
  13 H :    0.124752
  14 H :    0.135754
  15 H :    0.121995
  16 H :    0.125275
  17 H :    0.126700
  18 H :    0.122151
  19 H :    0.136169
  20 H :    0.115010
  21 H :    0.115083
  22 H :    0.113734
  23 H :    0.114189
  24 H :    0.136821

  Mayer bond orders larger than 0.100000
B(  0-C ,  1-C ) :   1.0985 B(  0-C , 12-H ) :   0.9402 B(  0-C , 13-H ) :   0.9443
B(  0-C , 14-H ) :   0.9321 B(  1-C ,  2-C ) :   1.3916 B(  1-C ,  6-C ) :   1.3744
B(  2-C ,  3-C ) :   1.3548 B(  2-C , 15-H ) :   0.9612 B(  3-C ,  4-C ) :   1.3898
B(  3-C , 16-H ) :   0.9654 B(  4-C ,  5-C ) :   1.3849 B(  4-C ,  7-C ) :   0.8871
B(  5-C ,  6-C ) :   1.3640 B(  5-C , 17-H ) :   0.9673 B(  6-C , 18-H ) :   0.9663
B(  7-C ,  8-O ) :   2.0561 B(  7-C ,  9-N ) :   1.1842 B(  8-O ,  9-N ) :   0.1057
B(  9-N , 10-C ) :   1.0052 B(  9-N , 11-C ) :   1.0222 B( 10-C , 19-H ) :   0.9269
B( 10-C , 20-H ) :   0.9519 B( 10-C , 21-H ) :   0.9516 B( 11-C , 22-H ) :   0.9468
B( 11-C , 23-H ) :   0.9457 B( 11-C , 24-H ) :   0.9290

Dispersion correction           -0.027358837
FINAL SINGLE POINT ENERGY      -517.739779063084

DIPOLE MOMENT
-------------

Method             : SCF
Type of density    : Electron Density
Multiplicity       :   1
Irrep              :   0
Energy             :  -517.8145789834763946 Eh
Relativity type    :
Basis              : AO
                                X                 Y                 Z
Electronic contribution:      0.997244340       5.591638488      -1.900527028
Nuclear contribution   :     -1.242287076      -6.904313091       2.316174829
                        -----------------------------------------
Total Dipole Moment    :     -0.245042736      -1.312674603       0.415647801
                        -----------------------------------------
Magnitude (a.u.)       :      1.398543403
Magnitude (Debye)      :      3.554814825

Rotational constants in cm-1:             0.079576             0.016601             0.016045
Rotational constants in MHz :          2385.640674           497.695301           481.021629

                             ****ORCA TERMINATED NORMALLY****
TOTAL RUN TIME: 0 days 0 hours 0 minutes 23 seconds 131 msec
