                         Program Version 6.0.1  -  RELEASE   -
|  1> ! pbe def2-sv(p) def2/J RI DEFGRID1 loosescf d4 GCP(DFT/SV(P)) printgap
|  2> %output
|  3>     printlevel normal
|  4> end
|  5> * xyz 0 1
|  6> C -2.3338945259 -1.0485151632 0.3902149556
|  7> C -1.0699568571 -0.2711442498 0.8096576132
|  8> H -1.294737166 0.2024214179 1.7740929554
|  9> C -0.6846674796 0.8393904768 -0.1745546143
| 10> H -0.6963956328 0.4679951766 -1.2134007232
| 11> C 0.7492857543 1.2965456939 0.154270001
| 12> H 0.7839432377 1.5847076877 1.2130863655
| 13> C 1.7410233833 0.1443509299 -0.0925308213
| 14> H 2.1208292739 0.1928026139 -1.1193473604
| 15> C 1.0022431153 -1.2099779603 0.0595956731
| 16> H 1.7187205933 -1.9621995902 0.4321332038
| 17> O 0.0187405347 -1.1576430419 1.0545475833
| 18> O 0.5084553585 -1.579099114 -1.1887218868
| 19> O 2.8693602146 0.2213363874 0.730854578
| 20> O 1.0514871456 2.4747202333 -0.5512677422
| 21> O -1.5890998441 1.9056097736 -0.0467004925
| 22> O -2.2326142647 -1.691831523 -0.8579265255
| 23> H -3.1796868698 -0.353570003 0.4100785504
| 24> H -2.4984796281 -1.8436400602 1.1204795155
| 25> H -0.301052472 -2.1079638768 -1.0626880721
| 26> H 2.5990342214 0.1022977875 1.6493604069
| 27> H 1.2881095066 2.2522680087 -1.4596711967
| 28> H -1.090057966 2.7197986261 -0.2119208034
| 29> H -2.2905243176 -1.0311192593 -1.5575333556
| 30> *
| 31>
| 32>                          ****END OF INPUT****

CARTESIAN COORDINATES (ANGSTROEM)
---------------------------------
  C     -2.333895   -1.048515    0.390215
  C     -1.069957   -0.271144    0.809658
  H     -1.294737    0.202421    1.774093
  C     -0.684667    0.839390   -0.174555
  H     -0.696396    0.467995   -1.213401
  C      0.749286    1.296546    0.154270
  H      0.783943    1.584708    1.213086
  C      1.741023    0.144351   -0.092531
  H      2.120829    0.192803   -1.119347
  C      1.002243   -1.209978    0.059596
  H      1.718721   -1.962200    0.432133
  O      0.018741   -1.157643    1.054548
  O      0.508455   -1.579099   -1.188722
  O      2.869360    0.221336    0.730855
  O      1.051487    2.474720   -0.551268
  O     -1.589100    1.905610   -0.046700
  O     -2.232614   -1.691832   -0.857927
  H     -3.179687   -0.353570    0.410079
  H     -2.498480   -1.843640    1.120480
  H     -0.301052   -2.107964   -1.062688
  H      2.599034    0.102298    1.649360
  H      1.288110    2.252268   -1.459671
  H     -1.090058    2.719799   -0.211921
  H     -2.290524   -1.031119   -1.557533

 Total Charge           Charge          ....    0
 Multiplicity           Mult            ....    1
 Number of Electrons    NEL             ....   96
 Basis Dimension        Dim             ....  192

ORBITAL ENERGIES
----------------

  NO   OCC          E(Eh)            E(eV)
   0   2.0000     -18.777793      -510.9697
   1   2.0000     -18.776538      -510.9356
   2   2.0000     -18.771029      -510.7857
   3   2.0000     -18.754037      -510.3233
   4   2.0000     -18.752533      -510.2824
   5   2.0000     -18.752516      -510.2819
   6   2.0000      -9.984770      -271.6994
   7   2.0000      -9.952298      -270.8158
   8   2.0000      -9.951014      -270.7809
   9   2.0000      -9.947024      -270.6723
  10   2.0000      -9.946278      -270.6520
  11   2.0000      -9.942885      -270.5597
  12   2.0000      -0.988177       -26.8897
  13   2.0000      -0.957415       -26.0526
  14   2.0000      -0.948550       -25.8114
  15   2.0000      -0.934214       -25.4212
  16   2.0000      -0.923717       -25.1356
  17   2.0000      -0.908562       -24.7232
  18   2.0000      -0.710141       -19.3239
  19   2.0000      -0.694984       -18.9115
  20   2.0000      -0.631099       -17.1731
  21   2.0000      -0.591910       -16.1067
  22   2.0000      -0.580333       -15.7917
  23   2.0000      -0.529810       -14.4169
  24   2.0000      -0.511438       -13.9169
  25   2.0000      -0.490293       -13.3415
  26   2.0000      -0.475488       -12.9387
  27   2.0000      -0.456518       -12.4225
  28   2.0000      -0.453430       -12.3385
  29   2.0000      -0.437107       -11.8943
  30   2.0000      -0.425408       -11.5760
  31   2.0000      -0.410907       -11.1813
  32   2.0000      -0.401052       -10.9132
  33   2.0000      -0.381037       -10.3685
  34   2.0000      -0.363848        -9.9008
  35   2.0000      -0.360347        -9.8055
  36   2.0000      -0.334556        -9.1037
  37   2.0000      -0.319127        -8.6839
  38   2.0000      -0.309624        -8.4253
  39   2.0000      -0.304737        -8.2923
  40   2.0000      -0.296854        -8.0778
  41   2.0000      -0.277545        -7.5524
  42   2.0000      -0.267394        -7.2762
  43   2.0000      -0.250257        -6.8098
  44   2.0000      -0.246582        -6.7098
  45   2.0000      -0.224817        -6.1176
  46   2.0000      -0.215016        -5.8509
  47   2.0000      -0.208075        -5.6620
  48   0.0000       0.009771         0.2659
  49   0.0000       0.020584         0.5601
  50   0.0000       0.031731         0.8634
  51   0.0000       0.048764         1.3269
  52   0.0000       0.055176         1.5014

MULLIKEN ATOMIC CHARGES
-----------------------
   0 C :    0.068220
   1 C :    0.041517
   2 H :    0.071465
   3 C :    0.018260
   4 H :    0.033926
   5 C :    0.028348
   6 H :    0.055131
   7 C :    0.105052
   8 H :    0.067038
   9 C :    0.135278
  10 H :    0.066388
  11 O :   -0.312405
  12 O :   -0.421462
  13 O :   -0.410653
  14 O :   -0.414971
  15 O :   -0.415911
  16 O :   -0.434880
  17 H :    0.098017
  18 H :    0.098257
  19 H :    0.299975
  20 H :    0.298984
  21 H :    0.305115
  22 H :    0.302911
  23 H :    0.316402
Sum of atomic charges:    0.0000000

LOEWDIN ATOMIC CHARGES
----------------------
   0 C :   -0.130667
   1 C :   -0.072239
   2 H :    0.121805
   3 C :   -0.096548
   4 H :    0.089772
   5 C :   -0.076795
   6 H :    0.116836
   7 C :   -0.084548
   8 H :    0.120254
   9 C :   -0.008451
  10 H :    0.096964
  11 O :   -0.145056
  12 O :   -0.328759
  13 O :   -0.306412
  14 O :   -0.305359
  15 O :   -0.327736
  16 O :   -0.313415
  17 H :    0.115620
  18 H :    0.120852
  19 H :    0.269746
  20 H :    0.284146
  21 H :    0.288069
  22 H :    0.280604
  23 H :    0.291318

  Mayer bond orders larger than 0.100000
B(  0-C ,  1-C ) :   1.0400 B(  0-C , 16-O ) :   1.0490 B(  0-C , 17-H ) :   0.9169
B(  0-C , 18-H ) :   0.9183 B(  1-C ,  2-H ) :   0.8688 B(  1-C ,  3-C ) :   0.9675
B(  1-C , 11-O ) :   0.9716 B(  3-C ,  4-H ) :   0.8486 B(  3-C ,  5-C ) :   1.0377
B(  3-C , 15-O ) :   1.0914 B(  5-C ,  6-H ) :   0.8525 B(  5-C ,  7-C ) :   0.9929
B(  5-C , 14-O ) :   1.0278 B(  7-C ,  8-H ) :   0.8653 B(  7-C ,  9-C ) :   0.9821
B(  7-C , 13-O ) :   1.0524 B(  9-C , 10-H ) :   0.8983 B(  9-C , 11-O ) :   1.0704
B(  9-C , 12-O ) :   1.0782 B( 12-O , 19-H ) :   0.7801 B( 13-O , 20-H ) :   0.8493
B( 14-O , 21-H ) :   0.8467 B( 15-O , 22-H ) :   0.8202 B( 16-O , 19-H ) :   0.1227
B( 16-O , 23-H ) :   0.8363

Dispersion correction           -0.025207992
FINAL SINGLE POINT ENERGY      -685.694664556812

DIPOLE MOMENT
-------------

Method             : SCF
Type of density    : Electron Density
Multiplicity       :   1
Irrep              :   0
Energy             :  -685.8283473499033107 Eh
Relativity type    :
Basis              : AO
                                X                 Y                 Z
Electronic contribution:      2.211875638       0.051208178      -0.075844807
Nuclear contribution   :     -2.655403230       0.212525373      -0.036493157
                        -----------------------------------------
Total Dipole Moment    :     -0.443527592       0.263733550      -0.112337964
                        -----------------------------------------
Magnitude (a.u.)       :      0.528102195
Magnitude (Debye)      :      1.342329104

Rotational constants in cm-1:             0.042308             0.028316             0.020796
Rotational constants in MHz :          1268.360872           848.891648           623.450685

                             ****ORCA TERMINATED NORMALLY****
TOTAL RUN TIME: 0 days 0 hours 0 minutes 10 seconds 305 msec
