                         Program Version 6.0.1  -  RELEASE   -
|  1> ! pbe def2-sv(p) def2/J RI DEFGRID1 loosescf d4 GCP(DFT/SV(P)) printgap
|  2> %output
|  3>     printlevel normal
|  4> end
|  5> * xyz 0 1
|  6> C 1.1078238563 -1.8562231667 0.0099242548
|  7> C 2.1047289829 -0.8998663671 0.0133925242
|  8> C 1.7947967565 0.4662702388 0.0076475711
|  9> C 0.451751776 0.8427262834 0.0025648373
| 10> C -0.5341531255 -0.1312789619 -0.0004919027
| 11> C -0.2255080598 -1.4863460144 0.0029187168
| 12> N -1.913772377 0.2788064742 -0.0012496163
| 13> O -2.7624225351 -0.5876849087 -0.0292300659
| 14> O -2.151149947 1.4691036383 0.0282586412
| 15> N 2.782713136 1.4101589949 -0.0550427179
| 16> H 1.372940264 -2.9021540084 0.0148072894
| 17> H 3.1420991489 -1.2007275386 0.0185380378
| 18> H 0.1681539826 1.8841065399 -0.0015667228
| 19> H -1.0194391726 -2.2150076522 0.0021961172
| 20> H 3.7193275948 1.130526193 0.1796108082
| 21> H 2.5367941236 2.3620165558 0.1556420886
| 22> *
| 23>
| 24>                          ****END OF INPUT****

CARTESIAN COORDINATES (ANGSTROEM)
---------------------------------
  C      1.107824   -1.856223    0.009924
  C      2.104729   -0.899866    0.013393
  C      1.794797    0.466270    0.007648
  C      0.451752    0.842726    0.002565
  C     -0.534153   -0.131279   -0.000492
  C     -0.225508   -1.486346    0.002919
  N     -1.913772    0.278806   -0.001250
  O     -2.762423   -0.587685   -0.029230
  O     -2.151150    1.469104    0.028259
  N      2.782713    1.410159   -0.055043
  H      1.372940   -2.902154    0.014807
  H      3.142099   -1.200728    0.018538
  H      0.168154    1.884107   -0.001567
  H     -1.019439   -2.215008    0.002196
  H      3.719328    1.130526    0.179611
  H      2.536794    2.362017    0.155642

 Total Charge           Charge          ....    0
 Multiplicity           Mult            ....    1
 Number of Electrons    NEL             ....   72
 Basis Dimension        Dim             ....  152

ORBITAL ENERGIES
----------------

  NO   OCC          E(Eh)            E(eV)
   0   2.0000     -18.767769      -510.6970
   1   2.0000     -18.766735      -510.6688
   2   2.0000     -14.202591      -386.4721
   3   2.0000     -14.017860      -381.4454
   4   2.0000      -9.955907      -270.9140
   5   2.0000      -9.942401      -270.5465
   6   2.0000      -9.911241      -269.6986
   7   2.0000      -9.909843      -269.6605
   8   2.0000      -9.905959      -269.5548
   9   2.0000      -9.901675      -269.4383
  10   2.0000      -1.126081       -30.6422
  11   2.0000      -0.955701       -26.0059
  12   2.0000      -0.860559       -23.4170
  13   2.0000      -0.792082       -21.5536
  14   2.0000      -0.723446       -19.6860
  15   2.0000      -0.677249       -18.4289
  16   2.0000      -0.629823       -17.1383
  17   2.0000      -0.565691       -15.3932
  18   2.0000      -0.540578       -14.7099
  19   2.0000      -0.495254       -13.4766
  20   2.0000      -0.487600       -13.2683
  21   2.0000      -0.484307       -13.1787
  22   2.0000      -0.449843       -12.2408
  23   2.0000      -0.442868       -12.0511
  24   2.0000      -0.438648       -11.9362
  25   2.0000      -0.404730       -11.0133
  26   2.0000      -0.397501       -10.8166
  27   2.0000      -0.366461        -9.9719
  28   2.0000      -0.344018        -9.3612
  29   2.0000      -0.328351        -8.9349
  30   2.0000      -0.297598        -8.0980
  31   2.0000      -0.263968        -7.1829
  32   2.0000      -0.249525        -6.7899
  33   2.0000      -0.248829        -6.7710
  34   2.0000      -0.226445        -6.1619
  35   2.0000      -0.195999        -5.3334
  36   0.0000      -0.106235        -2.8908
  37   0.0000      -0.039389        -1.0718
  38   0.0000      -0.015540        -0.4229
  39   0.0000       0.018439         0.5017
  40   0.0000       0.044534         1.2118

MULLIKEN ATOMIC CHARGES
-----------------------
   0 C :   -0.059628
   1 C :   -0.098948
   2 C :    0.175319
   3 C :   -0.217426
   4 C :    0.221134
   5 C :   -0.128395
   6 N :    0.197353
   7 O :   -0.213333
   8 O :   -0.218349
   9 N :   -0.326916
  10 H :    0.063162
  11 H :    0.034985
  12 H :    0.045953
  13 H :    0.064056
  14 H :    0.229317
  15 H :    0.231717
Sum of atomic charges:   -0.0000000

LOEWDIN ATOMIC CHARGES
----------------------
   0 C :   -0.107863
   1 C :   -0.141159
   2 C :   -0.000663
   3 C :   -0.146926
   4 C :   -0.034456
   5 C :   -0.141629
   6 N :    0.251926
   7 O :   -0.182957
   8 O :   -0.189370
   9 N :   -0.302406
  10 H :    0.130386
  11 H :    0.124016
  12 H :    0.137280
  13 H :    0.139544
  14 H :    0.231419
  15 H :    0.232860

  Mayer bond orders larger than 0.100000
B(  0-C ,  1-C ) :   1.3864 B(  0-C ,  5-C ) :   1.3102 B(  0-C , 10-H ) :   0.9601
B(  1-C ,  2-C ) :   1.3105 B(  1-C , 11-H ) :   0.9623 B(  2-C ,  3-C ) :   1.2444
B(  2-C ,  9-N ) :   1.2657 B(  3-C ,  4-C ) :   1.3733 B(  3-C , 12-H ) :   0.9491
B(  4-C ,  5-C ) :   1.3747 B(  4-C ,  6-N ) :   0.8706 B(  5-C , 13-H ) :   0.9519
B(  6-N ,  7-O ) :   1.5536 B(  6-N ,  8-O ) :   1.5465 B(  7-O ,  8-O ) :   0.2973
B(  9-N , 14-H ) :   0.8788 B(  9-N , 15-H ) :   0.8787

Dispersion correction           -0.017123114
FINAL SINGLE POINT ENERGY      -491.131379570426

DIPOLE MOMENT
-------------

Method             : SCF
Type of density    : Electron Density
Multiplicity       :   1
Irrep              :   0
Energy             :  -491.1833552964993146 Eh
Relativity type    :
Basis              : AO
                                X                 Y                 Z
Electronic contribution:     -6.997419508       0.972174740      -0.086861413
Nuclear contribution   :      9.238578237      -0.860715437       0.346075456
                        -----------------------------------------
Total Dipole Moment    :      2.241158729       0.111459302       0.259214044
                        -----------------------------------------
Magnitude (a.u.)       :      2.258850935
Magnitude (Debye)      :      5.741542788

Rotational constants in cm-1:             0.091866             0.033547             0.024583
Rotational constants in MHz :          2754.084618          1005.722118           736.979149

                             ****ORCA TERMINATED NORMALLY****
TOTAL RUN TIME: 0 days 0 hours 0 minutes 9 seconds 769 msec
