                         Program Version 6.0.1  -  RELEASE   -
|  1> ! r2scan-3c def2/J RI DEFGRID2 scfconv6 printgap
|  2> %output
|  3>     printlevel normal
|  4> end
|  5> * xyz 0 1
|  6> C -1.7259197141 0.6539326643 0.5015904529
|  7> C -0.8324213649 0.1858733343 -0.6394084942
|  8> N 0.494070018 -0.1819863965 -0.102081588
|  9> O 0.8473228413 -1.3280152965 -0.2311957243
| 10> O 1.1296443389 0.691771501 0.4338463617
| 11> H -1.9115429748 -0.157707141 1.2013344679
| 12> H -1.2488385316 1.474538481 1.0324122608
| 13> H -2.6780248216 0.9972630906 0.1075263675
| 14> H -0.6810382665 0.997864086 -1.3543581667
| 15> H -1.2415877747 -0.6910258918 -1.1428132697
| 16> *
| 17>
| 18>                          ****END OF INPUT****

CARTESIAN COORDINATES (ANGSTROEM)
---------------------------------
  C     -1.725920    0.653933    0.501590
  C     -0.832421    0.185873   -0.639408
  N      0.494070   -0.181986   -0.102082
  O      0.847323   -1.328015   -0.231196
  O      1.129644    0.691772    0.433846
  H     -1.911543   -0.157707    1.201334
  H     -1.248839    1.474538    1.032412
  H     -2.678025    0.997263    0.107526
  H     -0.681038    0.997864   -1.354358
  H     -1.241588   -0.691026   -1.142813

 Total Charge           Charge          ....    0
 Multiplicity           Mult            ....    1
 Number of Electrons    NEL             ....   40
 Basis Dimension        Dim             ....  135

ORBITAL ENERGIES
----------------

  NO   OCC          E(Eh)            E(eV)
   0   2.0000     -18.986413      -516.6466
   1   2.0000     -18.985817      -516.6304
   2   2.0000     -14.392580      -391.6420
   3   2.0000     -10.099595      -274.8240
   4   2.0000     -10.053022      -273.5566
   5   2.0000      -1.212846       -33.0032
   6   2.0000      -1.036401       -28.2019
   7   2.0000      -0.807511       -21.9735
   8   2.0000      -0.680427       -18.5154
   9   2.0000      -0.573924       -15.6173
  10   2.0000      -0.525240       -14.2925
  11   2.0000      -0.505869       -13.7654
  12   2.0000      -0.490471       -13.3464
  13   2.0000      -0.444363       -12.0917
  14   2.0000      -0.394737       -10.7413
  15   2.0000      -0.373999       -10.1770
  16   2.0000      -0.354993        -9.6598
  17   2.0000      -0.296024        -8.0552
  18   2.0000      -0.274920        -7.4809
  19   2.0000      -0.261063        -7.1039
  20   0.0000      -0.098442        -2.6788
  21   0.0000       0.079419         2.1611
  22   0.0000       0.087818         2.3897
  23   0.0000       0.106150         2.8885
  24   0.0000       0.133936         3.6446

MULLIKEN ATOMIC CHARGES
-----------------------
   0 C :   -0.447211
   1 C :   -0.247565
   2 N :    0.235512
   3 O :   -0.197468
   4 O :   -0.190046
   5 H :    0.158598
   6 H :    0.176015
   7 H :    0.156788
   8 H :    0.171192
   9 H :    0.184184
Sum of atomic charges:   -0.0000000

LOEWDIN ATOMIC CHARGES
----------------------
   0 C :   -0.365915
   1 C :    0.016040
   2 N :   -0.539700
   3 O :    0.004776
   4 O :   -0.002552
   5 H :    0.161581
   6 H :    0.172201
   7 H :    0.160651
   8 H :    0.197895
   9 H :    0.195022

  Mayer bond orders larger than 0.100000
B(  0-C ,  1-C ) :   0.9190 B(  0-C ,  5-H ) :   0.9664 B(  0-C ,  6-H ) :   0.9632
B(  0-C ,  7-H ) :   0.9663 B(  1-C ,  2-N ) :   0.8462 B(  1-C ,  8-H ) :   0.9445
B(  1-C ,  9-H ) :   0.9631 B(  2-N ,  3-O ) :   1.8587 B(  2-N ,  4-O ) :   1.8646
B(  3-O ,  4-O ) :   0.2835

Dispersion correction           -0.001892753
FINAL SINGLE POINT ENERGY      -284.281099795354

DIPOLE MOMENT
-------------

Method             : SCF
Type of density    : Electron Density
Multiplicity       :   1
Irrep              :   0
Energy             :  -284.2903178947317429 Eh
Relativity type    :
Basis              : AO
                                X                 Y                 Z
Electronic contribution:      5.945584974      -2.044517711      -0.254801343
Nuclear contribution   :     -7.249169592       2.448456357      -0.143817201
                        -----------------------------------------
Total Dipole Moment    :     -1.303584618       0.403938646      -0.398618543
                        -----------------------------------------
Magnitude (a.u.)       :      1.421758077
Magnitude (Debye)      :      3.613821836

Rotational constants in cm-1:             0.323978             0.143379             0.114884
Rotational constants in MHz :          9712.607619          4298.382477          3444.128397

                             ****ORCA TERMINATED NORMALLY****
TOTAL RUN TIME: 0 days 0 hours 0 minutes 15 seconds 496 msec
