                         Program Version 6.0.1  -  RELEASE   -
|  1> ! pbe def2-sv(p) def2/J RI DEFGRID1 loosescf d4 GCP(DFT/SV(P)) printgap
|  2> %output
|  3>     printlevel normal
|  4> end
|  5> * xyz 0 1
|  6> C -2.3271443585 -0.8635642385 -0.5972619324
|  7> C -1.0530798648 -0.5722972977 0.2084680661
|  8> H -1.1795163265 -0.9402228605 1.2429750433
|  9> C -0.7480913499 0.9479500403 0.2938894558
| 10> H -1.5801482776 1.4954156263 -0.1637590965
| 11> C 0.5473565373 1.2542607698 -0.4797257281
| 12> H 0.8055916033 2.3082962799 -0.3334809899
| 13> C 1.6992607474 0.3929451013 0.0826836182
| 14> H 2.5278651393 0.4193040455 -0.6370523496
| 15> C 1.2389691802 -1.0804050965 0.213301895
| 16> H 1.1360479088 -1.323632643 1.2956767361
| 17> O -0.0036149747 -1.2981524426 -0.4122870079
| 18> O 2.1791677983 -1.8958628022 -0.3915060029
| 19> O 2.0911713475 0.9204814828 1.3305165027
| 20> O 0.4035332053 1.0673624569 -1.8571745483
| 21> O -0.672812036 1.378709749 1.6281528053
| 22> O -3.4294577603 -0.1304123803 -0.1475827789
| 23> H -2.5224523714 -1.9452261599 -0.5652988673
| 24> H -2.1726818837 -0.5703721001 -1.6383025109
| 25> H 1.7707336681 -2.749493595 -0.5805251799
| 26> H 2.9175419959 0.5076140509 1.6040188019
| 27> H 0.2236087693 0.1300632513 -2.0155437442
| 28> H 0.2466413809 1.3112200215 1.9251127713
| 29> H -3.5301530969 -0.2517871006 0.8037596512
| 30> *
| 31>
| 32>                          ****END OF INPUT****

CARTESIAN COORDINATES (ANGSTROEM)
---------------------------------
  C     -2.327144   -0.863564   -0.597262
  C     -1.053080   -0.572297    0.208468
  H     -1.179516   -0.940223    1.242975
  C     -0.748091    0.947950    0.293889
  H     -1.580148    1.495416   -0.163759
  C      0.547357    1.254261   -0.479726
  H      0.805592    2.308296   -0.333481
  C      1.699261    0.392945    0.082684
  H      2.527865    0.419304   -0.637052
  C      1.238969   -1.080405    0.213302
  H      1.136048   -1.323633    1.295677
  O     -0.003615   -1.298152   -0.412287
  O      2.179168   -1.895863   -0.391506
  O      2.091171    0.920481    1.330517
  O      0.403533    1.067362   -1.857175
  O     -0.672812    1.378710    1.628153
  O     -3.429458   -0.130412   -0.147583
  H     -2.522452   -1.945226   -0.565299
  H     -2.172682   -0.570372   -1.638303
  H      1.770734   -2.749494   -0.580525
  H      2.917542    0.507614    1.604019
  H      0.223609    0.130063   -2.015544
  H      0.246641    1.311220    1.925113
  H     -3.530153   -0.251787    0.803760

 Total Charge           Charge          ....    0
 Multiplicity           Mult            ....    1
 Number of Electrons    NEL             ....   96
 Basis Dimension        Dim             ....  192

ORBITAL ENERGIES
----------------

  NO   OCC          E(Eh)            E(eV)
   0   2.0000     -18.793565      -511.3989
   1   2.0000     -18.782183      -511.0892
   2   2.0000     -18.773935      -510.8648
   3   2.0000     -18.756490      -510.3900
   4   2.0000     -18.750105      -510.2163
   5   2.0000     -18.737071      -509.8616
   6   2.0000      -9.999608      -272.1032
   7   2.0000      -9.950543      -270.7681
   8   2.0000      -9.948690      -270.7176
   9   2.0000      -9.944807      -270.6120
  10   2.0000      -9.939709      -270.4732
  11   2.0000      -9.933825      -270.3131
  12   2.0000      -1.002836       -27.2886
  13   2.0000      -0.957108       -26.0442
  14   2.0000      -0.942678       -25.6516
  15   2.0000      -0.933962       -25.4144
  16   2.0000      -0.925166       -25.1750
  17   2.0000      -0.915516       -24.9125
  18   2.0000      -0.700606       -19.0645
  19   2.0000      -0.694599       -18.9010
  20   2.0000      -0.622493       -16.9389
  21   2.0000      -0.596865       -16.2415
  22   2.0000      -0.571874       -15.5615
  23   2.0000      -0.531089       -14.4517
  24   2.0000      -0.516156       -14.0453
  25   2.0000      -0.494197       -13.4478
  26   2.0000      -0.488718       -13.2987
  27   2.0000      -0.468167       -12.7395
  28   2.0000      -0.456185       -12.4134
  29   2.0000      -0.441712       -12.0196
  30   2.0000      -0.415814       -11.3149
  31   2.0000      -0.402608       -10.9555
  32   2.0000      -0.390777       -10.6336
  33   2.0000      -0.377074       -10.2607
  34   2.0000      -0.362536        -9.8651
  35   2.0000      -0.352330        -9.5874
  36   2.0000      -0.334221        -9.0946
  37   2.0000      -0.328580        -8.9411
  38   2.0000      -0.325122        -8.8470
  39   2.0000      -0.298145        -8.1129
  40   2.0000      -0.285058        -7.7568
  41   2.0000      -0.279173        -7.5967
  42   2.0000      -0.264209        -7.1895
  43   2.0000      -0.253143        -6.8884
  44   2.0000      -0.240847        -6.5538
  45   2.0000      -0.226314        -6.1583
  46   2.0000      -0.218726        -5.9518
  47   2.0000      -0.201564        -5.4848
  48   0.0000       0.005342         0.1454
  49   0.0000       0.022566         0.6141
  50   0.0000       0.024317         0.6617
  51   0.0000       0.042054         1.1443
  52   0.0000       0.050141         1.3644

MULLIKEN ATOMIC CHARGES
-----------------------
   0 C :    0.091437
   1 C :   -0.037364
   2 H :    0.056253
   3 C :    0.045731
   4 H :    0.090704
   5 C :    0.018880
   6 H :    0.091965
   7 C :    0.023404
   8 H :    0.086252
   9 C :    0.187927
  10 H :    0.036074
  11 O :   -0.319350
  12 O :   -0.383326
  13 O :   -0.420315
  14 O :   -0.416411
  15 O :   -0.429568
  16 O :   -0.420195
  17 H :    0.080581
  18 H :    0.080600
  19 H :    0.305697
  20 H :    0.317389
  21 H :    0.306408
  22 H :    0.302332
  23 H :    0.304896
Sum of atomic charges:    0.0000000

LOEWDIN ATOMIC CHARGES
----------------------
   0 C :   -0.125106
   1 C :   -0.084732
   2 H :    0.101002
   3 C :   -0.080777
   4 H :    0.121222
   5 C :   -0.071156
   6 H :    0.124129
   7 C :   -0.091637
   8 H :    0.118539
   9 C :   -0.002874
  10 H :    0.078166
  11 O :   -0.156770
  12 O :   -0.299810
  13 O :   -0.309668
  14 O :   -0.307399
  15 O :   -0.326699
  16 O :   -0.318709
  17 H :    0.098731
  18 H :    0.113704
  19 H :    0.289037
  20 H :    0.297383
  21 H :    0.273491
  22 H :    0.271260
  23 H :    0.288671

  Mayer bond orders larger than 0.100000
B(  0-C ,  1-C ) :   1.0412 B(  0-C , 16-O ) :   1.0719 B(  0-C , 17-H ) :   0.9128
B(  0-C , 18-H ) :   0.9103 B(  1-C ,  2-H ) :   0.8763 B(  1-C ,  3-C ) :   0.9373
B(  1-C , 11-O ) :   0.9649 B(  3-C ,  4-H ) :   0.8925 B(  3-C ,  5-C ) :   1.0048
B(  3-C , 15-O ) :   1.0696 B(  5-C ,  6-H ) :   0.8943 B(  5-C ,  7-C ) :   0.9909
B(  5-C , 14-O ) :   1.0551 B(  7-C ,  8-H ) :   0.8853 B(  7-C ,  9-C ) :   0.9709
B(  7-C , 13-O ) :   1.0204 B(  9-C , 10-H ) :   0.8771 B(  9-C , 11-O ) :   1.0253
B(  9-C , 12-O ) :   1.1604 B( 12-O , 19-H ) :   0.8389 B( 13-O , 20-H ) :   0.8410
B( 14-O , 21-H ) :   0.8243 B( 15-O , 22-H ) :   0.8130 B( 16-O , 23-H ) :   0.8467

Dispersion correction           -0.024971722
FINAL SINGLE POINT ENERGY      -685.690121836501

DIPOLE MOMENT
-------------

Method             : SCF
Type of density    : Electron Density
Multiplicity       :   1
Irrep              :   0
Energy             :  -685.8229829966610396 Eh
Relativity type    :
Basis              : AO
                                X                 Y                 Z
Electronic contribution:      1.994184941       0.177413512      -0.222413227
Nuclear contribution   :     -1.264608748      -1.508723883       0.881833724
                        -----------------------------------------
Total Dipole Moment    :      0.729576193      -1.331310371       0.659420497
                        -----------------------------------------
Magnitude (a.u.)       :      1.655144742
Magnitude (Debye)      :      4.207043596

Rotational constants in cm-1:             0.043607             0.025144             0.021407
Rotational constants in MHz :          1307.301522           753.789629           641.765927

                             ****ORCA TERMINATED NORMALLY****
TOTAL RUN TIME: 0 days 0 hours 0 minutes 9 seconds 95 msec
