                         Program Version 6.0.0  -   RELEASE  -
|  1> ! r2SCAN-3c DEF2-TZVP FREQ
|  2> * xyzfile 0 1 censo.xyz
|  3>
|  4>                          ****END OF INPUT****

CARTESIAN COORDINATES (ANGSTROEM)
---------------------------------
  C     -2.242632    0.269459    0.000062
  C     -1.778121   -1.044067    0.000069
  C     -0.410574   -1.290131    0.000047
  C      0.493231   -0.220804   -0.000008
  C      0.020757    1.099383   -0.000037
  C     -1.344069    1.339905    0.000007
  C      1.927604   -0.516380   -0.000031
  O      2.815061    0.329972   -0.000066
  H     -3.310502    0.463741    0.000081
  H     -2.481172   -1.870308    0.000123
  H     -0.032338   -2.308753    0.000056
  H      0.729952    1.920848   -0.000075
  H     -1.717208    2.358752   -0.000019
  H      2.184208   -1.594077   -0.000034

 Total Charge           Charge          ....    0
 Multiplicity           Mult            ....    1
 Number of Electrons    NEL             ....   56
 Basis Dimension        Dim             ....  284

ORBITAL ENERGIES
----------------

  NO   OCC          E(Eh)            E(eV)
   0   2.0000     -18.947274      -515.5815
   1   2.0000     -10.120810      -275.4013
   2   2.0000     -10.062503      -273.8146
   3   2.0000     -10.061079      -273.7759
   4   2.0000     -10.058711      -273.7114
   5   2.0000     -10.057535      -273.6794
   6   2.0000     -10.056324      -273.6465
   7   2.0000     -10.055758      -273.6311
   8   2.0000      -1.000849       -27.2345
   9   2.0000      -0.843588       -22.9552
  10   2.0000      -0.747732       -20.3468
  11   2.0000      -0.734924       -19.9983
  12   2.0000      -0.629229       -17.1222
  13   2.0000      -0.594013       -16.1639
  14   2.0000      -0.548938       -14.9374
  15   2.0000      -0.497376       -13.5343
  16   2.0000      -0.458814       -12.4850
  17   2.0000      -0.437094       -11.8939
  18   2.0000      -0.414827       -11.2880
  19   2.0000      -0.408771       -11.1232
  20   2.0000      -0.393973       -10.7205
  21   2.0000      -0.386325       -10.5124
  22   2.0000      -0.346026        -9.4159
  23   2.0000      -0.342915        -9.3312
  24   2.0000      -0.329832        -8.9752
  25   2.0000      -0.259237        -7.0542
  26   2.0000      -0.255479        -6.9519
  27   2.0000      -0.226797        -6.1715
  28   0.0000      -0.101545        -2.7632
  29   0.0000      -0.053117        -1.4454
  30   0.0000      -0.001730        -0.0471
  31   0.0000       0.049898         1.3578
  32   0.0000       0.071506         1.9458

MULLIKEN ATOMIC CHARGES
-----------------------
   0 C :   -0.104522
   1 C :   -0.098210
   2 C :   -0.170078
   3 C :    0.158996
   4 C :   -0.191579
   5 C :   -0.063136
   6 C :    0.126009
   7 O :   -0.323798
   8 H :    0.120361
   9 H :    0.118032
  10 H :    0.114920
  11 H :    0.135892
  12 H :    0.120333
  13 H :    0.056778
Sum of atomic charges:    0.0000000

LOEWDIN ATOMIC CHARGES
----------------------
   0 C :   -0.116868
   1 C :   -0.133484
   2 C :   -0.090580
   3 C :   -0.161652
   4 C :   -0.070163
   5 C :   -0.128236
   6 C :   -0.250182
   7 O :    0.093194
   8 H :    0.146170
   9 H :    0.145840
  10 H :    0.149085
  11 H :    0.156344
  12 H :    0.146524
  13 H :    0.114006

  Mayer bond orders larger than 0.100000
B(  0-C ,  1-C ) :   1.3986 B(  0-C ,  5-C ) :   1.3567 B(  0-C ,  8-H ) :   0.9641
B(  1-C ,  2-C ) :   1.4108 B(  1-C ,  9-H ) :   0.9684 B(  2-C ,  3-C ) :   1.3094
B(  2-C , 10-H ) :   0.9632 B(  3-C ,  4-C ) :   1.3105 B(  3-C ,  6-C ) :   0.9202
B(  3-C ,  7-O ) :  -0.1043 B(  4-C ,  5-C ) :   1.4209 B(  4-C , 11-H ) :   0.9615
B(  5-C , 12-H ) :   0.9701 B(  6-C ,  7-O ) :   2.0274 B(  6-C , 13-H ) :   0.9998

Dispersion correction           -0.004442263
FINAL SINGLE POINT ENERGY      -345.514804749671

DIPOLE MOMENT
-------------

Method             : SCF
Type of density    : Electron Density
Multiplicity       :   1
Irrep              :   0
Energy             :  -345.5139339180570346 Eh
Relativity type    :
Basis              : AO
                                X                 Y                 Z
Electronic contribution:      2.968526352       0.513691574      -0.000068342
Nuclear contribution   :     -4.317010034      -0.955165966       0.000103816
                        -----------------------------------------
Total Dipole Moment    :     -1.348483682      -0.441474391       0.000035474
                        -----------------------------------------
Magnitude (a.u.)       :      1.418910808
Magnitude (Debye)      :      3.606584653

VIBRATIONAL FREQUENCIES
-----------------------

Scaling factor for frequencies =  1.000000000  (already applied!)

     0:       0.00 cm**-1
     1:       0.00 cm**-1
     2:       0.00 cm**-1
     3:       0.00 cm**-1
     4:       0.00 cm**-1
     5:       0.00 cm**-1
     6:     145.10 cm**-1
     7:     234.14 cm**-1
     8:     236.03 cm**-1
     9:     413.25 cm**-1
    10:     447.92 cm**-1
    11:     458.44 cm**-1
    12:     631.43 cm**-1
    13:     668.09 cm**-1
    14:     701.61 cm**-1
    15:     758.68 cm**-1
    16:     848.98 cm**-1
    17:     857.15 cm**-1
    18:     929.46 cm**-1
    19:     973.67 cm**-1
    20:     995.33 cm**-1
    21:    1011.86 cm**-1
    22:    1020.38 cm**-1
    23:    1040.92 cm**-1
    24:    1102.07 cm**-1
    25:    1184.23 cm**-1
    26:    1186.70 cm**-1
    27:    1234.88 cm**-1
    28:    1332.34 cm**-1
    29:    1358.09 cm**-1
    30:    1403.39 cm**-1
    31:    1479.82 cm**-1
    32:    1515.83 cm**-1
    33:    1608.83 cm**-1
    34:    1629.07 cm**-1
    35:    1681.40 cm**-1
    36:    2918.15 cm**-1
    37:    3156.71 cm**-1
    38:    3164.01 cm**-1
    39:    3174.25 cm**-1
    40:    3183.12 cm**-1
    41:    3188.78 cm**-1

IR SPECTRUM
-----------

 Mode   freq       eps      Int      T**2         TX        TY        TZ
       cm**-1   L/(mol*cm) km/mol    a.u.
----------------------------------------------------------------------------
  6:    145.10   0.000504    2.55  0.001084  (-0.000004  0.000026 -0.032924)
  7:    234.14   0.001823    9.21  0.002430  (-0.000023  0.000036  0.049294)
  8:    236.03   0.001323    6.69  0.001749  ( 0.033594 -0.024911  0.000036)
  9:    413.25   0.000035    0.18  0.000026  (-0.000003 -0.000005  0.005144)
 10:    447.92   0.000042    0.21  0.000029  ( 0.002838 -0.004608 -0.000006)
 11:    458.44   0.001173    5.93  0.000799  (-0.000018 -0.000030 -0.028262)
 12:    631.43   0.000101    0.51  0.000050  (-0.004876  0.005134 -0.000002)
 13:    668.09   0.004608   23.29  0.002152  (-0.043071  0.017246  0.000002)
 14:    701.61   0.007527   38.04  0.003348  ( 0.000018  0.000020 -0.057862)
 15:    758.68   0.007440   37.60  0.003060  (-0.000005  0.000002 -0.055318)
 16:    848.98   0.005395   27.27  0.001983  (-0.040277  0.018998  0.000000)
 17:    857.15   0.000007    0.03  0.000002  (-0.000001  0.000001  0.001541)
 18:    929.46   0.000176    0.89  0.000059  ( 0.000005  0.000004  0.007687)
 19:    973.67   0.000009    0.05  0.000003  ( 0.000002 -0.000001  0.001692)
 20:    995.33   0.000033    0.17  0.000010  ( 0.000005  0.000014 -0.003206)
 21:   1011.86   0.000280    1.42  0.000087  (-0.000007 -0.000009  0.009301)
 22:   1020.38   0.000226    1.14  0.000069  ( 0.007778 -0.002927  0.000001)
 23:   1040.92   0.000857    4.33  0.000257  (-0.015912  0.001939  0.000001)
 24:   1102.07   0.001090    5.51  0.000309  (-0.002569 -0.017378  0.000000)
 25:   1184.23   0.000515    2.60  0.000136  ( 0.011435  0.002217 -0.000000)
 26:   1186.70   0.004065   20.54  0.001069  (-0.032335  0.004846  0.000001)
 27:   1234.88   0.010085   50.97  0.002549  ( 0.049400 -0.010402 -0.000001)
 28:   1332.34   0.004567   23.08  0.001070  ( 0.030294 -0.012330 -0.000001)
 29:   1358.09   0.000927    4.68  0.000213  (-0.010546 -0.010087  0.000001)
 30:   1403.39   0.000782    3.95  0.000174  ( 0.002836 -0.012876  0.000000)
 31:   1479.82   0.003317   16.76  0.000699  (-0.018425  0.018973 -0.000000)
 32:   1515.83   0.000310    1.57  0.000064  ( 0.007385 -0.003051 -0.000000)
 33:   1608.83   0.007077   35.76  0.001373  ( 0.036256  0.007626 -0.000001)
 34:   1629.07   0.010856   54.86  0.002080  (-0.045499 -0.003063  0.000001)
 35:   1681.40   0.042289  213.71  0.007849  (-0.081057 -0.035755  0.000002)
 36:   2918.15   0.023112  116.80  0.002472  ( 0.022217 -0.044474 -0.000000)
 37:   3156.71   0.000583    2.94  0.000058  ( 0.003990 -0.006456  0.000000)
 38:   3164.01   0.000286    1.45  0.000028  (-0.005019  0.001742  0.000000)
 39:   3174.25   0.002153   10.88  0.000212  ( 0.003456 -0.014133  0.000000)
 40:   3183.12   0.002187   11.05  0.000214  (-0.009783 -0.010896  0.000001)
 41:   3188.78   0.002039   10.31  0.000200  ( 0.012841 -0.005888 -0.000000)

--------------------------
THERMOCHEMISTRY AT 298.15K
--------------------------

Temperature         ...   298.15 K
Pressure            ...     1.00 atm
Total Mass          ...   106.12 AMU
Quasi RRHO          ...     True
Cut-Off Frequency   ...     1.00 cm^-1

Throughout the following assumptions are being made:
  (1) The electronic state is orbitally nondegenerate
  (2) There are no thermally accessible electronically excited states
  (3) Hindered rotations indicated by low frequency modes are not
      treated as such but are treated as vibrations and this may
      cause some error
  (4) All equations used are the standard statistical mechanics
      equations for an ideal gas
  (5) All vibrations are strictly harmonic

freq.     145.10  E(vib)   ...       0.41
freq.     234.14  E(vib)   ...       0.32
freq.     236.03  E(vib)   ...       0.32
freq.     413.25  E(vib)   ...       0.19
freq.     447.92  E(vib)   ...       0.17
freq.     458.44  E(vib)   ...       0.16
freq.     631.43  E(vib)   ...       0.09
freq.     668.09  E(vib)   ...       0.08
freq.     701.61  E(vib)   ...       0.07
freq.     758.68  E(vib)   ...       0.06
freq.     848.98  E(vib)   ...       0.04
freq.     857.15  E(vib)   ...       0.04
freq.     929.46  E(vib)   ...       0.03
freq.     973.67  E(vib)   ...       0.03
freq.     995.33  E(vib)   ...       0.02
freq.    1011.86  E(vib)   ...       0.02
freq.    1020.38  E(vib)   ...       0.02
freq.    1040.92  E(vib)   ...       0.02
freq.    1102.07  E(vib)   ...       0.02
freq.    1184.23  E(vib)   ...       0.01
freq.    1186.70  E(vib)   ...       0.01
freq.    1234.88  E(vib)   ...       0.01
freq.    1332.34  E(vib)   ...       0.01
freq.    1358.09  E(vib)   ...       0.01
freq.    1403.39  E(vib)   ...       0.00
freq.    1479.82  E(vib)   ...       0.00
freq.    1515.83  E(vib)   ...       0.00
freq.    1608.83  E(vib)   ...       0.00
freq.    1629.07  E(vib)   ...       0.00
freq.    1681.40  E(vib)   ...       0.00
freq.    2918.15  E(vib)   ...       0.00
freq.    3156.71  E(vib)   ...       0.00
freq.    3164.01  E(vib)   ...       0.00
freq.    3174.25  E(vib)   ...       0.00
freq.    3183.12  E(vib)   ...       0.00
freq.    3188.78  E(vib)   ...       0.00

------------
INNER ENERGY
------------

The inner energy is: U= E(el) + E(ZPE) + E(vib) + E(rot) + E(trans)
    E(el)   - is the total energy from the electronic structure calculation
              = E(kin-el) + E(nuc-el) + E(el-el) + E(nuc-nuc)
    E(ZPE)  - the the zero temperature vibrational energy from the frequency calculation
    E(vib)  - the the finite temperature correction to E(ZPE) due to population
              of excited vibrational states
    E(rot)  - is the rotational thermal energy
    E(trans)- is the translational thermal energy

Summary of contributions to the inner energy U:
Electronic energy                ...   -345.51480475 Eh
Zero point energy                ...      0.10906529 Eh      68.44 kcal/mol
Thermal vibrational correction   ...      0.00343458 Eh       2.16 kcal/mol
Thermal rotational correction    ...      0.00141627 Eh       0.89 kcal/mol
Thermal translational correction ...      0.00141627 Eh       0.89 kcal/mol
-----------------------------------------------------------------------
Total thermal energy                   -345.39947234 Eh

Summary of corrections to the electronic energy:
(perhaps to be used in another calculation)
Total thermal correction                  0.00626712 Eh       3.93 kcal/mol
Non-thermal (ZPE) correction              0.10906529 Eh      68.44 kcal/mol
-----------------------------------------------------------------------
Total correction                          0.11533241 Eh      72.37 kcal/mol

--------
ENTHALPY
--------

The enthalpy is H = U + kB*T
                kB is Boltzmann's constant
Total thermal energy              ...   -345.39947234 Eh
Thermal Enthalpy correction       ...      0.00094421 Eh       0.59 kcal/mol
-----------------------------------------------------------------------
Total Enthalpy                    ...   -345.39852813 Eh

Note: Rotational entropy computed according to Herzberg
Infrared and Raman Spectra, Chapter V,1, Van Nostrand Reinhold, 1945
Point Group:  Cs, Symmetry Number:   1
Rotational constants in cm-1:     0.174574     0.052349     0.040272

Vibrational entropy computed according to the QRRHO of S. Grimme
Chem.Eur.J. 2012 18 9955 using a reference frequency of 100.0 cm-1

-------
ENTROPY
-------

The entropy contributions are T*S = T*(S(el)+S(vib)+S(rot)+S(trans))
     S(el)   - electronic entropy
     S(vib)  - vibrational entropy
     S(rot)  - rotational entropy
     S(trans)- translational entropy
The entropies will be listed as multiplied by the temperature to get
units of energy

Electronic entropy                ...      0.00000000 Eh      0.00 kcal/mol
Vibrational entropy               ...      0.00540380 Eh      3.39 kcal/mol
Rotational entropy                ...      0.01324378 Eh      8.31 kcal/mol
Translational entropy             ...      0.01895542 Eh     11.89 kcal/mol
-----------------------------------------------------------------------
Final entropy term                ...      0.03760300 Eh     23.60 kcal/mol

In case the symmetry of your molecule has not been determined correctly
or in case you have a reason to use a different symmetry number we print
out the resulting rotational entropy values for sn=1,12:

 non-linear molecules -----------------------------------
|  sn= 1 | S(rot)=       0.01324378 Eh      8.31 kcal/mol|
|  sn= 2 | S(rot)=       0.01258933 Eh      7.90 kcal/mol|
|  sn= 3 | S(rot)=       0.01220649 Eh      7.66 kcal/mol|
|  sn= 4 | S(rot)=       0.01193487 Eh      7.49 kcal/mol|
|  sn= 5 | S(rot)=       0.01172418 Eh      7.36 kcal/mol|
|  sn= 6 | S(rot)=       0.01155204 Eh      7.25 kcal/mol|
|  sn= 7 | S(rot)=       0.01140649 Eh      7.16 kcal/mol|
|  sn= 8 | S(rot)=       0.01128041 Eh      7.08 kcal/mol|
|  sn= 9 | S(rot)=       0.01116920 Eh      7.01 kcal/mol|
|  sn=10 | S(rot)=       0.01106973 Eh      6.95 kcal/mol|
|  sn=11 | S(rot)=       0.01097974 Eh      6.89 kcal/mol|
|  sn=12 | S(rot)=       0.01089758 Eh      6.84 kcal/mol|
 linear molecules ---------------------------------------
|  Dinfh | S(rot)=       0.00835860 Eh      5.25 kcal/mol|
|  Cinfv | S(rot)=       0.00901306 Eh      5.66 kcal/mol|
 --------------------------------------------------------

-------------------
GIBBS FREE ENERGY
-------------------

The Gibbs free energy is G = H - T*S

Total enthalpy                    ...   -345.39852813 Eh
Total entropy correction          ...     -0.03760300 Eh    -23.60 kcal/mol
-----------------------------------------------------------------------
Final Gibbs free energy         ...   -345.43613113 Eh

                             ****ORCA TERMINATED NORMALLY****
TOTAL RUN TIME: 0 days 0 hours 7 minutes 22 seconds 632 msec
