                         Program Version 6.0.0  -   RELEASE  -
|  1> ! r2SCAN-3c DEF2-TZVP FREQ
|  2> * xyzfile 0 1 vacuum_censo.xyz
|  3>
|  4>                          ****END OF INPUT****

CARTESIAN COORDINATES (ANGSTROEM)
---------------------------------
  C     -2.245907    0.271228   -0.000022
  C     -1.343938    1.337244    0.000032
  C      0.020186    1.091655    0.000069
  C      0.489228   -0.226772    0.000071
  C     -0.416687   -1.290651    0.000028
  C     -1.784170   -1.042494   -0.000031
  C      1.938144   -0.506331    0.000109
  O      2.804815    0.342207   -0.000008
  H     -3.313556    0.467449   -0.000056
  H     -1.713033    2.357783    0.000044
  H      0.744223    1.899949    0.000101
  H     -0.042690   -2.311599    0.000034
  H     -2.489421   -1.867101   -0.000078
  H      2.199696   -1.590307    0.000269

 Total Charge           Charge          ....    0
 Multiplicity           Mult            ....    1
 Number of Electrons    NEL             ....   56
 Basis Dimension        Dim             ....  284

ORBITAL ENERGIES
----------------

  NO   OCC          E(Eh)            E(eV)
   0   2.0000     -18.949057      -515.6300
   1   2.0000     -10.121700      -275.4255
   2   2.0000     -10.061424      -273.7853
   3   2.0000     -10.059989      -273.7462
   4   2.0000     -10.057605      -273.6814
   5   2.0000     -10.056700      -273.6567
   6   2.0000     -10.055180      -273.6154
   7   2.0000     -10.054607      -273.5998
   8   2.0000      -1.009480       -27.4693
   9   2.0000      -0.843096       -22.9418
  10   2.0000      -0.746415       -20.3110
  11   2.0000      -0.733970       -19.9723
  12   2.0000      -0.626982       -17.0611
  13   2.0000      -0.593674       -16.1547
  14   2.0000      -0.548033       -14.9127
  15   2.0000      -0.497384       -13.5345
  16   2.0000      -0.457805       -12.4575
  17   2.0000      -0.436784       -11.8855
  18   2.0000      -0.414466       -11.2782
  19   2.0000      -0.407721       -11.0947
  20   2.0000      -0.397218       -10.8089
  21   2.0000      -0.387984       -10.5576
  22   2.0000      -0.348392        -9.4802
  23   2.0000      -0.342644        -9.3238
  24   2.0000      -0.328908        -8.9501
  25   2.0000      -0.258522        -7.0347
  26   2.0000      -0.255302        -6.9471
  27   2.0000      -0.228112        -6.2072
  28   0.0000      -0.099354        -2.7036
  29   0.0000      -0.052317        -1.4236
  30   0.0000      -0.001022        -0.0278
  31   0.0000       0.050526         1.3749
  32   0.0000       0.071432         1.9438

MULLIKEN ATOMIC CHARGES
-----------------------
   0 C :   -0.102492
   1 C :   -0.069490
   2 C :   -0.181417
   3 C :    0.146397
   4 C :   -0.171908
   5 C :   -0.097927
   6 C :    0.124884
   7 O :   -0.309330
   8 H :    0.120048
   9 H :    0.119424
  10 H :    0.136150
  11 H :    0.114100
  12 H :    0.117793
  13 H :    0.053769
Sum of atomic charges:    0.0000000

LOEWDIN ATOMIC CHARGES
----------------------
   0 C :   -0.118109
   1 C :   -0.128374
   2 C :   -0.072694
   3 C :   -0.161960
   4 C :   -0.092932
   5 C :   -0.133512
   6 C :   -0.258741
   7 O :    0.109613
   8 H :    0.146168
   9 H :    0.146451
  10 H :    0.156237
  11 H :    0.149004
  12 H :    0.145795
  13 H :    0.113055

  Mayer bond orders larger than 0.100000
B(  0-C ,  1-C ) :   1.3585 B(  0-C ,  5-C ) :   1.3988 B(  0-C ,  8-H ) :   0.9642
B(  1-C ,  2-C ) :   1.4174 B(  1-C ,  9-H ) :   0.9707 B(  2-C ,  3-C ) :   1.3187
B(  2-C , 10-H ) :   0.9596 B(  3-C ,  4-C ) :   1.3153 B(  3-C ,  6-C ) :   0.9124
B(  4-C ,  5-C ) :   1.4108 B(  4-C , 11-H ) :   0.9633 B(  5-C , 12-H ) :   0.9685
B(  6-C ,  7-O ) :   2.0399 B(  6-C , 13-H ) :   0.9956

Dispersion correction           -0.004441609
FINAL SINGLE POINT ENERGY      -345.515266256690

DIPOLE MOMENT
-------------

Method             : SCF
Type of density    : Electron Density
Multiplicity       :   1
Irrep              :   0
Energy             :  -345.5143955436742544 Eh
Relativity type    :
Basis              : AO
                                X                 Y                 Z
Electronic contribution:      2.998926675       0.536464234      -0.000054662
Nuclear contribution   :     -4.291615740      -0.975576471       0.000120742
                        -----------------------------------------
Total Dipole Moment    :     -1.292689065      -0.439112237       0.000066079
                        -----------------------------------------
Magnitude (a.u.)       :      1.365234258
Magnitude (Debye)      :      3.470149706

VIBRATIONAL FREQUENCIES
-----------------------

Scaling factor for frequencies =  1.000000000  (already applied!)

     0:       0.00 cm**-1
     1:       0.00 cm**-1
     2:       0.00 cm**-1
     3:       0.00 cm**-1
     4:       0.00 cm**-1
     5:       0.00 cm**-1
     6:     120.49 cm**-1
     7:     226.37 cm**-1
     8:     233.90 cm**-1
     9:     412.53 cm**-1
    10:     443.95 cm**-1
    11:     458.30 cm**-1
    12:     632.09 cm**-1
    13:     664.72 cm**-1
    14:     702.74 cm**-1
    15:     759.33 cm**-1
    16:     842.37 cm**-1
    17:     859.08 cm**-1
    18:     931.18 cm**-1
    19:     974.23 cm**-1
    20:     996.89 cm**-1
    21:    1020.82 cm**-1
    22:    1021.98 cm**-1
    23:    1044.27 cm**-1
    24:    1100.60 cm**-1
    25:    1183.60 cm**-1
    26:    1185.58 cm**-1
    27:    1224.62 cm**-1
    28:    1333.35 cm**-1
    29:    1361.92 cm**-1
    30:    1411.51 cm**-1
    31:    1482.71 cm**-1
    32:    1515.99 cm**-1
    33:    1616.63 cm**-1
    34:    1631.52 cm**-1
    35:    1747.55 cm**-1
    36:    2851.73 cm**-1
    37:    3150.47 cm**-1
    38:    3161.76 cm**-1
    39:    3172.52 cm**-1
    40:    3181.88 cm**-1
    41:    3187.71 cm**-1

IR SPECTRUM
-----------

 Mode   freq       eps      Int      T**2         TX        TY        TZ
       cm**-1   L/(mol*cm) km/mol    a.u.
----------------------------------------------------------------------------
  6:    120.49   0.000758    3.83  0.001963  ( 0.000039  0.000014  0.044301)
  7:    226.37   0.001476    7.46  0.002034  (-0.036800  0.026076  0.000055)
  8:    233.90   0.001435    7.25  0.001915  (-0.000060  0.000049 -0.043756)
  9:    412.53   0.000015    0.08  0.000011  (-0.000029 -0.000015 -0.003356)
 10:    443.95   0.000072    0.36  0.000050  (-0.005336  0.004668 -0.000018)
 11:    458.30   0.001257    6.35  0.000856  (-0.000022  0.000001  0.029261)
 12:    632.09   0.000124    0.63  0.000061  ( 0.005783 -0.005270  0.000002)
 13:    664.72   0.004553   23.01  0.002137  ( 0.042860 -0.017329  0.000009)
 14:    702.74   0.007311   36.94  0.003246  (-0.000002  0.000010 -0.056977)
 15:    759.33   0.007650   38.66  0.003144  ( 0.000015  0.000019  0.056071)
 16:    842.37   0.006307   31.87  0.002336  ( 0.044279 -0.019384  0.000001)
 17:    859.08   0.000006    0.03  0.000002  (-0.000000  0.000001  0.001423)
 18:    931.18   0.000210    1.06  0.000070  (-0.000008 -0.000012 -0.008390)
 19:    974.23   0.000013    0.06  0.000004  (-0.000000 -0.000007 -0.002029)
 20:    996.89   0.000004    0.02  0.000001  (-0.000008 -0.000010  0.001113)
 21:   1020.82   0.000241    1.22  0.000074  ( 0.000030  0.000021 -0.008584)
 22:   1021.98   0.000170    0.86  0.000052  (-0.006832  0.002263 -0.000010)
 23:   1044.27   0.000823    4.16  0.000246  ( 0.015547 -0.002083  0.000001)
 24:   1100.60   0.001140    5.76  0.000323  (-0.001016 -0.017953 -0.000000)
 25:   1183.60   0.004068   20.56  0.001073  ( 0.032664 -0.002356  0.000001)
 26:   1185.58   0.002295   11.60  0.000604  (-0.023796  0.006145 -0.000000)
 27:   1224.62   0.010296   52.03  0.002624  (-0.050234  0.010011 -0.000002)
 28:   1333.35   0.003625   18.32  0.000848  ( 0.026384 -0.012343  0.000001)
 29:   1361.92   0.000935    4.72  0.000214  (-0.010668 -0.010020 -0.000001)
 30:   1411.51   0.000967    4.89  0.000214  ( 0.007580 -0.012505  0.000001)
 31:   1482.71   0.002725   13.77  0.000574  (-0.014008  0.019427  0.000000)
 32:   1515.99   0.000220    1.11  0.000045  (-0.006559  0.001533 -0.000000)
 33:   1616.63   0.003497   17.67  0.000675  ( 0.025744  0.003499  0.000000)
 34:   1631.52   0.006633   33.52  0.001269  ( 0.035616  0.000354  0.000000)
 35:   1747.55   0.050312  254.26  0.008984  (-0.087036 -0.037536  0.000006)
 36:   2851.73   0.025862  130.70  0.002830  ( 0.024038 -0.047458  0.000007)
 37:   3150.47   0.000876    4.43  0.000087  (-0.004446  0.008186 -0.000000)
 38:   3161.76   0.000149    0.75  0.000015  (-0.003751  0.000791 -0.000000)
 39:   3172.52   0.002308   11.66  0.000227  (-0.002591  0.014842  0.000000)
 40:   3181.88   0.002172   10.97  0.000213  ( 0.011408  0.009101  0.000001)
 41:   3187.71   0.001977    9.99  0.000194  (-0.012013  0.007015 -0.000000)

--------------------------
THERMOCHEMISTRY AT 298.15K
--------------------------

Temperature         ...   298.15 K
Pressure            ...     1.00 atm
Total Mass          ...   106.12 AMU
Quasi RRHO          ...     True
Cut-Off Frequency   ...     1.00 cm^-1

Throughout the following assumptions are being made:
  (1) The electronic state is orbitally nondegenerate
  (2) There are no thermally accessible electronically excited states
  (3) Hindered rotations indicated by low frequency modes are not
      treated as such but are treated as vibrations and this may
      cause some error
  (4) All equations used are the standard statistical mechanics
      equations for an ideal gas
  (5) All vibrations are strictly harmonic

freq.     120.49  E(vib)   ...       0.44
freq.     226.37  E(vib)   ...       0.33
freq.     233.90  E(vib)   ...       0.32
freq.     412.53  E(vib)   ...       0.19
freq.     443.95  E(vib)   ...       0.17
freq.     458.30  E(vib)   ...       0.16
freq.     632.09  E(vib)   ...       0.09
freq.     664.72  E(vib)   ...       0.08
freq.     702.74  E(vib)   ...       0.07
freq.     759.33  E(vib)   ...       0.06
freq.     842.37  E(vib)   ...       0.04
freq.     859.08  E(vib)   ...       0.04
freq.     931.18  E(vib)   ...       0.03
freq.     974.23  E(vib)   ...       0.03
freq.     996.89  E(vib)   ...       0.02
freq.    1020.82  E(vib)   ...       0.02
freq.    1021.98  E(vib)   ...       0.02
freq.    1044.27  E(vib)   ...       0.02
freq.    1100.60  E(vib)   ...       0.02
freq.    1183.60  E(vib)   ...       0.01
freq.    1185.58  E(vib)   ...       0.01
freq.    1224.62  E(vib)   ...       0.01
freq.    1333.35  E(vib)   ...       0.01
freq.    1361.92  E(vib)   ...       0.01
freq.    1411.51  E(vib)   ...       0.00
freq.    1482.71  E(vib)   ...       0.00
freq.    1515.99  E(vib)   ...       0.00
freq.    1616.63  E(vib)   ...       0.00
freq.    1631.52  E(vib)   ...       0.00
freq.    1747.55  E(vib)   ...       0.00
freq.    2851.73  E(vib)   ...       0.00
freq.    3150.47  E(vib)   ...       0.00
freq.    3161.76  E(vib)   ...       0.00
freq.    3172.52  E(vib)   ...       0.00
freq.    3181.88  E(vib)   ...       0.00
freq.    3187.71  E(vib)   ...       0.00

------------
INNER ENERGY
------------

The inner energy is: U= E(el) + E(ZPE) + E(vib) + E(rot) + E(trans)
    E(el)   - is the total energy from the electronic structure calculation
              = E(kin-el) + E(nuc-el) + E(el-el) + E(nuc-nuc)
    E(ZPE)  - the the zero temperature vibrational energy from the frequency calculation
    E(vib)  - the the finite temperature correction to E(ZPE) due to population
              of excited vibrational states
    E(rot)  - is the rotational thermal energy
    E(trans)- is the translational thermal energy

Summary of contributions to the inner energy U:
Electronic energy                ...   -345.51526626 Eh
Zero point energy                ...      0.10900322 Eh      68.40 kcal/mol
Thermal vibrational correction   ...      0.00349649 Eh       2.19 kcal/mol
Thermal rotational correction    ...      0.00141627 Eh       0.89 kcal/mol
Thermal translational correction ...      0.00141627 Eh       0.89 kcal/mol
-----------------------------------------------------------------------
Total thermal energy                   -345.39993400 Eh

Summary of corrections to the electronic energy:
(perhaps to be used in another calculation)
Total thermal correction                  0.00632903 Eh       3.97 kcal/mol
Non-thermal (ZPE) correction              0.10900322 Eh      68.40 kcal/mol
-----------------------------------------------------------------------
Total correction                          0.11533226 Eh      72.37 kcal/mol

--------
ENTHALPY
--------

The enthalpy is H = U + kB*T
                kB is Boltzmann's constant
Total thermal energy              ...   -345.39993400 Eh
Thermal Enthalpy correction       ...      0.00094421 Eh       0.59 kcal/mol
-----------------------------------------------------------------------
Total Enthalpy                    ...   -345.39898979 Eh

Note: Only C1 symmetry has been detected, increase convergence thresholds
      if your molecule has a higher symmetry. Symmetry factor of 1.0 is
      used for the rotational entropy correction.

Note: Rotational entropy computed according to Herzberg
Infrared and Raman Spectra, Chapter V,1, Van Nostrand Reinhold, 1945
Point Group:  C1, Symmetry Number:   1
Rotational constants in cm-1:     0.175203     0.052325     0.040292

Vibrational entropy computed according to the QRRHO of S. Grimme
Chem.Eur.J. 2012 18 9955 using a reference frequency of 100.0 cm-1

-------
ENTROPY
-------

The entropy contributions are T*S = T*(S(el)+S(vib)+S(rot)+S(trans))
     S(el)   - electronic entropy
     S(vib)  - vibrational entropy
     S(rot)  - rotational entropy
     S(trans)- translational entropy
The entropies will be listed as multiplied by the temperature to get
units of energy

Electronic entropy                ...      0.00000000 Eh      0.00 kcal/mol
Vibrational entropy               ...      0.00557315 Eh      3.50 kcal/mol
Rotational entropy                ...      0.01324207 Eh      8.31 kcal/mol
Translational entropy             ...      0.01895542 Eh     11.89 kcal/mol
-----------------------------------------------------------------------
Final entropy term                ...      0.03777064 Eh     23.70 kcal/mol

In case the symmetry of your molecule has not been determined correctly
or in case you have a reason to use a different symmetry number we print
out the resulting rotational entropy values for sn=1,12:

 non-linear molecules -----------------------------------
|  sn= 1 | S(rot)=       0.01324207 Eh      8.31 kcal/mol|
|  sn= 2 | S(rot)=       0.01258761 Eh      7.90 kcal/mol|
|  sn= 3 | S(rot)=       0.01220478 Eh      7.66 kcal/mol|
|  sn= 4 | S(rot)=       0.01193316 Eh      7.49 kcal/mol|
|  sn= 5 | S(rot)=       0.01172247 Eh      7.36 kcal/mol|
|  sn= 6 | S(rot)=       0.01155033 Eh      7.25 kcal/mol|
|  sn= 7 | S(rot)=       0.01140478 Eh      7.16 kcal/mol|
|  sn= 8 | S(rot)=       0.01127870 Eh      7.08 kcal/mol|
|  sn= 9 | S(rot)=       0.01116749 Eh      7.01 kcal/mol|
|  sn=10 | S(rot)=       0.01106801 Eh      6.95 kcal/mol|
|  sn=11 | S(rot)=       0.01097802 Eh      6.89 kcal/mol|
|  sn=12 | S(rot)=       0.01089587 Eh      6.84 kcal/mol|
 linear molecules ---------------------------------------
|  Dinfh | S(rot)=       0.00835814 Eh      5.24 kcal/mol|
|  Cinfv | S(rot)=       0.00901260 Eh      5.66 kcal/mol|
 --------------------------------------------------------

-------------------
GIBBS FREE ENERGY
-------------------

The Gibbs free energy is G = H - T*S

                             ****ORCA TERMINATED NORMALLY****
TOTAL RUN TIME: 0 days 0 hours 7 minutes 17 seconds 499 msec
