                         Program Version 6.0.1  -  RELEASE   -
|  1> ! pbe def2-sv(p) def2/J RI DEFGRID1 loosescf d4 GCP(DFT/SV(P)) printgap
|  2> %output
|  3>     printlevel normal
|  4> end
|  5> * xyz 0 1
|  6> C -2.9200440497 7.97034e-05 0.0493507913
|  7> C -1.4443932483 6.72559e-05 -0.3393919402
|  8> C -0.738182641 1.247483994 0.1921140326
|  9> C 0.7384366743 1.2475843083 -0.1917889587
| 10> C 1.4444669445 -6.97016e-05 0.3394119909
| 11> C 0.7382069455 -1.2476000786 -0.1917893175
| 12> C -0.7384216986 -1.2474939963 0.1920845473
| 13> C 2.9199392803 -5.1616e-05 -0.0499393262
| 14> H -3.4200484785 0.8826236832 -0.3437035824
| 15> H -3.4203222421 -0.8820349652 -0.3443226462
| 16> H -3.0275721261 -0.0002736032 1.1321984342
| 17> H -1.3715597935 9.2179e-05 -1.4332626475
| 18> H -1.2223219918 2.1429548679 -0.2045204459
| 19> H -0.8299477671 1.2740605874 1.2808514797
| 20> H 0.8301483184 1.2743820469 -1.2805231719
| 21> H 1.2226687849 2.1429254927 0.2050442832
| 22> H 1.3721196766 -6.79304e-05 1.4333108262
| 23> H 0.829958319 -1.2744362238 -1.2805218341
| 24> H 1.222315735 -2.1429969569 0.2050549609
| 25> H -1.222674851 -2.1428769771 -0.2046156797
| 26> H -0.8301857908 -1.2741106883 1.2808235071
| 27> H 3.4203113045 0.8822047953 0.3434195852
| 28> H 3.0269009734 0.0001411687 -1.1329119523
| 29> H 3.4201121275 -0.8825859146 0.3430613583
| 30> *
| 31>
| 32>                          ****END OF INPUT****

CARTESIAN COORDINATES (ANGSTROEM)
---------------------------------
  C     -2.920044    0.000080    0.049351
  C     -1.444393    0.000067   -0.339392
  C     -0.738183    1.247484    0.192114
  C      0.738437    1.247584   -0.191789
  C      1.444467   -0.000070    0.339412
  C      0.738207   -1.247600   -0.191789
  C     -0.738422   -1.247494    0.192085
  C      2.919939   -0.000052   -0.049939
  H     -3.420048    0.882624   -0.343704
  H     -3.420322   -0.882035   -0.344323
  H     -3.027572   -0.000274    1.132198
  H     -1.371560    0.000092   -1.433263
  H     -1.222322    2.142955   -0.204520
  H     -0.829948    1.274061    1.280851
  H      0.830148    1.274382   -1.280523
  H      1.222669    2.142925    0.205044
  H      1.372120   -0.000068    1.433311
  H      0.829958   -1.274436   -1.280522
  H      1.222316   -2.142997    0.205055
  H     -1.222675   -2.142877   -0.204616
  H     -0.830186   -1.274111    1.280824
  H      3.420311    0.882205    0.343420
  H      3.026901    0.000141   -1.132912
  H      3.420112   -0.882586    0.343061

 Total Charge           Charge          ....    0
 Multiplicity           Mult            ....    1
 Number of Electrons    NEL             ....   64
 Basis Dimension        Dim             ....  144

ORBITAL ENERGIES
----------------

  NO   OCC          E(Eh)            E(eV)
   0   2.0000      -9.886445      -269.0239
   1   2.0000      -9.886423      -269.0232
   2   2.0000      -9.875452      -268.7247
   3   2.0000      -9.875419      -268.7238
   4   2.0000      -9.875401      -268.7233
   5   2.0000      -9.875396      -268.7232
   6   2.0000      -9.868166      -268.5265
   7   2.0000      -9.868153      -268.5261
   8   2.0000      -0.757627       -20.6161
   9   2.0000      -0.698773       -19.0146
  10   2.0000      -0.660926       -17.9847
  11   2.0000      -0.628473       -17.1016
  12   2.0000      -0.568536       -15.4706
  13   2.0000      -0.539672       -14.6852
  14   2.0000      -0.503765       -13.7081
  15   2.0000      -0.493406       -13.4263
  16   2.0000      -0.421149       -11.4601
  17   2.0000      -0.395481       -10.7616
  18   2.0000      -0.392956       -10.6929
  19   2.0000      -0.381802       -10.3894
  20   2.0000      -0.379172       -10.3178
  21   2.0000      -0.353142        -9.6095
  22   2.0000      -0.339371        -9.2348
  23   2.0000      -0.328645        -8.9429
  24   2.0000      -0.320928        -8.7329
  25   2.0000      -0.311259        -8.4698
  26   2.0000      -0.298796        -8.1307
  27   2.0000      -0.287238        -7.8161
  28   2.0000      -0.281015        -7.6468
  29   2.0000      -0.275475        -7.4961
  30   2.0000      -0.252719        -6.8768
  31   2.0000      -0.248019        -6.7489
  32   0.0000       0.038267         1.0413
  33   0.0000       0.045956         1.2505
  34   0.0000       0.048947         1.3319
  35   0.0000       0.068668         1.8686
  36   0.0000       0.087608         2.3839

MULLIKEN ATOMIC CHARGES
-----------------------
   0 C :   -0.197898
   1 C :   -0.214757
   2 C :   -0.104330
   3 C :   -0.104315
   4 C :   -0.214780
   5 C :   -0.104322
   6 C :   -0.104322
   7 C :   -0.197954
   8 H :    0.093793
   9 H :    0.093800
  10 H :    0.088182
  11 H :    0.062026
  12 H :    0.076884
  13 H :    0.064867
  14 H :    0.064866
  15 H :    0.076904
  16 H :    0.062029
  17 H :    0.064866
  18 H :    0.076897
  19 H :    0.076892
  20 H :    0.064871
  21 H :    0.093809
  22 H :    0.088194
  23 H :    0.093800
Sum of atomic charges:    0.0000000

LOEWDIN ATOMIC CHARGES
----------------------
   0 C :   -0.327100
   1 C :   -0.153710
   2 C :   -0.216328
   3 C :   -0.216324
   4 C :   -0.153720
   5 C :   -0.216326
   6 C :   -0.216325
   7 C :   -0.327079
   8 H :    0.116040
   9 H :    0.116046
  10 H :    0.115791
  11 H :    0.112607
  12 H :    0.113770
  13 H :    0.112715
  14 H :    0.112715
  15 H :    0.113782
  16 H :    0.112610
  17 H :    0.112715
  18 H :    0.113780
  19 H :    0.113774
  20 H :    0.112715
  21 H :    0.116039
  22 H :    0.115782
  23 H :    0.116033

  Mayer bond orders larger than 0.100000
B(  0-C ,  1-C ) :   1.1153 B(  0-C ,  8-H ) :   0.9488 B(  0-C ,  9-H ) :   0.9488
B(  0-C , 10-H ) :   0.9460 B(  1-C ,  2-C ) :   1.0957 B(  1-C ,  6-C ) :   1.0957
B(  1-C , 11-H ) :   0.8936 B(  2-C ,  3-C ) :   1.1399 B(  2-C , 12-H ) :   0.9156
B(  2-C , 13-H ) :   0.9044 B(  3-C ,  4-C ) :   1.0958 B(  3-C , 14-H ) :   0.9044
B(  3-C , 15-H ) :   0.9157 B(  4-C ,  5-C ) :   1.0958 B(  4-C ,  7-C ) :   1.1154
B(  4-C , 16-H ) :   0.8936 B(  5-C ,  6-C ) :   1.1399 B(  5-C , 17-H ) :   0.9044
B(  5-C , 18-H ) :   0.9156 B(  6-C , 19-H ) :   0.9157 B(  6-C , 20-H ) :   0.9044
B(  7-C , 21-H ) :   0.9488 B(  7-C , 22-H ) :   0.9460 B(  7-C , 23-H ) :   0.9488

Dispersion correction           -0.021937145
FINAL SINGLE POINT ENERGY      -313.707301996001

DIPOLE MOMENT
-------------

Method             : SCF
Type of density    : Electron Density
Multiplicity       :   1
Irrep              :   0
Energy             :  -313.7882592004376647 Eh
Relativity type    :
Basis              : AO
                                X                 Y                 Z
Electronic contribution:      0.000032194      -0.000006864       0.000604128
Nuclear contribution   :     -0.000091754       0.000001465      -0.000579339
                        -----------------------------------------
Total Dipole Moment    :     -0.000059560      -0.000005399       0.000024789
                        -----------------------------------------
Magnitude (a.u.)       :      0.000064738
Magnitude (Debye)      :      0.000164552

Rotational constants in cm-1:             0.138681             0.044603             0.036461
Rotational constants in MHz :          4157.537919          1337.165761          1093.087127

                             ****ORCA TERMINATED NORMALLY****
TOTAL RUN TIME: 0 days 0 hours 0 minutes 6 seconds 815 msec
