                         Program Version 6.0.1  -  RELEASE   -
|  1> ! pbe def2-sv(p) def2/J RI DEFGRID1 loosescf d4 GCP(DFT/SV(P)) printgap
|  2> %output
|  3>     printlevel normal
|  4> end
|  5> * xyz 0 1
|  6> C -2.2970804921 -1.0495240856 -0.2788862277
|  7> C -0.922328587 -0.5720526559 0.1848839701
|  8> H -0.8490619221 -0.728171034 1.2738517596
|  9> C -0.7356027655 0.9355231439 -0.0988593327
| 10> H -1.3375968001 1.2290331099 -0.970281431
| 11> C 0.744311333 1.2420362244 -0.4335612358
| 12> H 0.9227873248 2.2963616409 -0.1934305154
| 13> C 1.6335187013 0.3531634275 0.4431078981
| 14> H 2.6910027823 0.5315141909 0.2124797065
| 15> C 1.3588337858 -1.1304269009 0.0813333585
| 16> H 1.4582147407 -1.7334373513 1.0055587286
| 17> O 0.0643562442 -1.3392096638 -0.4650335336
| 18> O 2.2725939704 -1.5177928574 -0.8855717385
| 19> O 1.4354159221 0.5953461551 1.8091646037
| 20> O 1.0178762222 1.0892702944 -1.7951041
| 21> O -1.1001227317 1.6925040229 1.0337447099
| 22> O -3.2572567036 -0.2484549638 0.3772380619
| 23> H -2.4193143829 -2.109052444 -0.0233244137
| 24> H -2.3649682585 -0.9395012519 -1.3687046725
| 25> H 2.0577310768 -2.4125370933 -1.1761061202
| 26> H 0.6011147114 1.0771697536 1.9231417036
| 27> H 1.1360765212 0.1482272653 -1.9832613663
| 28> H -2.0281229958 1.4991693071 1.2228056406
| 29> H -4.1371047237 -0.5341809474 0.1109422184
| 30> *
| 31>
| 32>                          ****END OF INPUT****

CARTESIAN COORDINATES (ANGSTROEM)
---------------------------------
  C     -2.297080   -1.049524   -0.278886
  C     -0.922329   -0.572053    0.184884
  H     -0.849062   -0.728171    1.273852
  C     -0.735603    0.935523   -0.098859
  H     -1.337597    1.229033   -0.970281
  C      0.744311    1.242036   -0.433561
  H      0.922787    2.296362   -0.193431
  C      1.633519    0.353163    0.443108
  H      2.691003    0.531514    0.212480
  C      1.358834   -1.130427    0.081333
  H      1.458215   -1.733437    1.005559
  O      0.064356   -1.339210   -0.465034
  O      2.272594   -1.517793   -0.885572
  O      1.435416    0.595346    1.809165
  O      1.017876    1.089270   -1.795104
  O     -1.100123    1.692504    1.033745
  O     -3.257257   -0.248455    0.377238
  H     -2.419314   -2.109052   -0.023324
  H     -2.364968   -0.939501   -1.368705
  H      2.057731   -2.412537   -1.176106
  H      0.601115    1.077170    1.923142
  H      1.136077    0.148227   -1.983261
  H     -2.028123    1.499169    1.222806
  H     -4.137105   -0.534181    0.110942

 Total Charge           Charge          ....    0
 Multiplicity           Mult            ....    1
 Number of Electrons    NEL             ....   96
 Basis Dimension        Dim             ....  192

ORBITAL ENERGIES
----------------

  NO   OCC          E(Eh)            E(eV)
   0   2.0000     -18.779307      -511.0109
   1   2.0000     -18.778823      -510.9978
   2   2.0000     -18.773040      -510.8404
   3   2.0000     -18.763423      -510.5787
   4   2.0000     -18.740035      -509.9423
   5   2.0000     -18.739424      -509.9256
   6   2.0000      -9.987458      -271.7725
   7   2.0000      -9.950566      -270.7687
   8   2.0000      -9.950356      -270.7630
   9   2.0000      -9.940241      -270.4877
  10   2.0000      -9.938188      -270.4318
  11   2.0000      -9.934609      -270.3345
  12   2.0000      -0.993455       -27.0333
  13   2.0000      -0.954524       -25.9739
  14   2.0000      -0.942604       -25.6496
  15   2.0000      -0.925693       -25.1894
  16   2.0000      -0.922211       -25.0946
  17   2.0000      -0.915035       -24.8994
  18   2.0000      -0.705299       -19.1922
  19   2.0000      -0.682990       -18.5851
  20   2.0000      -0.632829       -17.2202
  21   2.0000      -0.576996       -15.7009
  22   2.0000      -0.569233       -15.4896
  23   2.0000      -0.516204       -14.0466
  24   2.0000      -0.510304       -13.8861
  25   2.0000      -0.497818       -13.5463
  26   2.0000      -0.495973       -13.4961
  27   2.0000      -0.474329       -12.9072
  28   2.0000      -0.445802       -12.1309
  29   2.0000      -0.424055       -11.5391
  30   2.0000      -0.419713       -11.4210
  31   2.0000      -0.407647       -11.0926
  32   2.0000      -0.382494       -10.4082
  33   2.0000      -0.377312       -10.2672
  34   2.0000      -0.357162        -9.7189
  35   2.0000      -0.350116        -9.5271
  36   2.0000      -0.332574        -9.0498
  37   2.0000      -0.325713        -8.8631
  38   2.0000      -0.321638        -8.7522
  39   2.0000      -0.314885        -8.5685
  40   2.0000      -0.282042        -7.6748
  41   2.0000      -0.267566        -7.2808
  42   2.0000      -0.260946        -7.1007
  43   2.0000      -0.246064        -6.6957
  44   2.0000      -0.242371        -6.5953
  45   2.0000      -0.224499        -6.1089
  46   2.0000      -0.207884        -5.6568
  47   2.0000      -0.205235        -5.5847
  48   0.0000       0.000291         0.0079
  49   0.0000       0.022731         0.6185
  50   0.0000       0.045698         1.2435
  51   0.0000       0.053828         1.4647
  52   0.0000       0.059071         1.6074

MULLIKEN ATOMIC CHARGES
-----------------------
   0 C :    0.059348
   1 C :    0.004386
   2 H :    0.059527
   3 C :    0.030239
   4 H :    0.067945
   5 C :    0.035825
   6 H :    0.086870
   7 C :    0.022671
   8 H :    0.090605
   9 C :    0.170014
  10 H :    0.067310
  11 O :   -0.319504
  12 O :   -0.380251
  13 O :   -0.421495
  14 O :   -0.406290
  15 O :   -0.422397
  16 O :   -0.446345
  17 H :    0.085723
  18 H :    0.082492
  19 H :    0.306726
  20 H :    0.307876
  21 H :    0.291881
  22 H :    0.312666
  23 H :    0.314180
Sum of atomic charges:   -0.0000000

LOEWDIN ATOMIC CHARGES
----------------------
   0 C :   -0.120037
   1 C :   -0.075697
   2 H :    0.105047
   3 C :   -0.080473
   4 H :    0.110305
   5 C :   -0.068804
   6 H :    0.121669
   7 C :   -0.084122
   8 H :    0.120782
   9 C :   -0.005078
  10 H :    0.091960
  11 O :   -0.163433
  12 O :   -0.289674
  13 O :   -0.319055
  14 O :   -0.308956
  15 O :   -0.313764
  16 O :   -0.340427
  17 H :    0.102856
  18 H :    0.102090
  19 H :    0.290178
  20 H :    0.274777
  21 H :    0.269611
  22 H :    0.284758
  23 H :    0.295486

  Mayer bond orders larger than 0.100000
B(  0-C ,  1-C ) :   1.0635 B(  0-C , 16-O ) :   1.0635 B(  0-C , 17-H ) :   0.9175
B(  0-C , 18-H ) :   0.9079 B(  1-C ,  2-H ) :   0.8646 B(  1-C ,  3-C ) :   0.9872
B(  1-C , 11-O ) :   1.0382 B(  3-C ,  4-H ) :   0.8826 B(  3-C ,  5-C ) :   0.9718
B(  3-C , 15-O ) :   1.0357 B(  5-C ,  6-H ) :   0.8925 B(  5-C ,  7-C ) :   1.0352
B(  5-C , 14-O ) :   1.0889 B(  7-C ,  8-H ) :   0.8948 B(  7-C ,  9-C ) :   0.9335
B(  7-C , 13-O ) :   1.0867 B(  9-C , 10-H ) :   0.8983 B(  9-C , 11-O ) :   0.9947
B(  9-C , 12-O ) :   1.1309 B( 12-O , 19-H ) :   0.8410 B( 13-O , 20-H ) :   0.8060
B( 14-O , 21-H ) :   0.8303 B( 15-O , 20-H ) :   0.1073 B( 15-O , 22-H ) :   0.8224
B( 16-O , 23-H ) :   0.8454

Dispersion correction           -0.025190125
FINAL SINGLE POINT ENERGY      -685.695756169845

DIPOLE MOMENT
-------------

Method             : SCF
Type of density    : Electron Density
Multiplicity       :   1
Irrep              :   0
Energy             :  -685.8299986770789474 Eh
Relativity type    :
Basis              : AO
                                X                 Y                 Z
Electronic contribution:      2.382175540       0.343236085      -0.268598511
Nuclear contribution   :     -3.998862557      -1.567790221       0.032692111
                        -----------------------------------------
Total Dipole Moment    :     -1.616687018      -1.224554136      -0.235906400
                        -----------------------------------------
Magnitude (a.u.)       :      2.041779022
Magnitude (Debye)      :      5.189789834

Rotational constants in cm-1:             0.044346             0.025623             0.022043
Rotational constants in MHz :          1329.445578           768.171195           660.827349

                             ****ORCA TERMINATED NORMALLY****
TOTAL RUN TIME: 0 days 0 hours 23 minutes 37 seconds 727 msec
