                         Program Version 6.0.0  -   RELEASE  -
|  1> ! r2SCAN-3c DEF2-TZVP FREQ
|  2> * xyzfile 0 1 censo.xyz
|  3>
|  4>                          ****END OF INPUT****

CARTESIAN COORDINATES (ANGSTROEM)
---------------------------------
  C      3.351990    1.444871   -0.000308
  C      2.023399    1.861551    0.000978
  C      0.999796    0.929357    0.002062
  C      1.294088   -0.432566    0.001929
  C      2.609492   -0.869040    0.000457
  C      3.621931    0.083594   -0.000610
  Cl     5.292273   -0.464592   -0.002413
  O      0.305051   -1.399577    0.003421
  C     -0.999804   -0.929368    0.002067
  C     -2.023408   -1.861562    0.000987
  C     -3.351998   -1.444880   -0.000285
  C     -3.621940   -0.083603   -0.000576
  C     -2.609500    0.869030    0.000486
  C     -1.294096    0.432555    0.001944
  O     -0.305059    1.399566    0.003432
  Cl    -5.292281    0.464582   -0.002361
  H      4.153043    2.173920   -0.001090
  H      1.775160    2.917449    0.001208
  H      2.819378   -1.932308    0.000248
  H     -1.775170   -2.917460    0.001210
  H     -4.153052   -2.173929   -0.001064
  H     -2.819384    1.932298    0.000285

 Total Charge           Charge          ....    0
 Multiplicity           Mult            ....    1
 Number of Electrons    NEL             ....  128
 Basis Dimension        Dim             ....  544

ORBITAL ENERGIES
----------------

  NO   OCC          E(Eh)            E(eV)
   0   2.0000    -101.197401     -2753.7213
   1   2.0000    -101.197400     -2753.7213
   2   2.0000     -19.029894      -517.8298
   3   2.0000     -19.029882      -517.8294
   4   2.0000     -10.127654      -275.5875
   5   2.0000     -10.127653      -275.5875
   6   2.0000     -10.123169      -275.4654
   7   2.0000     -10.123167      -275.4654
   8   2.0000     -10.112911      -275.1863
   9   2.0000     -10.112910      -275.1863
  10   2.0000     -10.064036      -273.8563
  11   2.0000     -10.064036      -273.8563
  12   2.0000     -10.063558      -273.8433
  13   2.0000     -10.063558      -273.8433
  14   2.0000     -10.060674      -273.7649
  15   2.0000     -10.060674      -273.7648
  16   2.0000      -9.373229      -255.0585
  17   2.0000      -9.373228      -255.0585
  18   2.0000      -7.118191      -193.6958
  19   2.0000      -7.118191      -193.6958
  20   2.0000      -7.108132      -193.4221
  21   2.0000      -7.108131      -193.4221
  22   2.0000      -7.107767      -193.4122
  23   2.0000      -7.107767      -193.4122
  24   2.0000      -1.091670       -29.7058
  25   2.0000      -1.058781       -28.8109
  26   2.0000      -0.876746       -23.8575
  27   2.0000      -0.864211       -23.5164
  28   2.0000      -0.824773       -22.4432
  29   2.0000      -0.803113       -21.8538
  30   2.0000      -0.762132       -20.7387
  31   2.0000      -0.744553       -20.2603
  32   2.0000      -0.718633       -19.5550
  33   2.0000      -0.700002       -19.0480
  34   2.0000      -0.642524       -17.4840
  35   2.0000      -0.624167       -16.9844
  36   2.0000      -0.599537       -16.3142
  37   2.0000      -0.575074       -15.6486
  38   2.0000      -0.548822       -14.9342
  39   2.0000      -0.509039       -13.8516
  40   2.0000      -0.492838       -13.4108
  41   2.0000      -0.465988       -12.6802
  42   2.0000      -0.463070       -12.6008
  43   2.0000      -0.462665       -12.5898
  44   2.0000      -0.438732       -11.9385
  45   2.0000      -0.436916       -11.8891
  46   2.0000      -0.428893       -11.6708
  47   2.0000      -0.401452       -10.9241
  48   2.0000      -0.398524       -10.8444
  49   2.0000      -0.392838       -10.6897
  50   2.0000      -0.389841       -10.6081
  51   2.0000      -0.385848       -10.4994
  52   2.0000      -0.366369        -9.9694
  53   2.0000      -0.365181        -9.9371
  54   2.0000      -0.365036        -9.9331
  55   2.0000      -0.325848        -8.8668
  56   2.0000      -0.324311        -8.8250
  57   2.0000      -0.295662        -8.0454
  58   2.0000      -0.293471        -7.9857
  59   2.0000      -0.292985        -7.9725
  60   2.0000      -0.262345        -7.1388
  61   2.0000      -0.254981        -6.9384
  62   2.0000      -0.234816        -6.3897
  63   2.0000      -0.197594        -5.3768
  64   0.0000      -0.062934        -1.7125
  65   0.0000      -0.058811        -1.6003
  66   0.0000      -0.056184        -1.5289
  67   0.0000      -0.022083        -0.6009
  68   0.0000      -0.015225        -0.4143

MULLIKEN ATOMIC CHARGES
-----------------------
   0 C :   -0.160099
   1 C :   -0.228328
   2 C :    0.214661
   3 C :    0.281313
   4 C :   -0.360798
   5 C :    0.236883
   6 Cl:   -0.115674
   7 O :   -0.243932
   8 C :    0.214717
   9 C :   -0.228433
  10 C :   -0.160050
  11 C :    0.236860
  12 C :   -0.360748
  13 C :    0.281283
  14 O :   -0.243929
  15 Cl:   -0.115675
  16 H :    0.128667
  17 H :    0.120871
  18 H :    0.126448
  19 H :    0.120856
  20 H :    0.128662
  21 H :    0.126445
Sum of atomic charges:   -0.0000000

LOEWDIN ATOMIC CHARGES
----------------------
   0 C :   -0.146366
   1 C :   -0.100813
   2 C :   -0.199135
   3 C :   -0.196159
   4 C :   -0.110534
   5 C :   -0.415739
   6 Cl:    0.375678
   7 O :    0.326631
   8 C :   -0.199135
   9 C :   -0.100814
  10 C :   -0.146366
  11 C :   -0.415740
  12 C :   -0.110534
  13 C :   -0.196160
  14 O :    0.326631
  15 Cl:    0.375679
  16 H :    0.151458
  17 H :    0.156501
  18 H :    0.158478
  19 H :    0.156501
  20 H :    0.151458
  21 H :    0.158479

  Mayer bond orders larger than 0.100000
B(  0-C ,  1-C ) :   1.3422 B(  0-C ,  5-C ) :   1.3598 B(  0-C , 16-H ) :   0.9744
B(  1-C ,  2-C ) :   1.3560 B(  1-C , 17-H ) :   0.9826 B(  2-C ,  3-C ) :   1.3613
B(  2-C , 14-O ) :   0.9823 B(  3-C ,  4-C ) :   1.3252 B(  3-C ,  7-O ) :   0.9856
B(  4-C ,  5-C ) :   1.3268 B(  4-C , 18-H ) :   0.9911 B(  5-C ,  6-Cl) :   0.9435
B(  7-O ,  8-C ) :   0.9823 B(  8-C ,  9-C ) :   1.3558 B(  8-C , 13-C ) :   1.3612
B(  9-C , 10-C ) :   1.3421 B(  9-C , 19-H ) :   0.9827 B( 10-C , 11-C ) :   1.3598
B( 10-C , 20-H ) :   0.9744 B( 11-C , 12-C ) :   1.3268 B( 11-C , 15-Cl) :   0.9435
B( 12-C , 13-C ) :   1.3253 B( 12-C , 21-H ) :   0.9911 B( 13-C , 14-O ) :   0.9856

Dispersion correction           -0.010671322
FINAL SINGLE POINT ENERGY     -1531.617387782416

DIPOLE MOMENT
-------------

Method             : SCF
Type of density    : Electron Density
Multiplicity       :   1
Irrep              :   0
Energy             : -1531.6155647222219613 Eh
Relativity type    :
Basis              : AO
                                X                 Y                 Z
Electronic contribution:     -0.000000642       0.000000277      -0.006578044
Nuclear contribution   :     -0.000000600       0.000000086       0.006658732
                        -----------------------------------------
Total Dipole Moment    :     -0.000001242       0.000000363       0.000080689
                        -----------------------------------------
Magnitude (a.u.)       :      0.000080699
Magnitude (Debye)      :      0.000205120

VIBRATIONAL FREQUENCIES
-----------------------

Scaling factor for frequencies =  1.000000000  (already applied!)

     0:       0.00 cm**-1
     1:       0.00 cm**-1
     2:       0.00 cm**-1
     3:       0.00 cm**-1
     4:       0.00 cm**-1
     5:       0.00 cm**-1
     6:      34.25 cm**-1
     7:     102.11 cm**-1
     8:     134.12 cm**-1
     9:     136.23 cm**-1
    10:     201.46 cm**-1
    11:     216.73 cm**-1
    12:     247.78 cm**-1
    13:     302.13 cm**-1
    14:     340.58 cm**-1
    15:     350.22 cm**-1
    16:     353.70 cm**-1
    17:     414.26 cm**-1
    18:     454.44 cm**-1
    19:     459.20 cm**-1
    20:     467.41 cm**-1
    21:     502.32 cm**-1
    22:     573.95 cm**-1
    23:     589.02 cm**-1
    24:     592.83 cm**-1
    25:     645.06 cm**-1
    26:     656.72 cm**-1
    27:     677.67 cm**-1
    28:     705.25 cm**-1
    29:     745.72 cm**-1
    30:     749.84 cm**-1
    31:     810.40 cm**-1
    32:     810.59 cm**-1
    33:     856.11 cm**-1
    34:     860.08 cm**-1
    35:     863.65 cm**-1
    36:     896.08 cm**-1
    37:     920.72 cm**-1
    38:     921.83 cm**-1
    39:     935.61 cm**-1
    40:    1079.96 cm**-1
    41:    1082.54 cm**-1
    42:    1124.25 cm**-1
    43:    1144.28 cm**-1
    44:    1184.91 cm**-1
    45:    1198.53 cm**-1
    46:    1229.81 cm**-1
    47:    1265.34 cm**-1
    48:    1273.21 cm**-1
    49:    1298.59 cm**-1
    50:    1344.22 cm**-1
    51:    1362.64 cm**-1
    52:    1424.90 cm**-1
    53:    1451.39 cm**-1
    54:    1501.46 cm**-1
    55:    1515.78 cm**-1
    56:    1606.88 cm**-1
    57:    1615.04 cm**-1
    58:    1649.20 cm**-1
    59:    1657.01 cm**-1
    60:    3185.54 cm**-1
    61:    3185.56 cm**-1
    62:    3200.30 cm**-1
    63:    3200.33 cm**-1
    64:    3204.08 cm**-1
    65:    3204.13 cm**-1

IR SPECTRUM
-----------

 Mode   freq       eps      Int      T**2         TX        TY        TZ
       cm**-1   L/(mol*cm) km/mol    a.u.
----------------------------------------------------------------------------
  6:     34.25   0.000000    0.00  0.000002  (-0.000002  0.000000 -0.001571)
  7:    102.11   0.000221    1.11  0.000674  ( 0.000001  0.000001  0.025959)
  8:    134.12   0.000030    0.15  0.000070  (-0.007623 -0.003488  0.000000)
  9:    136.23   0.000000    0.00  0.000000  ( 0.000263 -0.000036  0.000000)
 10:    201.46   0.000003    0.01  0.000004  ( 0.000000 -0.000001 -0.002026)
 11:    216.73   0.000000    0.00  0.000000  (-0.000000 -0.000000 -0.000016)
 12:    247.78   0.000000    0.00  0.000000  (-0.000162 -0.000081 -0.000000)
 13:    302.13   0.000000    0.00  0.000000  ( 0.000000  0.000000  0.000019)
 14:    340.58   0.000324    1.64  0.000297  (-0.007713 -0.015400  0.000000)
 15:    350.22   0.000000    0.00  0.000000  (-0.000246 -0.000019  0.000000)
 16:    353.70   0.000034    0.17  0.000030  (-0.000001 -0.000002 -0.005482)
 17:    414.26   0.004240   21.43  0.003194  ( 0.052856 -0.020004 -0.000000)
 18:    454.44   0.000000    0.00  0.000000  ( 0.000030  0.000039  0.000001)
 19:    459.20   0.001501    7.59  0.001020  (-0.000000  0.000001  0.031940)
 20:    467.41   0.000000    0.00  0.000000  (-0.000000  0.000000  0.000315)
 21:    502.32   0.000000    0.00  0.000000  ( 0.000000  0.000000 -0.000075)
 22:    573.95   0.000000    0.00  0.000000  (-0.000000 -0.000000 -0.000206)
 23:    589.02   0.002038   10.30  0.001080  (-0.000001  0.000003 -0.032857)
 24:    592.83   0.000000    0.00  0.000000  ( 0.000011 -0.000014  0.000001)
 25:    645.06   0.000000    0.00  0.000000  ( 0.000000 -0.000000 -0.000108)
 26:    656.72   0.000822    4.16  0.000391  ( 0.018947 -0.005636 -0.000000)
 27:    677.67   0.000053    0.27  0.000024  ( 0.000001  0.000000  0.004920)
 28:    705.25   0.000000    0.00  0.000000  ( 0.000202 -0.000227 -0.000000)
 29:    745.72   0.000000    0.00  0.000000  (-0.000000  0.000000 -0.000002)
 30:    749.84   0.004711   23.81  0.001961  (-0.036057  0.025700  0.000000)
 31:    810.40   0.000000    0.00  0.000000  (-0.000059 -0.000013  0.000202)
 32:    810.59   0.010345   52.28  0.003983  ( 0.000000 -0.000001 -0.063109)
 33:    856.11   0.007384   37.32  0.002692  (-0.050628  0.011333 -0.000000)
 34:    860.08   0.010167   51.38  0.003689  (-0.000000  0.000001  0.060736)
 35:    863.65   0.000000    0.00  0.000000  ( 0.000178 -0.000015 -0.000065)
 36:    896.08   0.042369  214.11  0.014755  ( 0.120498  0.015340 -0.000001)
 37:    920.72   0.000618    3.12  0.000210  ( 0.000000  0.000001  0.014474)
 38:    921.83   0.000000    0.00  0.000000  (-0.000037 -0.000120  0.000030)
 39:    935.61   0.000000    0.00  0.000000  ( 0.000001  0.000000  0.000072)
 40:   1079.96   0.013623   68.85  0.003936  (-0.061601  0.011909  0.000000)
 41:   1082.54   0.000000    0.00  0.000000  ( 0.000008 -0.000002  0.000035)
 42:   1124.25   0.000000    0.00  0.000000  (-0.000000  0.000001  0.000019)
 43:   1144.28   0.007128   36.02  0.001944  ( 0.023360 -0.037392 -0.000000)
 44:   1184.91   0.000000    0.00  0.000000  (-0.000000  0.000000  0.000013)
 45:   1198.53   0.014951   75.55  0.003893  ( 0.057857 -0.023351 -0.000000)
 46:   1229.81   0.000000    0.00  0.000000  ( 0.000000 -0.000000 -0.000054)
 47:   1265.34   0.000000    0.00  0.000000  (-0.000002 -0.000000 -0.000029)
 48:   1273.21   0.018880   95.41  0.004628  (-0.066813 -0.012787  0.000000)
 49:   1298.59   0.109601  553.88  0.026338  (-0.157240 -0.040171  0.000001)
 50:   1344.22   0.010376   52.44  0.002409  (-0.049008 -0.002665  0.000000)
 51:   1362.64   0.000000    0.00  0.000000  (-0.000000 -0.000000 -0.000019)
 52:   1424.90   0.000000    0.00  0.000000  (-0.000000 -0.000000 -0.000008)
 53:   1451.39   0.006418   32.43  0.001380  (-0.029601 -0.022444  0.000000)
 54:   1501.46   0.168484  851.45  0.035018  ( 0.186559  0.014622 -0.000001)
 55:   1515.78   0.000000    0.00  0.000000  ( 0.000002  0.000000  0.000108)
 56:   1606.88   0.000000    0.00  0.000000  ( 0.000000  0.000000  0.000041)
 57:   1615.04   0.009571   48.37  0.001849  ( 0.032790  0.027825 -0.000000)
 58:   1649.20   0.000000    0.00  0.000000  ( 0.000000  0.000000  0.000008)
 59:   1657.01   0.006308   31.88  0.001188  ( 0.033384  0.008569 -0.000000)
 60:   3185.54   0.000001    0.00  0.000000  (-0.000243  0.000144 -0.000007)
 61:   3185.56   0.000326    1.65  0.000032  (-0.004859  0.002886  0.000000)
 62:   3200.30   0.000473    2.39  0.000046  ( 0.004743 -0.004866  0.000000)
 63:   3200.33   0.000000    0.00  0.000000  (-0.000154  0.000158  0.000005)
 64:   3204.08   0.000000    0.00  0.000000  ( 0.000000  0.000003  0.000002)
 65:   3204.13   0.000064    0.32  0.000006  (-0.000471 -0.002446 -0.000000)

--------------------------
THERMOCHEMISTRY AT 298.15K
--------------------------

Temperature         ...   298.15 K
Pressure            ...     1.00 atm
Total Mass          ...   253.08 AMU
Quasi RRHO          ...     True
Cut-Off Frequency   ...     1.00 cm^-1

Throughout the following assumptions are being made:
  (1) The electronic state is orbitally nondegenerate
  (2) There are no thermally accessible electronically excited states
  (3) Hindered rotations indicated by low frequency modes are not
      treated as such but are treated as vibrations and this may
      cause some error
  (4) All equations used are the standard statistical mechanics
      equations for an ideal gas
  (5) All vibrations are strictly harmonic

freq.      34.25  E(vib)   ...       0.54
freq.     102.11  E(vib)   ...       0.46
freq.     134.12  E(vib)   ...       0.42
freq.     136.23  E(vib)   ...       0.42
freq.     201.46  E(vib)   ...       0.35
freq.     216.73  E(vib)   ...       0.34
freq.     247.78  E(vib)   ...       0.31
freq.     302.13  E(vib)   ...       0.26
freq.     340.58  E(vib)   ...       0.23
freq.     350.22  E(vib)   ...       0.23
freq.     353.70  E(vib)   ...       0.22
freq.     414.26  E(vib)   ...       0.19
freq.     454.44  E(vib)   ...       0.16
freq.     459.20  E(vib)   ...       0.16
freq.     467.41  E(vib)   ...       0.16
freq.     502.32  E(vib)   ...       0.14
freq.     573.95  E(vib)   ...       0.11
freq.     589.02  E(vib)   ...       0.10
freq.     592.83  E(vib)   ...       0.10
freq.     645.06  E(vib)   ...       0.09
freq.     656.72  E(vib)   ...       0.08
freq.     677.67  E(vib)   ...       0.08
freq.     705.25  E(vib)   ...       0.07
freq.     745.72  E(vib)   ...       0.06
freq.     749.84  E(vib)   ...       0.06
freq.     810.40  E(vib)   ...       0.05
freq.     810.59  E(vib)   ...       0.05
freq.     856.11  E(vib)   ...       0.04
freq.     860.08  E(vib)   ...       0.04
freq.     863.65  E(vib)   ...       0.04
freq.     896.08  E(vib)   ...       0.03
freq.     920.72  E(vib)   ...       0.03
freq.     921.83  E(vib)   ...       0.03
freq.     935.61  E(vib)   ...       0.03
freq.    1079.96  E(vib)   ...       0.02
freq.    1082.54  E(vib)   ...       0.02
freq.    1124.25  E(vib)   ...       0.01
freq.    1144.28  E(vib)   ...       0.01
freq.    1184.91  E(vib)   ...       0.01
freq.    1198.53  E(vib)   ...       0.01
freq.    1229.81  E(vib)   ...       0.01
freq.    1265.34  E(vib)   ...       0.01
freq.    1273.21  E(vib)   ...       0.01
freq.    1298.59  E(vib)   ...       0.01
freq.    1344.22  E(vib)   ...       0.01
freq.    1362.64  E(vib)   ...       0.01
freq.    1424.90  E(vib)   ...       0.00
freq.    1451.39  E(vib)   ...       0.00
freq.    1501.46  E(vib)   ...       0.00
freq.    1515.78  E(vib)   ...       0.00
freq.    1606.88  E(vib)   ...       0.00
freq.    1615.04  E(vib)   ...       0.00
freq.    1649.20  E(vib)   ...       0.00
freq.    1657.01  E(vib)   ...       0.00
freq.    3185.54  E(vib)   ...       0.00
freq.    3185.56  E(vib)   ...       0.00
freq.    3200.30  E(vib)   ...       0.00
freq.    3200.33  E(vib)   ...       0.00
freq.    3204.08  E(vib)   ...       0.00
freq.    3204.13  E(vib)   ...       0.00

------------
INNER ENERGY
------------

The inner energy is: U= E(el) + E(ZPE) + E(vib) + E(rot) + E(trans)
    E(el)   - is the total energy from the electronic structure calculation
              = E(kin-el) + E(nuc-el) + E(el-el) + E(nuc-nuc)
    E(ZPE)  - the the zero temperature vibrational energy from the frequency calculation
    E(vib)  - the the finite temperature correction to E(ZPE) due to population
              of excited vibrational states
    E(rot)  - is the rotational thermal energy
    E(trans)- is the translational thermal energy

Summary of contributions to the inner energy U:
Electronic energy                ...  -1531.61738778 Eh
Zero point energy                ...      0.14743838 Eh      92.52 kcal/mol
Thermal vibrational correction   ...      0.00928369 Eh       5.83 kcal/mol
Thermal rotational correction    ...      0.00141627 Eh       0.89 kcal/mol
Thermal translational correction ...      0.00141627 Eh       0.89 kcal/mol
-----------------------------------------------------------------------
Total thermal energy                  -1531.45783317 Eh

Summary of corrections to the electronic energy:
(perhaps to be used in another calculation)
Total thermal correction                  0.01211623 Eh       7.60 kcal/mol
Non-thermal (ZPE) correction              0.14743838 Eh      92.52 kcal/mol
-----------------------------------------------------------------------
Total correction                          0.15955461 Eh     100.12 kcal/mol

--------
ENTHALPY
--------

The enthalpy is H = U + kB*T
                kB is Boltzmann's constant
Total thermal energy              ...  -1531.45783317 Eh
Thermal Enthalpy correction       ...      0.00094421 Eh       0.59 kcal/mol
-----------------------------------------------------------------------
Total Enthalpy                    ...  -1531.45688896 Eh

Note: Rotational entropy computed according to Herzberg
Infrared and Raman Spectra, Chapter V,1, Van Nostrand Reinhold, 1945
Point Group:  C2, Symmetry Number:   2
Rotational constants in cm-1:     0.058302     0.005700     0.005193

Vibrational entropy computed according to the QRRHO of S. Grimme
Chem.Eur.J. 2012 18 9955 using a reference frequency of 100.0 cm-1

-------
ENTROPY
-------

The entropy contributions are T*S = T*(S(el)+S(vib)+S(rot)+S(trans))
     S(el)   - electronic entropy
     S(vib)  - vibrational entropy
     S(rot)  - rotational entropy
     S(trans)- translational entropy
The entropies will be listed as multiplied by the temperature to get
units of energy

Electronic entropy                ...      0.00000000 Eh      0.00 kcal/mol
Vibrational entropy               ...      0.01551319 Eh      9.73 kcal/mol
Rotational entropy                ...      0.01512092 Eh      9.49 kcal/mol
Translational entropy             ...      0.02018632 Eh     12.67 kcal/mol
-----------------------------------------------------------------------
Final entropy term                ...      0.05082043 Eh     31.89 kcal/mol

In case the symmetry of your molecule has not been determined correctly
or in case you have a reason to use a different symmetry number we print
out the resulting rotational entropy values for sn=1,12:

 non-linear molecules -----------------------------------
|  sn= 1 | S(rot)=       0.01577538 Eh      9.90 kcal/mol|
|  sn= 2 | S(rot)=       0.01512092 Eh      9.49 kcal/mol|
|  sn= 3 | S(rot)=       0.01473809 Eh      9.25 kcal/mol|
|  sn= 4 | S(rot)=       0.01446647 Eh      9.08 kcal/mol|
|  sn= 5 | S(rot)=       0.01425578 Eh      8.95 kcal/mol|

                             ****ORCA TERMINATED NORMALLY****
TOTAL RUN TIME: 0 days 0 hours 37 minutes 12 seconds 480 msec
