                         Program Version 6.0.0  -   RELEASE  -
|  1> ! r2SCAN-3c DEF2-TZVP FREQ
|  2> * xyzfile 0 1 vacuum_censo.xyz
|  3>
|  4>                          ****END OF INPUT****

CARTESIAN COORDINATES (ANGSTROEM)
---------------------------------
  C      3.348458    1.441763    0.000704
  C      2.020470    1.858699   -0.000486
  C      0.994406    0.928644   -0.001832
  C      1.289919   -0.434418   -0.001860
  C      2.606679   -0.867485   -0.000592
  C      3.623889    0.080980    0.000619
  Cl     5.287660   -0.464615    0.002102
  O      0.304722   -1.395724   -0.003304
  C     -0.994365   -0.928640   -0.001775
  C     -2.020425   -1.858699   -0.000364
  C     -3.348414   -1.441766    0.000850
  C     -3.623846   -0.080983    0.000721
  C     -2.606640    0.867485   -0.000548
  C     -1.289878    0.434421   -0.001838
  O     -0.304681    1.395727   -0.003325
  Cl    -5.287621    0.464609    0.002224
  H      4.153365    2.165865    0.001702
  H      1.767820    2.913230   -0.000462
  H      2.818299   -1.929753   -0.000633
  H     -1.767772   -2.913227   -0.000310
  H     -4.153321   -2.165868    0.001896
  H     -2.818266    1.929753   -0.000617

 Total Charge           Charge          ....    0
 Multiplicity           Mult            ....    1
 Number of Electrons    NEL             ....  128
 Basis Dimension        Dim             ....  544

ORBITAL ENERGIES
----------------

  NO   OCC          E(Eh)            E(eV)
   0   2.0000    -101.197950     -2753.7362
   1   2.0000    -101.197950     -2753.7362
   2   2.0000     -19.030306      -517.8409
   3   2.0000     -19.030293      -517.8406
   4   2.0000     -10.127242      -275.5763
   5   2.0000     -10.127242      -275.5763
   6   2.0000     -10.122744      -275.4539
   7   2.0000     -10.122742      -275.4538
   8   2.0000     -10.112112      -275.1646
   9   2.0000     -10.112112      -275.1646
  10   2.0000     -10.063237      -273.8346
  11   2.0000     -10.063237      -273.8346
  12   2.0000     -10.062918      -273.8259
  13   2.0000     -10.062918      -273.8259
  14   2.0000     -10.059965      -273.7456
  15   2.0000     -10.059964      -273.7456
  16   2.0000      -9.373855      -255.0756
  17   2.0000      -9.373855      -255.0756
  18   2.0000      -7.118806      -193.7126
  19   2.0000      -7.118806      -193.7126
  20   2.0000      -7.108755      -193.4391
  21   2.0000      -7.108755      -193.4391
  22   2.0000      -7.108383      -193.4289
  23   2.0000      -7.108383      -193.4289
  24   2.0000      -1.095791       -29.8180
  25   2.0000      -1.062724       -28.9182
  26   2.0000      -0.876813       -23.8593
  27   2.0000      -0.864711       -23.5300
  28   2.0000      -0.826096       -22.4792
  29   2.0000      -0.803528       -21.8651
  30   2.0000      -0.762374       -20.7453
  31   2.0000      -0.744238       -20.2517
  32   2.0000      -0.718516       -19.5518
  33   2.0000      -0.699650       -19.0384
  34   2.0000      -0.643621       -17.5138
  35   2.0000      -0.624687       -16.9986
  36   2.0000      -0.599268       -16.3069
  37   2.0000      -0.576206       -15.6793
  38   2.0000      -0.548926       -14.9370
  39   2.0000      -0.509004       -13.8507
  40   2.0000      -0.493804       -13.4371
  41   2.0000      -0.465250       -12.6601
  42   2.0000      -0.464673       -12.6444
  43   2.0000      -0.463731       -12.6188
  44   2.0000      -0.438588       -11.9346
  45   2.0000      -0.437146       -11.8953
  46   2.0000      -0.427854       -11.6425
  47   2.0000      -0.402967       -10.9653
  48   2.0000      -0.400856       -10.9079
  49   2.0000      -0.392501       -10.6805
  50   2.0000      -0.389735       -10.6052
  51   2.0000      -0.386331       -10.5126
  52   2.0000      -0.367120        -9.9898
  53   2.0000      -0.365677        -9.9506
  54   2.0000      -0.364099        -9.9076
  55   2.0000      -0.326454        -8.8833
  56   2.0000      -0.323285        -8.7970
  57   2.0000      -0.295712        -8.0467
  58   2.0000      -0.293838        -7.9957
  59   2.0000      -0.293364        -7.9828
  60   2.0000      -0.261884        -7.1262
  61   2.0000      -0.254464        -6.9243
  62   2.0000      -0.234268        -6.3748
  63   2.0000      -0.196674        -5.3518
  64   0.0000      -0.062832        -1.7097
  65   0.0000      -0.058224        -1.5844
  66   0.0000      -0.055596        -1.5128
  67   0.0000      -0.021453        -0.5838
  68   0.0000      -0.013191        -0.3589

MULLIKEN ATOMIC CHARGES
-----------------------
   0 C :   -0.158380
   1 C :   -0.231514
   2 C :    0.219178
   3 C :    0.278617
   4 C :   -0.358790
   5 C :    0.233664
   6 Cl:   -0.111588
   7 O :   -0.244059
   8 C :    0.219238
   9 C :   -0.231603
  10 C :   -0.158338
  11 C :    0.233673
  12 C :   -0.358807
  13 C :    0.278614
  14 O :   -0.244057
  15 Cl:   -0.111586
  16 H :    0.127550
  17 H :    0.120053
  18 H :    0.125277
  19 H :    0.120042
  20 H :    0.127549
  21 H :    0.125267
Sum of atomic charges:   -0.0000000

LOEWDIN ATOMIC CHARGES
----------------------
   0 C :   -0.146721
   1 C :   -0.101177
   2 C :   -0.202496
   3 C :   -0.199951
   4 C :   -0.110738
   5 C :   -0.422643
   6 Cl:    0.383548
   7 O :    0.334947
   8 C :   -0.202497
   9 C :   -0.101177
  10 C :   -0.146721
  11 C :   -0.422641
  12 C :   -0.110737
  13 C :   -0.199950
  14 O :    0.334946
  15 Cl:    0.383545
  16 H :    0.151034
  17 H :    0.156304
  18 H :    0.157894
  19 H :    0.156304
  20 H :    0.151034
  21 H :    0.157893

  Mayer bond orders larger than 0.100000
B(  0-C ,  1-C ) :   1.3421 B(  0-C ,  5-C ) :   1.3597 B(  0-C , 16-H ) :   0.9750
B(  1-C ,  2-C ) :   1.3551 B(  1-C , 17-H ) :   0.9834 B(  2-C ,  3-C ) :   1.3591
B(  2-C , 14-O ) :   0.9820 B(  3-C ,  4-C ) :   1.3274 B(  3-C ,  7-O ) :   0.9851
B(  4-C ,  5-C ) :   1.3257 B(  4-C , 18-H ) :   0.9911 B(  5-C ,  6-Cl) :   0.9485
B(  7-O ,  8-C ) :   0.9820 B(  8-C ,  9-C ) :   1.3550 B(  8-C , 13-C ) :   1.3592
B(  9-C , 10-C ) :   1.3421 B(  9-C , 19-H ) :   0.9835 B( 10-C , 11-C ) :   1.3597
B( 10-C , 20-H ) :   0.9750 B( 11-C , 12-C ) :   1.3256 B( 11-C , 15-Cl) :   0.9484
B( 12-C , 13-C ) :   1.3274 B( 12-C , 21-H ) :   0.9912 B( 13-C , 14-O ) :   0.9851

Dispersion correction           -0.010684141
FINAL SINGLE POINT ENERGY     -1531.617910540398

DIPOLE MOMENT
-------------

Method             : SCF
Type of density    : Electron Density
Multiplicity       :   1
Irrep              :   0
Energy             : -1531.6161116697899160 Eh
Relativity type    :
Basis              : AO
                                X                 Y                 Z
Electronic contribution:      0.000000960      -0.000011015       0.004265573
Nuclear contribution   :      0.000003973       0.000009752      -0.004097986
                        -----------------------------------------
Total Dipole Moment    :      0.000004934      -0.000001263       0.000167587
                        -----------------------------------------
Magnitude (a.u.)       :      0.000167665
Magnitude (Debye)      :      0.000426170

VIBRATIONAL FREQUENCIES
-----------------------

Scaling factor for frequencies =  1.000000000  (already applied!)

     0:       0.00 cm**-1
     1:       0.00 cm**-1
     2:       0.00 cm**-1
     3:       0.00 cm**-1
     4:       0.00 cm**-1
     5:       0.00 cm**-1
     6:      30.55 cm**-1
     7:      97.06 cm**-1
     8:     132.50 cm**-1
     9:     133.79 cm**-1
    10:     196.98 cm**-1
    11:     216.37 cm**-1
    12:     242.62 cm**-1
    13:     303.26 cm**-1
    14:     341.07 cm**-1
    15:     348.62 cm**-1
    16:     349.93 cm**-1
    17:     417.72 cm**-1
    18:     451.77 cm**-1
    19:     455.42 cm**-1
    20:     469.97 cm**-1
    21:     502.71 cm**-1
    22:     574.38 cm**-1
    23:     588.24 cm**-1
    24:     591.56 cm**-1
    25:     650.55 cm**-1
    26:     657.91 cm**-1
    27:     676.98 cm**-1
    28:     704.50 cm**-1
    29:     748.86 cm**-1
    30:     752.47 cm**-1
    31:     809.81 cm**-1
    32:     810.06 cm**-1
    33:     858.76 cm**-1
    34:     859.20 cm**-1
    35:     862.37 cm**-1
    36:     903.60 cm**-1
    37:     919.23 cm**-1
    38:     920.40 cm**-1
    39:     942.75 cm**-1
    40:    1083.05 cm**-1
    41:    1086.32 cm**-1
    42:    1129.43 cm**-1
    43:    1145.74 cm**-1
    44:    1196.43 cm**-1
    45:    1209.10 cm**-1
    46:    1238.65 cm**-1
    47:    1267.89 cm**-1
    48:    1276.55 cm**-1
    49:    1311.64 cm**-1
    50:    1341.98 cm**-1
    51:    1360.38 cm**-1
    52:    1427.18 cm**-1
    53:    1453.06 cm**-1
    54:    1506.32 cm**-1
    55:    1520.00 cm**-1
    56:    1608.13 cm**-1
    57:    1612.71 cm**-1
    58:    1647.03 cm**-1
    59:    1659.64 cm**-1
    60:    3188.29 cm**-1
    61:    3188.31 cm**-1
    62:    3205.38 cm**-1
    63:    3205.39 cm**-1
    64:    3207.67 cm**-1
    65:    3207.72 cm**-1

IR SPECTRUM
-----------

 Mode   freq       eps      Int      T**2         TX        TY        TZ
       cm**-1   L/(mol*cm) km/mol    a.u.
----------------------------------------------------------------------------
  6:     30.55   0.000000    0.00  0.000000  ( 0.000002  0.000000  0.000218)
  7:     97.06   0.000208    1.05  0.000668  (-0.000000  0.000007 -0.025836)
  8:    132.50   0.000000    0.00  0.000001  (-0.000912 -0.000552  0.000005)
  9:    133.79   0.000030    0.15  0.000070  ( 0.007601  0.003462 -0.000000)
 10:    196.98   0.000000    0.00  0.000000  ( 0.000003  0.000002  0.000588)
 11:    216.37   0.000000    0.00  0.000000  ( 0.000000  0.000000  0.000008)
 12:    242.62   0.000000    0.00  0.000000  (-0.000177 -0.000095  0.000006)
 13:    303.26   0.000000    0.00  0.000000  (-0.000000  0.000000 -0.000027)
 14:    341.07   0.000298    1.51  0.000273  ( 0.006808  0.015053 -0.000000)
 15:    348.62   0.000000    0.00  0.000000  (-0.000272 -0.000064  0.000007)
 16:    349.93   0.000020    0.10  0.000017  ( 0.000003 -0.000004  0.004179)
 17:    417.72   0.003937   19.89  0.002941  (-0.050790  0.019008  0.000000)
 18:    451.77   0.000000    0.00  0.000000  ( 0.000033 -0.000042 -0.000006)
 19:    455.42   0.001555    7.86  0.001066  (-0.000001  0.000005 -0.032643)
 20:    469.97   0.000000    0.00  0.000000  (-0.000000 -0.000000  0.000270)
 21:    502.71   0.000000    0.00  0.000000  (-0.000000 -0.000000  0.000070)
 22:    574.38   0.000000    0.00  0.000000  (-0.000000  0.000000  0.000187)
 23:    588.24   0.002112   10.67  0.001120  (-0.000002 -0.000002  0.033473)
 24:    591.56   0.000000    0.00  0.000000  (-0.000012 -0.000039  0.000004)
 25:    650.55   0.000000    0.00  0.000000  (-0.000001  0.000000  0.000086)
 26:    657.91   0.000729    3.68  0.000346  ( 0.017769 -0.005478 -0.000000)
 27:    676.98   0.000056    0.28  0.000026  ( 0.000004 -0.000001 -0.005070)
 28:    704.50   0.000000    0.00  0.000000  ( 0.000111 -0.000248 -0.000005)
 29:    748.86   0.000000    0.00  0.000000  (-0.000000  0.000000 -0.000002)
 30:    752.47   0.004568   23.08  0.001894  (-0.035450  0.025249 -0.000001)
 31:    809.81   0.000000    0.00  0.000000  (-0.000081 -0.000062 -0.000194)
 32:    810.06   0.010109   51.09  0.003894  (-0.000001 -0.000003  0.062405)
 33:    858.76   0.010201   51.55  0.003707  (-0.000028  0.000011 -0.060885)
 34:    859.20   0.006487   32.78  0.002356  ( 0.047090 -0.011781 -0.000037)
 35:    862.37   0.000000    0.00  0.000000  ( 0.000239 -0.000086 -0.000003)
 36:    903.60   0.039098  197.59  0.013503  ( 0.115270  0.014685 -0.000002)
 37:    919.23   0.000630    3.18  0.000214  (-0.000002 -0.000000 -0.014623)
 38:    920.40   0.000000    0.00  0.000000  (-0.000096 -0.000100  0.000057)
 39:    942.75   0.000000    0.00  0.000000  (-0.000002 -0.000000 -0.000063)
 40:   1083.05   0.014377   72.65  0.004142  ( 0.063157 -0.012394 -0.000000)
 41:   1086.32   0.000000    0.00  0.000000  ( 0.000013 -0.000002  0.000026)
 42:   1129.43   0.000000    0.00  0.000000  ( 0.000000  0.000001  0.000009)
 43:   1145.74   0.005880   29.72  0.001602  (-0.017691  0.035898 -0.000000)
 44:   1196.43   0.000000    0.00  0.000000  ( 0.000000  0.000001  0.000020)
 45:   1209.10   0.015889   80.30  0.004101  ( 0.058712 -0.025572 -0.000001)
 46:   1238.65   0.000000    0.00  0.000000  ( 0.000001 -0.000000 -0.000060)
 47:   1267.89   0.000000    0.00  0.000000  (-0.000001  0.000000 -0.000038)
 48:   1276.55   0.005746   29.04  0.001405  ( 0.037181  0.004711 -0.000001)
 49:   1311.64   0.109123  551.46  0.025962  ( 0.156016  0.040267 -0.000003)
 50:   1341.98   0.017432   88.09  0.004054  (-0.063331 -0.006535  0.000001)
 51:   1360.38   0.000000    0.00  0.000000  (-0.000001 -0.000000 -0.000012)
 52:   1427.18   0.000000    0.00  0.000000  ( 0.000001  0.000000 -0.000006)
 53:   1453.06   0.005721   28.91  0.001229  ( 0.026710  0.022696 -0.000001)
 54:   1506.32   0.184339  931.58  0.038190  (-0.194724 -0.016499  0.000003)
 55:   1520.00   0.000000    0.00  0.000000  ( 0.000005  0.000000  0.000106)
 56:   1608.13   0.000000    0.00  0.000000  ( 0.000005  0.000003  0.000027)
 57:   1612.71   0.011560   58.42  0.002237  ( 0.037557  0.028746 -0.000001)
 58:   1647.03   0.000000    0.00  0.000000  (-0.000001  0.000000 -0.000015)
 59:   1659.64   0.005883   29.73  0.001106  (-0.032279 -0.008014  0.000000)
 60:   3188.29   0.000027    0.13  0.000003  ( 0.001379 -0.000834  0.000007)
 61:   3188.31   0.000336    1.70  0.000033  (-0.004909  0.002968  0.000002)
 62:   3205.38   0.000374    1.89  0.000036  (-0.004734  0.003738 -0.000000)
 63:   3205.39   0.000000    0.00  0.000000  (-0.000033  0.000026  0.000003)
 64:   3207.67   0.000000    0.00  0.000000  ( 0.000002  0.000014  0.000001)
 65:   3207.72   0.000104    0.52  0.000010  ( 0.000617  0.003116 -0.000000)

--------------------------
THERMOCHEMISTRY AT 298.15K
--------------------------

Temperature         ...   298.15 K
Pressure            ...     1.00 atm
Total Mass          ...   253.08 AMU
Quasi RRHO          ...     True
Cut-Off Frequency   ...     1.00 cm^-1

Throughout the following assumptions are being made:
  (1) The electronic state is orbitally nondegenerate
  (2) There are no thermally accessible electronically excited states
  (3) Hindered rotations indicated by low frequency modes are not
      treated as such but are treated as vibrations and this may
      cause some error
  (4) All equations used are the standard statistical mechanics
      equations for an ideal gas
  (5) All vibrations are strictly harmonic

freq.      30.55  E(vib)   ...       0.55
freq.      97.06  E(vib)   ...       0.46
freq.     132.50  E(vib)   ...       0.42
freq.     133.79  E(vib)   ...       0.42
freq.     196.98  E(vib)   ...       0.35
freq.     216.37  E(vib)   ...       0.34
freq.     242.62  E(vib)   ...       0.31
freq.     303.26  E(vib)   ...       0.26
freq.     341.07  E(vib)   ...       0.23
freq.     348.62  E(vib)   ...       0.23
freq.     349.93  E(vib)   ...       0.23
freq.     417.72  E(vib)   ...       0.18
freq.     451.77  E(vib)   ...       0.16
freq.     455.42  E(vib)   ...       0.16
freq.     469.97  E(vib)   ...       0.16
freq.     502.71  E(vib)   ...       0.14
freq.     574.38  E(vib)   ...       0.11
freq.     588.24  E(vib)   ...       0.10
freq.     591.56  E(vib)   ...       0.10
freq.     650.55  E(vib)   ...       0.08
freq.     657.91  E(vib)   ...       0.08
freq.     676.98  E(vib)   ...       0.08
freq.     704.50  E(vib)   ...       0.07
freq.     748.86  E(vib)   ...       0.06
freq.     752.47  E(vib)   ...       0.06
freq.     809.81  E(vib)   ...       0.05
freq.     810.06  E(vib)   ...       0.05
freq.     858.76  E(vib)   ...       0.04
freq.     859.20  E(vib)   ...       0.04
freq.     862.37  E(vib)   ...       0.04
freq.     903.60  E(vib)   ...       0.03
freq.     919.23  E(vib)   ...       0.03
freq.     920.40  E(vib)   ...       0.03
freq.     942.75  E(vib)   ...       0.03
freq.    1083.05  E(vib)   ...       0.02
freq.    1086.32  E(vib)   ...       0.02
freq.    1129.43  E(vib)   ...       0.01
freq.    1145.74  E(vib)   ...       0.01
freq.    1196.43  E(vib)   ...       0.01
freq.    1209.10  E(vib)   ...       0.01
freq.    1238.65  E(vib)   ...       0.01
freq.    1267.89  E(vib)   ...       0.01
freq.    1276.55  E(vib)   ...       0.01
freq.    1311.64  E(vib)   ...       0.01
freq.    1341.98  E(vib)   ...       0.01
freq.    1360.38  E(vib)   ...       0.01
freq.    1427.18  E(vib)   ...       0.00
freq.    1453.06  E(vib)   ...       0.00
freq.    1506.32  E(vib)   ...       0.00
freq.    1520.00  E(vib)   ...       0.00
freq.    1608.13  E(vib)   ...       0.00
freq.    1612.71  E(vib)   ...       0.00
freq.    1647.03  E(vib)   ...       0.00
freq.    1659.64  E(vib)   ...       0.00
freq.    3188.29  E(vib)   ...       0.00
freq.    3188.31  E(vib)   ...       0.00
freq.    3205.38  E(vib)   ...       0.00
freq.    3205.39  E(vib)   ...       0.00
freq.    3207.67  E(vib)   ...       0.00
freq.    3207.72  E(vib)   ...       0.00

------------
INNER ENERGY
------------

The inner energy is: U= E(el) + E(ZPE) + E(vib) + E(rot) + E(trans)
    E(el)   - is the total energy from the electronic structure calculation
              = E(kin-el) + E(nuc-el) + E(el-el) + E(nuc-nuc)
    E(ZPE)  - the the zero temperature vibrational energy from the frequency calculation
    E(vib)  - the the finite temperature correction to E(ZPE) due to population
              of excited vibrational states
    E(rot)  - is the rotational thermal energy
    E(trans)- is the translational thermal energy

Summary of contributions to the inner energy U:
Electronic energy                ...  -1531.61791054 Eh
Zero point energy                ...      0.14763885 Eh      92.64 kcal/mol
Thermal vibrational correction   ...      0.00931731 Eh       5.85 kcal/mol
Thermal rotational correction    ...      0.00141627 Eh       0.89 kcal/mol
Thermal translational correction ...      0.00141627 Eh       0.89 kcal/mol
-----------------------------------------------------------------------
Total thermal energy                  -1531.45812183 Eh

Summary of corrections to the electronic energy:
(perhaps to be used in another calculation)
Total thermal correction                  0.01214986 Eh       7.62 kcal/mol
Non-thermal (ZPE) correction              0.14763885 Eh      92.64 kcal/mol
-----------------------------------------------------------------------
Total correction                          0.15978871 Eh     100.27 kcal/mol

--------
ENTHALPY
--------

The enthalpy is H = U + kB*T
                kB is Boltzmann's constant
Total thermal energy              ...  -1531.45812183 Eh
Thermal Enthalpy correction       ...      0.00094421 Eh       0.59 kcal/mol
-----------------------------------------------------------------------
Total Enthalpy                    ...  -1531.45717762 Eh

Note: Rotational entropy computed according to Herzberg
Infrared and Raman Spectra, Chapter V,1, Van Nostrand Reinhold, 1945
Point Group:  C2, Symmetry Number:   2
Rotational constants in cm-1:     0.058509     0.005710     0.005202

Vibrational entropy computed according to the QRRHO of S. Grimme
Chem.Eur.J. 2012 18 9955 using a reference frequency of 100.0 cm-1

-------
ENTROPY
-------

The entropy contributions are T*S = T*(S(el)+S(vib)+S(rot)+S(trans))
     S(el)   - electronic entropy
     S(vib)  - vibrational entropy
     S(rot)  - rotational entropy
     S(trans)- translational entropy
The entropies will be listed as multiplied by the temperature to get
units of energy

Electronic entropy                ...      0.00000000 Eh      0.00 kcal/mol
Vibrational entropy               ...      0.01563796 Eh      9.81 kcal/mol
Rotational entropy                ...      0.01511759 Eh      9.49 kcal/mol
Translational entropy             ...      0.02018632 Eh     12.67 kcal/mol
-----------------------------------------------------------------------
Final entropy term                ...      0.05094188 Eh     31.97 kcal/mol

In case the symmetry of your molecule has not been determined correctly
or in case you have a reason to use a different symmetry number we print
out the resulting rotational entropy values for sn=1,12:

 non-linear molecules -----------------------------------
|  sn= 1 | S(rot)=       0.01577205 Eh      9.90 kcal/mol|
|  sn= 2 | S(rot)=       0.01511759 Eh      9.49 kcal/mol|
|  sn= 3 | S(rot)=       0.01473476 Eh      9.25 kcal/mol|
|  sn= 4 | S(rot)=       0.01446314 Eh      9.08 kcal/mol|
|  sn= 5 | S(rot)=       0.01425245 Eh      8.94 kcal/mol|

                             ****ORCA TERMINATED NORMALLY****
TOTAL RUN TIME: 0 days 0 hours 36 minutes 39 seconds 658 msec
