                         Program Version 6.0.1  -  RELEASE   -
|  1> ! pbe def2-sv(p) def2/J RI DEFGRID1 loosescf d4 GCP(DFT/SV(P)) printgap
|  2> %output
|  3>     printlevel normal
|  4> end
|  5> * xyz 0 1
|  6> C -2.4722976036 -0.8094480994 0.0035780562
|  7> C -1.093140146 -0.5189113361 0.5945257198
|  8> H -1.0838331279 -0.8438663001 1.6483272894
|  9> C -0.7453173198 0.9980380815 0.5706672549
| 10> H -1.6322227081 1.5586744805 0.2555464886
| 11> C 0.3841398969 1.253095831 -0.4374915999
| 12> H 0.7082601705 2.2980703866 -0.3466539843
| 13> C 1.6029439851 0.3707144551 -0.0756635335
| 14> H 2.272498512 0.3552872329 -0.9471958189
| 15> C 1.1605446824 -1.0860684237 0.2342960458
| 16> H 1.2777423047 -1.2653356927 1.3194766622
| 17> O -0.1727545967 -1.2980766004 -0.1460064798
| 18> O 1.9472174081 -2.0252991929 -0.410336882
| 19> O 2.2476550418 0.9517780103 1.0399702181
| 20> O -0.0112925221 1.0538478469 -1.7627483749
| 21> O -0.4135700543 1.4629413512 1.8519187968
| 22> O -2.5257776672 -0.2686129202 -1.2988289499
| 23> H -3.236960274 -0.3575560901 0.6478577748
| 24> H -2.6133422996 -1.8965103895 -0.0239797966
| 25> H 1.628309462 -2.1008754041 -1.3184497906
| 26> H 3.0713814119 0.4801629945 1.2065607587
| 27> H -0.7217230662 0.3932805554 -1.7843099825
| 28> H 0.5439690293 1.3748484223 1.9732476452
| 29> H -3.3618980661 -0.5087882882 -1.7103570224
| 30> *
| 31>
| 32>                          ****END OF INPUT****

CARTESIAN COORDINATES (ANGSTROEM)
---------------------------------
  C     -2.472298   -0.809448    0.003578
  C     -1.093140   -0.518911    0.594526
  H     -1.083833   -0.843866    1.648327
  C     -0.745317    0.998038    0.570667
  H     -1.632223    1.558674    0.255546
  C      0.384140    1.253096   -0.437492
  H      0.708260    2.298070   -0.346654
  C      1.602944    0.370714   -0.075664
  H      2.272499    0.355287   -0.947196
  C      1.160545   -1.086068    0.234296
  H      1.277742   -1.265336    1.319477
  O     -0.172755   -1.298077   -0.146006
  O      1.947217   -2.025299   -0.410337
  O      2.247655    0.951778    1.039970
  O     -0.011293    1.053848   -1.762748
  O     -0.413570    1.462941    1.851919
  O     -2.525778   -0.268613   -1.298829
  H     -3.236960   -0.357556    0.647858
  H     -2.613342   -1.896510   -0.023980
  H      1.628309   -2.100875   -1.318450
  H      3.071381    0.480163    1.206561
  H     -0.721723    0.393281   -1.784310
  H      0.543969    1.374848    1.973248
  H     -3.361898   -0.508788   -1.710357

 Total Charge           Charge          ....    0
 Multiplicity           Mult            ....    1
 Number of Electrons    NEL             ....   96
 Basis Dimension        Dim             ....  192

ORBITAL ENERGIES
----------------

  NO   OCC          E(Eh)            E(eV)
   0   2.0000     -18.777026      -510.9488
   1   2.0000     -18.774566      -510.8819
   2   2.0000     -18.773462      -510.8519
   3   2.0000     -18.759376      -510.4686
   4   2.0000     -18.734912      -509.8029
   5   2.0000     -18.733067      -509.7527
   6   2.0000      -9.987844      -271.7831
   7   2.0000      -9.948715      -270.7183
   8   2.0000      -9.948333      -270.7079
   9   2.0000      -9.937940      -270.4251
  10   2.0000      -9.935840      -270.3680
  11   2.0000      -9.935246      -270.3518
  12   2.0000      -0.990782       -26.9605
  13   2.0000      -0.951195       -25.8833
  14   2.0000      -0.947279       -25.7768
  15   2.0000      -0.926458       -25.2102
  16   2.0000      -0.912293       -24.8248
  17   2.0000      -0.909585       -24.7511
  18   2.0000      -0.702858       -19.1257
  19   2.0000      -0.684261       -18.6197
  20   2.0000      -0.618432       -16.8284
  21   2.0000      -0.593793       -16.1579
  22   2.0000      -0.561980       -15.2923
  23   2.0000      -0.527356       -14.3501
  24   2.0000      -0.505845       -13.7647
  25   2.0000      -0.496015       -13.4973
  26   2.0000      -0.488531       -13.2936
  27   2.0000      -0.466977       -12.7071
  28   2.0000      -0.450210       -12.2508
  29   2.0000      -0.425156       -11.5691
  30   2.0000      -0.411960       -11.2100
  31   2.0000      -0.403593       -10.9823
  32   2.0000      -0.387453       -10.5431
  33   2.0000      -0.376293       -10.2395
  34   2.0000      -0.354141        -9.6367
  35   2.0000      -0.348284        -9.4773
  36   2.0000      -0.331928        -9.0322
  37   2.0000      -0.321874        -8.7586
  38   2.0000      -0.315552        -8.5866
  39   2.0000      -0.304144        -8.2762
  40   2.0000      -0.295337        -8.0365
  41   2.0000      -0.256860        -6.9895
  42   2.0000      -0.254164        -6.9161
  43   2.0000      -0.247656        -6.7390
  44   2.0000      -0.242668        -6.6033
  45   2.0000      -0.229008        -6.2316
  46   2.0000      -0.201969        -5.4958
  47   2.0000      -0.196594        -5.3496
  48   0.0000       0.007008         0.1907
  49   0.0000       0.018830         0.5124
  50   0.0000       0.041846         1.1387
  51   0.0000       0.052072         1.4170
  52   0.0000       0.060565         1.6481

MULLIKEN ATOMIC CHARGES
-----------------------
   0 C :    0.054363
   1 C :    0.017479
   2 H :    0.070257
   3 C :    0.001586
   4 H :    0.085636
   5 C :    0.044709
   6 H :    0.081301
   7 C :    0.024993
   8 H :    0.065703
   9 C :    0.200922
  10 H :    0.041948
  11 O :   -0.300707
  12 O :   -0.390104
  13 O :   -0.424417
  14 O :   -0.427781
  15 O :   -0.425644
  16 O :   -0.439017
  17 H :    0.091144
  18 H :    0.087483
  19 H :    0.302541
  20 H :    0.314117
  21 H :    0.305271
  22 H :    0.302651
  23 H :    0.315565
Sum of atomic charges:    0.0000000

LOEWDIN ATOMIC CHARGES
----------------------
   0 C :   -0.122216
   1 C :   -0.072929
   2 H :    0.113123
   3 C :   -0.076352
   4 H :    0.117221
   5 C :   -0.069770
   6 H :    0.116334
   7 C :   -0.099052
   8 H :    0.110258
   9 C :   -0.003317
  10 H :    0.090119
  11 O :   -0.150681
  12 O :   -0.300298
  13 O :   -0.312700
  14 O :   -0.320485
  15 O :   -0.324191
  16 O :   -0.327525
  17 H :    0.107951
  18 H :    0.107424
  19 H :    0.287799
  20 H :    0.294616
  21 H :    0.266380
  22 H :    0.271792
  23 H :    0.296500

  Mayer bond orders larger than 0.100000
B(  0-C ,  1-C ) :   1.0656 B(  0-C , 16-O ) :   1.0490 B(  0-C , 17-H ) :   0.9165
B(  0-C , 18-H ) :   0.9122 B(  1-C ,  2-H ) :   0.8761 B(  1-C ,  3-C ) :   0.9360
B(  1-C , 11-O ) :   0.9967 B(  3-C ,  4-H ) :   0.9007 B(  3-C ,  5-C ) :   1.0298
B(  3-C , 15-O ) :   1.0769 B(  5-C ,  6-H ) :   0.8938 B(  5-C ,  7-C ) :   0.9559
B(  5-C , 14-O ) :   1.0920 B(  7-C ,  8-H ) :   0.8888 B(  7-C ,  9-C ) :   0.9596
B(  7-C , 13-O ) :   1.0096 B(  9-C , 10-H ) :   0.8764 B(  9-C , 11-O ) :   1.0496
B(  9-C , 12-O ) :   1.1233 B( 12-O , 19-H ) :   0.8448 B( 13-O , 20-H ) :   0.8414
B( 13-O , 22-H ) :   0.1027 B( 14-O , 21-H ) :   0.8014 B( 15-O , 22-H ) :   0.8111
B( 16-O , 21-H ) :   0.1054 B( 16-O , 23-H ) :   0.8415

Dispersion correction           -0.025372812
FINAL SINGLE POINT ENERGY      -685.691758412191

DIPOLE MOMENT
-------------

Method             : SCF
Type of density    : Electron Density
Multiplicity       :   1
Irrep              :   0
Energy             :  -685.8252905270396695 Eh
Relativity type    :
Basis              : AO
                                X                 Y                 Z
Electronic contribution:      2.427569640      -0.353138622      -1.006696891
Nuclear contribution   :     -2.937316000      -0.482742022       0.852426600
                        -----------------------------------------
Total Dipole Moment    :     -0.509746360      -0.835880643      -0.154270291
                        -----------------------------------------
Magnitude (a.u.)       :      0.991129216
Magnitude (Debye)      :      2.519250260

Rotational constants in cm-1:             0.041227             0.027947             0.023516
Rotational constants in MHz :          1235.961982           837.820984           705.004552

                             ****ORCA TERMINATED NORMALLY****
TOTAL RUN TIME: 0 days 0 hours 0 minutes 28 seconds 246 msec
