                         Program Version 6.0.0  -   RELEASE  -
|  1> ! r2SCAN-3c DEF2-TZVP FREQ
|  2> * xyzfile 0 1 censo.xyz
|  3>
|  4>                          ****END OF INPUT****

CARTESIAN COORDINATES (ANGSTROEM)
---------------------------------
  C     -2.525477    0.785692   -0.000130
  C     -1.221431    0.032479   -0.000080
  C     -1.243057   -1.366718    0.000004
  C     -0.063730   -2.102468    0.000097
  C      1.159016   -1.439618    0.000063
  C      1.213383   -0.043786   -0.000038
  C      0.017209    0.702087   -0.000088
  C      0.098139    2.204012    0.000184
  C      2.544168    0.654349   -0.000142
  H     -2.621352    1.430207   -0.880994
  H     -3.367381    0.089156    0.000009
  H     -2.621265    1.430510    0.880518
  H     -2.200846   -1.880168    0.000027
  H     -0.097360   -3.187968    0.000206
  H      2.086075   -2.006827    0.000142
  H      0.647506    2.567459   -0.876422
  H     -0.884718    2.674413   -0.002241
  H      0.643025    2.567279    0.879699
  H      3.362547   -0.069517    0.000890
  H      2.658753    1.299013   -0.879514
  H      2.658031    1.300799    0.877997

 Total Charge           Charge          ....    0
 Multiplicity           Mult            ....    1
 Number of Electrons    NEL             ....   66
 Basis Dimension        Dim             ....  351

ORBITAL ENERGIES
----------------

  NO   OCC          E(Eh)            E(eV)
   0   2.0000     -10.038390      -273.1585
   1   2.0000     -10.037405      -273.1317
   2   2.0000     -10.036927      -273.1187
   3   2.0000     -10.028035      -272.8767
   4   2.0000     -10.028024      -272.8764
   5   2.0000     -10.027998      -272.8757
   6   2.0000     -10.025778      -272.8153
   7   2.0000     -10.024145      -272.7709
   8   2.0000     -10.023920      -272.7647
   9   2.0000      -0.822723       -22.3874
  10   2.0000      -0.745449       -20.2847
  11   2.0000      -0.738250       -20.0888
  12   2.0000      -0.680330       -18.5127
  13   2.0000      -0.641716       -17.4620
  14   2.0000      -0.632844       -17.2206
  15   2.0000      -0.539795       -14.6886
  16   2.0000      -0.536248       -14.5921
  17   2.0000      -0.456693       -12.4272
  18   2.0000      -0.446000       -12.1363
  19   2.0000      -0.408150       -11.1063
  20   2.0000      -0.402758       -10.9596
  21   2.0000      -0.382665       -10.4128
  22   2.0000      -0.371582       -10.1113
  23   2.0000      -0.367443        -9.9986
  24   2.0000      -0.364758        -9.9256
  25   2.0000      -0.364584        -9.9208
  26   2.0000      -0.355046        -9.6613
  27   2.0000      -0.337725        -9.1900
  28   2.0000      -0.313024        -8.5178
  29   2.0000      -0.298518        -8.1231
  30   2.0000      -0.295795        -8.0490
  31   2.0000      -0.216012        -5.8780
  32   2.0000      -0.214107        -5.8261
  33   0.0000      -0.025933        -0.7057
  34   0.0000      -0.020831        -0.5668
  35   0.0000       0.041081         1.1179
  36   0.0000       0.066256         1.8029
  37   0.0000       0.069884         1.9016

MULLIKEN ATOMIC CHARGES
-----------------------
   0 C :   -0.370639
   1 C :    0.192687
   2 C :   -0.210043
   3 C :   -0.088171
   4 C :   -0.212476
   5 C :    0.139286
   6 C :   -0.046741
   7 C :   -0.379910
   8 C :   -0.335985
   9 H :    0.119918
  10 H :    0.108435
  11 H :    0.119972
  12 H :    0.089839
  13 H :    0.102138
  14 H :    0.090400
  15 H :    0.116432
  16 H :    0.115480
  17 H :    0.116635
  18 H :    0.107774
  19 H :    0.112543
  20 H :    0.112426
Sum of atomic charges:   -0.0000000

LOEWDIN ATOMIC CHARGES
----------------------
   0 C :   -0.258175
   1 C :   -0.146271
   2 C :   -0.127934
   3 C :   -0.147832
   4 C :   -0.127804
   5 C :   -0.145917
   6 C :   -0.119567
   7 C :   -0.249514
   8 C :   -0.251755
   9 H :    0.127582
  10 H :    0.125880
  11 H :    0.127587
  12 H :    0.142149
  13 H :    0.141278
  14 H :    0.142186
  15 H :    0.130145
  16 H :    0.126073
  17 H :    0.130182
  18 H :    0.125597
  19 H :    0.128056
  20 H :    0.128051

  Mayer bond orders larger than 0.100000
B(  0-C ,  1-C ) :   0.8893 B(  0-C ,  9-H ) :   0.9746 B(  0-C , 10-H ) :   0.9819
B(  0-C , 11-H ) :   0.9747 B(  1-C ,  2-C ) :   1.3735 B(  1-C ,  6-C ) :   1.3133
B(  2-C ,  3-C ) :   1.4028 B(  2-C , 12-H ) :   0.9787 B(  3-C ,  4-C ) :   1.3900
B(  3-C , 13-H ) :   0.9763 B(  4-C ,  5-C ) :   1.3784 B(  4-C , 14-H ) :   0.9800
B(  5-C ,  6-C ) :   1.2839 B(  5-C ,  8-C ) :   0.9263 B(  6-C ,  7-C ) :   0.9274
B(  7-C , 15-H ) :   0.9742 B(  7-C , 16-H ) :   0.9849 B(  7-C , 17-H ) :   0.9742
B(  8-C , 18-H ) :   0.9809 B(  8-C , 19-H ) :   0.9688 B(  8-C , 20-H ) :   0.9686

Dispersion correction           -0.007099482
FINAL SINGLE POINT ENERGY      -350.114016697345

DIPOLE MOMENT
-------------

Method             : SCF
Type of density    : Electron Density
Multiplicity       :   1
Irrep              :   0
Energy             :  -350.1147620277604346 Eh
Relativity type    :
Basis              : AO
                                X                 Y                 Z
Electronic contribution:     -0.229277254      -5.577100374      -0.000311820
Nuclear contribution   :      0.246426672       5.889160493       0.000415383
                        -----------------------------------------
Total Dipole Moment    :      0.017149418       0.312060119       0.000103562
                        -----------------------------------------
Magnitude (a.u.)       :      0.312531008
Magnitude (Debye)      :      0.794390692

VIBRATIONAL FREQUENCIES
-----------------------

Scaling factor for frequencies =  1.000000000  (already applied!)

     0:       0.00 cm**-1
     1:       0.00 cm**-1
     2:       0.00 cm**-1
     3:       0.00 cm**-1
     4:       0.00 cm**-1
     5:       0.00 cm**-1
     6:      87.54 cm**-1
     7:     129.32 cm**-1
     8:     191.65 cm**-1
     9:     211.83 cm**-1
    10:     237.94 cm**-1
    11:     275.45 cm**-1
    12:     318.02 cm**-1
    13:     355.92 cm**-1
    14:     470.48 cm**-1
    15:     494.32 cm**-1
    16:     514.13 cm**-1
    17:     526.12 cm**-1
    18:     546.79 cm**-1
    19:     665.45 cm**-1
    20:     731.62 cm**-1
    21:     770.27 cm**-1
    22:     829.68 cm**-1
    23:     884.32 cm**-1
    24:     891.84 cm**-1
    25:     946.01 cm**-1
    26:    1004.86 cm**-1
    27:    1009.66 cm**-1
    28:    1022.79 cm**-1
    29:    1051.13 cm**-1
    30:    1063.35 cm**-1
    31:    1091.25 cm**-1
    32:    1113.38 cm**-1
    33:    1188.03 cm**-1
    34:    1214.41 cm**-1
    35:    1269.62 cm**-1
    36:    1277.21 cm**-1
    37:    1327.43 cm**-1
    38:    1394.43 cm**-1
    39:    1399.61 cm**-1
    40:    1406.67 cm**-1
    41:    1447.92 cm**-1
    42:    1465.22 cm**-1
    43:    1473.65 cm**-1
    44:    1476.84 cm**-1
    45:    1485.85 cm**-1
    46:    1495.71 cm**-1
    47:    1504.10 cm**-1
    48:    1508.28 cm**-1
    49:    1613.59 cm**-1
    50:    1624.67 cm**-1
    51:    2999.38 cm**-1
    52:    3003.27 cm**-1
    53:    3004.14 cm**-1
    54:    3051.67 cm**-1
    55:    3056.75 cm**-1
    56:    3063.98 cm**-1
    57:    3099.11 cm**-1
    58:    3100.39 cm**-1
    59:    3129.52 cm**-1
    60:    3143.77 cm**-1
    61:    3151.09 cm**-1
    62:    3169.78 cm**-1

IR SPECTRUM
-----------

 Mode   freq       eps      Int      T**2         TX        TY        TZ
       cm**-1   L/(mol*cm) km/mol    a.u.
----------------------------------------------------------------------------
  6:     87.54   0.000039    0.20  0.000138  (-0.000026  0.000110  0.011745)
  7:    129.32   0.000024    0.12  0.000059  (-0.000047 -0.000095  0.007681)
  8:    191.65   0.000088    0.45  0.000144  ( 0.000059 -0.000018 -0.011981)
  9:    211.83   0.000487    2.46  0.000718  ( 0.000022  0.000025 -0.026798)
 10:    237.94   0.000002    0.01  0.000003  (-0.000034  0.000008  0.001746)
 11:    275.45   0.001076    5.44  0.001219  (-0.000038  0.000023 -0.034908)
 12:    318.02   0.000090    0.45  0.000088  ( 0.000319 -0.009391  0.000050)
 13:    355.92   0.000019    0.09  0.000016  ( 0.003434 -0.002115 -0.000000)
 14:    470.48   0.000036    0.18  0.000024  ( 0.004448  0.002058  0.000001)
 15:    494.32   0.000043    0.22  0.000027  ( 0.000372  0.005181  0.000012)
 16:    514.13   0.000010    0.05  0.000006  (-0.000029  0.000002  0.002435)
 17:    526.12   0.000001    0.00  0.000001  (-0.000037 -0.000014  0.000733)
 18:    546.79   0.000250    1.27  0.000143  (-0.011906 -0.001083  0.000000)
 19:    665.45   0.000036    0.18  0.000017  ( 0.000383 -0.004065 -0.000011)
 20:    731.62   0.001586    8.01  0.000676  ( 0.000020  0.000012 -0.026008)
 21:    770.27   0.006968   35.21  0.002823  ( 0.000005 -0.000009  0.053131)
 22:    829.68   0.000011    0.05  0.000004  (-0.001023 -0.001718 -0.000022)
 23:    884.32   0.000000    0.00  0.000000  (-0.000004  0.000014 -0.000390)
 24:    891.84   0.000242    1.22  0.000085  (-0.006937  0.006036  0.000003)
 25:    946.01   0.000011    0.06  0.000004  (-0.000006 -0.000014 -0.001938)
 26:   1004.86   0.001950    9.86  0.000606  ( 0.022685  0.009545  0.000003)
 27:   1009.66   0.000364    1.84  0.000113  (-0.007209  0.007781  0.000006)
 28:   1022.79   0.000735    3.71  0.000224  ( 0.000011 -0.000043 -0.014976)
 29:   1051.13   0.000006    0.03  0.000002  (-0.000032 -0.000010 -0.001366)
 30:   1063.35   0.000077    0.39  0.000023  ( 0.000003 -0.000038  0.004763)
 31:   1091.25   0.000582    2.94  0.000166  (-0.010778 -0.007092  0.000003)
 32:   1113.38   0.001619    8.18  0.000454  ( 0.000321  0.021299  0.000002)
 33:   1188.03   0.000071    0.36  0.000019  (-0.004328  0.000116 -0.000001)
 34:   1214.41   0.000099    0.50  0.000025  ( 0.001099  0.004911  0.000014)
 35:   1269.62   0.000490    2.47  0.000120  ( 0.000567 -0.010954  0.000004)
 36:   1277.21   0.000090    0.46  0.000022  (-0.004253  0.001984  0.000001)
 37:   1327.43   0.000066    0.34  0.000016  (-0.002637 -0.002940 -0.000002)
 38:   1394.43   0.000108    0.54  0.000024  (-0.002284 -0.004341 -0.000019)
 39:   1399.61   0.000392    1.98  0.000087  ( 0.009239 -0.001438 -0.000001)
 40:   1406.67   0.000778    3.93  0.000173  ( 0.005927  0.011722  0.000013)
 41:   1447.92   0.000098    0.50  0.000021  ( 0.004582 -0.000360  0.000047)
 42:   1465.22   0.000418    2.11  0.000089  ( 0.000041  0.000015 -0.009440)
 43:   1473.65   0.000289    1.46  0.000061  (-0.001862  0.007596 -0.000030)
 44:   1476.84   0.003921   19.81  0.000828  (-0.000019  0.000028 -0.028784)
 45:   1485.85   0.000598    3.02  0.000126  (-0.008118 -0.007724  0.000036)
 46:   1495.71   0.000443    2.24  0.000092  (-0.000074  0.000208 -0.009609)
 47:   1504.10   0.004568   23.08  0.000948  ( 0.018576 -0.024549 -0.000066)
 48:   1508.28   0.003591   18.15  0.000743  (-0.024429 -0.012095 -0.000035)
 49:   1613.59   0.001715    8.66  0.000332  ( 0.017731 -0.004146 -0.000000)
 50:   1624.67   0.000043    0.22  0.000008  ( 0.002716  0.000932 -0.000004)
 51:   2999.38   0.008348   42.19  0.000869  ( 0.024781  0.015953 -0.000013)
 52:   3003.27   0.003742   18.91  0.000389  ( 0.007971  0.018034  0.000080)
 53:   3004.14   0.006596   33.33  0.000685  (-0.017546  0.019426  0.000009)
 54:   3051.67   0.006706   33.89  0.000686  ( 0.000029  0.000057 -0.026187)
 55:   3056.75   0.000191    0.96  0.000019  ( 0.000055  0.000052  0.004414)
 56:   3063.98   0.002802   14.16  0.000285  ( 0.000007 -0.000001 -0.016894)
 57:   3099.11   0.003736   18.88  0.000376  (-0.016764 -0.009755 -0.000006)
 58:   3100.39   0.003649   18.44  0.000367  ( 0.010256 -0.016190  0.000004)
 59:   3129.52   0.002753   13.91  0.000275  ( 0.013562 -0.009519  0.000020)
 60:   3143.77   0.000014    0.07  0.000001  (-0.000238 -0.001150 -0.000001)
 61:   3151.09   0.005382   27.20  0.000533  (-0.023071  0.000870 -0.000001)
 62:   3169.78   0.004519   22.84  0.000445  (-0.000697 -0.021081  0.000001)

--------------------------
THERMOCHEMISTRY AT 298.15K
--------------------------

Temperature         ...   298.15 K
Pressure            ...     1.00 atm
Total Mass          ...   120.19 AMU
Quasi RRHO          ...     True
Cut-Off Frequency   ...     1.00 cm^-1

Throughout the following assumptions are being made:
  (1) The electronic state is orbitally nondegenerate
  (2) There are no thermally accessible electronically excited states
  (3) Hindered rotations indicated by low frequency modes are not
      treated as such but are treated as vibrations and this may
      cause some error
  (4) All equations used are the standard statistical mechanics
      equations for an ideal gas
  (5) All vibrations are strictly harmonic

freq.      87.54  E(vib)   ...       0.48
freq.     129.32  E(vib)   ...       0.43
freq.     191.65  E(vib)   ...       0.36
freq.     211.83  E(vib)   ...       0.34
freq.     237.94  E(vib)   ...       0.32
freq.     275.45  E(vib)   ...       0.28
freq.     318.02  E(vib)   ...       0.25
freq.     355.92  E(vib)   ...       0.22
freq.     470.48  E(vib)   ...       0.15
freq.     494.32  E(vib)   ...       0.14
freq.     514.13  E(vib)   ...       0.13
freq.     526.12  E(vib)   ...       0.13
freq.     546.79  E(vib)   ...       0.12
freq.     665.45  E(vib)   ...       0.08
freq.     731.62  E(vib)   ...       0.06
freq.     770.27  E(vib)   ...       0.05
freq.     829.68  E(vib)   ...       0.04
freq.     884.32  E(vib)   ...       0.04
freq.     891.84  E(vib)   ...       0.03
freq.     946.01  E(vib)   ...       0.03
freq.    1004.86  E(vib)   ...       0.02
freq.    1009.66  E(vib)   ...       0.02
freq.    1022.79  E(vib)   ...       0.02
freq.    1051.13  E(vib)   ...       0.02
freq.    1063.35  E(vib)   ...       0.02
freq.    1091.25  E(vib)   ...       0.02
freq.    1113.38  E(vib)   ...       0.01
freq.    1188.03  E(vib)   ...       0.01
freq.    1214.41  E(vib)   ...       0.01
freq.    1269.62  E(vib)   ...       0.01
freq.    1277.21  E(vib)   ...       0.01
freq.    1327.43  E(vib)   ...       0.01
freq.    1394.43  E(vib)   ...       0.00
freq.    1399.61  E(vib)   ...       0.00
freq.    1406.67  E(vib)   ...       0.00
freq.    1447.92  E(vib)   ...       0.00
freq.    1465.22  E(vib)   ...       0.00
freq.    1473.65  E(vib)   ...       0.00
freq.    1476.84  E(vib)   ...       0.00
freq.    1485.85  E(vib)   ...       0.00
freq.    1495.71  E(vib)   ...       0.00
freq.    1504.10  E(vib)   ...       0.00
freq.    1508.28  E(vib)   ...       0.00
freq.    1613.59  E(vib)   ...       0.00
freq.    1624.67  E(vib)   ...       0.00
freq.    2999.38  E(vib)   ...       0.00
freq.    3003.27  E(vib)   ...       0.00
freq.    3004.14  E(vib)   ...       0.00
freq.    3051.67  E(vib)   ...       0.00
freq.    3056.75  E(vib)   ...       0.00
freq.    3063.98  E(vib)   ...       0.00
freq.    3099.11  E(vib)   ...       0.00
freq.    3100.39  E(vib)   ...       0.00
freq.    3129.52  E(vib)   ...       0.00
freq.    3143.77  E(vib)   ...       0.00
freq.    3151.09  E(vib)   ...       0.00
freq.    3169.78  E(vib)   ...       0.00

------------
INNER ENERGY
------------

The inner energy is: U= E(el) + E(ZPE) + E(vib) + E(rot) + E(trans)
    E(el)   - is the total energy from the electronic structure calculation
              = E(kin-el) + E(nuc-el) + E(el-el) + E(nuc-nuc)
    E(ZPE)  - the the zero temperature vibrational energy from the frequency calculation
    E(vib)  - the the finite temperature correction to E(ZPE) due to population
              of excited vibrational states
    E(rot)  - is the rotational thermal energy
    E(trans)- is the translational thermal energy

Summary of contributions to the inner energy U:
Electronic energy                ...   -350.11401670 Eh
Zero point energy                ...      0.18221054 Eh     114.34 kcal/mol
Thermal vibrational correction   ...      0.00624693 Eh       3.92 kcal/mol
Thermal rotational correction    ...      0.00141627 Eh       0.89 kcal/mol
Thermal translational correction ...      0.00141627 Eh       0.89 kcal/mol
-----------------------------------------------------------------------
Total thermal energy                   -349.92272669 Eh

Summary of corrections to the electronic energy:
(perhaps to be used in another calculation)
Total thermal correction                  0.00907947 Eh       5.70 kcal/mol
Non-thermal (ZPE) correction              0.18221054 Eh     114.34 kcal/mol
-----------------------------------------------------------------------
Total correction                          0.19129001 Eh     120.04 kcal/mol

--------
ENTHALPY
--------

The enthalpy is H = U + kB*T
                kB is Boltzmann's constant
Total thermal energy              ...   -349.92272669 Eh
Thermal Enthalpy correction       ...      0.00094421 Eh       0.59 kcal/mol
-----------------------------------------------------------------------
Total Enthalpy                    ...   -349.92178248 Eh

Note: Only C1 symmetry has been detected, increase convergence thresholds
      if your molecule has a higher symmetry. Symmetry factor of 1.0 is
      used for the rotational entropy correction.

Note: Rotational entropy computed according to Herzberg
Infrared and Raman Spectra, Chapter V,1, Van Nostrand Reinhold, 1945
Point Group:  C1, Symmetry Number:   1
Rotational constants in cm-1:     0.073982     0.057865     0.033065

Vibrational entropy computed according to the QRRHO of S. Grimme
Chem.Eur.J. 2012 18 9955 using a reference frequency of 100.0 cm-1

-------
ENTROPY
-------

The entropy contributions are T*S = T*(S(el)+S(vib)+S(rot)+S(trans))
     S(el)   - electronic entropy
     S(vib)  - vibrational entropy
     S(rot)  - rotational entropy
     S(trans)- translational entropy
The entropies will be listed as multiplied by the temperature to get
units of energy

Electronic entropy                ...      0.00000000 Eh      0.00 kcal/mol
Vibrational entropy               ...      0.01032362 Eh      6.48 kcal/mol
Rotational entropy                ...      0.01369488 Eh      8.59 kcal/mol
Translational entropy             ...      0.01913176 Eh     12.01 kcal/mol
-----------------------------------------------------------------------
Final entropy term                ...      0.04315026 Eh     27.08 kcal/mol

In case the symmetry of your molecule has not been determined correctly
or in case you have a reason to use a different symmetry number we print
out the resulting rotational entropy values for sn=1,12:

 non-linear molecules -----------------------------------
|  sn= 1 | S(rot)=       0.01369488 Eh      8.59 kcal/mol|
|  sn= 2 | S(rot)=       0.01304042 Eh      8.18 kcal/mol|
|  sn= 3 | S(rot)=       0.01265759 Eh      7.94 kcal/mol|

                             ****ORCA TERMINATED NORMALLY****
TOTAL RUN TIME: 0 days 0 hours 20 minutes 4 seconds 349 msec
