                         Program Version 6.0.0  -   RELEASE  -
|  1> ! r2SCAN-3c DEF2-TZVP FREQ
|  2> * xyzfile 0 1 vacuum_censo.xyz
|  3>
|  4>                          ****END OF INPUT****

CARTESIAN COORDINATES (ANGSTROEM)
---------------------------------
  C     -2.545054   -0.653460    0.000045
  C     -1.211925    0.043697    0.000085
  C     -1.157177    1.437352   -0.000020
  C      0.063604    2.099266   -0.000069
  C      1.240918    1.364231   -0.000050
  C      1.219598   -0.032711    0.000050
  C     -0.017454   -0.701002    0.000172
  C     -0.098120   -2.204905   -0.000123
  C      2.525673   -0.785524    0.000063
  H     -2.664543   -1.295920    0.880270
  H     -3.362815    0.070615   -0.001101
  H     -2.663555   -1.297711   -0.878993
  H     -2.083302    2.005414   -0.000100
  H      0.097397    3.184177   -0.000187
  H      2.197905    1.878481   -0.000167
  H     -0.638230   -2.571050   -0.881228
  H      0.884663   -2.675059    0.004077
  H     -0.645784   -2.571110    0.876204
  H      2.624488   -1.428676   -0.881464
  H      3.367306   -0.089163   -0.001544
  H      2.625813   -1.426122    0.883331

 Total Charge           Charge          ....    0
 Multiplicity           Mult            ....    1
 Number of Electrons    NEL             ....   66
 Basis Dimension        Dim             ....  351

ORBITAL ENERGIES
----------------

  NO   OCC          E(Eh)            E(eV)
   0   2.0000     -10.038043      -273.1490
   1   2.0000     -10.037091      -273.1231
   2   2.0000     -10.036657      -273.1113
   3   2.0000     -10.027978      -272.8751
   4   2.0000     -10.027884      -272.8726
   5   2.0000     -10.027861      -272.8720
   6   2.0000     -10.025168      -272.7987
   7   2.0000     -10.023587      -272.7557
   8   2.0000     -10.023360      -272.7495
   9   2.0000      -0.823435       -22.4068
  10   2.0000      -0.745416       -20.2838
  11   2.0000      -0.738371       -20.0921
  12   2.0000      -0.680057       -18.5053
  13   2.0000      -0.641892       -17.4668
  14   2.0000      -0.633251       -17.2316
  15   2.0000      -0.540028       -14.6949
  16   2.0000      -0.536668       -14.6035
  17   2.0000      -0.457146       -12.4396
  18   2.0000      -0.445854       -12.1323
  19   2.0000      -0.408066       -11.1040
  20   2.0000      -0.402447       -10.9511
  21   2.0000      -0.382783       -10.4161
  22   2.0000      -0.371311       -10.1039
  23   2.0000      -0.367507       -10.0004
  24   2.0000      -0.364689        -9.9237
  25   2.0000      -0.364397        -9.9157
  26   2.0000      -0.354573        -9.6484
  27   2.0000      -0.337356        -9.1799
  28   2.0000      -0.313735        -8.5372
  29   2.0000      -0.298474        -8.1219
  30   2.0000      -0.295711        -8.0467
  31   2.0000      -0.216408        -5.8888
  32   2.0000      -0.214515        -5.8373
  33   0.0000      -0.025599        -0.6966
  34   0.0000      -0.020500        -0.5578
  35   0.0000       0.041280         1.1233
  36   0.0000       0.066243         1.8026
  37   0.0000       0.069958         1.9037

MULLIKEN ATOMIC CHARGES
-----------------------
   0 C :   -0.337156
   1 C :    0.139754
   2 C :   -0.211431
   3 C :   -0.088542
   4 C :   -0.208842
   5 C :    0.192150
   6 C :   -0.046117
   7 C :   -0.380815
   8 C :   -0.371326
   9 H :    0.112774
  10 H :    0.107743
  11 H :    0.112632
  12 H :    0.090178
  13 H :    0.101906
  14 H :    0.089618
  15 H :    0.116835
  16 H :    0.115673
  17 H :    0.116527
  18 H :    0.120060
  19 H :    0.108359
  20 H :    0.120020
Sum of atomic charges:   -0.0000000

LOEWDIN ATOMIC CHARGES
----------------------
   0 C :   -0.251437
   1 C :   -0.145838
   2 C :   -0.127858
   3 C :   -0.147884
   4 C :   -0.128004
   5 C :   -0.146267
   6 C :   -0.119327
   7 C :   -0.249150
   8 C :   -0.257812
   9 H :    0.127855
  10 H :    0.125379
  11 H :    0.127865
  12 H :    0.142405
  13 H :    0.141422
  14 H :    0.142373
  15 H :    0.129929
  16 H :    0.125925
  17 H :    0.129869
  18 H :    0.127445
  19 H :    0.125651
  20 H :    0.127459

  Mayer bond orders larger than 0.100000
B(  0-C ,  1-C ) :   0.9265 B(  0-C ,  9-H ) :   0.9689 B(  0-C , 10-H ) :   0.9811
B(  0-C , 11-H ) :   0.9686 B(  1-C ,  2-C ) :   1.3794 B(  1-C ,  6-C ) :   1.2844
B(  2-C ,  3-C ) :   1.3907 B(  2-C , 12-H ) :   0.9802 B(  3-C ,  4-C ) :   1.4033
B(  3-C , 13-H ) :   0.9765 B(  4-C ,  5-C ) :   1.3747 B(  4-C , 14-H ) :   0.9789
B(  5-C ,  6-C ) :   1.3142 B(  5-C ,  8-C ) :   0.8897 B(  6-C ,  7-C ) :   0.9282
B(  7-C , 15-H ) :   0.9741 B(  7-C , 16-H ) :   0.9850 B(  7-C , 17-H ) :   0.9742
B(  8-C , 18-H ) :   0.9747 B(  8-C , 19-H ) :   0.9822 B(  8-C , 20-H ) :   0.9745

Dispersion correction           -0.007100693
FINAL SINGLE POINT ENERGY      -350.114079313224

DIPOLE MOMENT
-------------

Method             : SCF
Type of density    : Electron Density
Multiplicity       :   1
Irrep              :   0
Energy             :  -350.1148213413545136 Eh
Relativity type    :
Basis              : AO
                                X                 Y                 Z
Electronic contribution:      0.226436439       5.575947305       0.000764217
Nuclear contribution   :     -0.242500969      -5.882749703      -0.000934138
                        -----------------------------------------
Total Dipole Moment    :     -0.016064530      -0.306802398      -0.000169921
                        -----------------------------------------
Magnitude (a.u.)       :      0.307222736
Magnitude (Debye)      :      0.780898135

VIBRATIONAL FREQUENCIES
-----------------------

Scaling factor for frequencies =  1.000000000  (already applied!)

     0:       0.00 cm**-1
     1:       0.00 cm**-1
     2:       0.00 cm**-1
     3:       0.00 cm**-1
     4:       0.00 cm**-1
     5:       0.00 cm**-1
     6:      67.97 cm**-1
     7:     130.18 cm**-1
     8:     183.95 cm**-1
     9:     206.78 cm**-1
    10:     234.35 cm**-1
    11:     274.71 cm**-1
    12:     317.44 cm**-1
    13:     355.01 cm**-1
    14:     469.57 cm**-1
    15:     494.19 cm**-1
    16:     512.21 cm**-1
    17:     524.81 cm**-1
    18:     546.94 cm**-1
    19:     665.76 cm**-1
    20:     730.77 cm**-1
    21:     769.06 cm**-1
    22:     829.42 cm**-1
    23:     884.55 cm**-1
    24:     891.40 cm**-1
    25:     945.76 cm**-1
    26:    1003.79 cm**-1
    27:    1008.89 cm**-1
    28:    1022.48 cm**-1
    29:    1051.16 cm**-1
    30:    1063.04 cm**-1
    31:    1088.58 cm**-1
    32:    1116.08 cm**-1
    33:    1189.65 cm**-1
    34:    1213.13 cm**-1
    35:    1269.58 cm**-1
    36:    1278.21 cm**-1
    37:    1336.99 cm**-1
    38:    1394.48 cm**-1
    39:    1399.66 cm**-1
    40:    1406.81 cm**-1
    41:    1449.01 cm**-1
    42:    1466.26 cm**-1
    43:    1474.77 cm**-1
    44:    1477.82 cm**-1
    45:    1485.50 cm**-1
    46:    1496.46 cm**-1
    47:    1506.16 cm**-1
    48:    1509.13 cm**-1
    49:    1620.57 cm**-1
    50:    1631.61 cm**-1
    51:    3000.88 cm**-1
    52:    3004.65 cm**-1
    53:    3004.98 cm**-1
    54:    3053.79 cm**-1
    55:    3058.38 cm**-1
    56:    3065.17 cm**-1
    57:    3100.40 cm**-1
    58:    3101.96 cm**-1
    59:    3130.31 cm**-1
    60:    3147.14 cm**-1
    61:    3153.83 cm**-1
    62:    3174.22 cm**-1

IR SPECTRUM
-----------

 Mode   freq       eps      Int      T**2         TX        TY        TZ
       cm**-1   L/(mol*cm) km/mol    a.u.
----------------------------------------------------------------------------
  6:     67.97   0.000031    0.15  0.000140  ( 0.000101 -0.000217 -0.011851)
  7:    130.18   0.000024    0.12  0.000058  (-0.000083 -0.000145  0.007597)
  8:    183.95   0.000089    0.45  0.000151  (-0.000102  0.000009  0.012282)
  9:    206.78   0.000414    2.09  0.000625  ( 0.000029 -0.000019  0.024999)
 10:    234.35   0.000001    0.00  0.000001  (-0.000077  0.000024  0.000920)
 11:    274.71   0.001156    5.84  0.001314  (-0.000024  0.000054 -0.036244)
 12:    317.44   0.000093    0.47  0.000091  (-0.000248  0.009544 -0.000085)
 13:    355.01   0.000020    0.10  0.000017  ( 0.003537 -0.002167 -0.000020)
 14:    469.57   0.000038    0.19  0.000025  (-0.004553 -0.002077  0.000002)
 15:    494.19   0.000043    0.22  0.000027  ( 0.000371  0.005213  0.000009)
 16:    512.21   0.000009    0.04  0.000005  (-0.000011  0.000029  0.002308)
 17:    524.81   0.000001    0.01  0.000001  (-0.000047 -0.000055  0.000786)
 18:    546.94   0.000253    1.28  0.000144  (-0.011967 -0.001079 -0.000002)
 19:    665.76   0.000032    0.16  0.000015  (-0.000408  0.003878  0.000015)
 20:    730.77   0.001650    8.34  0.000705  (-0.000002 -0.000070  0.026544)
 21:    769.06   0.006845   34.59  0.002777  ( 0.000002 -0.000006 -0.052701)
 22:    829.42   0.000012    0.06  0.000004  (-0.001007 -0.001831 -0.000038)
 23:    884.55   0.000000    0.00  0.000000  (-0.000007  0.000029 -0.000348)
 24:    891.40   0.000245    1.24  0.000086  ( 0.007105 -0.005946  0.000003)
 25:    945.76   0.000013    0.07  0.000004  (-0.000001  0.000024  0.002067)
 26:   1003.79   0.001934    9.77  0.000601  (-0.022551 -0.009624 -0.000003)
 27:   1008.89   0.000388    1.96  0.000120  (-0.007082  0.008355  0.000011)
 28:   1022.48   0.000734    3.71  0.000224  ( 0.000002  0.000072  0.014969)
 29:   1051.16   0.000006    0.03  0.000002  ( 0.000058  0.000003  0.001326)
 30:   1063.04   0.000079    0.40  0.000023  (-0.000008  0.000052 -0.004821)
 31:   1088.58   0.000588    2.97  0.000168  (-0.010996 -0.006894  0.000001)
 32:   1116.08   0.001612    8.14  0.000451  (-0.000410 -0.021224 -0.000006)
 33:   1189.65   0.000066    0.33  0.000017  (-0.004162  0.000087  0.000000)
 34:   1213.13   0.000082    0.42  0.000021  ( 0.001098  0.004465  0.000022)
 35:   1269.58   0.000501    2.53  0.000123  ( 0.000387 -0.011085  0.000007)
 36:   1278.21   0.000078    0.39  0.000019  (-0.003791  0.002137 -0.000004)
 37:   1336.99   0.000058    0.29  0.000014  (-0.002482 -0.002718 -0.000001)
 38:   1394.48   0.000113    0.57  0.000025  (-0.002543 -0.004342 -0.000018)
 39:   1399.66   0.000364    1.84  0.000081  (-0.008847  0.001723 -0.000002)
 40:   1406.81   0.000755    3.82  0.000168  ( 0.006065  0.011436  0.000020)
 41:   1449.01   0.000111    0.56  0.000024  ( 0.004656 -0.001526  0.000070)
 42:   1466.26   0.000403    2.04  0.000086  ( 0.000079  0.000026 -0.009262)
 43:   1474.77   0.000315    1.59  0.000067  ( 0.003821 -0.007206  0.000170)
 44:   1477.82   0.003916   19.79  0.000827  (-0.000008  0.000009  0.028758)
 45:   1485.50   0.000546    2.76  0.000115  ( 0.008063  0.007054 -0.000069)
 46:   1496.46   0.000419    2.12  0.000087  (-0.000041  0.000343 -0.009340)
 47:   1506.16   0.004362   22.04  0.000904  (-0.015536  0.025736  0.000084)
 48:   1509.13   0.003837   19.39  0.000793  (-0.026358 -0.009930 -0.000041)
 49:   1620.57   0.001674    8.46  0.000322  (-0.017512  0.003960  0.000000)
 50:   1631.61   0.000038    0.19  0.000007  (-0.002507 -0.000962  0.000001)
 51:   3000.88   0.008165   41.26  0.000849  (-0.024863 -0.015196 -0.000004)
 52:   3004.65   0.003023   15.28  0.000314  ( 0.017691 -0.000978  0.000111)
 53:   3004.98   0.007355   37.17  0.000764  (-0.005993  0.026980  0.000091)
 54:   3053.79   0.006811   34.42  0.000696  (-0.000070 -0.000106  0.026381)
 55:   3058.38   0.000108    0.54  0.000011  ( 0.000074  0.000078  0.003312)
 56:   3065.17   0.002752   13.91  0.000280  (-0.000042  0.000025  0.016739)
 57:   3100.40   0.003873   19.57  0.000390  ( 0.016914  0.010184  0.000009)
 58:   3101.96   0.003702   18.71  0.000372  ( 0.011130 -0.015766  0.000010)
 59:   3130.31   0.002802   14.16  0.000279  (-0.013660  0.009629 -0.000033)
 60:   3147.14   0.000044    0.22  0.000004  (-0.000553 -0.002021 -0.000001)
 61:   3153.83   0.005415   27.37  0.000536  ( 0.023134 -0.000818 -0.000000)
 62:   3174.22   0.004528   22.88  0.000445  ( 0.000623  0.021089 -0.000002)

--------------------------
THERMOCHEMISTRY AT 298.15K
--------------------------

Temperature         ...   298.15 K
Pressure            ...     1.00 atm
Total Mass          ...   120.19 AMU
Quasi RRHO          ...     True
Cut-Off Frequency   ...     1.00 cm^-1

Throughout the following assumptions are being made:
  (1) The electronic state is orbitally nondegenerate
  (2) There are no thermally accessible electronically excited states
  (3) Hindered rotations indicated by low frequency modes are not
      treated as such but are treated as vibrations and this may
      cause some error
  (4) All equations used are the standard statistical mechanics
      equations for an ideal gas
  (5) All vibrations are strictly harmonic

freq.      67.97  E(vib)   ...       0.50
freq.     130.18  E(vib)   ...       0.43
freq.     183.95  E(vib)   ...       0.37
freq.     206.78  E(vib)   ...       0.35
freq.     234.35  E(vib)   ...       0.32
freq.     274.71  E(vib)   ...       0.28
freq.     317.44  E(vib)   ...       0.25
freq.     355.01  E(vib)   ...       0.22
freq.     469.57  E(vib)   ...       0.16
freq.     494.19  E(vib)   ...       0.14
freq.     512.21  E(vib)   ...       0.14
freq.     524.81  E(vib)   ...       0.13
freq.     546.94  E(vib)   ...       0.12
freq.     665.76  E(vib)   ...       0.08
freq.     730.77  E(vib)   ...       0.06
freq.     769.06  E(vib)   ...       0.06
freq.     829.42  E(vib)   ...       0.04
freq.     884.55  E(vib)   ...       0.04
freq.     891.40  E(vib)   ...       0.04
freq.     945.76  E(vib)   ...       0.03
freq.    1003.79  E(vib)   ...       0.02
freq.    1008.89  E(vib)   ...       0.02
freq.    1022.48  E(vib)   ...       0.02
freq.    1051.16  E(vib)   ...       0.02
freq.    1063.04  E(vib)   ...       0.02
freq.    1088.58  E(vib)   ...       0.02
freq.    1116.08  E(vib)   ...       0.01
freq.    1189.65  E(vib)   ...       0.01
freq.    1213.13  E(vib)   ...       0.01
freq.    1269.58  E(vib)   ...       0.01
freq.    1278.21  E(vib)   ...       0.01
freq.    1336.99  E(vib)   ...       0.01
freq.    1394.48  E(vib)   ...       0.00
freq.    1399.66  E(vib)   ...       0.00
freq.    1406.81  E(vib)   ...       0.00
freq.    1449.01  E(vib)   ...       0.00
freq.    1466.26  E(vib)   ...       0.00
freq.    1474.77  E(vib)   ...       0.00
freq.    1477.82  E(vib)   ...       0.00
freq.    1485.50  E(vib)   ...       0.00
freq.    1496.46  E(vib)   ...       0.00
freq.    1506.16  E(vib)   ...       0.00
freq.    1509.13  E(vib)   ...       0.00
freq.    1620.57  E(vib)   ...       0.00
freq.    1631.61  E(vib)   ...       0.00
freq.    3000.88  E(vib)   ...       0.00
freq.    3004.65  E(vib)   ...       0.00
freq.    3004.98  E(vib)   ...       0.00
freq.    3053.79  E(vib)   ...       0.00
freq.    3058.38  E(vib)   ...       0.00
freq.    3065.17  E(vib)   ...       0.00
freq.    3100.40  E(vib)   ...       0.00
freq.    3101.96  E(vib)   ...       0.00
freq.    3130.31  E(vib)   ...       0.00
freq.    3147.14  E(vib)   ...       0.00
freq.    3153.83  E(vib)   ...       0.00
freq.    3174.22  E(vib)   ...       0.00

------------
INNER ENERGY
------------

The inner energy is: U= E(el) + E(ZPE) + E(vib) + E(rot) + E(trans)
    E(el)   - is the total energy from the electronic structure calculation
              = E(kin-el) + E(nuc-el) + E(el-el) + E(nuc-nuc)
    E(ZPE)  - the the zero temperature vibrational energy from the frequency calculation
    E(vib)  - the the finite temperature correction to E(ZPE) due to population
              of excited vibrational states
    E(rot)  - is the rotational thermal energy
    E(trans)- is the translational thermal energy

Summary of contributions to the inner energy U:
Electronic energy                ...   -350.11407931 Eh
Zero point energy                ...      0.18223150 Eh     114.35 kcal/mol
Thermal vibrational correction   ...      0.00631565 Eh       3.96 kcal/mol
Thermal rotational correction    ...      0.00141627 Eh       0.89 kcal/mol
Thermal translational correction ...      0.00141627 Eh       0.89 kcal/mol
-----------------------------------------------------------------------
Total thermal energy                   -349.92269962 Eh

Summary of corrections to the electronic energy:
(perhaps to be used in another calculation)
Total thermal correction                  0.00914819 Eh       5.74 kcal/mol
Non-thermal (ZPE) correction              0.18223150 Eh     114.35 kcal/mol
-----------------------------------------------------------------------
Total correction                          0.19137969 Eh     120.09 kcal/mol

--------
ENTHALPY
--------

The enthalpy is H = U + kB*T
                kB is Boltzmann's constant
Total thermal energy              ...   -349.92269962 Eh
Thermal Enthalpy correction       ...      0.00094421 Eh       0.59 kcal/mol
-----------------------------------------------------------------------
Total Enthalpy                    ...   -349.92175541 Eh

Note: Only C1 symmetry has been detected, increase convergence thresholds
      if your molecule has a higher symmetry. Symmetry factor of 1.0 is
      used for the rotational entropy correction.

Note: Rotational entropy computed according to Herzberg
Infrared and Raman Spectra, Chapter V,1, Van Nostrand Reinhold, 1945
Point Group:  C1, Symmetry Number:   1
Rotational constants in cm-1:     0.074088     0.057878     0.033092

Vibrational entropy computed according to the QRRHO of S. Grimme
Chem.Eur.J. 2012 18 9955 using a reference frequency of 100.0 cm-1

-------
ENTROPY
-------

The entropy contributions are T*S = T*(S(el)+S(vib)+S(rot)+S(trans))
     S(el)   - electronic entropy
     S(vib)  - vibrational entropy
     S(rot)  - rotational entropy
     S(trans)- translational entropy
The entropies will be listed as multiplied by the temperature to get
units of energy

Electronic entropy                ...      0.00000000 Eh      0.00 kcal/mol
Vibrational entropy               ...      0.01047108 Eh      6.57 kcal/mol
Rotational entropy                ...      0.01369372 Eh      8.59 kcal/mol
Translational entropy             ...      0.01913176 Eh     12.01 kcal/mol
-----------------------------------------------------------------------
Final entropy term                ...      0.04329655 Eh     27.17 kcal/mol

In case the symmetry of your molecule has not been determined correctly
or in case you have a reason to use a different symmetry number we print
out the resulting rotational entropy values for sn=1,12:

 non-linear molecules -----------------------------------
|  sn= 1 | S(rot)=       0.01369372 Eh      8.59 kcal/mol|
|  sn= 2 | S(rot)=       0.01303926 Eh      8.18 kcal/mol|
|  sn= 3 | S(rot)=       0.01265643 Eh      7.94 kcal/mol|

                             ****ORCA TERMINATED NORMALLY****
TOTAL RUN TIME: 0 days 0 hours 20 minutes 6 seconds 43 msec
