                         Program Version 6.0.1  -  RELEASE   -
|  1> ! pbe def2-sv(p) def2/J RI DEFGRID1 loosescf d4 GCP(DFT/SV(P)) printgap
|  2> %output
|  3>     printlevel normal
|  4> end
|  5> * xyz 0 1
|  6> C -2.1892480311 -1.0153054663 -0.4521192917
|  7> C -1.2083288817 -0.1826174041 0.383446151
|  8> H -1.7433687459 0.2266241613 1.2484633137
|  9> C -0.6193428176 0.9859827414 -0.4085543676
| 10> H -0.4640249877 0.6948971829 -1.4605157687
| 11> C 0.7482794896 1.3324189359 0.1930570601
| 12> H 0.6449032743 1.4562764595 1.2801399803
| 13> C 1.6978402098 0.159209422 -0.0908463523
| 14> H 1.9351881981 0.1542875855 -1.1633054518
| 15> C 0.9860000683 -1.1720311893 0.2234619514
| 16> H 1.6375300551 -1.7493915097 0.897639694
| 17> O -0.2003937665 -1.0244742627 0.9483729142
| 18> O 0.7942513571 -1.8331213714 -0.9911603065
| 19> O 2.8715572488 0.2222128847 0.6853665542
| 20> O 1.1895156768 2.5354614215 -0.4037934248
| 21> O -1.5075335856 2.0653829077 -0.3319293951
| 22> O -2.7126405878 -2.0797544523 0.299932974
| 23> H -1.6763777793 -1.3936863956 -1.3486447874
| 24> H -3.0254650224 -0.3851300992 -0.7606238047
| 25> H 0.3928132106 -2.6958784045 -0.8266275888
| 26> H 3.4604320737 0.8887681461 0.3146898327
| 27> H 1.9396863623 2.8765637327 0.0935238317
| 28> H -1.0265626875 2.8475256247 -0.63477181
| 29> H -2.0070967238 -2.3895054744 0.8835173385
| 30> *
| 31>
| 32>                          ****END OF INPUT****

CARTESIAN COORDINATES (ANGSTROEM)
---------------------------------
  C     -2.189248   -1.015305   -0.452119
  C     -1.208329   -0.182617    0.383446
  H     -1.743369    0.226624    1.248463
  C     -0.619343    0.985983   -0.408554
  H     -0.464025    0.694897   -1.460516
  C      0.748279    1.332419    0.193057
  H      0.644903    1.456276    1.280140
  C      1.697840    0.159209   -0.090846
  H      1.935188    0.154288   -1.163305
  C      0.986000   -1.172031    0.223462
  H      1.637530   -1.749392    0.897640
  O     -0.200394   -1.024474    0.948373
  O      0.794251   -1.833121   -0.991160
  O      2.871557    0.222213    0.685367
  O      1.189516    2.535461   -0.403793
  O     -1.507534    2.065383   -0.331929
  O     -2.712641   -2.079754    0.299933
  H     -1.676378   -1.393686   -1.348645
  H     -3.025465   -0.385130   -0.760624
  H      0.392813   -2.695878   -0.826628
  H      3.460432    0.888768    0.314690
  H      1.939686    2.876564    0.093524
  H     -1.026563    2.847526   -0.634772
  H     -2.007097   -2.389505    0.883517

 Total Charge           Charge          ....    0
 Multiplicity           Mult            ....    1
 Number of Electrons    NEL             ....   96
 Basis Dimension        Dim             ....  192

ORBITAL ENERGIES
----------------

  NO   OCC          E(Eh)            E(eV)
   0   2.0000     -18.780766      -511.0506
   1   2.0000     -18.775022      -510.8943
   2   2.0000     -18.770549      -510.7726
   3   2.0000     -18.766971      -510.6752
   4   2.0000     -18.748753      -510.1795
   5   2.0000     -18.735338      -509.8145
   6   2.0000      -9.993091      -271.9258
   7   2.0000      -9.947890      -270.6958
   8   2.0000      -9.947234      -270.6780
   9   2.0000      -9.945092      -270.6197
  10   2.0000      -9.943861      -270.5862
  11   2.0000      -9.921773      -269.9852
  12   2.0000      -0.991580       -26.9823
  13   2.0000      -0.958891       -26.0927
  14   2.0000      -0.940846       -25.6017
  15   2.0000      -0.927638       -25.2423
  16   2.0000      -0.921905       -25.0863
  17   2.0000      -0.909206       -24.7408
  18   2.0000      -0.712985       -19.4013
  19   2.0000      -0.698144       -18.9975
  20   2.0000      -0.622075       -16.9275
  21   2.0000      -0.581166       -15.8143
  22   2.0000      -0.571650       -15.5554
  23   2.0000      -0.529073       -14.3968
  24   2.0000      -0.511290       -13.9129
  25   2.0000      -0.497072       -13.5260
  26   2.0000      -0.469800       -12.7839
  27   2.0000      -0.467331       -12.7167
  28   2.0000      -0.453307       -12.3351
  29   2.0000      -0.423133       -11.5140
  30   2.0000      -0.413227       -11.2445
  31   2.0000      -0.397598       -10.8192
  32   2.0000      -0.390044       -10.6136
  33   2.0000      -0.384959       -10.4753
  34   2.0000      -0.371083       -10.0977
  35   2.0000      -0.351716        -9.5707
  36   2.0000      -0.331801        -9.0288
  37   2.0000      -0.327057        -8.8997
  38   2.0000      -0.317110        -8.6290
  39   2.0000      -0.294219        -8.0061
  40   2.0000      -0.280005        -7.6193
  41   2.0000      -0.272509        -7.4154
  42   2.0000      -0.259298        -7.0558
  43   2.0000      -0.252531        -6.8717
  44   2.0000      -0.238590        -6.4924
  45   2.0000      -0.229522        -6.2456
  46   2.0000      -0.213832        -5.8187
  47   2.0000      -0.203958        -5.5500
  48   0.0000      -0.011672        -0.3176
  49   0.0000       0.018231         0.4961
  50   0.0000       0.036994         1.0067
  51   0.0000       0.045939         1.2501
  52   0.0000       0.066547         1.8108

MULLIKEN ATOMIC CHARGES
-----------------------
   0 C :    0.066595
   1 C :    0.028595
   2 H :    0.083680
   3 C :    0.021656
   4 H :    0.066936
   5 C :    0.030147
   6 H :    0.065186
   7 C :    0.050315
   8 H :    0.076508
   9 C :    0.181372
  10 H :    0.076303
  11 O :   -0.326965
  12 O :   -0.397285
  13 O :   -0.408052
  14 O :   -0.422018
  15 O :   -0.413364
  16 O :   -0.438267
  17 H :    0.066430
  18 H :    0.094131
  19 H :    0.306624
  20 H :    0.295948
  21 H :    0.299907
  22 H :    0.305628
  23 H :    0.289991
Sum of atomic charges:    0.0000000

LOEWDIN ATOMIC CHARGES
----------------------
   0 C :   -0.135925
   1 C :   -0.065178
   2 H :    0.123693
   3 C :   -0.067809
   4 H :    0.105747
   5 C :   -0.084908
   6 H :    0.111149
   7 C :   -0.085200
   8 H :    0.115166
   9 C :    0.002352
  10 H :    0.105624
  11 O :   -0.144291
  12 O :   -0.306786
  13 O :   -0.316570
  14 O :   -0.322425
  15 O :   -0.315625
  16 O :   -0.342182
  17 H :    0.092642
  18 H :    0.119548
  19 H :    0.286270
  20 H :    0.283734
  21 H :    0.286411
  22 H :    0.284038
  23 H :    0.270522

  Mayer bond orders larger than 0.100000
B(  0-C ,  1-C ) :   1.0944 B(  0-C , 16-O ) :   1.0745 B(  0-C , 17-H ) :   0.8936
B(  0-C , 18-H ) :   0.9134 B(  1-C ,  2-H ) :   0.8757 B(  1-C ,  3-C ) :   0.9912
B(  1-C , 11-O ) :   0.9496 B(  3-C ,  4-H ) :   0.8807 B(  3-C ,  5-C ) :   1.0110
B(  3-C , 15-O ) :   1.0857 B(  5-C ,  6-H ) :   0.8691 B(  5-C ,  7-C ) :   1.0189
B(  5-C , 14-O ) :   1.0682 B(  7-C ,  8-H ) :   0.8832 B(  7-C ,  9-C ) :   0.9826
B(  7-C , 13-O ) :   1.0795 B(  9-C , 10-H ) :   0.8911 B(  9-C , 11-O ) :   1.0761
B(  9-C , 12-O ) :   1.1053 B( 12-O , 19-H ) :   0.8333 B( 13-O , 20-H ) :   0.8482
B( 14-O , 21-H ) :   0.8447 B( 15-O , 22-H ) :   0.8307 B( 16-O , 23-H ) :   0.8383

Dispersion correction           -0.024523588
FINAL SINGLE POINT ENERGY      -685.691459729627

DIPOLE MOMENT
-------------

Method             : SCF
Type of density    : Electron Density
Multiplicity       :   1
Irrep              :   0
Energy             :  -685.8227448696510464 Eh
Relativity type    :
Basis              : AO
                                X                 Y                 Z
Electronic contribution:      1.379567657       0.043602931       1.335989860
Nuclear contribution   :      0.069914683       0.496804448      -1.382158980
                        -----------------------------------------
Total Dipole Moment    :      1.449482341       0.540407379      -0.046169120
                        -----------------------------------------
Magnitude (a.u.)       :      1.547633929
Magnitude (Debye)      :      3.933772826

Rotational constants in cm-1:             0.042525             0.026577             0.018508
Rotational constants in MHz :          1274.878639           796.766880           554.842265

                             ****ORCA TERMINATED NORMALLY****
TOTAL RUN TIME: 0 days 0 hours 0 minutes 8 seconds 901 msec
