                         Program Version 6.0.1  -  RELEASE   -
|  1> ! pbe def2-sv(p) def2/J RI DEFGRID1 loosescf d4 GCP(DFT/SV(P)) printgap
|  2> %output
|  3>     printlevel normal
|  4> end
|  5> * xyz 0 1
|  6> C -2.7582885477 -0.7650205352 0.0005527305
|  7> O -1.7977469188 0.2580513114 -0.0179339904
|  8> C -0.467369526 -0.1014391356 0.0005758783
|  9> C 0.0048073019 -1.4001224269 0.0085923222
| 10> C 1.3715452731 -1.6496982337 0.0083315054
| 11> C 2.2671627221 -0.6002345581 -0.0054529946
| 12> C 1.8028876805 0.7043101373 -0.0151217403
| 13> C 0.4414295323 0.9763774428 -0.00680574
| 14> N -0.0391626737 2.2704816552 0.0630751373
| 15> H -2.6773161072 -1.3767295802 0.9050659645
| 16> H -2.6789738924 -1.4099475024 -0.8814975273
| 17> H -3.7252276016 -0.2632480367 -0.0074496713
| 18> H -0.6795958112 -2.2339857303 0.0125961812
| 19> H 1.723217629 -2.6700758975 0.0155791646
| 20> H 3.3298302513 -0.7905072536 -0.0111291148
| 21> H 2.4983922333 1.5311666165 -0.0263623235
| 22> H 0.5735832716 2.9880114753 -0.2892191775
| 23> H -1.0069948793 2.3704694578 -0.1982882957
| 24> *
| 25>
| 26>                          ****END OF INPUT****

CARTESIAN COORDINATES (ANGSTROEM)
---------------------------------
  C     -2.758289   -0.765021    0.000553
  O     -1.797747    0.258051   -0.017934
  C     -0.467370   -0.101439    0.000576
  C      0.004807   -1.400122    0.008592
  C      1.371545   -1.649698    0.008332
  C      2.267163   -0.600235   -0.005453
  C      1.802888    0.704310   -0.015122
  C      0.441430    0.976377   -0.006806
  N     -0.039163    2.270482    0.063075
  H     -2.677316   -1.376730    0.905066
  H     -2.678974   -1.409948   -0.881498
  H     -3.725228   -0.263248   -0.007450
  H     -0.679596   -2.233986    0.012596
  H      1.723218   -2.670076    0.015579
  H      3.329830   -0.790507   -0.011129
  H      2.498392    1.531167   -0.026362
  H      0.573583    2.988011   -0.289219
  H     -1.006995    2.370469   -0.198288

 Total Charge           Charge          ....    0
 Multiplicity           Mult            ....    1
 Number of Electrons    NEL             ....   66
 Basis Dimension        Dim             ....  144

ORBITAL ENERGIES
----------------

  NO   OCC          E(Eh)            E(eV)
   0   2.0000     -18.781953      -511.0829
   1   2.0000     -13.984511      -380.5379
   2   2.0000      -9.938803      -270.4486
   3   2.0000      -9.935914      -270.3700
   4   2.0000      -9.920100      -269.9396
   5   2.0000      -9.880356      -268.8582
   6   2.0000      -9.875561      -268.7277
   7   2.0000      -9.875253      -268.7193
   8   2.0000      -9.873034      -268.6589
   9   2.0000      -0.963390       -26.2152
  10   2.0000      -0.825472       -22.4622
  11   2.0000      -0.748935       -20.3796
  12   2.0000      -0.672497       -18.2996
  13   2.0000      -0.649864       -17.6837
  14   2.0000      -0.615222       -16.7410
  15   2.0000      -0.541349       -14.7309
  16   2.0000      -0.525476       -14.2989
  17   2.0000      -0.482737       -13.1360
  18   2.0000      -0.461279       -12.5520
  19   2.0000      -0.443714       -12.0741
  20   2.0000      -0.417334       -11.3562
  21   2.0000      -0.406705       -11.0670
  22   2.0000      -0.393875       -10.7179
  23   2.0000      -0.377973       -10.2852
  24   2.0000      -0.362217        -9.8564
  25   2.0000      -0.342899        -9.3308
  26   2.0000      -0.322040        -8.7631
  27   2.0000      -0.301647        -8.2082
  28   2.0000      -0.280750        -7.6396
  29   2.0000      -0.273063        -7.4304
  30   2.0000      -0.265505        -7.2248
  31   2.0000      -0.199040        -5.4162
  32   2.0000      -0.158336        -4.3086
  33   0.0000      -0.012982        -0.3533
  34   0.0000      -0.002427        -0.0660
  35   0.0000       0.043745         1.1904
  36   0.0000       0.047074         1.2810
  37   0.0000       0.057075         1.5531

MULLIKEN ATOMIC CHARGES
-----------------------
   0 C :   -0.110490
   1 O :   -0.296994
   2 C :    0.235067
   3 C :   -0.233896
   4 C :   -0.048124
   5 C :   -0.052952
   6 C :   -0.163265
   7 C :    0.086095
   8 N :   -0.327198
   9 H :    0.110422
  10 H :    0.108532
  11 H :    0.120005
  12 H :    0.031437
  13 H :    0.040161
  14 H :    0.041387
  15 H :    0.014071
  16 H :    0.219500
  17 H :    0.226242
Sum of atomic charges:    0.0000000

LOEWDIN ATOMIC CHARGES
----------------------
   0 C :   -0.203495
   1 O :   -0.106605
   2 C :    0.008580
   3 C :   -0.172500
   4 C :   -0.153630
   5 C :   -0.137116
   6 C :   -0.162978
   7 C :   -0.020949
   8 N :   -0.317291
   9 H :    0.108938
  10 H :    0.107404
  11 H :    0.119192
  12 H :    0.124565
  13 H :    0.119103
  14 H :    0.120014
  15 H :    0.118331
  16 H :    0.224156
  17 H :    0.224280

  Mayer bond orders larger than 0.100000
B(  0-C ,  1-O ) :   0.9950 B(  0-C ,  9-H ) :   0.9410 B(  0-C , 10-H ) :   0.9407
B(  0-C , 11-H ) :   0.9588 B(  1-O ,  2-C ) :   1.1097 B(  2-C ,  3-C ) :   1.3324
B(  2-C ,  7-C ) :   1.3240 B(  3-C ,  4-C ) :   1.3081 B(  3-C , 12-H ) :   0.9673
B(  4-C ,  5-C ) :   1.3819 B(  4-C , 13-H ) :   0.9667 B(  5-C ,  6-C ) :   1.3286
B(  5-C , 14-H ) :   0.9657 B(  6-C ,  7-C ) :   1.3652 B(  6-C , 15-H ) :   0.9703
B(  7-C ,  8-N ) :   1.2722 B(  8-N , 16-H ) :   0.8762 B(  8-N , 17-H ) :   0.8661

Dispersion correction           -0.017984060
FINAL SINGLE POINT ENERGY      -401.251387258124

DIPOLE MOMENT
-------------

Method             : SCF
Type of density    : Electron Density
Multiplicity       :   1
Irrep              :   0
Energy             :  -401.3121956932027388 Eh
Relativity type    :
Basis              : AO
                                X                 Y                 Z
Electronic contribution:      1.919179582       1.966387150       0.113030944
Nuclear contribution   :     -2.506513444      -1.723881014      -0.450902294
                        -----------------------------------------
Total Dipole Moment    :     -0.587333862       0.242506136      -0.337871350
                        -----------------------------------------
Magnitude (a.u.)       :      0.719671689
Magnitude (Debye)      :      1.829260060

Rotational constants in cm-1:             0.086871             0.052034             0.032770
Rotational constants in MHz :          2604.328844          1559.930380           982.409751

                             ****ORCA TERMINATED NORMALLY****
TOTAL RUN TIME: 0 days 0 hours 0 minutes 5 seconds 803 msec
