                         Program Version 6.0.0  -   RELEASE  -
|  1> ! r2SCAN-3c DEF2-TZVP FREQ
|  2> * xyzfile 0 1 censo.xyz
|  3>
|  4>                          ****END OF INPUT****

CARTESIAN COORDINATES (ANGSTROEM)
---------------------------------
  C     -4.415054    0.000499    0.000533
  C     -3.717362   -0.455434    1.117098
  C     -2.325681   -0.458906    1.118103
  C     -1.624402   -0.000525    0.000282
  C     -2.325574    0.458248   -1.117456
  C     -3.717245    0.455806   -1.116210
  C     -0.141620   -0.000494    0.000202
  C      0.604125    1.173623    0.162255
  C      1.992843    1.203220    0.165143
  C      2.663025   -0.000002   -0.000479
  C      1.993179   -1.203470   -0.165668
  C      0.604441   -1.174360   -0.162084
  Cl    -0.234903   -2.695009   -0.400425
  Cl     4.414926    0.000349   -0.001053
  Cl    -0.235597    2.693981    0.401183
  H     -5.500493    0.000997    0.000671
  H     -4.256782   -0.809894    1.989988
  H     -1.778871   -0.814993    1.986102
  H     -1.778646    0.813984   -1.985522
  H     -4.256559    0.810706   -1.988991
  H      2.530187    2.133736    0.298212
  H      2.530796   -2.133792   -0.298987

 Total Charge           Charge          ....    0
 Multiplicity           Mult            ....    1
 Number of Electrons    NEL             ....  130
 Basis Dimension        Dim             ....  525

ORBITAL ENERGIES
----------------

  NO   OCC          E(Eh)            E(eV)
   0   2.0000    -101.205873     -2753.9518
   1   2.0000    -101.203862     -2753.8971
   2   2.0000    -101.203858     -2753.8970
   3   2.0000     -10.124996      -275.5152
   4   2.0000     -10.124987      -275.5149
   5   2.0000     -10.122958      -275.4597
   6   2.0000     -10.082002      -274.3452
   7   2.0000     -10.069826      -274.0139
   8   2.0000     -10.069816      -274.0136
   9   2.0000     -10.061659      -273.7917
  10   2.0000     -10.048176      -273.4248
  11   2.0000     -10.048162      -273.4244
  12   2.0000     -10.046300      -273.3737
  13   2.0000     -10.046175      -273.3703
  14   2.0000     -10.045470      -273.3511
  15   2.0000      -9.381654      -255.2878
  16   2.0000      -9.379604      -255.2320
  17   2.0000      -9.379600      -255.2319
  18   2.0000      -7.126661      -193.9263
  19   2.0000      -7.124665      -193.8720
  20   2.0000      -7.124662      -193.8719
  21   2.0000      -7.116610      -193.6528
  22   2.0000      -7.116115      -193.6393
  23   2.0000      -7.114665      -193.5999
  24   2.0000      -7.114661      -193.5998
  25   2.0000      -7.113916      -193.5795
  26   2.0000      -7.113912      -193.5794
  27   2.0000      -0.897110       -24.4116
  28   2.0000      -0.852338       -23.1933
  29   2.0000      -0.847441       -23.0600
  30   2.0000      -0.830289       -22.5933
  31   2.0000      -0.784726       -21.3535
  32   2.0000      -0.754412       -20.5286
  33   2.0000      -0.723785       -19.6952
  34   2.0000      -0.720431       -19.6039
  35   2.0000      -0.697586       -18.9823
  36   2.0000      -0.603319       -16.4172
  37   2.0000      -0.593502       -16.1500
  38   2.0000      -0.583273       -15.8717
  39   2.0000      -0.565260       -15.3815
  40   2.0000      -0.512527       -13.9466
  41   2.0000      -0.487213       -13.2577
  42   2.0000      -0.481107       -13.0916
  43   2.0000      -0.451713       -12.2917
  44   2.0000      -0.436889       -11.8884
  45   2.0000      -0.435655       -11.8548
  46   2.0000      -0.425471       -11.5777
  47   2.0000      -0.409359       -11.1392
  48   2.0000      -0.404463       -11.0060
  49   2.0000      -0.397466       -10.8156
  50   2.0000      -0.378282       -10.2936
  51   2.0000      -0.375847       -10.2273
  52   2.0000      -0.350409        -9.5351
  53   2.0000      -0.350302        -9.5322
  54   2.0000      -0.347773        -9.4634
  55   2.0000      -0.326817        -8.8931
  56   2.0000      -0.324225        -8.8226
  57   2.0000      -0.304217        -8.2782
  58   2.0000      -0.301455        -8.2030
  59   2.0000      -0.291449        -7.9307
  60   2.0000      -0.291014        -7.9189
  61   2.0000      -0.249191        -6.7808
  62   2.0000      -0.247224        -6.7273
  63   2.0000      -0.243400        -6.6232
  64   2.0000      -0.235543        -6.4095
  65   0.0000      -0.068237        -1.8568
  66   0.0000      -0.067520        -1.8373
  67   0.0000      -0.044408        -1.2084
  68   0.0000      -0.042816        -1.1651
  69   0.0000      -0.041198        -1.1211

MULLIKEN ATOMIC CHARGES
-----------------------
   0 C :   -0.094135
   1 C :   -0.120670
   2 C :   -0.177627
   3 C :    0.212030
   4 C :   -0.177633
   5 C :   -0.120688
   6 C :    0.006388
   7 C :    0.163238
   8 C :   -0.351397
   9 C :    0.270548
  10 C :   -0.351455
  11 C :    0.163441
  12 Cl:   -0.085768
  13 Cl:   -0.099146
  14 Cl:   -0.085776
  15 H :    0.113693
  16 H :    0.111018
  17 H :    0.118968
  18 H :    0.118972
  19 H :    0.111016
  20 H :    0.137495
  21 H :    0.137489
Sum of atomic charges:    0.0000000

LOEWDIN ATOMIC CHARGES
----------------------
   0 C :   -0.134803
   1 C :   -0.132824
   2 C :   -0.098365
   3 C :   -0.132243
   4 C :   -0.098370
   5 C :   -0.132830
   6 C :   -0.118323
   7 C :   -0.365376
   8 C :   -0.147858
   9 C :   -0.411709
  10 C :   -0.147851
  11 C :   -0.365395
  12 Cl:    0.421702
  13 Cl:    0.395208
  14 Cl:    0.421718
  15 H :    0.144042
  16 H :    0.144950
  17 H :    0.151151
  18 H :    0.151154
  19 H :    0.144951
  20 H :    0.155535
  21 H :    0.155535

  Mayer bond orders larger than 0.100000
B(  0-C ,  1-C ) :   1.3839 B(  0-C ,  5-C ) :   1.3839 B(  0-C , 15-H ) :   0.9661
B(  1-C ,  2-C ) :   1.4359 B(  1-C , 16-H ) :   0.9710 B(  2-C ,  3-C ) :   1.3207
B(  2-C , 17-H ) :   0.9740 B(  3-C ,  4-C ) :   1.3207 B(  3-C ,  6-C ) :   0.7819
B(  4-C ,  5-C ) :   1.4359 B(  4-C , 18-H ) :   0.9740 B(  5-C , 19-H ) :   0.9710
B(  6-C ,  7-C ) :   1.2630 B(  6-C , 11-C ) :   1.2629 B(  7-C ,  8-C ) :   1.3583
B(  7-C , 14-Cl) :   1.0608 B(  8-C ,  9-C ) :   1.3295 B(  8-C , 20-H ) :   0.9754
B(  9-C , 10-C ) :   1.3296 B(  9-C , 13-Cl) :   0.9634 B( 10-C , 11-C ) :   1.3582
B( 10-C , 21-H ) :   0.9754 B( 11-C , 12-Cl) :   1.0608

Dispersion correction           -0.011818025
FINAL SINGLE POINT ENERGY     -1841.967412753515

DIPOLE MOMENT
-------------

Method             : SCF
Type of density    : Electron Density
Multiplicity       :   1
Irrep              :   0
Energy             : -1841.9635374903207321 Eh
Relativity type    :
Basis              : AO
                                X                 Y                 Z
Electronic contribution:     16.687232360      -0.001851575      -0.001619783
Nuclear contribution   :    -17.052919872       0.002050635       0.001661389
                        -----------------------------------------
Total Dipole Moment    :     -0.365687512       0.000199060       0.000041606
                        -----------------------------------------
Magnitude (a.u.)       :      0.365687569
Magnitude (Debye)      :      0.929503931

VIBRATIONAL FREQUENCIES
-----------------------

Scaling factor for frequencies =  1.000000000  (already applied!)

     0:       0.00 cm**-1
     1:       0.00 cm**-1
     2:       0.00 cm**-1
     3:       0.00 cm**-1
     4:       0.00 cm**-1
     5:       0.00 cm**-1
     6:      45.33 cm**-1
     7:      47.92 cm**-1
     8:      68.83 cm**-1
     9:     134.77 cm**-1
    10:     181.81 cm**-1
    11:     187.89 cm**-1
    12:     194.51 cm**-1
    13:     205.23 cm**-1
    14:     250.83 cm**-1
    15:     260.07 cm**-1
    16:     367.10 cm**-1
    17:     405.83 cm**-1
    18:     419.33 cm**-1
    19:     433.91 cm**-1
    20:     462.15 cm**-1
    21:     502.98 cm**-1
    22:     537.95 cm**-1
    23:     589.16 cm**-1
    24:     591.72 cm**-1
    25:     634.51 cm**-1
    26:     703.69 cm**-1
    27:     709.74 cm**-1
    28:     750.92 cm**-1
    29:     777.80 cm**-1
    30:     788.26 cm**-1
    31:     820.00 cm**-1
    32:     849.71 cm**-1
    33:     868.21 cm**-1
    34:     871.42 cm**-1
    35:     920.23 cm**-1
    36:     957.37 cm**-1
    37:     981.19 cm**-1
    38:    1015.54 cm**-1
    39:    1029.35 cm**-1
    40:    1053.51 cm**-1
    41:    1098.92 cm**-1
    42:    1108.29 cm**-1
    43:    1126.22 cm**-1
    44:    1182.18 cm**-1
    45:    1199.71 cm**-1
    46:    1204.13 cm**-1
    47:    1291.51 cm**-1
    48:    1307.33 cm**-1
    49:    1324.18 cm**-1
    50:    1348.91 cm**-1
    51:    1392.27 cm**-1
    52:    1458.26 cm**-1
    53:    1470.00 cm**-1
    54:    1523.68 cm**-1
    55:    1566.84 cm**-1
    56:    1601.99 cm**-1
    57:    1609.29 cm**-1
    58:    1633.50 cm**-1
    59:    3155.23 cm**-1
    60:    3159.97 cm**-1
    61:    3167.90 cm**-1
    62:    3174.83 cm**-1
    63:    3183.30 cm**-1
    64:    3209.03 cm**-1
    65:    3209.55 cm**-1

IR SPECTRUM
-----------

 Mode   freq       eps      Int      T**2         TX        TY        TZ
       cm**-1   L/(mol*cm) km/mol    a.u.
----------------------------------------------------------------------------
  6:     45.33   0.000000    0.00  0.000002  ( 0.001332  0.000028 -0.000003)
  7:     47.92   0.000014    0.07  0.000090  (-0.000003 -0.000875 -0.009439)
  8:     68.83   0.000073    0.37  0.000331  (-0.000000 -0.017618 -0.004515)
  9:    134.77   0.000001    0.00  0.000002  ( 0.000005  0.000186  0.001350)
 10:    181.81   0.000052    0.26  0.000090  (-0.000012 -0.001761 -0.009317)
 11:    187.89   0.000048    0.24  0.000080  ( 0.008948 -0.000015 -0.000005)
 12:    194.51   0.000022    0.11  0.000036  ( 0.000014  0.005894 -0.001135)
 13:    205.23   0.000002    0.01  0.000003  (-0.001588 -0.000001  0.000002)
 14:    250.83   0.000002    0.01  0.000002  (-0.000014  0.001312 -0.000545)
 15:    260.07   0.000103    0.52  0.000123  (-0.011113 -0.000001  0.000004)
 16:    367.10   0.000011    0.06  0.000010  (-0.003090 -0.000002 -0.000002)
 17:    405.83   0.000021    0.11  0.000016  ( 0.004003 -0.000001  0.000010)
 18:    419.33   0.000191    0.96  0.000142  ( 0.000004  0.006582 -0.009939)
 19:    433.91   0.001261    6.37  0.000907  ( 0.000005 -0.029705 -0.004979)
 20:    462.15   0.000182    0.92  0.000123  (-0.000023  0.010771  0.002620)
 21:    502.98   0.004145   20.95  0.002572  ( 0.050711  0.000003 -0.000014)
 22:    537.95   0.000040    0.20  0.000023  (-0.004844 -0.000002 -0.000003)
 23:    589.16   0.002905   14.68  0.001539  (-0.000021 -0.032860 -0.021421)
 24:    591.72   0.001157    5.85  0.000610  (-0.000005  0.019737 -0.014856)
 25:    634.51   0.000048    0.24  0.000024  ( 0.000002 -0.001754  0.004524)
 26:    703.69   0.001386    7.00  0.000615  ( 0.024792 -0.000038 -0.000037)
 27:    709.74   0.009015   45.56  0.003964  ( 0.000040  0.057509  0.025620)
 28:    750.92   0.001622    8.20  0.000674  (-0.000041 -0.016303 -0.020206)
 29:    777.80   0.007138   36.07  0.002864  (-0.000001 -0.051795 -0.013460)
 30:    788.26   0.010479   52.96  0.004149  ( 0.000037 -0.063992 -0.007325)
 31:    820.00   0.012985   65.62  0.004942  (-0.070297 -0.000034  0.000022)
 32:    849.71   0.000001    0.01  0.000000  (-0.000614  0.000003 -0.000003)
 33:    868.21   0.005651   28.56  0.002031  ( 0.000017 -0.006448  0.044607)
 34:    871.42   0.000003    0.01  0.000001  (-0.000950 -0.000006  0.000015)
 35:    920.23   0.000048    0.24  0.000016  ( 0.000006 -0.000481  0.004024)
 36:    957.37   0.000001    0.01  0.000000  (-0.000688  0.000002 -0.000004)
 37:    981.19   0.000005    0.03  0.000002  (-0.000015 -0.000789  0.001018)
 38:   1015.54   0.000384    1.94  0.000118  ( 0.010869  0.000002  0.000002)
 39:   1029.35   0.002058   10.40  0.000624  ( 0.024979 -0.000003 -0.000002)
 40:   1053.51   0.000650    3.28  0.000192  (-0.013872  0.000001  0.000007)
 41:   1098.92   0.001110    5.61  0.000315  ( 0.000004 -0.003237  0.017456)
 42:   1108.29   0.001843    9.32  0.000519  ( 0.022783  0.000010 -0.000010)
 43:   1126.22   0.003284   16.60  0.000910  (-0.030166 -0.000001  0.000006)
 44:   1182.18   0.000008    0.04  0.000002  (-0.000001 -0.001174 -0.000877)
 45:   1199.71   0.000126    0.64  0.000033  ( 0.005719  0.000017  0.000004)
 46:   1204.13   0.003618   18.28  0.000938  (-0.000002  0.030288  0.004509)
 47:   1291.51   0.000109    0.55  0.000026  ( 0.005141 -0.000048 -0.000003)
 48:   1307.33   0.002540   12.84  0.000606  ( 0.000001  0.024445  0.002951)
 49:   1324.18   0.000081    0.41  0.000019  ( 0.000003  0.004340  0.000452)
 50:   1348.91   0.000187    0.95  0.000043  ( 0.000001  0.001736 -0.006344)
 51:   1392.27   0.009870   49.88  0.002212  ( 0.000002 -0.046471 -0.007263)
 52:   1458.26   0.017634   89.12  0.003774  ( 0.061430  0.000008 -0.000013)
 53:   1470.00   0.001128    5.70  0.000240  ( 0.000007  0.005067 -0.014623)
 54:   1523.68   0.000063    0.32  0.000013  (-0.003590 -0.000001  0.000008)
 55:   1566.84   0.015045   76.03  0.002997  (-0.000024 -0.053869 -0.009727)
 56:   1601.99   0.015285   77.24  0.002977  ( 0.054566 -0.000010 -0.000023)
 57:   1609.29   0.000436    2.20  0.000084  ( 0.000009  0.007018 -0.005936)
 58:   1633.50   0.000972    4.91  0.000186  (-0.013629 -0.000003  0.000001)
 59:   3155.23   0.000318    1.61  0.000031  ( 0.005608 -0.000005  0.000009)
 60:   3159.97   0.000065    0.33  0.000006  (-0.000004 -0.000970  0.002340)
 61:   3167.90   0.002109   10.66  0.000208  (-0.014414  0.000006 -0.000000)
 62:   3174.83   0.003956   19.99  0.000389  ( 0.000006 -0.007097  0.018398)
 63:   3183.30   0.002705   13.67  0.000265  ( 0.016284  0.000002 -0.000015)
 64:   3209.03   0.000706    3.57  0.000069  (-0.000017  0.008175  0.001339)
 65:   3209.55   0.000147    0.74  0.000014  ( 0.003782  0.000037  0.000005)

--------------------------
THERMOCHEMISTRY AT 298.15K
--------------------------

Temperature         ...   298.15 K
Pressure            ...     1.00 atm
Total Mass          ...   257.55 AMU
Quasi RRHO          ...     True
Cut-Off Frequency   ...     1.00 cm^-1

Throughout the following assumptions are being made:
  (1) The electronic state is orbitally nondegenerate
  (2) There are no thermally accessible electronically excited states
  (3) Hindered rotations indicated by low frequency modes are not
      treated as such but are treated as vibrations and this may
      cause some error
  (4) All equations used are the standard statistical mechanics
      equations for an ideal gas
  (5) All vibrations are strictly harmonic

freq.      45.33  E(vib)   ...       0.53
freq.      47.92  E(vib)   ...       0.53
freq.      68.83  E(vib)   ...       0.50
freq.     134.77  E(vib)   ...       0.42
freq.     181.81  E(vib)   ...       0.37
freq.     187.89  E(vib)   ...       0.36
freq.     194.51  E(vib)   ...       0.36
freq.     205.23  E(vib)   ...       0.35
freq.     250.83  E(vib)   ...       0.30
freq.     260.07  E(vib)   ...       0.30
freq.     367.10  E(vib)   ...       0.22
freq.     405.83  E(vib)   ...       0.19
freq.     419.33  E(vib)   ...       0.18
freq.     433.91  E(vib)   ...       0.17
freq.     462.15  E(vib)   ...       0.16
freq.     502.98  E(vib)   ...       0.14
freq.     537.95  E(vib)   ...       0.12
freq.     589.16  E(vib)   ...       0.10
freq.     591.72  E(vib)   ...       0.10
freq.     634.51  E(vib)   ...       0.09
freq.     703.69  E(vib)   ...       0.07
freq.     709.74  E(vib)   ...       0.07
freq.     750.92  E(vib)   ...       0.06
freq.     777.80  E(vib)   ...       0.05
freq.     788.26  E(vib)   ...       0.05
freq.     820.00  E(vib)   ...       0.05
freq.     849.71  E(vib)   ...       0.04
freq.     868.21  E(vib)   ...       0.04
freq.     871.42  E(vib)   ...       0.04
freq.     920.23  E(vib)   ...       0.03
freq.     957.37  E(vib)   ...       0.03
freq.     981.19  E(vib)   ...       0.02
freq.    1015.54  E(vib)   ...       0.02
freq.    1029.35  E(vib)   ...       0.02
freq.    1053.51  E(vib)   ...       0.02
freq.    1098.92  E(vib)   ...       0.02
freq.    1108.29  E(vib)   ...       0.02
freq.    1126.22  E(vib)   ...       0.01
freq.    1182.18  E(vib)   ...       0.01
freq.    1199.71  E(vib)   ...       0.01
freq.    1204.13  E(vib)   ...       0.01
freq.    1291.51  E(vib)   ...       0.01
freq.    1307.33  E(vib)   ...       0.01
freq.    1324.18  E(vib)   ...       0.01
freq.    1348.91  E(vib)   ...       0.01
freq.    1392.27  E(vib)   ...       0.00
freq.    1458.26  E(vib)   ...       0.00
freq.    1470.00  E(vib)   ...       0.00
freq.    1523.68  E(vib)   ...       0.00
freq.    1566.84  E(vib)   ...       0.00
freq.    1601.99  E(vib)   ...       0.00
freq.    1609.29  E(vib)   ...       0.00
freq.    1633.50  E(vib)   ...       0.00
freq.    3155.23  E(vib)   ...       0.00
freq.    3159.97  E(vib)   ...       0.00
freq.    3167.90  E(vib)   ...       0.00
freq.    3174.83  E(vib)   ...       0.00
freq.    3183.30  E(vib)   ...       0.00
freq.    3209.03  E(vib)   ...       0.00
freq.    3209.55  E(vib)   ...       0.00

------------
INNER ENERGY
------------

The inner energy is: U= E(el) + E(ZPE) + E(vib) + E(rot) + E(trans)
    E(el)   - is the total energy from the electronic structure calculation
              = E(kin-el) + E(nuc-el) + E(el-el) + E(nuc-nuc)
    E(ZPE)  - the the zero temperature vibrational energy from the frequency calculation
    E(vib)  - the the finite temperature correction to E(ZPE) due to population
              of excited vibrational states
    E(rot)  - is the rotational thermal energy
    E(trans)- is the translational thermal energy

Summary of contributions to the inner energy U:
Electronic energy                ...  -1841.96741275 Eh
Zero point energy                ...      0.15110137 Eh      94.82 kcal/mol
Thermal vibrational correction   ...      0.00993243 Eh       6.23 kcal/mol
Thermal rotational correction    ...      0.00141627 Eh       0.89 kcal/mol
Thermal translational correction ...      0.00141627 Eh       0.89 kcal/mol
-----------------------------------------------------------------------
Total thermal energy                  -1841.80354641 Eh

Summary of corrections to the electronic energy:
(perhaps to be used in another calculation)
Total thermal correction                  0.01276497 Eh       8.01 kcal/mol
Non-thermal (ZPE) correction              0.15110137 Eh      94.82 kcal/mol
-----------------------------------------------------------------------
Total correction                          0.16386634 Eh     102.83 kcal/mol

--------
ENTHALPY
--------

The enthalpy is H = U + kB*T
                kB is Boltzmann's constant
Total thermal energy              ...  -1841.80354641 Eh
Thermal Enthalpy correction       ...      0.00094421 Eh       0.59 kcal/mol
-----------------------------------------------------------------------
Total Enthalpy                    ...  -1841.80260220 Eh

Note: Only C1 symmetry has been detected, increase convergence thresholds
      if your molecule has a higher symmetry. Symmetry factor of 1.0 is
      used for the rotational entropy correction.

Note: Rotational entropy computed according to Herzberg
Infrared and Raman Spectra, Chapter V,1, Van Nostrand Reinhold, 1945
Point Group:  C1, Symmetry Number:   1
Rotational constants in cm-1:     0.024314     0.009464     0.007300

Vibrational entropy computed according to the QRRHO of S. Grimme
Chem.Eur.J. 2012 18 9955 using a reference frequency of 100.0 cm-1

-------
ENTROPY
-------

The entropy contributions are T*S = T*(S(el)+S(vib)+S(rot)+S(trans))
     S(el)   - electronic entropy
     S(vib)  - vibrational entropy
     S(rot)  - rotational entropy
     S(trans)- translational entropy
The entropies will be listed as multiplied by the temperature to get
units of energy

Electronic entropy                ...      0.00000000 Eh      0.00 kcal/mol
Vibrational entropy               ...      0.01706729 Eh     10.71 kcal/mol
Rotational entropy                ...      0.01578811 Eh      9.91 kcal/mol
Translational entropy             ...      0.02021108 Eh     12.68 kcal/mol
-----------------------------------------------------------------------
Final entropy term                ...      0.05306648 Eh     33.30 kcal/mol

In case the symmetry of your molecule has not been determined correctly
or in case you have a reason to use a different symmetry number we print
out the resulting rotational entropy values for sn=1,12:

 non-linear molecules -----------------------------------

                             ****ORCA TERMINATED NORMALLY****
TOTAL RUN TIME: 0 days 0 hours 37 minutes 26 seconds 494 msec
