                         Program Version 6.0.0  -   RELEASE  -
|  1> ! r2SCAN-3c DEF2-TZVP FREQ
|  2> * xyzfile 0 1 vacuum_censo.xyz
|  3>
|  4>                          ****END OF INPUT****

CARTESIAN COORDINATES (ANGSTROEM)
---------------------------------
  C     -4.408034   -0.000485   -0.001027
  C     -3.710383   -0.174599   -1.192591
  C     -2.319986   -0.174342   -1.193571
  C     -1.619160    0.000123   -0.000054
  C     -2.320872    0.174348    1.192969
  C     -3.711278    0.173990    1.191009
  C     -0.135416    0.000130    0.000301
  C      0.606186   -1.172080    0.191677
  C      1.996030   -1.197279    0.195653
  C      2.670158   -0.000185    0.000118
  C      1.996270    1.197074   -0.195231
  C      0.606415    1.172188   -0.191058
  Cl    -0.236363    2.683318   -0.436451
  Cl     4.418093   -0.000413   -0.000151
  Cl    -0.236883   -2.683026    0.437223
  H     -5.493188   -0.000786   -0.001394
  H     -4.249316   -0.311183   -2.124493
  H     -1.771270   -0.309731   -2.120303
  H     -1.772883    0.309951    2.120100
  H     -4.250930    0.310309    2.122534
  H      2.533000   -2.124377    0.346632
  H      2.533435    2.124043   -0.346304

 Total Charge           Charge          ....    0
 Multiplicity           Mult            ....    1
 Number of Electrons    NEL             ....  130
 Basis Dimension        Dim             ....  525

ORBITAL ENERGIES
----------------

  NO   OCC          E(Eh)            E(eV)
   0   2.0000    -101.206210     -2753.9610
   1   2.0000    -101.204196     -2753.9062
   2   2.0000    -101.204195     -2753.9061
   3   2.0000     -10.124396      -275.4988
   4   2.0000     -10.124388      -275.4986
   5   2.0000     -10.122518      -275.4477
   6   2.0000     -10.081081      -274.3201
   7   2.0000     -10.069224      -273.9975
   8   2.0000     -10.069214      -273.9972
   9   2.0000     -10.060850      -273.7696
  10   2.0000     -10.047335      -273.4019
  11   2.0000     -10.047322      -273.4015
  12   2.0000     -10.045808      -273.3603
  13   2.0000     -10.045707      -273.3576
  14   2.0000     -10.044815      -273.3333
  15   2.0000      -9.382022      -255.2978
  16   2.0000      -9.379975      -255.2421
  17   2.0000      -9.379974      -255.2421
  18   2.0000      -7.127027      -193.9363
  19   2.0000      -7.125032      -193.8820
  20   2.0000      -7.125030      -193.8819
  21   2.0000      -7.116973      -193.6627
  22   2.0000      -7.116480      -193.6493
  23   2.0000      -7.115024      -193.6096
  24   2.0000      -7.115023      -193.6096
  25   2.0000      -7.114290      -193.5897
  26   2.0000      -7.114288      -193.5896
  27   2.0000      -0.897078       -24.4107
  28   2.0000      -0.853094       -23.2139
  29   2.0000      -0.848486       -23.0885
  30   2.0000      -0.830972       -22.6119
  31   2.0000      -0.784952       -21.3596
  32   2.0000      -0.754242       -20.5240
  33   2.0000      -0.723797       -19.6955
  34   2.0000      -0.719834       -19.5877
  35   2.0000      -0.697364       -18.9762
  36   2.0000      -0.603208       -16.4141
  37   2.0000      -0.592170       -16.1138
  38   2.0000      -0.584534       -15.9060
  39   2.0000      -0.564832       -15.3699
  40   2.0000      -0.512360       -13.9420
  41   2.0000      -0.487136       -13.2556
  42   2.0000      -0.481235       -13.0951
  43   2.0000      -0.451979       -12.2990
  44   2.0000      -0.437554       -11.9064
  45   2.0000      -0.435210       -11.8427
  46   2.0000      -0.425294       -11.5728
  47   2.0000      -0.409610       -11.1460
  48   2.0000      -0.403919       -10.9912
  49   2.0000      -0.397459       -10.8154
  50   2.0000      -0.378510       -10.2998
  51   2.0000      -0.376063       -10.2332
  52   2.0000      -0.350819        -9.5463
  53   2.0000      -0.349311        -9.5052
  54   2.0000      -0.349156        -9.5010
  55   2.0000      -0.326278        -8.8785
  56   2.0000      -0.323674        -8.8076
  57   2.0000      -0.304438        -8.2842
  58   2.0000      -0.301453        -8.2030
  59   2.0000      -0.291308        -7.9269
  60   2.0000      -0.291089        -7.9209
  61   2.0000      -0.247141        -6.7250
  62   2.0000      -0.243224        -6.6185
  63   2.0000      -0.242455        -6.5975
  64   2.0000      -0.241526        -6.5723
  65   0.0000      -0.068197        -1.8557
  66   0.0000      -0.064116        -1.7447
  67   0.0000      -0.045770        -1.2455
  68   0.0000      -0.041859        -1.1390
  69   0.0000      -0.041602        -1.1320

MULLIKEN ATOMIC CHARGES
-----------------------
   0 C :   -0.082510
   1 C :   -0.134099
   2 C :   -0.157227
   3 C :    0.200582
   4 C :   -0.157195
   5 C :   -0.134057
   6 C :   -0.013187
   7 C :    0.170707
   8 C :   -0.355454
   9 C :    0.269173
  10 C :   -0.355472
  11 C :    0.170823
  12 Cl:   -0.083614
  13 Cl:   -0.096559
  14 Cl:   -0.083620
  15 H :    0.113772
  16 H :    0.110436
  17 H :    0.117078
  18 H :    0.117073
  19 H :    0.110442
  20 H :    0.136454
  21 H :    0.136454
Sum of atomic charges:    0.0000000

LOEWDIN ATOMIC CHARGES
----------------------
   0 C :   -0.135264
   1 C :   -0.132369
   2 C :   -0.097490
   3 C :   -0.133406
   4 C :   -0.097494
   5 C :   -0.132367
   6 C :   -0.118823
   7 C :   -0.371061
   8 C :   -0.147457
   9 C :   -0.415721
  10 C :   -0.147454
  11 C :   -0.371071
  12 Cl:    0.426835
  13 Cl:    0.399655
  14 Cl:    0.426845
  15 H :    0.144107
  16 H :    0.145007
  17 H :    0.151313
  18 H :    0.151309
  19 H :    0.145006
  20 H :    0.154950
  21 H :    0.154950

  Mayer bond orders larger than 0.100000
B(  0-C ,  1-C ) :   1.3833 B(  0-C ,  5-C ) :   1.3833 B(  0-C , 15-H ) :   0.9659
B(  1-C ,  2-C ) :   1.4373 B(  1-C , 16-H ) :   0.9717 B(  2-C ,  3-C ) :   1.3227
B(  2-C , 17-H ) :   0.9743 B(  3-C ,  4-C ) :   1.3226 B(  3-C ,  6-C ) :   0.7693
B(  4-C ,  5-C ) :   1.4373 B(  4-C , 18-H ) :   0.9743 B(  5-C , 19-H ) :   0.9717
B(  6-C ,  7-C ) :   1.2717 B(  6-C , 11-C ) :   1.2716 B(  7-C ,  8-C ) :   1.3602
B(  7-C , 14-Cl) :   1.0644 B(  8-C ,  9-C ) :   1.3297 B(  8-C , 20-H ) :   0.9755
B(  9-C , 10-C ) :   1.3298 B(  9-C , 13-Cl) :   0.9672 B( 10-C , 11-C ) :   1.3602
B( 10-C , 21-H ) :   0.9755 B( 11-C , 12-Cl) :   1.0644

Dispersion correction           -0.011824159
FINAL SINGLE POINT ENERGY     -1841.967566832136

DIPOLE MOMENT
-------------

Method             : SCF
Type of density    : Electron Density
Multiplicity       :   1
Irrep              :   0
Energy             : -1841.9636732275982922 Eh
Relativity type    :
Basis              : AO
                                X                 Y                 Z
Electronic contribution:     16.665204288       0.001182209       0.003699650
Nuclear contribution   :    -17.024250661      -0.001309061      -0.003834063
                        -----------------------------------------
Total Dipole Moment    :     -0.359046373      -0.000126852      -0.000134413
                        -----------------------------------------
Magnitude (a.u.)       :      0.359046421
Magnitude (Debye)      :      0.912623474

VIBRATIONAL FREQUENCIES
-----------------------

Scaling factor for frequencies =  1.000000000  (already applied!)

     0:       0.00 cm**-1
     1:       0.00 cm**-1
     2:       0.00 cm**-1
     3:       0.00 cm**-1
     4:       0.00 cm**-1
     5:       0.00 cm**-1
     6:     -16.34 cm**-1 ***imaginary mode***
     7:      45.76 cm**-1
     8:      63.34 cm**-1
     9:     130.04 cm**-1
    10:     180.40 cm**-1
    11:     184.33 cm**-1
    12:     193.10 cm**-1
    13:     203.05 cm**-1
    14:     246.05 cm**-1
    15:     260.51 cm**-1
    16:     369.81 cm**-1
    17:     401.52 cm**-1
    18:     426.04 cm**-1
    19:     434.41 cm**-1
    20:     455.91 cm**-1
    21:     504.19 cm**-1
    22:     536.77 cm**-1
    23:     589.52 cm**-1
    24:     590.54 cm**-1
    25:     634.52 cm**-1
    26:     705.22 cm**-1
    27:     707.89 cm**-1
    28:     756.06 cm**-1
    29:     774.85 cm**-1
    30:     795.12 cm**-1
    31:     824.16 cm**-1
    32:     847.90 cm**-1
    33:     866.33 cm**-1
    34:     869.19 cm**-1
    35:     918.38 cm**-1
    36:     954.99 cm**-1
    37:     981.13 cm**-1
    38:    1018.64 cm**-1
    39:    1030.21 cm**-1
    40:    1056.09 cm**-1
    41:    1100.30 cm**-1
    42:    1110.39 cm**-1
    43:    1130.83 cm**-1
    44:    1183.15 cm**-1
    45:    1200.53 cm**-1
    46:    1204.72 cm**-1
    47:    1291.91 cm**-1
    48:    1307.70 cm**-1
    49:    1326.21 cm**-1
    50:    1352.24 cm**-1
    51:    1391.09 cm**-1
    52:    1459.23 cm**-1
    53:    1471.99 cm**-1
    54:    1526.43 cm**-1
    55:    1565.32 cm**-1
    56:    1600.42 cm**-1
    57:    1614.77 cm**-1
    58:    1639.36 cm**-1
    59:    3158.12 cm**-1
    60:    3162.98 cm**-1
    61:    3170.47 cm**-1
    62:    3178.08 cm**-1
    63:    3186.43 cm**-1
    64:    3215.39 cm**-1
    65:    3215.93 cm**-1

IR SPECTRUM
-----------

 Mode   freq       eps      Int      T**2         TX        TY        TZ
       cm**-1   L/(mol*cm) km/mol    a.u.
----------------------------------------------------------------------------
  7:     45.76   0.000012    0.06  0.000078  (-0.000000  0.001580  0.008714)
  8:     63.34   0.000078    0.39  0.000382  ( 0.000001  0.019323 -0.002967)
  9:    130.04   0.000000    0.00  0.000000  ( 0.000005 -0.000033  0.000636)
 10:    180.40   0.000040    0.20  0.000069  ( 0.000002 -0.001203 -0.008193)
 11:    184.33   0.000046    0.23  0.000078  (-0.008804 -0.000006 -0.000009)
 12:    193.10   0.000022    0.11  0.000035  (-0.000005  0.005845 -0.000996)
 13:    203.05   0.000000    0.00  0.000000  ( 0.000103  0.000002  0.000000)
 14:    246.05   0.000000    0.00  0.000000  ( 0.000003  0.000514  0.000247)
 15:    260.51   0.000088    0.45  0.000106  ( 0.010284 -0.000000  0.000000)
 16:    369.81   0.000007    0.04  0.000006  ( 0.002448 -0.000000  0.000001)
 17:    401.52   0.000000    0.00  0.000000  ( 0.000484  0.000005 -0.000004)
 18:    426.04   0.000162    0.82  0.000119  ( 0.000004 -0.001207 -0.010822)
 19:    434.41   0.001089    5.50  0.000782  ( 0.000002  0.027620 -0.004428)
 20:    455.91   0.000245    1.24  0.000167  ( 0.000011  0.012793 -0.001922)
 21:    504.19   0.003929   19.86  0.002432  (-0.049315  0.000002  0.000003)
 22:    536.77   0.000000    0.00  0.000000  ( 0.000474  0.000007 -0.000002)
 23:    589.52   0.003237   16.36  0.001714  ( 0.000008 -0.041241  0.003584)
 24:    590.54   0.001116    5.64  0.000590  (-0.000007  0.000419 -0.024277)
 25:    634.52   0.000049    0.25  0.000024  ( 0.000002  0.000844  0.004847)
 26:    705.22   0.001281    6.47  0.000567  (-0.023810 -0.000073  0.000027)
 27:    707.89   0.008943   45.19  0.003942  ( 0.000039 -0.062185  0.008671)
 28:    756.06   0.000487    2.46  0.000201  (-0.000051 -0.003734 -0.013680)
 29:    774.85   0.006611   33.41  0.002663  (-0.000011  0.050994 -0.007894)
 30:    795.12   0.011801   59.64  0.004631  ( 0.000019  0.067164 -0.010975)
 31:    824.16   0.013135   66.38  0.004974  ( 0.070524 -0.000018 -0.000011)
 32:    847.90   0.000000    0.00  0.000000  ( 0.000218  0.000003  0.000001)
 33:    866.33   0.005560   28.10  0.002003  ( 0.000010  0.007040  0.044197)
 34:    869.19   0.000000    0.00  0.000000  ( 0.000195  0.000006  0.000008)
 35:    918.38   0.000001    0.00  0.000000  (-0.000004  0.000376  0.000403)
 36:    954.99   0.000000    0.00  0.000000  ( 0.000084 -0.000001  0.000002)
 37:    981.13   0.000001    0.00  0.000000  ( 0.000007 -0.000401  0.000178)
 38:   1018.64   0.000335    1.69  0.000103  (-0.010132  0.000000 -0.000005)
 39:   1030.21   0.002176   11.00  0.000659  (-0.025674 -0.000002 -0.000005)
 40:   1056.09   0.000715    3.61  0.000211  (-0.014531 -0.000000  0.000002)
 41:   1100.30   0.001176    5.94  0.000334  (-0.000004  0.002928  0.018028)
 42:   1110.39   0.002522   12.75  0.000709  ( 0.026625 -0.000006 -0.000006)
 43:   1130.83   0.002644   13.36  0.000730  (-0.027011  0.000000 -0.000001)
 44:   1183.15   0.000001    0.00  0.000000  (-0.000000 -0.000083 -0.000431)
 45:   1200.53   0.000117    0.59  0.000030  (-0.005508  0.000005 -0.000004)
 46:   1204.72   0.003532   17.85  0.000915  ( 0.000000 -0.029860  0.004832)
 47:   1291.91   0.000125    0.63  0.000030  (-0.005486 -0.000021 -0.000006)
 48:   1307.70   0.002299   11.62  0.000549  (-0.000000  0.023110 -0.003814)
 49:   1326.21   0.000005    0.03  0.000001  (-0.000008 -0.000348 -0.001044)
 50:   1352.24   0.000167    0.85  0.000039  ( 0.000001 -0.001032 -0.006130)
 51:   1391.09   0.010033   50.70  0.002251  ( 0.000003  0.046820 -0.007652)
 52:   1459.23   0.017279   87.32  0.003695  ( 0.060787 -0.000004  0.000003)
 53:   1471.99   0.001156    5.84  0.000245  ( 0.000011 -0.002308 -0.015487)
 54:   1526.43   0.000104    0.53  0.000021  ( 0.004619 -0.000000 -0.000012)
 55:   1565.32   0.015769   79.69  0.003144  ( 0.000011 -0.055367  0.008843)
 56:   1600.42   0.015541   78.54  0.003030  ( 0.055048  0.000001 -0.000011)
 57:   1614.77   0.000272    1.37  0.000053  ( 0.000016 -0.000776 -0.007209)
 58:   1639.36   0.001214    6.13  0.000231  ( 0.015202 -0.000002  0.000000)
 59:   3158.12   0.000237    1.20  0.000023  (-0.004836 -0.000000 -0.000001)
 60:   3162.98   0.000024    0.12  0.000002  ( 0.000000  0.000245  0.001529)
 61:   3170.47   0.002187   11.05  0.000215  ( 0.014672  0.000004  0.000007)
 62:   3178.08   0.004196   21.21  0.000412  (-0.000011  0.002767  0.020110)
 63:   3186.43   0.002681   13.55  0.000263  (-0.016204 -0.000002 -0.000006)
 64:   3215.39   0.000597    3.02  0.000058  (-0.000005  0.007490 -0.001350)
 65:   3215.93   0.000124    0.62  0.000012  (-0.003463 -0.000011  0.000003)

--------------------------
THERMOCHEMISTRY AT 298.15K
--------------------------

Temperature         ...   298.15 K
Pressure            ...     1.00 atm
Total Mass          ...   257.55 AMU
Quasi RRHO          ...     True
Cut-Off Frequency   ...     1.00 cm^-1

Throughout the following assumptions are being made:
  (1) The electronic state is orbitally nondegenerate
  (2) There are no thermally accessible electronically excited states
  (3) Hindered rotations indicated by low frequency modes are not
      treated as such but are treated as vibrations and this may
      cause some error
  (4) All equations used are the standard statistical mechanics
      equations for an ideal gas
  (5) All vibrations are strictly harmonic

freq.      45.76  E(vib)   ...       0.53
freq.      63.34  E(vib)   ...       0.51
freq.     130.04  E(vib)   ...       0.43
freq.     180.40  E(vib)   ...       0.37
freq.     184.33  E(vib)   ...       0.37
freq.     193.10  E(vib)   ...       0.36
freq.     203.05  E(vib)   ...       0.35
freq.     246.05  E(vib)   ...       0.31
freq.     260.51  E(vib)   ...       0.30
freq.     369.81  E(vib)   ...       0.21
freq.     401.52  E(vib)   ...       0.19
freq.     426.04  E(vib)   ...       0.18
freq.     434.41  E(vib)   ...       0.17
freq.     455.91  E(vib)   ...       0.16
freq.     504.19  E(vib)   ...       0.14
freq.     536.77  E(vib)   ...       0.12
freq.     589.52  E(vib)   ...       0.10
freq.     590.54  E(vib)   ...       0.10
freq.     634.52  E(vib)   ...       0.09
freq.     705.22  E(vib)   ...       0.07
freq.     707.89  E(vib)   ...       0.07
freq.     756.06  E(vib)   ...       0.06
freq.     774.85  E(vib)   ...       0.05
freq.     795.12  E(vib)   ...       0.05
freq.     824.16  E(vib)   ...       0.05
freq.     847.90  E(vib)   ...       0.04
freq.     866.33  E(vib)   ...       0.04
freq.     869.19  E(vib)   ...       0.04
freq.     918.38  E(vib)   ...       0.03
freq.     954.99  E(vib)   ...       0.03
freq.     981.13  E(vib)   ...       0.02
freq.    1018.64  E(vib)   ...       0.02
freq.    1030.21  E(vib)   ...       0.02
freq.    1056.09  E(vib)   ...       0.02
freq.    1100.30  E(vib)   ...       0.02
freq.    1110.39  E(vib)   ...       0.02
freq.    1130.83  E(vib)   ...       0.01
freq.    1183.15  E(vib)   ...       0.01
freq.    1200.53  E(vib)   ...       0.01
freq.    1204.72  E(vib)   ...       0.01
freq.    1291.91  E(vib)   ...       0.01
freq.    1307.70  E(vib)   ...       0.01
freq.    1326.21  E(vib)   ...       0.01
freq.    1352.24  E(vib)   ...       0.01
freq.    1391.09  E(vib)   ...       0.00
freq.    1459.23  E(vib)   ...       0.00
freq.    1471.99  E(vib)   ...       0.00
freq.    1526.43  E(vib)   ...       0.00
freq.    1565.32  E(vib)   ...       0.00
freq.    1600.42  E(vib)   ...       0.00
freq.    1614.77  E(vib)   ...       0.00
freq.    1639.36  E(vib)   ...       0.00
freq.    3158.12  E(vib)   ...       0.00
freq.    3162.98  E(vib)   ...       0.00
freq.    3170.47  E(vib)   ...       0.00
freq.    3178.08  E(vib)   ...       0.00
freq.    3186.43  E(vib)   ...       0.00
freq.    3215.39  E(vib)   ...       0.00
freq.    3215.93  E(vib)   ...       0.00

------------
INNER ENERGY
------------

The inner energy is: U= E(el) + E(ZPE) + E(vib) + E(rot) + E(trans)
    E(el)   - is the total energy from the electronic structure calculation
              = E(kin-el) + E(nuc-el) + E(el-el) + E(nuc-nuc)
    E(ZPE)  - the the zero temperature vibrational energy from the frequency calculation
    E(vib)  - the the finite temperature correction to E(ZPE) due to population
              of excited vibrational states
    E(rot)  - is the rotational thermal energy
    E(trans)- is the translational thermal energy

Summary of contributions to the inner energy U:
Electronic energy                ...  -1841.96756683 Eh
Zero point energy                ...      0.15108798 Eh      94.81 kcal/mol
Thermal vibrational correction   ...      0.00912816 Eh       5.73 kcal/mol
Thermal rotational correction    ...      0.00141627 Eh       0.89 kcal/mol
Thermal translational correction ...      0.00141627 Eh       0.89 kcal/mol
-----------------------------------------------------------------------
Total thermal energy                  -1841.80451815 Eh

Summary of corrections to the electronic energy:
(perhaps to be used in another calculation)
Total thermal correction                  0.01196071 Eh       7.51 kcal/mol
Non-thermal (ZPE) correction              0.15108798 Eh      94.81 kcal/mol
-----------------------------------------------------------------------
Total correction                          0.16304868 Eh     102.31 kcal/mol

--------
ENTHALPY
--------

The enthalpy is H = U + kB*T
                kB is Boltzmann's constant
Total thermal energy              ...  -1841.80451815 Eh
Thermal Enthalpy correction       ...      0.00094421 Eh       0.59 kcal/mol
-----------------------------------------------------------------------
Total Enthalpy                    ...  -1841.80357394 Eh

Note: Only C1 symmetry has been detected, increase convergence thresholds
      if your molecule has a higher symmetry. Symmetry factor of 1.0 is
      used for the rotational entropy correction.

Note: Rotational entropy computed according to Herzberg
Infrared and Raman Spectra, Chapter V,1, Van Nostrand Reinhold, 1945
Point Group:  C1, Symmetry Number:   1
Rotational constants in cm-1:     0.024399     0.009440     0.007329

Vibrational entropy computed according to the QRRHO of S. Grimme
Chem.Eur.J. 2012 18 9955 using a reference frequency of 100.0 cm-1

-------
ENTROPY
-------

The entropy contributions are T*S = T*(S(el)+S(vib)+S(rot)+S(trans))
     S(el)   - electronic entropy
     S(vib)  - vibrational entropy
     S(rot)  - rotational entropy
     S(trans)- translational entropy
The entropies will be listed as multiplied by the temperature to get
units of energy

Electronic entropy                ...      0.00000000 Eh      0.00 kcal/mol
Vibrational entropy               ...      0.01542478 Eh      9.68 kcal/mol
Rotational entropy                ...      0.01578579 Eh      9.91 kcal/mol
Translational entropy             ...      0.02021108 Eh     12.68 kcal/mol
-----------------------------------------------------------------------
Final entropy term                ...      0.05142165 Eh     32.27 kcal/mol

In case the symmetry of your molecule has not been determined correctly
or in case you have a reason to use a different symmetry number we print
out the resulting rotational entropy values for sn=1,12:

 non-linear molecules -----------------------------------
|  sn= 1 | S(rot)=       0.01578579 Eh      9.91 kcal/mol|

                             ****ORCA TERMINATED NORMALLY****
TOTAL RUN TIME: 0 days 0 hours 34 minutes 41 seconds 125 msec
