                         Program Version 6.0.1  -  RELEASE   -
|  1> ! pbe def2-sv(p) def2/J RI DEFGRID1 loosescf d4 GCP(DFT/SV(P)) printgap
|  2> %output
|  3>     printlevel normal
|  4> end
|  5> * xyz 0 1
|  6> C -2.1361371645 -1.0057487338 -0.1174231351
|  7> C -1.0790882221 -0.3816220408 0.8116835958
|  8> H -1.5358864753 -0.356150922 1.8098959944
|  9> C -0.7371226489 1.0875300646 0.4596936954
| 10> H -1.5950701534 1.522801401 -0.0616241914
| 11> C 0.4967364657 1.255097768 -0.449011992
| 12> H 0.8517915842 2.2895700931 -0.2997817833
| 13> C 1.6198977322 0.3091240342 0.0055277869
| 14> H 2.447313013 0.3407548151 -0.7246089126
| 15> C 1.0933552554 -1.141082666 0.0699927447
| 16> H 1.8741478509 -1.7918843849 0.4940764966
| 17> O 0.0459194218 -1.2275553319 1.0007852321
| 18> O 0.8073298706 -1.6457072589 -1.1825027557
| 19> O 2.0566309023 0.753897333 1.2709867139
| 20> O 0.129427843 1.0510426031 -1.7860360057
| 21> O -0.5633591751 1.8359437047 1.6339662097
| 22> O -1.7954105228 -0.8397604395 -1.4766358273
| 23> H -3.0978997754 -0.5210018185 0.0933481251
| 24> H -2.2094665354 -2.0720090101 0.1355024366
| 25> H -0.0045589736 -1.2106536363 -1.5177270438
| 26> H 2.5616217589 0.0515886113 1.6969381915
| 27> H 0.9159582306 1.0853373941 -2.3422803059
| 28> H 0.2988808743 1.5969027363 2.0067040219
| 29> H -2.4631129569 -1.2594446318 -2.0280937588
| 30> *
| 31>
| 32>                          ****END OF INPUT****

CARTESIAN COORDINATES (ANGSTROEM)
---------------------------------
  C     -2.136137   -1.005749   -0.117423
  C     -1.079088   -0.381622    0.811684
  H     -1.535886   -0.356151    1.809896
  C     -0.737123    1.087530    0.459694
  H     -1.595070    1.522801   -0.061624
  C      0.496736    1.255098   -0.449012
  H      0.851792    2.289570   -0.299782
  C      1.619898    0.309124    0.005528
  H      2.447313    0.340755   -0.724609
  C      1.093355   -1.141083    0.069993
  H      1.874148   -1.791884    0.494076
  O      0.045919   -1.227555    1.000785
  O      0.807330   -1.645707   -1.182503
  O      2.056631    0.753897    1.270987
  O      0.129428    1.051043   -1.786036
  O     -0.563359    1.835944    1.633966
  O     -1.795411   -0.839760   -1.476636
  H     -3.097900   -0.521002    0.093348
  H     -2.209467   -2.072009    0.135502
  H     -0.004559   -1.210654   -1.517727
  H      2.561622    0.051589    1.696938
  H      0.915958    1.085337   -2.342280
  H      0.298881    1.596903    2.006704
  H     -2.463113   -1.259445   -2.028094

 Total Charge           Charge          ....    0
 Multiplicity           Mult            ....    1
 Number of Electrons    NEL             ....   96
 Basis Dimension        Dim             ....  192

ORBITAL ENERGIES
----------------

  NO   OCC          E(Eh)            E(eV)
   0   2.0000     -18.771917      -510.8098
   1   2.0000     -18.770780      -510.7789
   2   2.0000     -18.759237      -510.4648
   3   2.0000     -18.755573      -510.3651
   4   2.0000     -18.734737      -509.7981
   5   2.0000     -18.732705      -509.7428
   6   2.0000      -9.979030      -271.5432
   7   2.0000      -9.943452      -270.5751
   8   2.0000      -9.943092      -270.5653
   9   2.0000      -9.942200      -270.5410
  10   2.0000      -9.940927      -270.5064
  11   2.0000      -9.937848      -270.4226
  12   2.0000      -0.976181       -26.5632
  13   2.0000      -0.946511       -25.7559
  14   2.0000      -0.939471       -25.5643
  15   2.0000      -0.934083       -25.4177
  16   2.0000      -0.916152       -24.9298
  17   2.0000      -0.895101       -24.3569
  18   2.0000      -0.699355       -19.0304
  19   2.0000      -0.687838       -18.7170
  20   2.0000      -0.620195       -16.8764
  21   2.0000      -0.591447       -16.0941
  22   2.0000      -0.566949       -15.4275
  23   2.0000      -0.518004       -14.0956
  24   2.0000      -0.502555       -13.6752
  25   2.0000      -0.477980       -13.0065
  26   2.0000      -0.472945       -12.8695
  27   2.0000      -0.460945       -12.5430
  28   2.0000      -0.442303       -12.0357
  29   2.0000      -0.428029       -11.6473
  30   2.0000      -0.419563       -11.4169
  31   2.0000      -0.409878       -11.1534
  32   2.0000      -0.390009       -10.6127
  33   2.0000      -0.373104       -10.1527
  34   2.0000      -0.359273        -9.7763
  35   2.0000      -0.346614        -9.4318
  36   2.0000      -0.330038        -8.9808
  37   2.0000      -0.307820        -8.3762
  38   2.0000      -0.301975        -8.2172
  39   2.0000      -0.299730        -8.1561
  40   2.0000      -0.280122        -7.6225
  41   2.0000      -0.269879        -7.3438
  42   2.0000      -0.247289        -6.7291
  43   2.0000      -0.241592        -6.5740
  44   2.0000      -0.232657        -6.3309
  45   2.0000      -0.224760        -6.1160
  46   2.0000      -0.201885        -5.4936
  47   2.0000      -0.198635        -5.4051
  48   0.0000       0.010137         0.2759
  49   0.0000       0.016058         0.4370
  50   0.0000       0.027257         0.7417
  51   0.0000       0.062413         1.6983
  52   0.0000       0.070673         1.9231

MULLIKEN ATOMIC CHARGES
-----------------------
   0 C :    0.018327
   1 C :    0.026038
   2 H :    0.081389
   3 C :    0.087585
   4 H :    0.081774
   5 C :    0.009099
   6 H :    0.078236
   7 C :    0.021645
   8 H :    0.061451
   9 C :    0.169972
  10 H :    0.054087
  11 O :   -0.301847
  12 O :   -0.419922
  13 O :   -0.419905
  14 O :   -0.392587
  15 O :   -0.432376
  16 O :   -0.425346
  17 H :    0.082167
  18 H :    0.087983
  19 H :    0.309242
  20 H :    0.309338
  21 H :    0.299798
  22 H :    0.299806
  23 H :    0.314044
Sum of atomic charges:    0.0000000

LOEWDIN ATOMIC CHARGES
----------------------
   0 C :   -0.137225
   1 C :   -0.071771
   2 H :    0.127658
   3 C :   -0.057308
   4 H :    0.123258
   5 C :   -0.074544
   6 H :    0.106015
   7 C :   -0.099373
   8 H :    0.098605
   9 C :   -0.014647
  10 H :    0.097330
  11 O :   -0.145602
  12 O :   -0.320884
  13 O :   -0.310018
  14 O :   -0.300829
  15 O :   -0.320189
  16 O :   -0.318239
  17 H :    0.107179
  18 H :    0.106160
  19 H :    0.263522
  20 H :    0.290125
  21 H :    0.284162
  22 H :    0.272243
  23 H :    0.294374

  Mayer bond orders larger than 0.100000
B(  0-C ,  1-C ) :   1.0673 B(  0-C , 16-O ) :   1.0366 B(  0-C , 17-H ) :   0.9099
B(  0-C , 18-H ) :   0.9096 B(  1-C ,  2-H ) :   0.8886 B(  1-C ,  3-C ) :   0.9711
B(  1-C , 11-O ) :   1.0130 B(  3-C ,  4-H ) :   0.8895 B(  3-C ,  5-C ) :   1.0009
B(  3-C , 15-O ) :   1.0501 B(  5-C ,  6-H ) :   0.8984 B(  5-C ,  7-C ) :   0.9860
B(  5-C , 14-O ) :   1.0783 B(  7-C ,  8-H ) :   0.8934 B(  7-C ,  9-C ) :   0.9613
B(  7-C , 13-O ) :   1.0179 B(  9-C , 10-H ) :   0.9057 B(  9-C , 11-O ) :   1.0472
B(  9-C , 12-O ) :   1.1686 B( 12-O , 19-H ) :   0.7610 B( 13-O , 20-H ) :   0.8394
B( 14-O , 21-H ) :   0.8386 B( 15-O , 22-H ) :   0.8195 B( 16-O , 19-H ) :   0.1281
B( 16-O , 23-H ) :   0.8405

Dispersion correction           -0.026613519
FINAL SINGLE POINT ENERGY      -685.692747381745

DIPOLE MOMENT
-------------

Method             : SCF
Type of density    : Electron Density
Multiplicity       :   1
Irrep              :   0
Energy             :  -685.8270268476638876 Eh
Relativity type    :
Basis              : AO
                                X                 Y                 Z
Electronic contribution:      1.820742541      -0.086010694       0.292918917
Nuclear contribution   :     -1.825243071      -0.305213472      -0.700033349
                        -----------------------------------------
Total Dipole Moment    :     -0.004500530      -0.391224166      -0.407114431
                        -----------------------------------------
Magnitude (a.u.)       :      0.564640384
Magnitude (Debye)      :      1.435201798

Rotational constants in cm-1:             0.040338             0.031596             0.027919
Rotational constants in MHz :          1209.300348           947.214522           837.003535

                             ****ORCA TERMINATED NORMALLY****
TOTAL RUN TIME: 0 days 0 hours 0 minutes 10 seconds 881 msec
