                         Program Version 6.0.1  -  RELEASE   -
|  1> ! pbe def2-sv(p) def2/J RI DEFGRID1 loosescf d4 GCP(DFT/SV(P)) printgap
|  2> %output
|  3>     printlevel normal
|  4> end
|  5> * xyz 0 1
|  6> C -1.5965771396 1.6888396242 0.3660141147
|  7> C -1.5908405244 0.2336446049 0.8247343174
|  8> C -2.2448288694 -0.6706188459 -0.2157918942
|  9> C -0.1818563112 -0.2364813061 1.1612646112
| 10> Br 1.0216295274 -0.1874528273 -0.3778679687
| 11> H -1.0422701668 1.7967132687 -0.564099564
| 12> H -2.616080094 2.0261787102 0.1963076615
| 13> H -1.1422059013 2.33322141 1.116421559
| 14> H -2.1594974118 0.1588175906 1.7616459736
| 15> H -3.2718746058 -0.3605556114 -0.391851219
| 16> H -2.2521023971 -1.7058085078 0.1206090162
| 17> H -1.7055527665 -0.616904682 -1.1594004631
| 18> H -0.1797020089 -1.2708901375 1.5037798083
| 19> H 0.2792997453 0.39987144 1.9160514113
| 20> *
| 21>
| 22>                          ****END OF INPUT****

CARTESIAN COORDINATES (ANGSTROEM)
---------------------------------
  C     -1.596577    1.688840    0.366014
  C     -1.590841    0.233645    0.824734
  C     -2.244829   -0.670619   -0.215792
  C     -0.181856   -0.236481    1.161265
  Br     1.021630   -0.187453   -0.377868
  H     -1.042270    1.796713   -0.564100
  H     -2.616080    2.026179    0.196308
  H     -1.142206    2.333221    1.116422
  H     -2.159497    0.158818    1.761646
  H     -3.271875   -0.360556   -0.391851
  H     -2.252102   -1.705809    0.120609
  H     -1.705553   -0.616905   -1.159400
  H     -0.179702   -1.270890    1.503780
  H      0.279300    0.399871    1.916051

 Total Charge           Charge          ....    0
 Multiplicity           Mult            ....    1
 Number of Electrons    NEL             ....   68
 Basis Dimension        Dim             ....  106

ORBITAL ENERGIES
----------------

  NO   OCC          E(Eh)            E(eV)
   0   2.0000    -480.920201    -13086.5040
   1   2.0000     -61.762362     -1680.6393
   2   2.0000     -55.692931     -1515.4817
   3   2.0000     -55.689889     -1515.3989
   4   2.0000     -55.689848     -1515.3978
   5   2.0000      -9.936868      -270.3959
   6   2.0000      -9.910040      -269.6659
   7   2.0000      -9.876475      -268.7525
   8   2.0000      -9.876430      -268.7513
   9   2.0000      -8.387487      -228.2351
  10   2.0000      -6.269240      -170.5947
  11   2.0000      -6.255299      -170.2153
  12   2.0000      -6.254945      -170.2057
  13   2.0000      -2.470399       -67.2230
  14   2.0000      -2.467093       -67.1330
  15   2.0000      -2.466789       -67.1248
  16   2.0000      -2.456311       -66.8396
  17   2.0000      -2.456303       -66.8394
  18   2.0000      -0.757588       -20.6150
  19   2.0000      -0.694971       -18.9111
  20   2.0000      -0.615992       -16.7620
  21   2.0000      -0.602348       -16.3907
  22   2.0000      -0.500019       -13.6062
  23   2.0000      -0.430731       -11.7208
  24   2.0000      -0.414124       -11.2689
  25   2.0000      -0.395923       -10.7736
  26   2.0000      -0.347815        -9.4645
  27   2.0000      -0.345846        -9.4109
  28   2.0000      -0.334563        -9.1039
  29   2.0000      -0.309539        -8.4230
  30   2.0000      -0.299404        -8.1472
  31   2.0000      -0.293153        -7.9771
  32   2.0000      -0.234030        -6.3683
  33   2.0000      -0.231427        -6.2975
  34   0.0000      -0.019090        -0.5195
  35   0.0000       0.028407         0.7730
  36   0.0000       0.076053         2.0695
  37   0.0000       0.079210         2.1554
  38   0.0000       0.091064         2.4780

MULLIKEN ATOMIC CHARGES
-----------------------
   0 C :   -0.249760
   1 C :   -0.178827
   2 C :   -0.250687
   3 C :   -0.194818
   4 Br:   -0.125021
   5 H :    0.115034
   6 H :    0.102964
   7 H :    0.099322
   8 H :    0.089410
   9 H :    0.103153
  10 H :    0.099423
  11 H :    0.115343
  12 H :    0.137219
  13 H :    0.137244
Sum of atomic charges:   -0.0000000

LOEWDIN ATOMIC CHARGES
----------------------
   0 C :   -0.335197
   1 C :   -0.174918
   2 C :   -0.335338
   3 C :   -0.269269
   4 Br:    0.018648
   5 H :    0.120202
   6 H :    0.120039
   7 H :    0.118002
   8 H :    0.126092
   9 H :    0.120102
  10 H :    0.118044
  11 H :    0.120241
  12 H :    0.126671
  13 H :    0.126681

  Mayer bond orders larger than 0.100000
B(  0-C ,  1-C ) :   1.1063 B(  0-C ,  5-H ) :   0.9408 B(  0-C ,  6-H ) :   0.9515
B(  0-C ,  7-H ) :   0.9508 B(  1-C ,  2-C ) :   1.1064 B(  1-C ,  3-C ) :   1.0674
B(  1-C ,  8-H ) :   0.8876 B(  2-C ,  9-H ) :   0.9515 B(  2-C , 10-H ) :   0.9507
B(  2-C , 11-H ) :   0.9407 B(  3-C ,  4-Br) :   1.0329 B(  3-C , 12-H ) :   0.9244
B(  3-C , 13-H ) :   0.9244

Dispersion correction           -0.011358944
FINAL SINGLE POINT ENERGY     -2730.887581938519

DIPOLE MOMENT
-------------

Method             : SCF
Type of density    : Electron Density
Multiplicity       :   1
Irrep              :   0
Energy             : -2730.9410367336522540 Eh
Relativity type    :
Basis              : AO
                                X                 Y                 Z
Electronic contribution:     22.183890568      -4.311966839      -7.225822271
Nuclear contribution   :    -22.704760603       4.330477233       7.729808979
                        -----------------------------------------
Total Dipole Moment    :     -0.520870036       0.018510394       0.503986708
                        -----------------------------------------
Magnitude (a.u.)       :      0.725017814
Magnitude (Debye)      :      1.842848829

Rotational constants in cm-1:             0.186191             0.057166             0.053447
Rotational constants in MHz :          5581.874943          1713.808398          1602.311840

                             ****ORCA TERMINATED NORMALLY****
TOTAL RUN TIME: 0 days 0 hours 0 minutes 6 seconds 427 msec
