                         Program Version 6.0.1  -  RELEASE   -
|  1> ! pbe def2-sv(p) def2/J RI DEFGRID1 loosescf d4 GCP(DFT/SV(P)) printgap
|  2> %output
|  3>     printlevel normal
|  4> end
|  5> * xyz 0 1
|  6> C -3.2679899817 -0.3847057738 -0.4459415543
|  7> C -2.2146751991 0.09433203 0.5498495928
|  8> H -2.6902336557 0.1937663314 1.5317660952
|  9> C -1.6538606393 1.4609150698 0.1237688497
| 10> C -0.1796126536 1.6016326051 0.4891306213
| 11> C 0.6401556528 0.6118486544 -0.3392130069
| 12> H 0.6609532996 0.9647513076 -1.3775012734
| 13> C -0.019025967 -0.753885219 -0.3643296115
| 14> O 0.287655273 -1.6133242387 -1.1547293488
| 15> C -1.0889285196 -0.9493251415 0.6793939842
| 16> C 2.1139110644 0.5140298539 0.126493504
| 17> C 2.2680910034 -0.3093139822 1.4037393654
| 18> C 2.9848392039 -0.0747117279 -0.9800707687
| 19> H -3.7437709936 -1.2978881351 -0.0954025554
| 20> H -4.0375812748 0.3730575147 -0.577653076
| 21> H -2.809536997 -0.5862155029 -1.4118470333
| 22> H -1.74981538 1.5687209605 -0.9594917712
| 23> H -2.2363471012 2.2595971264 0.5858413376
| 24> H 0.1625484236 2.6173886617 0.2794386372
| 25> H -0.0452990282 1.4254149171 1.5572031575
| 26> H -1.4977203867 -1.9572309143 0.594773042
| 27> H -0.6129695286 -0.8530866881 1.6568662416
| 28> H 2.4511239993 1.5375006567 0.3323163973
| 29> H 1.9896620766 -1.3455599228 1.2244129402
| 30> H 1.6548886097 0.0857214137 2.2106287675
| 31> H 3.3047474711 -0.2886967607 1.7330202073
| 32> H 2.9768715433 0.5658777865 -1.8592980314
| 33> H 2.6140694354 -1.0555529148 -1.2663278522
| 34> H 4.0126447413 -0.1769036497 -0.6390964553
| 35> *
| 36>
| 37>                          ****END OF INPUT****

CARTESIAN COORDINATES (ANGSTROEM)
---------------------------------
  C     -3.267990   -0.384706   -0.445942
  C     -2.214675    0.094332    0.549850
  H     -2.690234    0.193766    1.531766
  C     -1.653861    1.460915    0.123769
  C     -0.179613    1.601633    0.489131
  C      0.640156    0.611849   -0.339213
  H      0.660953    0.964751   -1.377501
  C     -0.019026   -0.753885   -0.364330
  O      0.287655   -1.613324   -1.154729
  C     -1.088929   -0.949325    0.679394
  C      2.113911    0.514030    0.126494
  C      2.268091   -0.309314    1.403739
  C      2.984839   -0.074712   -0.980071
  H     -3.743771   -1.297888   -0.095403
  H     -4.037581    0.373058   -0.577653
  H     -2.809537   -0.586216   -1.411847
  H     -1.749815    1.568721   -0.959492
  H     -2.236347    2.259597    0.585841
  H      0.162548    2.617389    0.279439
  H     -0.045299    1.425415    1.557203
  H     -1.497720   -1.957231    0.594773
  H     -0.612970   -0.853087    1.656866
  H      2.451124    1.537501    0.332316
  H      1.989662   -1.345560    1.224413
  H      1.654889    0.085721    2.210629
  H      3.304747   -0.288697    1.733020
  H      2.976872    0.565878   -1.859298
  H      2.614069   -1.055553   -1.266328
  H      4.012645   -0.176904   -0.639096

 Total Charge           Charge          ....    0
 Multiplicity           Mult            ....    1
 Number of Electrons    NEL             ....   86
 Basis Dimension        Dim             ....  190

ORBITAL ENERGIES
----------------

  NO   OCC          E(Eh)            E(eV)
   0   2.0000     -18.733136      -509.7545
   1   2.0000      -9.968656      -271.2609
   2   2.0000      -9.906992      -269.5830
   3   2.0000      -9.903014      -269.4747
   4   2.0000      -9.896773      -269.3049
   5   2.0000      -9.891032      -269.1487
   6   2.0000      -9.889409      -269.1045
   7   2.0000      -9.887991      -269.0659
   8   2.0000      -9.877123      -268.7702
   9   2.0000      -9.876775      -268.7607
  10   2.0000      -9.864922      -268.4382
  11   2.0000      -0.936382       -25.4802
  12   2.0000      -0.768701       -20.9174
  13   2.0000      -0.730079       -19.8664
  14   2.0000      -0.679016       -18.4770
  15   2.0000      -0.650735       -17.7074
  16   2.0000      -0.615550       -16.7500
  17   2.0000      -0.606853       -16.5133
  18   2.0000      -0.550918       -14.9913
  19   2.0000      -0.529891       -14.4191
  20   2.0000      -0.500691       -13.6245
  21   2.0000      -0.459510       -12.5039
  22   2.0000      -0.448512       -12.2046
  23   2.0000      -0.413932       -11.2637
  24   2.0000      -0.409360       -11.1393
  25   2.0000      -0.405155       -11.0248
  26   2.0000      -0.387945       -10.5565
  27   2.0000      -0.375140       -10.2081
  28   2.0000      -0.366183        -9.9643
  29   2.0000      -0.358087        -9.7440
  30   2.0000      -0.349372        -9.5069
  31   2.0000      -0.341248        -9.2858
  32   2.0000      -0.340296        -9.2599
  33   2.0000      -0.333805        -9.0833
  34   2.0000      -0.317211        -8.6318
  35   2.0000      -0.312835        -8.5127
  36   2.0000      -0.304380        -8.2826
  37   2.0000      -0.293144        -7.9768
  38   2.0000      -0.289860        -7.8875
  39   2.0000      -0.280798        -7.6409
  40   2.0000      -0.277196        -7.5429
  41   2.0000      -0.267761        -7.2861
  42   2.0000      -0.186254        -5.0682
  43   0.0000      -0.050701        -1.3796
  44   0.0000       0.024627         0.6701
  45   0.0000       0.046356         1.2614
  46   0.0000       0.049837         1.3561
  47   0.0000       0.066556         1.8111

MULLIKEN ATOMIC CHARGES
-----------------------
   0 C :   -0.247910
   1 C :   -0.198556
   2 H :    0.070654
   3 C :   -0.096833
   4 C :   -0.088689
   5 C :   -0.169331
   6 H :    0.081091
   7 C :   -0.023804
   8 O :   -0.149367
   9 C :   -0.051180
  10 C :   -0.135856
  11 C :   -0.273910
  12 C :   -0.236167
  13 H :    0.101940
  14 H :    0.104871
  15 H :    0.111102
  16 H :    0.073692
  17 H :    0.085052
  18 H :    0.084010
  19 H :    0.074360
  20 H :    0.083221
  21 H :    0.094475
  22 H :    0.071738
  23 H :    0.119597
  24 H :    0.105130
  25 H :    0.104193
  26 H :    0.093427
  27 H :    0.120059
  28 H :    0.092993
Sum of atomic charges:   -0.0000000

LOEWDIN ATOMIC CHARGES
----------------------
   0 C :   -0.329665
   1 C :   -0.143504
   2 H :    0.118134
   3 C :   -0.219595
   4 C :   -0.219496
   5 C :   -0.160329
   6 H :    0.134492
   7 C :    0.050877
   8 O :   -0.120386
   9 C :   -0.239414
  10 C :   -0.133697
  11 C :   -0.335016
  12 C :   -0.335453
  13 H :    0.119078
  14 H :    0.119534
  15 H :    0.121425
  16 H :    0.117681
  17 H :    0.121048
  18 H :    0.120925
  19 H :    0.115535
  20 H :    0.128235
  21 H :    0.136409
  22 H :    0.115378
  23 H :    0.122988
  24 H :    0.113709
  25 H :    0.122630
  26 H :    0.116355
  27 H :    0.127029
  28 H :    0.115092

  Mayer bond orders larger than 0.100000
B(  0-C ,  1-C ) :   1.1123 B(  0-C , 13-H ) :   0.9469 B(  0-C , 14-H ) :   0.9495
B(  0-C , 15-H ) :   0.9465 B(  1-C ,  2-H ) :   0.8894 B(  1-C ,  3-C ) :   1.0926
B(  1-C ,  9-C ) :   1.0807 B(  3-C ,  4-C ) :   1.1870 B(  3-C , 16-H ) :   0.9013
B(  3-C , 17-H ) :   0.9101 B(  4-C ,  5-C ) :   1.0881 B(  4-C , 18-H ) :   0.9039
B(  4-C , 19-H ) :   0.8802 B(  5-C ,  6-H ) :   0.8702 B(  5-C ,  7-C ) :   0.9225
B(  5-C , 10-C ) :   1.0162 B(  7-C ,  8-O ) :   2.1654 B(  7-C ,  9-C ) :   1.0833
B(  9-C , 20-H ) :   0.8932 B(  9-C , 21-H ) :   0.8633 B( 10-C , 11-C ) :   1.1173
B( 10-C , 12-C ) :   1.1191 B( 10-C , 22-H ) :   0.9013 B( 11-C , 23-H ) :   0.9334
B( 11-C , 24-H ) :   0.9397 B( 11-C , 25-H ) :   0.9444 B( 12-C , 26-H ) :   0.9463
B( 12-C , 27-H ) :   0.9315 B( 12-C , 28-H ) :   0.9463

Dispersion correction           -0.030806127
FINAL SINGLE POINT ENERGY      -466.030457307832

DIPOLE MOMENT
-------------

Method             : SCF
Type of density    : Electron Density
Multiplicity       :   1
Irrep              :   0
Energy             :  -466.1267012910315088 Eh
Relativity type    :
Basis              : AO
                                X                 Y                 Z
Electronic contribution:     -0.632533119      -2.991451222      -2.622328064
Nuclear contribution   :      0.383506380       3.757497398       3.284884662
                        -----------------------------------------
Total Dipole Moment    :     -0.249026739       0.766046176       0.662556597
                        -----------------------------------------
Magnitude (a.u.)       :      1.042987203
Magnitude (Debye)      :      2.651062786

Rotational constants in cm-1:             0.065039             0.025374             0.022530
Rotational constants in MHz :          1949.817604           760.690539           675.433516

                             ****ORCA TERMINATED NORMALLY****
TOTAL RUN TIME: 0 days 0 hours 0 minutes 18 seconds 284 msec
