                         Program Version 6.0.1  -  RELEASE   -
|  1> ! r2scan-3c def2/J RI DEFGRID2 scfconv6 printgap
|  2> %output
|  3>     printlevel normal
|  4> end
|  5> * xyz 0 1
|  6> C -2.6233833786 -1.5443964081 -0.1113692022
|  7> C -1.9661172227 -0.1750583148 0.0101066111
|  8> C -0.4537070891 -0.1799784115 -0.0112370959
|  9> C 0.298219694 -1.3388849062 -0.1331612175
| 10> C 1.6821288102 -1.3040790252 -0.1488243519
| 11> C 2.3438998446 -0.0946030568 -0.041435852
| 12> C 1.6182481477 1.0738454398 0.0809835812
| 13> C 0.2295202161 1.0379914962 0.096558578
| 14> O -0.4175918765 2.233113792 0.2203864388
| 15> H -3.7054911142 -1.4323879883 -0.0852966617
| 16> H -2.329078031 -2.1902799601 0.7122700404
| 17> H -2.3541455577 -2.0219427017 -1.050315351
| 18> H -2.303617616 0.282705901 0.9487021135
| 19> H -2.3280013479 0.4509909412 -0.8154342954
| 20> H -0.1980772457 -2.2922651061 -0.218132247
| 21> H 2.2396234519 -2.2235978972 -0.2450233469
| 22> H 3.4227567093 -0.0582376465 -0.0527153475
| 23> H 2.1043312335 2.0328263316 0.1666245145
| 24> H -1.3713044452 2.0957581542 0.2199722033
| 25> *
| 26>
| 27>                          ****END OF INPUT****

CARTESIAN COORDINATES (ANGSTROEM)
---------------------------------
  C     -2.623383   -1.544396   -0.111369
  C     -1.966117   -0.175058    0.010107
  C     -0.453707   -0.179978   -0.011237
  C      0.298220   -1.338885   -0.133161
  C      1.682129   -1.304079   -0.148824
  C      2.343900   -0.094603   -0.041436
  C      1.618248    1.073845    0.080984
  C      0.229520    1.037991    0.096559
  O     -0.417592    2.233114    0.220386
  H     -3.705491   -1.432388   -0.085297
  H     -2.329078   -2.190280    0.712270
  H     -2.354146   -2.021943   -1.050315
  H     -2.303618    0.282706    0.948702
  H     -2.328001    0.450991   -0.815434
  H     -0.198077   -2.292265   -0.218132
  H      2.239623   -2.223598   -0.245023
  H      3.422757   -0.058238   -0.052715
  H      2.104331    2.032826    0.166625
  H     -1.371304    2.095758    0.219972

 Total Charge           Charge          ....    0
 Multiplicity           Mult            ....    1
 Number of Electrons    NEL             ....   66
 Basis Dimension        Dim             ....  226

ORBITAL ENERGIES
----------------

  NO   OCC          E(Eh)            E(eV)
   0   2.0000     -18.983062      -516.5554
   1   2.0000     -10.091069      -274.5919
   2   2.0000     -10.050915      -273.4993
   3   2.0000     -10.041059      -273.2311
   4   2.0000     -10.031627      -272.9745
   5   2.0000     -10.030495      -272.9437
   6   2.0000     -10.029512      -272.9169
   7   2.0000     -10.025140      -272.7979
   8   2.0000     -10.022869      -272.7361
   9   2.0000      -1.027505       -27.9598
  10   2.0000      -0.822881       -22.3917
  11   2.0000      -0.763936       -20.7878
  12   2.0000      -0.707466       -19.2511
  13   2.0000      -0.695059       -18.9135
  14   2.0000      -0.621715       -16.9177
  15   2.0000      -0.573320       -15.6008
  16   2.0000      -0.555646       -15.1199
  17   2.0000      -0.511116       -13.9082
  18   2.0000      -0.458674       -12.4812
  19   2.0000      -0.437911       -11.9162
  20   2.0000      -0.437699       -11.9104
  21   2.0000      -0.404234       -10.9998
  22   2.0000      -0.399397       -10.8681
  23   2.0000      -0.377333       -10.2678
  24   2.0000      -0.357056        -9.7160
  25   2.0000      -0.352404        -9.5894
  26   2.0000      -0.347338        -9.4515
  27   2.0000      -0.332584        -9.0501
  28   2.0000      -0.313996        -8.5443
  29   2.0000      -0.309564        -8.4237
  30   2.0000      -0.299846        -8.1592
  31   2.0000      -0.229521        -6.2456
  32   2.0000      -0.200663        -5.4603
  33   0.0000      -0.025268        -0.6876
  34   0.0000      -0.013407        -0.3648
  35   0.0000       0.050304         1.3688
  36   0.0000       0.086010         2.3405
  37   0.0000       0.101074         2.7504

MULLIKEN ATOMIC CHARGES
-----------------------
   0 C :   -0.523090
   1 C :   -0.358924
   2 C :   -0.009066
   3 C :   -0.156076
   4 C :   -0.209581
   5 C :   -0.120913
   6 C :   -0.289166
   7 C :    0.372524
   8 O :   -0.421611
   9 H :    0.150934
  10 H :    0.162770
  11 H :    0.162674
  12 H :    0.160701
  13 H :    0.160810
  14 H :    0.143052
  15 H :    0.143823
  16 H :    0.146544
  17 H :    0.156406
  18 H :    0.328189
Sum of atomic charges:   -0.0000000

LOEWDIN ATOMIC CHARGES
----------------------
   0 C :   -0.413468
   1 C :   -0.289415
   2 C :   -0.094296
   3 C :   -0.156474
   4 C :   -0.188717
   5 C :   -0.159487
   6 C :   -0.141261
   7 C :    0.190018
   8 O :   -0.501254
   9 H :    0.154242
  10 H :    0.156230
  11 H :    0.156211
  12 H :    0.162235
  13 H :    0.162247
  14 H :    0.170797
  15 H :    0.165602
  16 H :    0.167352
  17 H :    0.179479
  18 H :    0.279958

  Mayer bond orders larger than 0.100000
B(  0-C ,  1-C ) :   0.8724 B(  0-C ,  9-H ) :   0.9682 B(  0-C , 10-H ) :   0.9850
B(  0-C , 11-H ) :   0.9849 B(  1-C ,  2-C ) :   0.8266 B(  1-C ,  7-C ) :  -0.1052
B(  1-C , 12-H ) :   0.9739 B(  1-C , 13-H ) :   0.9736 B(  2-C ,  3-C ) :   1.4124
B(  2-C ,  7-C ) :   1.3963 B(  3-C ,  4-C ) :   1.4278 B(  3-C , 14-H ) :   0.9404
B(  4-C ,  5-C ) :   1.4124 B(  4-C , 15-H ) :   0.9438 B(  5-C ,  6-C ) :   1.3838
B(  5-C , 16-H ) :   0.9485 B(  6-C ,  7-C ) :   1.4063 B(  6-C , 17-H ) :   0.9411
B(  7-C ,  8-O ) :   0.9659 B(  8-O , 18-H ) :   0.8625

Dispersion correction           -0.006197489
FINAL SINGLE POINT ENERGY      -386.000706055399

DIPOLE MOMENT
-------------

Method             : SCF
Type of density    : Electron Density
Multiplicity       :   1
Irrep              :   0
Energy             :  -386.0016039284875546 Eh
Relativity type    :
Basis              : AO
                                X                 Y                 Z
Electronic contribution:      5.722598987       4.704102178       0.371683987
Nuclear contribution   :     -6.407317666      -4.992140187      -0.390153392
                        -----------------------------------------
Total Dipole Moment    :     -0.684718679      -0.288038009      -0.018469404
                        -----------------------------------------
Magnitude (a.u.)       :      0.743065732
Magnitude (Debye)      :      1.888722992

Rotational constants in cm-1:             0.083676             0.049378             0.031419
Rotational constants in MHz :          2508.530074          1480.322429           941.930883

                             ****ORCA TERMINATED NORMALLY****
TOTAL RUN TIME: 0 days 0 hours 0 minutes 25 seconds 107 msec
