                         Program Version 6.0.1  -  RELEASE   -
|  1> ! r2scan-3c def2/J RI DEFGRID2 scfconv6 printgap
|  2> %output
|  3>     printlevel normal
|  4> end
|  5> * xyz 0 1
|  6> C -3.6818444668 0.2702846812 -0.1210506713
|  7> C -2.1990468284 0.2892611625 0.2381181453
|  8> H -2.0987686359 0.5575673516 1.2959435163
|  9> C -1.4357475732 1.3140908795 -0.5982495498
| 10> C 0.0425627576 1.3184302704 -0.2261396454
| 11> C 0.6747601463 -0.0578941376 -0.4770544129
| 12> H 0.5142674003 -0.3089770204 -1.5335728044
| 13> C -0.0965128238 -1.0894109866 0.3262396187
| 14> O 0.4106469781 -1.8415633707 1.1198297157
| 15> C -1.5799885776 -1.0988126746 0.0337915975
| 16> C 2.188417155 -0.1290942374 -0.2027486619
| 17> C 2.9830933455 0.5582944274 -1.3110303532
| 18> C 2.5724834887 0.442029549 1.1602231995
| 19> H -3.8168521745 0.0132699072 -1.1697750967
| 20> H -4.2132256173 -0.4613383257 0.4828571322
| 21> H -4.127483818 1.2470587532 0.0527147183
| 22> H -1.5508709789 1.0773349924 -1.6590810907
| 23> H -1.8568459012 2.307982338 -0.4315137976
| 24> H 0.5696644328 2.0718538181 -0.8134387216
| 25> H 0.142678537 1.5785859242 0.8286086615
| 26> H -1.7233932354 -1.4039572607 -1.0060135401
| 27> H -2.0647963192 -1.8337724341 0.6789137452
| 28> H 2.4509428957 -1.1932517499 -0.201049026
| 29> H 2.7729342664 1.625320916 -1.3363675709
| 30> H 2.741547848 0.1352389165 -2.284079716
| 31> H 4.0491862142 0.4297841519 -1.1397785211
| 32> H 3.6203911197 0.2331734219 1.3632789699
| 33> H 1.977636181 -0.0181017821 1.9442336073
| 34> H 2.4320425699 1.520135434 1.188822141
| 35> *
| 36>
| 37>                          ****END OF INPUT****

CARTESIAN COORDINATES (ANGSTROEM)
---------------------------------
  C     -3.681844    0.270285   -0.121051
  C     -2.199047    0.289261    0.238118
  H     -2.098769    0.557567    1.295944
  C     -1.435748    1.314091   -0.598250
  C      0.042563    1.318430   -0.226140
  C      0.674760   -0.057894   -0.477054
  H      0.514267   -0.308977   -1.533573
  C     -0.096513   -1.089411    0.326240
  O      0.410647   -1.841563    1.119830
  C     -1.579989   -1.098813    0.033792
  C      2.188417   -0.129094   -0.202749
  C      2.983093    0.558294   -1.311030
  C      2.572483    0.442030    1.160223
  H     -3.816852    0.013270   -1.169775
  H     -4.213226   -0.461338    0.482857
  H     -4.127484    1.247059    0.052715
  H     -1.550871    1.077335   -1.659081
  H     -1.856846    2.307982   -0.431514
  H      0.569664    2.071854   -0.813439
  H      0.142679    1.578586    0.828609
  H     -1.723393   -1.403957   -1.006014
  H     -2.064796   -1.833772    0.678914
  H      2.450943   -1.193252   -0.201049
  H      2.772934    1.625321   -1.336368
  H      2.741548    0.135239   -2.284080
  H      4.049186    0.429784   -1.139779
  H      3.620391    0.233173    1.363279
  H      1.977636   -0.018102    1.944234
  H      2.432043    1.520135    1.188822

 Total Charge           Charge          ....    0
 Multiplicity           Mult            ....    1
 Number of Electrons    NEL             ....   86
 Basis Dimension        Dim             ....  304

ORBITAL ENERGIES
----------------

  NO   OCC          E(Eh)            E(eV)
   0   2.0000     -18.934780      -515.2416
   1   2.0000     -10.111436      -275.1462
   2   2.0000     -10.048030      -273.4208
   3   2.0000     -10.040267      -273.2096
   4   2.0000     -10.038127      -273.1513
   5   2.0000     -10.034761      -273.0597
   6   2.0000     -10.033967      -273.0381
   7   2.0000     -10.031812      -272.9795
   8   2.0000     -10.025268      -272.8014
   9   2.0000     -10.015999      -272.5492
  10   2.0000     -10.008690      -272.3503
  11   2.0000      -1.006670       -27.3929
  12   2.0000      -0.816647       -22.2221
  13   2.0000      -0.775143       -21.0927
  14   2.0000      -0.721601       -19.6358
  15   2.0000      -0.698936       -19.0190
  16   2.0000      -0.653065       -17.7708
  17   2.0000      -0.647537       -17.6204
  18   2.0000      -0.589902       -16.0520
  19   2.0000      -0.549741       -14.9592
  20   2.0000      -0.534214       -14.5367
  21   2.0000      -0.493846       -13.4382
  22   2.0000      -0.451690       -12.2911
  23   2.0000      -0.437541       -11.9061
  24   2.0000      -0.431007       -11.7283
  25   2.0000      -0.417150       -11.3512
  26   2.0000      -0.410827       -11.1792
  27   2.0000      -0.396738       -10.7958
  28   2.0000      -0.384235       -10.4556
  29   2.0000      -0.376526       -10.2458
  30   2.0000      -0.367659       -10.0045
  31   2.0000      -0.357922        -9.7396
  32   2.0000      -0.348809        -9.4916
  33   2.0000      -0.344419        -9.3721
  34   2.0000      -0.336041        -9.1441
  35   2.0000      -0.322518        -8.7762
  36   2.0000      -0.318389        -8.6638
  37   2.0000      -0.305144        -8.3034
  38   2.0000      -0.299008        -8.1364
  39   2.0000      -0.295296        -8.0354
  40   2.0000      -0.284351        -7.7376
  41   2.0000      -0.277465        -7.5502
  42   2.0000      -0.205074        -5.5803
  43   0.0000      -0.043510        -1.1840
  44   0.0000       0.075246         2.0475
  45   0.0000       0.082288         2.2392
  46   0.0000       0.096122         2.6156
  47   0.0000       0.106507         2.8982

MULLIKEN ATOMIC CHARGES
-----------------------
   0 C :   -0.492518
   1 C :   -0.021817
   2 H :    0.165968
   3 C :   -0.353783
   4 C :   -0.360546
   5 C :   -0.053894
   6 H :    0.167233
   7 C :    0.192774
   8 O :   -0.345026
   9 C :   -0.374494
  10 C :    0.019769
  11 C :   -0.494163
  12 C :   -0.583460
  13 H :    0.150582
  14 H :    0.152567
  15 H :    0.149797
  16 H :    0.157392
  17 H :    0.151423
  18 H :    0.159155
  19 H :    0.172404
  20 H :    0.172953
  21 H :    0.168765
  22 H :    0.168338
  23 H :    0.151510
  24 H :    0.143909
  25 H :    0.151432
  26 H :    0.150681
  27 H :    0.184528
  28 H :    0.148518
Sum of atomic charges:    0.0000000

LOEWDIN ATOMIC CHARGES
----------------------
   0 C :   -0.409893
   1 C :   -0.219896
   2 H :    0.162433
   3 C :   -0.291058
   4 C :   -0.271803
   5 C :   -0.194988
   6 H :    0.180893
   7 C :    0.234526
   8 O :   -0.460305
   9 C :   -0.260827
  10 C :   -0.223167
  11 C :   -0.413298
  12 C :   -0.409148
  13 H :    0.154456
  14 H :    0.156039
  15 H :    0.155198
  16 H :    0.159590
  17 H :    0.161282
  18 H :    0.162399
  19 H :    0.166215
  20 H :    0.176328
  21 H :    0.178297
  22 H :    0.173969
  23 H :    0.150934
  24 H :    0.151947
  25 H :    0.155547
  26 H :    0.155182
  27 H :    0.169118
  28 H :    0.150032

  Mayer bond orders larger than 0.100000
B(  0-C ,  1-C ) :   0.8931 B(  0-C , 13-H ) :   0.9968 B(  0-C , 14-H ) :   0.9758
B(  0-C , 15-H ) :   0.9739 B(  1-C ,  2-H ) :   0.9432 B(  1-C ,  3-C ) :   0.9092
B(  1-C ,  9-C ) :   0.8922 B(  3-C ,  4-C ) :   0.8853 B(  3-C , 16-H ) :   1.0129
B(  3-C , 17-H ) :   0.9452 B(  4-C ,  5-C ) :   0.8362 B(  4-C , 18-H ) :   0.9498
B(  4-C , 19-H ) :   0.9860 B(  5-C ,  6-H ) :   0.9671 B(  5-C ,  7-C ) :   0.8817
B(  5-C ,  8-O ) :  -0.1205 B(  5-C , 10-C ) :   0.8585 B(  7-C ,  8-O ) :   2.0073
B(  7-C ,  9-C ) :   0.9163 B(  9-C , 20-H ) :   0.9958 B(  9-C , 21-H ) :   0.9497
B( 10-C , 11-C ) :   0.8835 B( 10-C , 12-C ) :   0.8518 B( 10-C , 22-H ) :   0.9846
B( 11-C , 23-H ) :   0.9847 B( 11-C , 24-H ) :   0.9832 B( 11-C , 25-H ) :   0.9754
B( 12-C , 26-H ) :   0.9710 B( 12-C , 27-H ) :   0.9783 B( 12-C , 28-H ) :   0.9771

Dispersion correction           -0.010176962
FINAL SINGLE POINT ENERGY      -467.009361747746

DIPOLE MOMENT
-------------

Method             : SCF
Type of density    : Electron Density
Multiplicity       :   1
Irrep              :   0
Energy             :  -467.0121193637133956 Eh
Relativity type    :
Basis              : AO
                                X                 Y                 Z
Electronic contribution:     -0.362520189      -6.330846372       2.815547171
Nuclear contribution   :     -0.163665372       7.082014786      -3.491469079
                        -----------------------------------------
Total Dipole Moment    :     -0.526185561       0.751168414      -0.675921908
                        -----------------------------------------
Magnitude (a.u.)       :      1.139296123
Magnitude (Debye)      :      2.895860608

Rotational constants in cm-1:             0.066225             0.023410             0.019871
Rotational constants in MHz :          1985.380760           701.801590           595.717425

                             ****ORCA TERMINATED NORMALLY****
TOTAL RUN TIME: 0 days 0 hours 0 minutes 39 seconds 349 msec
