                         Program Version 6.0.1  -  RELEASE   -
|  1> ! r2scan-3c def2/J RI DEFGRID2 scfconv6 printgap
|  2> %output
|  3>     printlevel normal
|  4> end
|  5> * xyz 0 1
|  6> C -2.7139851187 0.804168444 -0.1213903352
|  7> O -1.2866882012 0.8544953708 -0.1507044963
|  8> C -0.6574439981 -0.2771971438 0.0681260485
|  9> O -1.1413949521 -1.3467684648 0.2887695229
| 10> C 0.885304442 -0.059289371 -0.0003417766
| 11> F 1.21673443 1.2183284835 -0.1924568909
| 12> F 1.4708192228 -0.4603411665 1.1311753742
| 13> F 1.4164090492 -0.7663722963 -1.0026824432
| 14> H -3.0566597204 0.4807914613 0.8625200133
| 15> H -3.0794482709 0.1040742826 -0.8740170408
| 16> H -3.0513192602 1.8142290843 -0.3356428333
| 17> *
| 18>
| 19>                          ****END OF INPUT****

CARTESIAN COORDINATES (ANGSTROEM)
---------------------------------
  C     -2.713985    0.804168   -0.121390
  O     -1.286688    0.854495   -0.150704
  C     -0.657444   -0.277197    0.068126
  O     -1.141395   -1.346768    0.288770
  C      0.885304   -0.059289   -0.000342
  F      1.216734    1.218328   -0.192457
  F      1.470819   -0.460341    1.131175
  F      1.416409   -0.766372   -1.002682
  H     -3.056660    0.480791    0.862520
  H     -3.079448    0.104074   -0.874017
  H     -3.051319    1.814229   -0.335643

 Total Charge           Charge          ....    0
 Multiplicity           Mult            ....    1
 Number of Electrons    NEL             ....   64
 Basis Dimension        Dim             ....  192

ORBITAL ENERGIES
----------------

  NO   OCC          E(Eh)            E(eV)
   0   2.0000     -24.531798      -667.5442
   1   2.0000     -24.531588      -667.5385
   2   2.0000     -24.530076      -667.4973
   3   2.0000     -19.040071      -518.1067
   4   2.0000     -18.974459      -516.3213
   5   2.0000     -10.300963      -280.3035
   6   2.0000     -10.197617      -277.4913
   7   2.0000     -10.113460      -275.2012
   8   2.0000      -1.292604       -35.1735
   9   2.0000      -1.201837       -32.7037
  10   2.0000      -1.201602       -32.6972
  11   2.0000      -1.117595       -30.4113
  12   2.0000      -1.027760       -27.9668
  13   2.0000      -0.757910       -20.6238
  14   2.0000      -0.690539       -18.7905
  15   2.0000      -0.605826       -16.4854
  16   2.0000      -0.571871       -15.5614
  17   2.0000      -0.571608       -15.5542
  18   2.0000      -0.550790       -14.9878
  19   2.0000      -0.485180       -13.2024
  20   2.0000      -0.475152       -12.9295
  21   2.0000      -0.449763       -12.2387
  22   2.0000      -0.440985       -11.9998
  23   2.0000      -0.437819       -11.9137
  24   2.0000      -0.410940       -11.1822
  25   2.0000      -0.401520       -10.9259
  26   2.0000      -0.390684       -10.6310
  27   2.0000      -0.386924       -10.5287
  28   2.0000      -0.379272       -10.3205
  29   2.0000      -0.354690        -9.6516
  30   2.0000      -0.312061        -8.4916
  31   2.0000      -0.279823        -7.6144
  32   0.0000      -0.066585        -1.8119
  33   0.0000       0.039967         1.0876
  34   0.0000       0.075318         2.0495
  35   0.0000       0.108247         2.9455
  36   0.0000       0.126644         3.4461

MULLIKEN ATOMIC CHARGES
-----------------------
   0 C :   -0.270715
   1 O :   -0.164908
   2 C :    0.357131
   3 O :   -0.376888
   4 C :    0.534763
   5 F :   -0.192462
   6 F :   -0.191328
   7 F :   -0.192522
   8 H :    0.167092
   9 H :    0.167600
  10 H :    0.162238
Sum of atomic charges:   -0.0000000

LOEWDIN ATOMIC CHARGES
----------------------
   0 C :   -0.027739
   1 O :   -0.560081
   2 C :    0.368149
   3 O :   -0.346165
   4 C :    0.561134
   5 F :   -0.174867
   6 F :   -0.182514
   7 F :   -0.184363
   8 H :    0.181553
   9 H :    0.181841
  10 H :    0.183052

  Mayer bond orders larger than 0.100000
B(  0-C ,  1-O ) :   0.8353 B(  0-C ,  8-H ) :   0.9575 B(  0-C ,  9-H ) :   0.9579
B(  0-C , 10-H ) :   0.9666 B(  1-O ,  2-C ) :   1.1159 B(  2-C ,  3-O ) :   1.8458
B(  2-C ,  4-C ) :   0.9748 B(  4-C ,  5-F ) :   1.0500 B(  4-C ,  6-F ) :   1.0271
B(  4-C ,  7-F ) :   1.0220

Dispersion correction           -0.002402295
FINAL SINGLE POINT ENERGY      -566.065079532137

DIPOLE MOMENT
-------------

Method             : SCF
Type of density    : Electron Density
Multiplicity       :   1
Irrep              :   0
Energy             :  -566.0756754819431080 Eh
Relativity type    :
Basis              : AO
                                X                 Y                 Z
Electronic contribution:     11.418776674      -1.532974446       0.138624018
Nuclear contribution   :    -12.457796484       2.251262560      -0.264371744
                        -----------------------------------------
Total Dipole Moment    :     -1.039019810       0.718288114      -0.125747726
                        -----------------------------------------
Magnitude (a.u.)       :      1.269374835
Magnitude (Debye)      :      3.226494416

Rotational constants in cm-1:             0.121061             0.050071             0.043855
Rotational constants in MHz :          3629.311004          1501.104833          1314.727632

                             ****ORCA TERMINATED NORMALLY****
TOTAL RUN TIME: 0 days 0 hours 0 minutes 17 seconds 691 msec
