                         Program Version 6.0.1  -  RELEASE   -
|  1> ! r2scan-3c def2/J RI DEFGRID2 scfconv6 printgap
|  2> %output
|  3>     printlevel normal
|  4> end
|  5> * xyz 0 1
|  6> C -2.6148449562 1.4527616401 -0.0121639094
|  7> O -2.2161100051 0.1060450768 0.0031715347
|  8> C -0.8809061688 -0.1807945062 0.0034670808
|  9> C -0.5545218033 -1.5376844494 0.0030548683
| 10> C 0.7700994578 -1.9228969786 0.0051154675
| 11> C 1.7823436465 -0.9812544971 0.0091883944
| 12> C 1.46696896 0.3749581981 0.0098022207
| 13> C 0.1280412796 0.7695099518 0.0102184026
| 14> N 2.465069473 1.3289456825 -0.0606739434
| 15> H -2.2723413848 1.9856409681 0.8816302234
| 16> H -3.7038908024 1.4388387911 -0.0247344263
| 17> H -2.2505143981 1.9713720692 -0.9054056518
| 18> H -1.3532398249 -2.260965223 0.001613491
| 19> H 1.0197458421 -2.9735784407 0.0063848387
| 20> H 2.817988706 -1.2877308894 0.0096782649
| 21> H -0.0948151838 1.8258344419 0.0113531004
| 22> H 3.3823537075 1.0285348879 0.2268616463
| 23> H 2.2182889457 2.2568594359 0.243648639
| 24> *
| 25>
| 26>                          ****END OF INPUT****

CARTESIAN COORDINATES (ANGSTROEM)
---------------------------------
  C     -2.614845    1.452762   -0.012164
  O     -2.216110    0.106045    0.003172
  C     -0.880906   -0.180795    0.003467
  C     -0.554522   -1.537684    0.003055
  C      0.770099   -1.922897    0.005115
  C      1.782344   -0.981254    0.009188
  C      1.466969    0.374958    0.009802
  C      0.128041    0.769510    0.010218
  N      2.465069    1.328946   -0.060674
  H     -2.272341    1.985641    0.881630
  H     -3.703891    1.438839   -0.024734
  H     -2.250514    1.971372   -0.905406
  H     -1.353240   -2.260965    0.001613
  H      1.019746   -2.973578    0.006385
  H      2.817989   -1.287731    0.009678
  H     -0.094815    1.825834    0.011353
  H      3.382354    1.028535    0.226862
  H      2.218289    2.256859    0.243649

 Total Charge           Charge          ....    0
 Multiplicity           Mult            ....    1
 Number of Electrons    NEL             ....   66
 Basis Dimension        Dim             ....  226

ORBITAL ENERGIES
----------------

  NO   OCC          E(Eh)            E(eV)
   0   2.0000     -18.980214      -516.4779
   1   2.0000     -14.167310      -385.5121
   2   2.0000     -10.087743      -274.5014
   3   2.0000     -10.082809      -274.3672
   4   2.0000     -10.071845      -274.0688
   5   2.0000     -10.027013      -272.8489
   6   2.0000     -10.022065      -272.7142
   7   2.0000     -10.015058      -272.5236
   8   2.0000     -10.011388      -272.4237
   9   2.0000      -1.029496       -28.0140
  10   2.0000      -0.889301       -24.1991
  11   2.0000      -0.801229       -21.8026
  12   2.0000      -0.715908       -19.4808
  13   2.0000      -0.700750       -19.0684
  14   2.0000      -0.656550       -17.8656
  15   2.0000      -0.572684       -15.5835
  16   2.0000      -0.564492       -15.3606
  17   2.0000      -0.506345       -13.7783
  18   2.0000      -0.487731       -13.2718
  19   2.0000      -0.449498       -12.2315
  20   2.0000      -0.434963       -11.8359
  21   2.0000      -0.433501       -11.7962
  22   2.0000      -0.428650       -11.6642
  23   2.0000      -0.393109       -10.6970
  24   2.0000      -0.375196       -10.2096
  25   2.0000      -0.358959        -9.7678
  26   2.0000      -0.335872        -9.1395
  27   2.0000      -0.318804        -8.6751
  28   2.0000      -0.312672        -8.5082
  29   2.0000      -0.296076        -8.0566
  30   2.0000      -0.264373        -7.1940
  31   2.0000      -0.207390        -5.6434
  32   2.0000      -0.176996        -4.8163
  33   0.0000      -0.014903        -0.4055
  34   0.0000      -0.001488        -0.0405
  35   0.0000       0.069037         1.8786
  36   0.0000       0.072839         1.9820
  37   0.0000       0.095010         2.5854

MULLIKEN ATOMIC CHARGES
-----------------------
   0 C :   -0.341402
   1 O :   -0.180684
   2 C :    0.365790
   3 C :   -0.356301
   4 C :   -0.096482
   5 C :   -0.404542
   6 C :    0.540303
   7 C :   -0.535986
   8 N :   -0.530800
   9 H :    0.149637
  10 H :    0.153362
  11 H :    0.152153
  12 H :    0.155987
  13 H :    0.146575
  14 H :    0.137266
  15 H :    0.136406
  16 H :    0.255214
  17 H :    0.253503
Sum of atomic charges:   -0.0000000

LOEWDIN ATOMIC CHARGES
----------------------
   0 C :   -0.058945
   1 O :   -0.681974
   2 C :    0.198770
   3 C :   -0.171107
   4 C :   -0.144708
   5 C :   -0.191634
   6 C :    0.134988
   7 C :   -0.171530
   8 N :   -0.609745
   9 H :    0.162547
  10 H :    0.179195
  11 H :    0.163784
  12 H :    0.178543
  13 H :    0.167721
  14 H :    0.166831
  15 H :    0.175502
  16 H :    0.251499
  17 H :    0.250262

  Mayer bond orders larger than 0.100000
B(  0-C ,  1-O ) :   0.8648 B(  0-C ,  9-H ) :   0.9644 B(  0-C , 10-H ) :   0.9682
B(  0-C , 11-H ) :   0.9644 B(  1-O ,  2-C ) :   1.0306 B(  2-C ,  3-C ) :   1.3981
B(  2-C ,  7-C ) :   1.3930 B(  3-C ,  4-C ) :   1.3989 B(  3-C , 12-H ) :   0.9466
B(  4-C ,  5-C ) :   1.4037 B(  4-C , 13-H ) :   0.9469 B(  5-C ,  6-C ) :   1.3415
B(  5-C , 14-H ) :   0.9461 B(  6-C ,  7-C ) :   1.3698 B(  6-C ,  8-N ) :   0.9285
B(  7-C , 15-H ) :   0.8901 B(  8-N , 16-H ) :   0.9267 B(  8-N , 17-H ) :   0.9265

Dispersion correction           -0.005728250
FINAL SINGLE POINT ENERGY      -402.030456787046

DIPOLE MOMENT
-------------

Method             : SCF
Type of density    : Electron Density
Multiplicity       :   1
Irrep              :   0
Energy             :  -402.0346843947376101 Eh
Relativity type    :
Basis              : AO
                                X                 Y                 Z
Electronic contribution:      0.602029227      -2.854409947      -0.117713370
Nuclear contribution   :     -0.241118337       3.747285557       0.422856860
                        -----------------------------------------
Total Dipole Moment    :      0.360910890       0.892875610       0.305143490
                        -----------------------------------------
Magnitude (a.u.)       :      1.010245551
Magnitude (Debye)      :      2.567840121

Rotational constants in cm-1:             0.095804             0.043403             0.030060
Rotational constants in MHz :          2872.121354          1301.193455           901.168866

                             ****ORCA TERMINATED NORMALLY****
TOTAL RUN TIME: 0 days 0 hours 0 minutes 46 seconds 579 msec
