                         Program Version 6.0.1  -  RELEASE   -
|  1> ! r2scan-3c def2/J RI DEFGRID2 scfconv6 printgap
|  2> %output
|  3>     printlevel normal
|  4> end
|  5> * xyz 0 1
|  6> C 1.8608602901 0.9396098857 -0.2686638704
|  7> C 0.9667436322 -0.0788852999 0.426358447
|  8> C -0.3804478746 -0.2897215223 -0.2795700641
|  9> H -0.2018774057 -0.5340815961 -1.3325580308
| 10> C -1.2813230105 0.9417113745 -0.187809558
| 11> O -1.0362376576 -1.4313186012 0.2370492399
| 12> H 1.4206216136 1.9329488491 -0.2393467425
| 13> H 2.0174209628 0.6614266461 -1.3083254504
| 14> H 2.829320652 0.9839320115 0.2241511044
| 15> H 0.7837844798 0.2362510778 1.458059201
| 16> H 1.4769226683 -1.0444316062 0.4585733572
| 17> H -0.8499372342 1.7753215459 -0.7330355617
| 18> H -2.2547004731 0.7138813673 -0.6159806954
| 19> H -1.4183452427 1.2349101115 0.8525385717
| 20> H -1.2470435665 -1.2662148468 1.1634780446
| 21> *
| 22>
| 23>                          ****END OF INPUT****

CARTESIAN COORDINATES (ANGSTROEM)
---------------------------------
  C      1.860860    0.939610   -0.268664
  C      0.966744   -0.078885    0.426358
  C     -0.380448   -0.289722   -0.279570
  H     -0.201877   -0.534082   -1.332558
  C     -1.281323    0.941711   -0.187810
  O     -1.036238   -1.431319    0.237049
  H      1.420622    1.932949   -0.239347
  H      2.017421    0.661427   -1.308325
  H      2.829321    0.983932    0.224151
  H      0.783784    0.236251    1.458059
  H      1.476923   -1.044432    0.458573
  H     -0.849937    1.775322   -0.733036
  H     -2.254700    0.713881   -0.615981
  H     -1.418345    1.234910    0.852539
  H     -1.247044   -1.266215    1.163478

 Total Charge           Charge          ....    0
 Multiplicity           Mult            ....    1
 Number of Electrons    NEL             ....   42
 Basis Dimension        Dim             ....  150

ORBITAL ENERGIES
----------------

  NO   OCC          E(Eh)            E(eV)
   0   2.0000     -18.942211      -515.4438
   1   2.0000     -10.078981      -274.2630
   2   2.0000     -10.025899      -272.8186
   3   2.0000     -10.021537      -272.6999
   4   2.0000     -10.019383      -272.6413
   5   2.0000      -0.983440       -26.7608
   6   2.0000      -0.754393       -20.5281
   7   2.0000      -0.689738       -18.7687
   8   2.0000      -0.610715       -16.6184
   9   2.0000      -0.556755       -15.1501
  10   2.0000      -0.455495       -12.3946
  11   2.0000      -0.437342       -11.9007
  12   2.0000      -0.403446       -10.9783
  13   2.0000      -0.399379       -10.8676
  14   2.0000      -0.362176        -9.8553
  15   2.0000      -0.353746        -9.6259
  16   2.0000      -0.337453        -9.1826
  17   2.0000      -0.320159        -8.7120
  18   2.0000      -0.306001        -8.3267
  19   2.0000      -0.283261        -7.7079
  20   2.0000      -0.231520        -6.3000
  21   0.0000       0.068422         1.8619
  22   0.0000       0.092166         2.5080
  23   0.0000       0.121965         3.3188
  24   0.0000       0.128952         3.5090
  25   0.0000       0.134959         3.6724

MULLIKEN ATOMIC CHARGES
-----------------------
   0 C :   -0.496935
   1 C :   -0.207072
   2 C :    0.012171
   3 H :    0.133496
   4 C :   -0.496177
   5 O :   -0.404671
   6 H :    0.147346
   7 H :    0.146934
   8 H :    0.147442
   9 H :    0.121261
  10 H :    0.157395
  11 H :    0.148603
  12 H :    0.162962
  13 H :    0.139560
  14 H :    0.287684
Sum of atomic charges:   -0.0000000

LOEWDIN ATOMIC CHARGES
----------------------
   0 C :   -0.420969
   1 C :   -0.297125
   2 C :    0.039880
   3 H :    0.178560
   4 C :   -0.401865
   5 O :   -0.607484
   6 H :    0.149556
   7 H :    0.152118
   8 H :    0.152822
   9 H :    0.152230
  10 H :    0.164150
  11 H :    0.157450
  12 H :    0.163091
  13 H :    0.152830
  14 H :    0.264757

  Mayer bond orders larger than 0.100000
B(  0-C ,  1-C ) :   0.8914 B(  0-C ,  6-H ) :   0.9813 B(  0-C ,  7-H ) :   0.9828
B(  0-C ,  8-H ) :   0.9652 B(  1-C ,  2-C ) :   0.9233 B(  1-C ,  9-H ) :   0.9609
B(  1-C , 10-H ) :   0.9673 B(  2-C ,  3-H ) :   0.9572 B(  2-C ,  4-C ) :   0.9353
B(  2-C ,  5-O ) :   0.9404 B(  4-C , 11-H ) :   0.9693 B(  4-C , 12-H ) :   0.9678
B(  4-C , 13-H ) :   0.9755 B(  5-O , 14-H ) :   0.8978

Dispersion correction           -0.003197820
FINAL SINGLE POINT ENERGY      -233.603561362612

DIPOLE MOMENT
-------------

Method             : SCF
Type of density    : Electron Density
Multiplicity       :   1
Irrep              :   0
Energy             :  -233.6086014795707797 Eh
Relativity type    :
Basis              : AO
                                X                 Y                 Z
Electronic contribution:     -2.209120444      -3.854831424       0.355920046
Nuclear contribution   :      2.382724906       4.382446866      -0.064448588
                        -----------------------------------------
Total Dipole Moment    :      0.173604463       0.527615442       0.291471459
                        -----------------------------------------
Magnitude (a.u.)       :      0.627273605
Magnitude (Debye)      :      1.594402794

Rotational constants in cm-1:             0.255637             0.115417             0.088852
Rotational constants in MHz :          7663.814897          3460.123995          2663.703282

                             ****ORCA TERMINATED NORMALLY****
TOTAL RUN TIME: 0 days 0 hours 0 minutes 10 seconds 436 msec
