                         Program Version 6.0.1  -  RELEASE   -
|  1> ! pbe def2-sv(p) def2/J RI DEFGRID1 loosescf d4 GCP(DFT/SV(P)) printgap
|  2> %output
|  3>     printlevel normal
|  4> end
|  5> * xyz 0 1
|  6> C -3.3902599137 -0.8227310104 -0.0914173841
|  7> O -1.9934394309 -0.7393089227 -0.3430016783
|  8> C -1.3495906189 0.3570842444 0.0750524515
|  9> O -1.8866206146 1.2665130287 0.6528620095
| 10> C 0.1246759049 0.3276909562 -0.282263776
| 11> C 0.6619981892 -1.0772739065 -0.5500887112
| 12> C 2.1399114731 -1.0103948811 -0.9273021908
| 13> C 2.9493678625 -0.3275843008 0.1710090736
| 14> C 2.4101798818 1.0748860435 0.4363786164
| 15> C 0.9363900949 1.0133245196 0.8209205534
| 16> H -3.5925679155 -1.8067687002 0.3293929344
| 17> H -3.9276609902 -0.7039337738 -1.0333455425
| 18> H -3.6895542774 -0.0385423408 0.6064421652
| 19> H 0.2195803252 0.9227199618 -1.2003499464
| 20> H 0.5411310306 -1.6857431571 0.348507992
| 21> H 0.0930452802 -1.5484447839 -1.3523212193
| 22> H 2.5202986543 -2.0195479072 -1.0973850643
| 23> H 2.2508691837 -0.4504711946 -1.8589800991
| 24> H 2.8864324353 -0.9185524524 1.087465331
| 25> H 4.0001170793 -0.2739608208 -0.120985231
| 26> H 2.9798321722 1.5480170711 1.2383997251
| 27> H 2.5273533838 1.6850335828 -0.4622176936
| 28> H 0.8238616966 0.4477386187 1.7486600616
| 29> H 0.5399465394 2.0149389096 0.9916216834
| 30> *
| 31>
| 32>                          ****END OF INPUT****

CARTESIAN COORDINATES (ANGSTROEM)
---------------------------------
  C     -3.390260   -0.822731   -0.091417
  O     -1.993439   -0.739309   -0.343002
  C     -1.349591    0.357084    0.075052
  O     -1.886621    1.266513    0.652862
  C      0.124676    0.327691   -0.282264
  C      0.661998   -1.077274   -0.550089
  C      2.139911   -1.010395   -0.927302
  C      2.949368   -0.327584    0.171009
  C      2.410180    1.074886    0.436379
  C      0.936390    1.013325    0.820921
  H     -3.592568   -1.806769    0.329393
  H     -3.927661   -0.703934   -1.033346
  H     -3.689554   -0.038542    0.606442
  H      0.219580    0.922720   -1.200350
  H      0.541131   -1.685743    0.348508
  H      0.093045   -1.548445   -1.352321
  H      2.520299   -2.019548   -1.097385
  H      2.250869   -0.450471   -1.858980
  H      2.886432   -0.918552    1.087465
  H      4.000117   -0.273961   -0.120985
  H      2.979832    1.548017    1.238400
  H      2.527353    1.685034   -0.462218
  H      0.823862    0.447739    1.748660
  H      0.539947    2.014939    0.991622

 Total Charge           Charge          ....    0
 Multiplicity           Mult            ....    1
 Number of Electrons    NEL             ....   78
 Basis Dimension        Dim             ....  168

ORBITAL ENERGIES
----------------

  NO   OCC          E(Eh)            E(eV)
   0   2.0000     -18.796966      -511.4914
   1   2.0000     -18.734851      -509.8012
   2   2.0000     -10.003662      -272.2135
   3   2.0000      -9.936887      -270.3964
   4   2.0000      -9.903823      -269.4967
   5   2.0000      -9.884320      -268.9660
   6   2.0000      -9.883440      -268.9421
   7   2.0000      -9.883359      -268.9399
   8   2.0000      -9.882741      -268.9230
   9   2.0000      -9.882029      -268.9037
  10   2.0000      -1.004442       -27.3323
  11   2.0000      -0.914258       -24.8782
  12   2.0000      -0.761657       -20.7257
  13   2.0000      -0.692735       -18.8503
  14   2.0000      -0.667450       -18.1622
  15   2.0000      -0.648203       -17.6385
  16   2.0000      -0.559634       -15.2284
  17   2.0000      -0.542023       -14.7492
  18   2.0000      -0.505635       -13.7590
  19   2.0000      -0.499803       -13.6003
  20   2.0000      -0.458863       -12.4863
  21   2.0000      -0.435476       -11.8499
  22   2.0000      -0.413914       -11.2632
  23   2.0000      -0.410579       -11.1724
  24   2.0000      -0.397691       -10.8217
  25   2.0000      -0.393212       -10.6998
  26   2.0000      -0.378522       -10.3001
  27   2.0000      -0.352661        -9.5964
  28   2.0000      -0.347287        -9.4502
  29   2.0000      -0.336274        -9.1505
  30   2.0000      -0.331163        -9.0114
  31   2.0000      -0.304405        -8.2833
  32   2.0000      -0.303863        -8.2685
  33   2.0000      -0.295426        -8.0390
  34   2.0000      -0.283933        -7.7262
  35   2.0000      -0.270328        -7.3560
  36   2.0000      -0.259508        -7.0616
  37   2.0000      -0.255260        -6.9460
  38   2.0000      -0.219550        -5.9742
  39   0.0000      -0.018346        -0.4992
  40   0.0000       0.036551         0.9946
  41   0.0000       0.047350         1.2885
  42   0.0000       0.056995         1.5509
  43   0.0000       0.073566         2.0018

MULLIKEN ATOMIC CHARGES
-----------------------
   0 C :   -0.134058
   1 O :   -0.240825
   2 C :    0.183164
   3 O :   -0.185022
   4 C :   -0.237566
   5 C :   -0.109009
   6 C :   -0.131231
   7 C :   -0.165915
   8 C :   -0.124400
   9 C :   -0.138912
  10 H :    0.120515
  11 H :    0.119682
  12 H :    0.132891
  13 H :    0.094357
  14 H :    0.074043
  15 H :    0.090773
  16 H :    0.085280
  17 H :    0.070266
  18 H :    0.075023
  19 H :    0.084727
  20 H :    0.087004
  21 H :    0.071303
  22 H :    0.076225
  23 H :    0.101686
Sum of atomic charges:    0.0000000

LOEWDIN ATOMIC CHARGES
----------------------
   0 C :   -0.213306
   1 O :   -0.070519
   2 C :    0.046986
   3 O :   -0.154695
   4 C :   -0.167017
   5 C :   -0.218937
   6 C :   -0.225705
   7 C :   -0.228192
   8 C :   -0.225507
   9 C :   -0.211901
  10 H :    0.119178
  11 H :    0.118459
  12 H :    0.123481
  13 H :    0.138511
  14 H :    0.116151
  15 H :    0.119503
  16 H :    0.116645
  17 H :    0.113615
  18 H :    0.114111
  19 H :    0.115792
  20 H :    0.117698
  21 H :    0.114161
  22 H :    0.117041
  23 H :    0.124446

  Mayer bond orders larger than 0.100000
B(  0-C ,  1-O ) :   0.9448 B(  0-C , 10-H ) :   0.9603 B(  0-C , 11-H ) :   0.9597
B(  0-C , 12-H ) :   0.9284 B(  1-O ,  2-C ) :   1.2173 B(  2-C ,  3-O ) :   2.0871
B(  2-C ,  4-C ) :   0.9441 B(  4-C ,  5-C ) :   1.0972 B(  4-C ,  9-C ) :   1.1017
B(  4-C , 13-H ) :   0.8556 B(  5-C ,  6-C ) :   1.1315 B(  5-C , 14-H ) :   0.9141
B(  5-C , 15-H ) :   0.9055 B(  6-C ,  7-C ) :   1.1342 B(  6-C , 16-H ) :   0.9201
B(  6-C , 17-H ) :   0.9101 B(  7-C ,  8-C ) :   1.1310 B(  7-C , 18-H ) :   0.9152
B(  7-C , 19-H ) :   0.9197 B(  8-C ,  9-C ) :   1.1380 B(  8-C , 20-H ) :   0.9200
B(  8-C , 21-H ) :   0.9103 B(  9-C , 22-H ) :   0.9148 B(  9-C , 23-H ) :   0.9063

Dispersion correction           -0.022559926
FINAL SINGLE POINT ENERGY      -462.705955324480

DIPOLE MOMENT
-------------

Method             : SCF
Type of density    : Electron Density
Multiplicity       :   1
Irrep              :   0
Energy             :  -462.7945014480776535 Eh
Relativity type    :
Basis              : AO
                                X                 Y                 Z
Electronic contribution:     -7.585441722       2.064640610       0.408553342
Nuclear contribution   :      7.609817245      -2.644867077      -0.722574492
                        -----------------------------------------
Total Dipole Moment    :      0.024375524      -0.580226467      -0.314021150
                        -----------------------------------------
Magnitude (a.u.)       :      0.660201637
Magnitude (Debye)      :      1.678099202

Rotational constants in cm-1:             0.096726             0.026306             0.021712
Rotational constants in MHz :          2899.765724           788.635794           650.909068

                             ****ORCA TERMINATED NORMALLY****
TOTAL RUN TIME: 0 days 0 hours 0 minutes 8 seconds 322 msec
