                         Program Version 6.0.1  -  RELEASE   -
|  1> ! pbe def2-sv(p) def2/J RI DEFGRID1 loosescf d4 GCP(DFT/SV(P)) printgap
|  2> %output
|  3>     printlevel normal
|  4> end
|  5> * xyz 0 1
|  6> C -2.0982211828 -1.0516690873 -0.0811196063
|  7> C -1.0390381785 -0.3956750915 0.8225928795
|  8> H -1.474344591 -0.365319944 1.8300229577
|  9> C -0.7399892411 1.0762817762 0.433118937
| 10> H -1.6021203925 1.4593008925 -0.1213990326
| 11> C 0.5073308906 1.2602124549 -0.4534804311
| 12> H 0.8446435213 2.3009484625 -0.3044629479
| 13> C 1.6336448984 0.3225984814 0.0255896999
| 14> H 2.5075159166 0.4186818088 -0.6311395003
| 15> C 1.1248484127 -1.1335121896 0.0191371374
| 16> H 1.9145916895 -1.7955894653 0.4023375945
| 17> O 0.1077212664 -1.2201860553 0.9985296999
| 18> O 0.7855280499 -1.6057398872 -1.2248509488
| 19> O 2.0217556629 0.670542451 1.3375827455
| 20> O 0.1633181573 1.0506320916 -1.7976660034
| 21> O -0.6265082023 1.8715401582 1.5871167419
| 22> O -1.8282330297 -0.8088894822 -1.4444696673
| 23> H -3.0776623935 -0.6362894439 0.1888409031
| 24> H -2.0949786111 -2.1286882329 0.1320821543
| 25> H -0.0073597942 -1.1265716606 -1.5462201951
| 26> H 1.6262790225 0.0193658256 1.9368874513
| 27> H 0.9582452965 1.0987821533 -2.3407217503
| 28> H 0.2668591221 1.7637495705 1.9456537371
| 29> H -2.4741480476 -1.2723945775 -1.9866675224
| 30> *
| 31>
| 32>                          ****END OF INPUT****

CARTESIAN COORDINATES (ANGSTROEM)
---------------------------------
  C     -2.098221   -1.051669   -0.081120
  C     -1.039038   -0.395675    0.822593
  H     -1.474345   -0.365320    1.830023
  C     -0.739989    1.076282    0.433119
  H     -1.602120    1.459301   -0.121399
  C      0.507331    1.260212   -0.453480
  H      0.844644    2.300948   -0.304463
  C      1.633645    0.322598    0.025590
  H      2.507516    0.418682   -0.631140
  C      1.124848   -1.133512    0.019137
  H      1.914592   -1.795589    0.402338
  O      0.107721   -1.220186    0.998530
  O      0.785528   -1.605740   -1.224851
  O      2.021756    0.670542    1.337583
  O      0.163318    1.050632   -1.797666
  O     -0.626508    1.871540    1.587117
  O     -1.828233   -0.808889   -1.444470
  H     -3.077662   -0.636289    0.188841
  H     -2.094979   -2.128688    0.132082
  H     -0.007360   -1.126572   -1.546220
  H      1.626279    0.019366    1.936887
  H      0.958245    1.098782   -2.340722
  H      0.266859    1.763750    1.945654
  H     -2.474148   -1.272395   -1.986668

 Total Charge           Charge          ....    0
 Multiplicity           Mult            ....    1
 Number of Electrons    NEL             ....   96
 Basis Dimension        Dim             ....  192

ORBITAL ENERGIES
----------------

  NO   OCC          E(Eh)            E(eV)
   0   2.0000     -18.774675      -510.8849
   1   2.0000     -18.772511      -510.8260
   2   2.0000     -18.765406      -510.6327
   3   2.0000     -18.759131      -510.4619
   4   2.0000     -18.741329      -509.9775
   5   2.0000     -18.741118      -509.9718
   6   2.0000      -9.983373      -271.6614
   7   2.0000      -9.949210      -270.7318
   8   2.0000      -9.945891      -270.6414
   9   2.0000      -9.944425      -270.6016
  10   2.0000      -9.943506      -270.5766
  11   2.0000      -9.942847      -270.5586
  12   2.0000      -0.984390       -26.7866
  13   2.0000      -0.948640       -25.8138
  14   2.0000      -0.941090       -25.6084
  15   2.0000      -0.934857       -25.4388
  16   2.0000      -0.921831       -25.0843
  17   2.0000      -0.903164       -24.5764
  18   2.0000      -0.705486       -19.1972
  19   2.0000      -0.687336       -18.7034
  20   2.0000      -0.624835       -17.0026
  21   2.0000      -0.593871       -16.1600
  22   2.0000      -0.571547       -15.5526
  23   2.0000      -0.522203       -14.2099
  24   2.0000      -0.509499       -13.8642
  25   2.0000      -0.482514       -13.1299
  26   2.0000      -0.474772       -12.9192
  27   2.0000      -0.464577       -12.6418
  28   2.0000      -0.445965       -12.1353
  29   2.0000      -0.430918       -11.7259
  30   2.0000      -0.424636       -11.5549
  31   2.0000      -0.411659       -11.2018
  32   2.0000      -0.393470       -10.7069
  33   2.0000      -0.377535       -10.2732
  34   2.0000      -0.360848        -9.8192
  35   2.0000      -0.350444        -9.5361
  36   2.0000      -0.324509        -8.8303
  37   2.0000      -0.315899        -8.5960
  38   2.0000      -0.305610        -8.3161
  39   2.0000      -0.299388        -8.1468
  40   2.0000      -0.290583        -7.9072
  41   2.0000      -0.281482        -7.6595
  42   2.0000      -0.254032        -6.9126
  43   2.0000      -0.247473        -6.7341
  44   2.0000      -0.238252        -6.4832
  45   2.0000      -0.229115        -6.2345
  46   2.0000      -0.209140        -5.6910
  47   2.0000      -0.200358        -5.4520
  48   0.0000       0.008075         0.2197
  49   0.0000       0.020210         0.5500
  50   0.0000       0.032723         0.8904
  51   0.0000       0.062659         1.7051
  52   0.0000       0.065585         1.7847

MULLIKEN ATOMIC CHARGES
-----------------------
   0 C :    0.016431
   1 C :    0.019507
   2 H :    0.083936
   3 C :    0.072736
   4 H :    0.088579
   5 C :    0.022307
   6 H :    0.078133
   7 C :    0.010258
   8 H :    0.070682
   9 C :    0.162013
  10 H :    0.074583
  11 O :   -0.319354
  12 O :   -0.411607
  13 O :   -0.422055
  14 O :   -0.395635
  15 O :   -0.425134
  16 O :   -0.425516
  17 H :    0.085875
  18 H :    0.091794
  19 H :    0.313644
  20 H :    0.304807
  21 H :    0.302136
  22 H :    0.286684
  23 H :    0.315195
Sum of atomic charges:   -0.0000000

LOEWDIN ATOMIC CHARGES
----------------------
   0 C :   -0.136461
   1 C :   -0.075418
   2 H :    0.127603
   3 C :   -0.059640
   4 H :    0.125767
   5 C :   -0.081615
   6 H :    0.105665
   7 C :   -0.097625
   8 H :    0.108828
   9 C :   -0.013840
  10 H :    0.106365
  11 O :   -0.152766
  12 O :   -0.310352
  13 O :   -0.314038
  14 O :   -0.302225
  15 O :   -0.318725
  16 O :   -0.318202
  17 H :    0.108516
  18 H :    0.108147
  19 H :    0.263898
  20 H :    0.277129
  21 H :    0.286250
  22 H :    0.267412
  23 H :    0.295325

  Mayer bond orders larger than 0.100000
B(  0-C ,  1-C ) :   1.0715 B(  0-C , 16-O ) :   1.0381 B(  0-C , 17-H ) :   0.9108
B(  0-C , 18-H ) :   0.9099 B(  1-C ,  2-H ) :   0.8907 B(  1-C ,  3-C ) :   0.9673
B(  1-C , 11-O ) :   0.9982 B(  3-C ,  4-H ) :   0.8880 B(  3-C ,  5-C ) :   0.9952
B(  3-C , 15-O ) :   1.0537 B(  5-C ,  6-H ) :   0.8997 B(  5-C ,  7-C ) :   0.9584
B(  5-C , 14-O ) :   1.0676 B(  7-C ,  8-H ) :   0.8962 B(  7-C ,  9-C ) :   0.9899
B(  7-C , 13-O ) :   1.0454 B(  9-C , 10-H ) :   0.9114 B(  9-C , 11-O ) :   0.9877
B(  9-C , 12-O ) :   1.1921 B( 12-O , 19-H ) :   0.7542 B( 13-O , 20-H ) :   0.8134
B( 14-O , 21-H ) :   0.8389 B( 15-O , 22-H ) :   0.8189 B( 16-O , 19-H ) :   0.1246
B( 16-O , 23-H ) :   0.8402

Dispersion correction           -0.026783236
FINAL SINGLE POINT ENERGY      -685.691595671036

DIPOLE MOMENT
-------------

Method             : SCF
Type of density    : Electron Density
Multiplicity       :   1
Irrep              :   0
Energy             :  -685.8276175947180491 Eh
Relativity type    :
Basis              : AO
                                X                 Y                 Z
Electronic contribution:      1.951167916      -0.118409358       0.032957124
Nuclear contribution   :     -2.441711928      -0.248323701      -0.472249071
                        -----------------------------------------
Total Dipole Moment    :     -0.490544012      -0.366733059      -0.439291947
                        -----------------------------------------
Magnitude (a.u.)       :      0.753726727
Magnitude (Debye)      :      1.915821088

Rotational constants in cm-1:             0.039999             0.031928             0.028276
Rotational constants in MHz :          1199.152609           957.190271           847.687514

                             ****ORCA TERMINATED NORMALLY****
TOTAL RUN TIME: 0 days 0 hours 0 minutes 8 seconds 873 msec
