                         Program Version 6.0.1  -  RELEASE   -
|  1> ! r2scan-3c def2/J RI DEFGRID2 scfconv6 printgap
|  2> %output
|  3>     printlevel normal
|  4> end
|  5> * xyz 0 1
|  6> C -2.4166524671 -1.1142381601 -0.3332724802
|  7> C -1.0738180458 -0.6109377387 0.2150468543
|  8> H -1.1307102489 -0.5847494967 1.3147396401
|  9> C -0.7523913618 0.8057465452 -0.2903027132
| 10> H -0.728956995 0.7947182274 -1.3927965423
| 11> C 0.6344380851 1.228996147 0.2066965993
| 12> H 0.623697416 1.2868975458 1.3079090945
| 13> C 1.6631394249 0.1790123199 -0.21156554
| 14> H 1.7188633202 0.1459982629 -1.313125484
| 15> C 1.2049488824 -1.2036357298 0.2978841236
| 16> H 1.2110328149 -1.1908187406 1.4026979752
| 17> O -0.0685193067 -1.5149750262 -0.1975238374
| 18> O 2.0907235091 -2.1933513177 -0.104093718
| 19> O 2.9130957172 0.5256788443 0.3295635393
| 20> O 0.9198368525 2.4958087683 -0.3347247292
| 21> O -1.7392332611 1.6992764638 0.1601584099
| 22> O -3.503897995 -0.4891644543 0.2797516403
| 23> H -2.5016287465 -2.1832306246 -0.125006177
| 24> H -2.4317699094 -0.9682993437 -1.4235847256
| 25> H 1.7653083153 -2.5540890744 -0.9380680429
| 26> H 3.4694455477 -0.2638478398 0.3177109709
| 27> H 1.8532125307 2.6752922326 -0.1697131846
| 28> H -1.39908521 2.5915305464 0.0128113351
| 29> H -3.3419096524 0.4653879989 0.2696531566
| 30> *
| 31>
| 32>                          ****END OF INPUT****

CARTESIAN COORDINATES (ANGSTROEM)
---------------------------------
  C     -2.416652   -1.114238   -0.333272
  C     -1.073818   -0.610938    0.215047
  H     -1.130710   -0.584749    1.314740
  C     -0.752391    0.805747   -0.290303
  H     -0.728957    0.794718   -1.392797
  C      0.634438    1.228996    0.206697
  H      0.623697    1.286898    1.307909
  C      1.663139    0.179012   -0.211566
  H      1.718863    0.145998   -1.313125
  C      1.204949   -1.203636    0.297884
  H      1.211033   -1.190819    1.402698
  O     -0.068519   -1.514975   -0.197524
  O      2.090724   -2.193351   -0.104094
  O      2.913096    0.525679    0.329564
  O      0.919837    2.495809   -0.334725
  O     -1.739233    1.699276    0.160158
  O     -3.503898   -0.489164    0.279752
  H     -2.501629   -2.183231   -0.125006
  H     -2.431770   -0.968299   -1.423585
  H      1.765308   -2.554089   -0.938068
  H      3.469446   -0.263848    0.317711
  H      1.853213    2.675292   -0.169713
  H     -1.399085    2.591531    0.012811
  H     -3.341910    0.465388    0.269653

 Total Charge           Charge          ....    0
 Multiplicity           Mult            ....    1
 Number of Electrons    NEL             ....   96
 Basis Dimension        Dim             ....  318

ORBITAL ENERGIES
----------------

  NO   OCC          E(Eh)            E(eV)
   0   2.0000     -18.987179      -516.6674
   1   2.0000     -18.981639      -516.5167
   2   2.0000     -18.977018      -516.3909
   3   2.0000     -18.972872      -516.2781
   4   2.0000     -18.971971      -516.2536
   5   2.0000     -18.942122      -515.4413
   6   2.0000     -10.152162      -276.2544
   7   2.0000     -10.102526      -274.9037
   8   2.0000     -10.101953      -274.8881
   9   2.0000     -10.100899      -274.8594
  10   2.0000     -10.098621      -274.7974
  11   2.0000     -10.080339      -274.3000
  12   2.0000      -1.068680       -29.0803
  13   2.0000      -1.029360       -28.0103
  14   2.0000      -1.017802       -27.6958
  15   2.0000      -1.000570       -27.2269
  16   2.0000      -0.997438       -27.1417
  17   2.0000      -0.984146       -26.7800
  18   2.0000      -0.763657       -20.7802
  19   2.0000      -0.744351       -20.2548
  20   2.0000      -0.658701       -17.9242
  21   2.0000      -0.631135       -17.1741
  22   2.0000      -0.601869       -16.3777
  23   2.0000      -0.575438       -15.6585
  24   2.0000      -0.537926       -14.6377
  25   2.0000      -0.522207       -14.2100
  26   2.0000      -0.499471       -13.5913
  27   2.0000      -0.487209       -13.2576
  28   2.0000      -0.478868       -13.0307
  29   2.0000      -0.468578       -12.7506
  30   2.0000      -0.450336       -12.2543
  31   2.0000      -0.429428       -11.6853
  32   2.0000      -0.421741       -11.4761
  33   2.0000      -0.397539       -10.8176
  34   2.0000      -0.387349       -10.5403
  35   2.0000      -0.374549       -10.1920
  36   2.0000      -0.364912        -9.9298
  37   2.0000      -0.362021        -9.8511
  38   2.0000      -0.351879        -9.5751
  39   2.0000      -0.336250        -9.1498
  40   2.0000      -0.322639        -8.7795
  41   2.0000      -0.292469        -7.9585
  42   2.0000      -0.285915        -7.7801
  43   2.0000      -0.274024        -7.4566
  44   2.0000      -0.261741        -7.1223
  45   2.0000      -0.254952        -6.9376
  46   2.0000      -0.241034        -6.5589
  47   2.0000      -0.232247        -6.3198
  48   0.0000       0.017574         0.4782
  49   0.0000       0.043100         1.1728
  50   0.0000       0.071171         1.9367
  51   0.0000       0.078722         2.1421
  52   0.0000       0.079899         2.1742

MULLIKEN ATOMIC CHARGES
-----------------------
   0 C :   -0.233753
   1 C :   -0.121599
   2 H :    0.187600
   3 C :   -0.002113
   4 H :    0.172315
   5 C :   -0.018354
   6 H :    0.172002
   7 C :    0.114038
   8 H :    0.167156
   9 C :   -0.159388
  10 H :    0.160310
  11 O :   -0.196275
  12 O :   -0.385598
  13 O :   -0.446294
  14 O :   -0.448848
  15 O :   -0.435549
  16 O :   -0.411388
  17 H :    0.149511
  18 H :    0.133592
  19 H :    0.329876
  20 H :    0.313419
  21 H :    0.317829
  22 H :    0.320501
  23 H :    0.321012
Sum of atomic charges:   -0.0000000

LOEWDIN ATOMIC CHARGES
----------------------
   0 C :    0.049325
   1 C :    0.125344
   2 H :    0.189994
   3 C :    0.114360
   4 H :    0.185069
   5 C :    0.105459
   6 H :    0.185880
   7 C :    0.106379
   8 H :    0.183222
   9 C :    0.295071
  10 H :    0.193963
  11 O :   -0.681204
  12 O :   -0.496200
  13 O :   -0.574747
  14 O :   -0.574062
  15 O :   -0.584304
  16 O :   -0.592148
  17 H :    0.186665
  18 H :    0.163710
  19 H :    0.284191
  20 H :    0.283031
  21 H :    0.283252
  22 H :    0.287528
  23 H :    0.280221

  Mayer bond orders larger than 0.100000
B(  0-C ,  1-C ) :   0.9319 B(  0-C , 16-O ) :   1.0106 B(  0-C , 17-H ) :   0.9716
B(  0-C , 18-H ) :   0.9844 B(  1-C ,  2-H ) :   0.9556 B(  1-C ,  3-C ) :   0.8245
B(  1-C , 11-O ) :   0.7925 B(  3-C ,  4-H ) :   0.9577 B(  3-C ,  5-C ) :   0.8680
B(  3-C , 15-O ) :   0.8683 B(  5-C ,  6-H ) :   0.9862 B(  5-C ,  7-C ) :   0.8592
B(  5-C , 14-O ) :   0.9023 B(  7-C ,  8-H ) :   0.9512 B(  7-C ,  9-C ) :   0.7615
B(  7-C , 13-O ) :   0.8840 B(  9-C , 10-H ) :   1.0093 B(  9-C , 11-O ) :   0.9546
B(  9-C , 12-O ) :   1.0891 B( 12-O , 19-H ) :   0.8676 B( 13-O , 20-H ) :   0.8737
B( 14-O , 21-H ) :   0.8787 B( 15-O , 22-H ) :   0.8722 B( 16-O , 23-H ) :   0.8462

Dispersion correction           -0.008034248
FINAL SINGLE POINT ENERGY      -687.078311939631

DIPOLE MOMENT
-------------

Method             : SCF
Type of density    : Electron Density
Multiplicity       :   1
Irrep              :   0
Energy             :  -687.0904251663179139 Eh
Relativity type    :
Basis              : AO
                                X                 Y                 Z
Electronic contribution:      1.787626807      -0.017118004       0.288157687
Nuclear contribution   :     -0.828251047       0.209261300      -0.689245186
                        -----------------------------------------
Total Dipole Moment    :      0.959375760       0.192143296      -0.401087499
                        -----------------------------------------
Magnitude (a.u.)       :      1.057446016
Magnitude (Debye)      :      2.687814170

Rotational constants in cm-1:             0.043796             0.024623             0.016479
Rotational constants in MHz :          1312.961722           738.169772           494.041031

                             ****ORCA TERMINATED NORMALLY****
TOTAL RUN TIME: 0 days 0 hours 0 minutes 42 seconds 12 msec
