                         Program Version 6.0.1  -  RELEASE   -
|  1> ! pbe def2-sv(p) def2/J RI DEFGRID1 loosescf d4 GCP(DFT/SV(P)) printgap
|  2> %output
|  3>     printlevel normal
|  4> end
|  5> * xyz 0 1
|  6> C -1.7858648733 -1.0332111687 -0.6584527974
|  7> C -1.0293348798 -0.4681346941 0.5581966287
|  8> H -1.6752491935 -0.5513022818 1.4432980875
|  9> C -0.6982528566 1.0260238971 0.3764835773
| 10> H -1.5447914258 1.4840692182 -0.1463886587
| 11> C 0.5638209778 1.2301775187 -0.4826212949
| 12> H 0.8825753463 2.2794154136 -0.3551396793
| 13> C 1.7079743354 0.3453830528 0.0413559653
| 14> H 2.5457777239 0.374021769 -0.6757712099
| 15> C 1.25542487 -1.1201033911 0.153579316
| 16> H 2.0118183444 -1.6850969116 0.7352526389
| 17> O 0.0944147969 -1.2758837517 0.9053893373
| 18> O 1.1715818871 -1.6323801996 -1.1430671835
| 19> O 2.1028162171 0.8564312811 1.2919134655
| 20> O 0.248624889 0.9700471429 -1.8217832335
| 21> O -0.5823339087 1.6847293394 1.6076772957
| 22> O -3.0711641816 -0.4862755078 -0.7779868744
| 23> H -1.8336160832 -2.1290564489 -0.5563322284
| 24> H -1.2642498006 -0.7729794368 -1.5807777853
| 25> H 0.7471414365 -2.497642459 -1.1116785314
| 26> H 2.7649350138 0.276110431 1.6851070375
| 27> H 1.0538778515 0.7857975419 -2.3179480506
| 28> H 0.2779523856 1.4557129709 1.9889183213
| 29> H -3.5578167575 -0.6343161346 0.0415559768
| 30> *
| 31>
| 32>                          ****END OF INPUT****

CARTESIAN COORDINATES (ANGSTROEM)
---------------------------------
  C     -1.785865   -1.033211   -0.658453
  C     -1.029335   -0.468135    0.558197
  H     -1.675249   -0.551302    1.443298
  C     -0.698253    1.026024    0.376484
  H     -1.544791    1.484069   -0.146389
  C      0.563821    1.230178   -0.482621
  H      0.882575    2.279415   -0.355140
  C      1.707974    0.345383    0.041356
  H      2.545778    0.374022   -0.675771
  C      1.255425   -1.120103    0.153579
  H      2.011818   -1.685097    0.735253
  O      0.094415   -1.275884    0.905389
  O      1.171582   -1.632380   -1.143067
  O      2.102816    0.856431    1.291913
  O      0.248625    0.970047   -1.821783
  O     -0.582334    1.684729    1.607677
  O     -3.071164   -0.486276   -0.777987
  H     -1.833616   -2.129056   -0.556332
  H     -1.264250   -0.772979   -1.580778
  H      0.747141   -2.497642   -1.111679
  H      2.764935    0.276110    1.685107
  H      1.053878    0.785798   -2.317948
  H      0.277952    1.455713    1.988918
  H     -3.557817   -0.634316    0.041556

 Total Charge           Charge          ....    0
 Multiplicity           Mult            ....    1
 Number of Electrons    NEL             ....   96
 Basis Dimension        Dim             ....  192

ORBITAL ENERGIES
----------------

  NO   OCC          E(Eh)            E(eV)
   0   2.0000     -18.783985      -511.1382
   1   2.0000     -18.775421      -510.9052
   2   2.0000     -18.771196      -510.7902
   3   2.0000     -18.755386      -510.3600
   4   2.0000     -18.744101      -510.0529
   5   2.0000     -18.731049      -509.6978
   6   2.0000      -9.997602      -272.0486
   7   2.0000      -9.958263      -270.9781
   8   2.0000      -9.945401      -270.6281
   9   2.0000      -9.937236      -270.4059
  10   2.0000      -9.932193      -270.2687
  11   2.0000      -9.920202      -269.9424
  12   2.0000      -0.991679       -26.9850
  13   2.0000      -0.957607       -26.0578
  14   2.0000      -0.935500       -25.4562
  15   2.0000      -0.926985       -25.2246
  16   2.0000      -0.918839       -25.0029
  17   2.0000      -0.909309       -24.7435
  18   2.0000      -0.699168       -19.0253
  19   2.0000      -0.695831       -18.9345
  20   2.0000      -0.616360       -16.7720
  21   2.0000      -0.596124       -16.2214
  22   2.0000      -0.575425       -15.6581
  23   2.0000      -0.530964       -14.4483
  24   2.0000      -0.488894       -13.3035
  25   2.0000      -0.487563       -13.2673
  26   2.0000      -0.478381       -13.0174
  27   2.0000      -0.458975       -12.4893
  28   2.0000      -0.453061       -12.3284
  29   2.0000      -0.442274       -12.0349
  30   2.0000      -0.418327       -11.3832
  31   2.0000      -0.391522       -10.6539
  32   2.0000      -0.380817       -10.3626
  33   2.0000      -0.370337       -10.0774
  34   2.0000      -0.366906        -9.9840
  35   2.0000      -0.347433        -9.4541
  36   2.0000      -0.339784        -9.2460
  37   2.0000      -0.331632        -9.0242
  38   2.0000      -0.305831        -8.3221
  39   2.0000      -0.295497        -8.0409
  40   2.0000      -0.282406        -7.6847
  41   2.0000      -0.260835        -7.0977
  42   2.0000      -0.254282        -6.9194
  43   2.0000      -0.247928        -6.7465
  44   2.0000      -0.236216        -6.4278
  45   2.0000      -0.221465        -6.0264
  46   2.0000      -0.216957        -5.9037
  47   2.0000      -0.195107        -5.3091
  48   0.0000       0.003204         0.0872
  49   0.0000       0.014026         0.3817
  50   0.0000       0.031081         0.8458
  51   0.0000       0.036257         0.9866
  52   0.0000       0.066055         1.7974

MULLIKEN ATOMIC CHARGES
-----------------------
   0 C :    0.019702
   1 C :    0.002820
   2 H :    0.063423
   3 C :    0.074474
   4 H :    0.086703
   5 C :    0.049339
   6 H :    0.080303
   7 C :   -0.013907
   8 H :    0.071859
   9 C :    0.198428
  10 H :    0.048517
  11 O :   -0.308304
  12 O :   -0.399211
  13 O :   -0.415715
  14 O :   -0.390855
  15 O :   -0.427310
  16 O :   -0.423743
  17 H :    0.057357
  18 H :    0.113639
  19 H :    0.306752
  20 H :    0.310025
  21 H :    0.303005
  22 H :    0.298594
  23 H :    0.294104
Sum of atomic charges:   -0.0000000

LOEWDIN ATOMIC CHARGES
----------------------
   0 C :   -0.152839
   1 C :   -0.074445
   2 H :    0.111632
   3 C :   -0.065908
   4 H :    0.125512
   5 C :   -0.066391
   6 H :    0.106427
   7 C :   -0.089378
   8 H :    0.103451
   9 C :   -0.011359
  10 H :    0.086522
  11 O :   -0.137728
  12 O :   -0.311905
  13 O :   -0.301199
  14 O :   -0.298105
  15 O :   -0.320234
  16 O :   -0.324543
  17 H :    0.085553
  18 H :    0.120961
  19 H :    0.287036
  20 H :    0.291495
  21 H :    0.283792
  22 H :    0.270611
  23 H :    0.281042

  Mayer bond orders larger than 0.100000
B(  0-C ,  1-C ) :   1.0323 B(  0-C , 16-O ) :   1.0477 B(  0-C , 17-H ) :   0.9077
B(  0-C , 18-H ) :   0.8927 B(  1-C ,  2-H ) :   0.8975 B(  1-C ,  3-C ) :   0.9868
B(  1-C , 11-O ) :   0.9713 B(  3-C ,  4-H ) :   0.8801 B(  3-C ,  5-C ) :   0.9944
B(  3-C , 15-O ) :   1.0612 B(  5-C ,  6-H ) :   0.9014 B(  5-C ,  7-C ) :   1.0005
B(  5-C , 14-O ) :   1.0893 B(  7-C ,  8-H ) :   0.8925 B(  7-C ,  9-C ) :   0.9647
B(  7-C , 13-O ) :   1.0211 B(  9-C , 10-H ) :   0.9015 B(  9-C , 11-O ) :   1.0977
B(  9-C , 12-O ) :   1.1194 B( 12-O , 19-H ) :   0.8304 B( 13-O , 20-H ) :   0.8380
B( 14-O , 21-H ) :   0.8354 B( 15-O , 22-H ) :   0.8197 B( 16-O , 23-H ) :   0.8511

Dispersion correction           -0.025949561
FINAL SINGLE POINT ENERGY      -685.691796754128

DIPOLE MOMENT
-------------

Method             : SCF
Type of density    : Electron Density
Multiplicity       :   1
Irrep              :   0
Energy             :  -685.8238527237824655 Eh
Relativity type    :
Basis              : AO
                                X                 Y                 Z
Electronic contribution:      0.901155352       0.427006607       1.058100496
Nuclear contribution   :      0.382572095      -1.513666220      -0.796433998
                        -----------------------------------------
Total Dipole Moment    :      1.283727447      -1.086659613       0.261666498
                        -----------------------------------------
Magnitude (a.u.)       :      1.702132377
Magnitude (Debye)      :      4.326476671

Rotational constants in cm-1:             0.040898             0.028826             0.024695
Rotational constants in MHz :          1226.086571           864.179647           740.346900

                             ****ORCA TERMINATED NORMALLY****
TOTAL RUN TIME: 0 days 0 hours 0 minutes 8 seconds 881 msec
