                         Program Version 6.0.1  -  RELEASE   -
|  1> ! pbe def2-sv(p) def2/J RI DEFGRID1 loosescf d4 GCP(DFT/SV(P)) printgap
|  2> %output
|  3>     printlevel normal
|  4> end
|  5> * xyz 0 1
|  6> C -2.3153179292 0.1179711774 -0.2713620951
|  7> C -0.9484072966 0.4157215501 0.3381992946
|  8> C 0.0014454251 -0.7273587718 0.1454306076
|  9> C 1.3061846228 -0.6230773454 -0.0542527202
| 10> C 2.0690808199 0.6648485654 -0.1233262029
| 11> H -2.2220271094 -0.0609125786 -1.340485357
| 12> H -2.99210369 0.9562541527 -0.1204116416
| 13> H -2.7553684284 -0.7652751291 0.1870037473
| 14> H -0.5394843058 1.3226365193 -0.1095034962
| 15> H -1.0689895609 0.6009127617 1.411352129
| 16> H -0.4517197777 -1.7092747923 0.1871184295
| 17> H 1.8910717368 -1.5229494654 -0.1893382683
| 18> H 1.7644960392 1.3434750477 0.6709803559
| 19> H 1.8910995442 1.1628849357 -1.0774448965
| 20> H 3.1365918333 0.4823574226 -0.0326534654
| 21> *
| 22>
| 23>                          ****END OF INPUT****

CARTESIAN COORDINATES (ANGSTROEM)
---------------------------------
  C     -2.315318    0.117971   -0.271362
  C     -0.948407    0.415722    0.338199
  C      0.001445   -0.727359    0.145431
  C      1.306185   -0.623077   -0.054253
  C      2.069081    0.664849   -0.123326
  H     -2.222027   -0.060913   -1.340485
  H     -2.992104    0.956254   -0.120412
  H     -2.755368   -0.765275    0.187004
  H     -0.539484    1.322637   -0.109503
  H     -1.068990    0.600913    1.411352
  H     -0.451720   -1.709275    0.187118
  H      1.891072   -1.522949   -0.189338
  H      1.764496    1.343475    0.670980
  H      1.891100    1.162885   -1.077445
  H      3.136592    0.482357   -0.032653

 Total Charge           Charge          ....    0
 Multiplicity           Mult            ....    1
 Number of Electrons    NEL             ....   40
 Basis Dimension        Dim             ....   90

ORBITAL ENERGIES
----------------

  NO   OCC          E(Eh)            E(eV)
   0   2.0000      -9.885231      -268.9908
   1   2.0000      -9.879135      -268.8249
   2   2.0000      -9.876718      -268.7592
   3   2.0000      -9.876556      -268.7548
   4   2.0000      -9.874129      -268.6887
   5   2.0000      -0.722956       -19.6726
   6   2.0000      -0.672532       -18.3005
   7   2.0000      -0.604682       -16.4542
   8   2.0000      -0.545950       -14.8560
   9   2.0000      -0.467089       -12.7101
  10   2.0000      -0.424332       -11.5467
  11   2.0000      -0.393091       -10.6966
  12   2.0000      -0.380820       -10.3626
  13   2.0000      -0.364208        -9.9106
  14   2.0000      -0.334064        -9.0903
  15   2.0000      -0.324695        -8.8354
  16   2.0000      -0.314500        -8.5580
  17   2.0000      -0.300118        -8.1666
  18   2.0000      -0.279176        -7.5968
  19   2.0000      -0.207889        -5.6569
  20   0.0000      -0.008507        -0.2315
  21   0.0000       0.044575         1.2130
  22   0.0000       0.065217         1.7746
  23   0.0000       0.068088         1.8528
  24   0.0000       0.091722         2.4959

MULLIKEN ATOMIC CHARGES
-----------------------
   0 C :   -0.295245
   1 C :   -0.133126
   2 C :   -0.136415
   3 C :   -0.162518
   4 C :   -0.240621
   5 H :    0.106672
   6 H :    0.101573
   7 H :    0.103726
   8 H :    0.091233
   9 H :    0.102304
  10 H :    0.057826
  11 H :    0.065121
  12 H :    0.117152
  13 H :    0.119737
  14 H :    0.102580
Sum of atomic charges:    0.0000000

LOEWDIN ATOMIC CHARGES
----------------------
   0 C :   -0.337348
   1 C :   -0.232858
   2 C :   -0.150795
   3 C :   -0.157575
   4 C :   -0.342163
   5 H :    0.119449
   6 H :    0.118294
   7 H :    0.117390
   8 H :    0.120485
   9 H :    0.127089
  10 H :    0.116855
  11 H :    0.117593
  12 H :    0.127309
  13 H :    0.131677
  14 H :    0.124596

  Mayer bond orders larger than 0.100000
B(  0-C ,  1-C ) :   1.1353 B(  0-C ,  5-H ) :   0.9597 B(  0-C ,  6-H ) :   0.9524
B(  0-C ,  7-H ) :   0.9555 B(  1-C ,  2-C ) :   1.0788 B(  1-C ,  8-H ) :   0.9123
B(  1-C ,  9-H ) :   0.9081 B(  2-C ,  3-C ) :   1.9995 B(  2-C , 10-H ) :   0.9334
B(  3-C ,  4-C ) :   1.1135 B(  3-C , 11-H ) :   0.9319 B(  4-C , 12-H ) :   0.9396
B(  4-C , 13-H ) :   0.9344 B(  4-C , 14-H ) :   0.9464

Dispersion correction           -0.009737565
FINAL SINGLE POINT ENERGY      -196.028727918896

DIPOLE MOMENT
-------------

Method             : SCF
Type of density    : Electron Density
Multiplicity       :   1
Irrep              :   0
Energy             :  -196.0768530143181749 Eh
Relativity type    :
Basis              : AO
                                X                 Y                 Z
Electronic contribution:      1.260544040      -1.571299202       0.397962685
Nuclear contribution   :     -1.263174350       1.698177244      -0.387820148
                        -----------------------------------------
Total Dipole Moment    :     -0.002630310       0.126878042       0.010142536
                        -----------------------------------------
Magnitude (a.u.)       :      0.127309964
Magnitude (Debye)      :      0.323596213

Rotational constants in cm-1:             0.429858             0.084722             0.076075
Rotational constants in MHz :         12886.819598          2539.890207          2280.657383

                             ****ORCA TERMINATED NORMALLY****
TOTAL RUN TIME: 0 days 0 hours 0 minutes 56 seconds 351 msec
