                         Program Version 6.0.1  -  RELEASE   -
|  1> ! pbe def2-sv(p) def2/J RI DEFGRID1 loosescf d4 GCP(DFT/SV(P)) printgap
|  2> %output
|  3>     printlevel normal
|  4> end
|  5> * xyz 0 1
|  6> C -1.744333762 1.4526965626 -0.1571128285
|  7> C -1.630822345 0.0083531123 0.3206839211
|  8> C -2.9411367173 -0.7427542979 0.0860180289
|  9> C -0.5120043683 -0.7245765979 -0.4063220344
| 10> Br 1.2488999897 -0.0022860791 0.0357306707
| 11> H -0.8133659996 1.9900897038 0.009913457
| 12> H -1.9770077594 1.4845811364 -1.2202753165
| 13> H -2.5350822051 1.9674167705 0.3829799206
| 14> H -1.4108658459 0.0063554631 1.3943606751
| 15> H -3.1776046551 -0.7737108718 -0.9758707656
| 16> H -3.7552227463 -0.2421542675 0.6038016991
| 17> H -2.8770945285 -1.7640822736 0.4553886195
| 18> H -0.6142834477 -0.6350329711 -1.4876487439
| 19> H -0.4775591273 -1.7773751755 -0.1275314728
| 20> *
| 21>
| 22>                          ****END OF INPUT****

CARTESIAN COORDINATES (ANGSTROEM)
---------------------------------
  C     -1.744334    1.452697   -0.157113
  C     -1.630822    0.008353    0.320684
  C     -2.941137   -0.742754    0.086018
  C     -0.512004   -0.724577   -0.406322
  Br     1.248900   -0.002286    0.035731
  H     -0.813366    1.990090    0.009913
  H     -1.977008    1.484581   -1.220275
  H     -2.535082    1.967417    0.382980
  H     -1.410866    0.006355    1.394361
  H     -3.177605   -0.773711   -0.975871
  H     -3.755223   -0.242154    0.603802
  H     -2.877095   -1.764082    0.455389
  H     -0.614283   -0.635033   -1.487649
  H     -0.477559   -1.777375   -0.127531

 Total Charge           Charge          ....    0
 Multiplicity           Mult            ....    1
 Number of Electrons    NEL             ....   68
 Basis Dimension        Dim             ....  106

ORBITAL ENERGIES
----------------

  NO   OCC          E(Eh)            E(eV)
   0   2.0000    -480.919220    -13086.4773
   1   2.0000     -61.761547     -1680.6171
   2   2.0000     -55.692145     -1515.4603
   3   2.0000     -55.689089     -1515.3772
   4   2.0000     -55.688984     -1515.3743
   5   2.0000      -9.937066      -270.4013
   6   2.0000      -9.908908      -269.6351
   7   2.0000      -9.885381      -268.9949
   8   2.0000      -9.876329      -268.7486
   9   2.0000      -8.386720      -228.2143
  10   2.0000      -6.268545      -170.5758
  11   2.0000      -6.254440      -170.1920
  12   2.0000      -6.254206      -170.1856
  13   2.0000      -2.469692       -67.2037
  14   2.0000      -2.466270       -67.1106
  15   2.0000      -2.466123       -67.1066
  16   2.0000      -2.455498       -66.8175
  17   2.0000      -2.455483       -66.8171
  18   2.0000      -0.757425       -20.6106
  19   2.0000      -0.699002       -19.0208
  20   2.0000      -0.619482       -16.8570
  21   2.0000      -0.596104       -16.2208
  22   2.0000      -0.510940       -13.9034
  23   2.0000      -0.432402       -11.7662
  24   2.0000      -0.402911       -10.9638
  25   2.0000      -0.396517       -10.7898
  26   2.0000      -0.365483        -9.9453
  27   2.0000      -0.348845        -9.4926
  28   2.0000      -0.330210        -8.9855
  29   2.0000      -0.310703        -8.4547
  30   2.0000      -0.300149        -8.1675
  31   2.0000      -0.296681        -8.0731
  32   2.0000      -0.233124        -6.3436
  33   2.0000      -0.231447        -6.2980
  34   0.0000      -0.022090        -0.6011
  35   0.0000       0.037095         1.0094
  36   0.0000       0.063382         1.7247
  37   0.0000       0.076122         2.0714
  38   0.0000       0.088283         2.4023

MULLIKEN ATOMIC CHARGES
-----------------------
   0 C :   -0.250460
   1 C :   -0.171379
   2 C :   -0.248494
   3 C :   -0.203144
   4 Br:   -0.116307
   5 H :    0.118139
   6 H :    0.093267
   7 H :    0.103121
   8 H :    0.092268
   9 H :    0.098381
  10 H :    0.110457
  11 H :    0.103978
  12 H :    0.132774
  13 H :    0.137398
Sum of atomic charges:   -0.0000000

LOEWDIN ATOMIC CHARGES
----------------------
   0 C :   -0.334907
   1 C :   -0.176638
   2 C :   -0.326774
   3 C :   -0.270404
   4 Br:    0.014487
   5 H :    0.119741
   6 H :    0.116923
   7 H :    0.120109
   8 H :    0.121366
   9 H :    0.118963
  10 H :    0.124398
  11 H :    0.119012
  12 H :    0.126909
  13 H :    0.126816

  Mayer bond orders larger than 0.100000
B(  0-C ,  1-C ) :   1.1056 B(  0-C ,  5-H ) :   0.9415 B(  0-C ,  6-H ) :   0.9491
B(  0-C ,  7-H ) :   0.9520 B(  1-C ,  2-C ) :   1.0974 B(  1-C ,  3-C ) :   1.0561
B(  1-C ,  8-H ) :   0.9026 B(  2-C ,  9-H ) :   0.9489 B(  2-C , 10-H ) :   0.9492
B(  2-C , 11-H ) :   0.9499 B(  3-C ,  4-Br) :   1.0452 B(  3-C , 12-H ) :   0.9190
B(  3-C , 13-H ) :   0.9264

Dispersion correction           -0.010899479
FINAL SINGLE POINT ENERGY     -2730.888242981030

DIPOLE MOMENT
-------------

Method             : SCF
Type of density    : Electron Density
Multiplicity       :   1
Irrep              :   0
Energy             : -2730.9412193294251665 Eh
Relativity type    :
Basis              : AO
                                X                 Y                 Z
Electronic contribution:     27.424901915      -0.466827132       1.155150481
Nuclear contribution   :    -28.143720013       0.261481734      -1.236990374
                        -----------------------------------------
Total Dipole Moment    :     -0.718818098      -0.205345398      -0.081839893
                        -----------------------------------------
Magnitude (a.u.)       :      0.752039865
Magnitude (Debye)      :      1.911533425

Rotational constants in cm-1:             0.252042             0.047128             0.041894
Rotational constants in MHz :          7556.031935          1412.869488          1255.958211

                             ****ORCA TERMINATED NORMALLY****
TOTAL RUN TIME: 0 days 0 hours 0 minutes 6 seconds 762 msec
