                         Program Version 6.0.1  -  RELEASE   -
|  1> ! pbe def2-sv(p) def2/J RI DEFGRID1 loosescf d4 GCP(DFT/SV(P)) printgap
|  2> %output
|  3>     printlevel normal
|  4> end
|  5> * xyz 0 1
|  6> C -1.5241968845 0.6500105032 -0.0660559068
|  7> C -1.2503626875 -0.7967212925 -0.4646485796
|  8> C -0.0869977004 -1.1795283004 0.4462043336
|  9> C 0.7986506743 0.0812876901 0.4926774887
| 10> C -0.1251924872 1.2479442795 0.09556705
| 11> O 1.8587512236 0.0401991061 -0.4409714495
| 12> H -2.056302762 0.6748324603 0.8867986661
| 13> H -2.1175379168 1.1860177456 -0.8048362239
| 14> H -2.1159171432 -1.4448361983 -0.3345103653
| 15> H -0.9318522672 -0.8391737284 -1.5067621632
| 16> H -0.4557581869 -1.405007973 1.4478982723
| 17> H 0.4667516938 -2.0439482477 0.0789479259
| 18> H 1.214816874 0.2220647788 1.5020042951
| 19> H -0.1003021364 2.0545258894 0.8254593283
| 20> H 0.2394175889 1.6336537638 -0.8562660025
| 21> H 2.4261393462 -0.711914638 -0.2418046826
| 22> *
| 23>
| 24>                          ****END OF INPUT****

CARTESIAN COORDINATES (ANGSTROEM)
---------------------------------
  C     -1.524197    0.650011   -0.066056
  C     -1.250363   -0.796721   -0.464649
  C     -0.086998   -1.179528    0.446204
  C      0.798651    0.081288    0.492677
  C     -0.125192    1.247944    0.095567
  O      1.858751    0.040199   -0.440971
  H     -2.056303    0.674832    0.886799
  H     -2.117538    1.186018   -0.804836
  H     -2.115917   -1.444836   -0.334510
  H     -0.931852   -0.839174   -1.506762
  H     -0.455758   -1.405008    1.447898
  H      0.466752   -2.043948    0.078948
  H      1.214817    0.222065    1.502004
  H     -0.100302    2.054526    0.825459
  H      0.239418    1.633654   -0.856266
  H      2.426139   -0.711915   -0.241805

 Total Charge           Charge          ....    0
 Multiplicity           Mult            ....    1
 Number of Electrons    NEL             ....   48
 Basis Dimension        Dim             ....  104

ORBITAL ENERGIES
----------------

  NO   OCC          E(Eh)            E(eV)
   0   2.0000     -18.737675      -509.8781
   1   2.0000      -9.930871      -270.2327
   2   2.0000      -9.879541      -268.8360
   3   2.0000      -9.879523      -268.8355
   4   2.0000      -9.879367      -268.8313
   5   2.0000      -9.874429      -268.6969
   6   2.0000      -0.916753       -24.9461
   7   2.0000      -0.749033       -20.3822
   8   2.0000      -0.636218       -17.3124
   9   2.0000      -0.622669       -16.9437
  10   2.0000      -0.516823       -14.0635
  11   2.0000      -0.497719       -13.5436
  12   2.0000      -0.451191       -12.2775
  13   2.0000      -0.435610       -11.8535
  14   2.0000      -0.416452       -11.3322
  15   2.0000      -0.372812       -10.1447
  16   2.0000      -0.332044        -9.0354
  17   2.0000      -0.321418        -8.7462
  18   2.0000      -0.308773        -8.4021
  19   2.0000      -0.295039        -8.0284
  20   2.0000      -0.293138        -7.9767
  21   2.0000      -0.282276        -7.6811
  22   2.0000      -0.259905        -7.0724
  23   2.0000      -0.207965        -5.6590
  24   0.0000       0.027451         0.7470
  25   0.0000       0.048491         1.3195
  26   0.0000       0.052761         1.4357
  27   0.0000       0.087860         2.3908
  28   0.0000       0.102416         2.7869

MULLIKEN ATOMIC CHARGES
-----------------------
   0 C :   -0.180731
   1 C :   -0.167926
   2 C :   -0.128153
   3 C :   -0.001825
   4 C :   -0.108883
   5 O :   -0.426479
   6 H :    0.079637
   7 H :    0.090072
   8 H :    0.090477
   9 H :    0.089643
  10 H :    0.073947
  11 H :    0.071072
  12 H :    0.051580
  13 H :    0.084923
  14 H :    0.091023
  15 H :    0.291624
Sum of atomic charges:    0.0000000

LOEWDIN ATOMIC CHARGES
----------------------
   0 C :   -0.228894
   1 C :   -0.227997
   2 C :   -0.244449
   3 C :   -0.050660
   4 C :   -0.232365
   5 O :   -0.332384
   6 H :    0.114039
   7 H :    0.117957
   8 H :    0.115364
   9 H :    0.118919
  10 H :    0.117159
  11 H :    0.113394
  12 H :    0.092166
  13 H :    0.119608
  14 H :    0.129657
  15 H :    0.278487

  Mayer bond orders larger than 0.100000
B(  0-C ,  1-C ) :   1.1266 B(  0-C ,  4-C ) :   1.1566 B(  0-C ,  6-H ) :   0.9190
B(  0-C ,  7-H ) :   0.9249 B(  1-C ,  2-C ) :   1.1131 B(  1-C ,  8-H ) :   0.9297
B(  1-C ,  9-H ) :   0.9233 B(  2-C ,  3-C ) :   1.1092 B(  2-C , 10-H ) :   0.9055
B(  2-C , 11-H ) :   0.9157 B(  3-C ,  4-C ) :   1.1104 B(  3-C ,  5-O ) :   1.0664
B(  3-C , 12-H ) :   0.9084 B(  4-C , 13-H ) :   0.9190 B(  4-C , 14-H ) :   0.8991
B(  5-O , 15-H ) :   0.8542

Dispersion correction           -0.012359573
FINAL SINGLE POINT ENERGY      -271.121775757244

DIPOLE MOMENT
-------------

Method             : SCF
Type of density    : Electron Density
Multiplicity       :   1
Irrep              :   0
Energy             :  -271.1844104057150844 Eh
Relativity type    :
Basis              : AO
                                X                 Y                 Z
Electronic contribution:      3.155035928       0.223432531      -0.569633445
Nuclear contribution   :     -3.190848169      -0.631526652       0.928743547
                        -----------------------------------------
Total Dipole Moment    :     -0.035812241      -0.408094121       0.359110102
                        -----------------------------------------
Magnitude (a.u.)       :      0.544778298
Magnitude (Debye)      :      1.384716387

Rotational constants in cm-1:             0.192671             0.110272             0.084866
Rotational constants in MHz :          5776.136807          3305.880212          2544.229522

                             ****ORCA TERMINATED NORMALLY****
TOTAL RUN TIME: 0 days 0 hours 0 minutes 16 seconds 220 msec
