                         Program Version 6.0.0  -   RELEASE  -
|  1> ! r2SCAN-3c DEF2-TZVP FREQ
|  2> * xyzfile 0 1 censo.xyz
|  3>
|  4>                          ****END OF INPUT****

CARTESIAN COORDINATES (ANGSTROEM)
---------------------------------
  C     -2.420777   -0.311523   -1.238027
  C     -1.722474    0.041564    0.046647
  C     -2.419653    0.321498    1.157902
  C     -0.239947    0.050008    0.037169
  C      0.479002   -0.768351   -0.847706
  C      1.871016   -0.773883   -0.847204
  C      2.577614    0.050071    0.024430
  C      1.877311    0.883458    0.895863
  C      0.487838    0.885576    0.900188
  H     -2.258171   -1.363031   -1.502669
  H     -3.497670   -0.151527   -1.147868
  H     -2.040613    0.289012   -2.072448
  H     -1.934248    0.533036    2.105794
  H     -3.505644    0.327353    1.144477
  H     -0.050049   -1.420958   -1.533941
  H      2.404428   -1.424410   -1.533762
  H      3.662946    0.051775    0.018567
  H      2.416870    1.545302    1.566504
  H     -0.042245    1.560578    1.564639

 Total Charge           Charge          ....    0
 Multiplicity           Mult            ....    1
 Number of Electrons    NEL             ....   64
 Basis Dimension        Dim             ....  339

ORBITAL ENERGIES
----------------

  NO   OCC          E(Eh)            E(eV)
   0   2.0000     -10.050384      -273.4849
   1   2.0000     -10.047883      -273.4168
   2   2.0000     -10.038400      -273.1587
   3   2.0000     -10.037919      -273.1457
   4   2.0000     -10.037850      -273.1438
   5   2.0000     -10.036954      -273.1194
   6   2.0000     -10.036818      -273.1157
   7   2.0000     -10.031429      -272.9691
   8   2.0000     -10.023249      -272.7465
   9   2.0000      -0.828176       -22.5358
  10   2.0000      -0.773397       -21.0452
  11   2.0000      -0.715291       -19.4640
  12   2.0000      -0.701370       -19.0852
  13   2.0000      -0.656021       -17.8512
  14   2.0000      -0.584570       -15.9070
  15   2.0000      -0.570661       -15.5285
  16   2.0000      -0.514969       -14.0130
  17   2.0000      -0.477961       -13.0060
  18   2.0000      -0.430922       -11.7260
  19   2.0000      -0.427835       -11.6420
  20   2.0000      -0.414289       -11.2734
  21   2.0000      -0.396091       -10.7782
  22   2.0000      -0.390895       -10.6368
  23   2.0000      -0.375204       -10.2098
  24   2.0000      -0.351309        -9.5596
  25   2.0000      -0.343982        -9.3602
  26   2.0000      -0.338278        -9.2050
  27   2.0000      -0.310501        -8.4492
  28   2.0000      -0.305406        -8.3105
  29   2.0000      -0.263871        -7.1803
  30   2.0000      -0.238189        -6.4814
  31   2.0000      -0.211462        -5.7542
  32   0.0000      -0.058354        -1.5879
  33   0.0000      -0.035453        -0.9647
  34   0.0000       0.013083         0.3560
  35   0.0000       0.049785         1.3547
  36   0.0000       0.071955         1.9580

MULLIKEN ATOMIC CHARGES
-----------------------
   0 C :   -0.325877
   1 C :   -0.005544
   2 C :   -0.261293
   3 C :    0.195290
   4 C :   -0.178993
   5 C :   -0.124783
   6 C :   -0.108742
   7 C :   -0.103947
   8 C :   -0.191007
   9 H :    0.113233
  10 H :    0.107040
  11 H :    0.123708
  12 H :    0.112520
  13 H :    0.110872
  14 H :    0.106069
  15 H :    0.106209
  16 H :    0.109653
  17 H :    0.106875
  18 H :    0.108719
Sum of atomic charges:    0.0000000

LOEWDIN ATOMIC CHARGES
----------------------
   0 C :   -0.251950
   1 C :   -0.189868
   2 C :   -0.177236
   3 C :   -0.108934
   4 C :   -0.104182
   5 C :   -0.140705
   6 C :   -0.142152
   7 C :   -0.139863
   8 C :   -0.098266
   9 H :    0.128265
  10 H :    0.126992
  11 H :    0.130699
  12 H :    0.122856
  13 H :    0.121660
  14 H :    0.146609
  15 H :    0.143031
  16 H :    0.142083
  17 H :    0.143202
  18 H :    0.147759

  Mayer bond orders larger than 0.100000
B(  0-C ,  1-C ) :   0.9606 B(  0-C ,  9-H ) :   0.9567 B(  0-C , 10-H ) :   0.9753
B(  0-C , 11-H ) :   0.9692 B(  1-C ,  2-C ) :   1.8258 B(  1-C ,  3-C ) :   0.9138
B(  2-C , 12-H ) :   0.9603 B(  2-C , 13-H ) :   0.9597 B(  3-C ,  4-C ) :   1.3070
B(  3-C ,  8-C ) :   1.3293 B(  4-C ,  5-C ) :   1.4247 B(  4-C , 14-H ) :   0.9706
B(  5-C ,  6-C ) :   1.3950 B(  5-C , 15-H ) :   0.9722 B(  6-C ,  7-C ) :   1.3753
B(  6-C , 16-H ) :   0.9688 B(  7-C ,  8-C ) :   1.4385 B(  7-C , 17-H ) :   0.9711
B(  8-C , 18-H ) :   0.9658

Dispersion correction           -0.006443106
FINAL SINGLE POINT ENERGY      -348.884855274635

DIPOLE MOMENT
-------------

Method             : SCF
Type of density    : Electron Density
Multiplicity       :   1
Irrep              :   0
Energy             :  -348.8837289414747147 Eh
Relativity type    :
Basis              : AO
                                X                 Y                 Z
Electronic contribution:      4.632780310       0.371740878       1.172804478
Nuclear contribution   :     -4.624393838      -0.406194415      -1.316693768
                        -----------------------------------------
Total Dipole Moment    :      0.008386472      -0.034453537      -0.143889290
                        -----------------------------------------
Magnitude (a.u.)       :      0.148194153
Magnitude (Debye)      :      0.376679601

VIBRATIONAL FREQUENCIES
-----------------------

Scaling factor for frequencies =  1.000000000  (already applied!)

     0:       0.00 cm**-1
     1:       0.00 cm**-1
     2:       0.00 cm**-1
     3:       0.00 cm**-1
     4:       0.00 cm**-1
     5:       0.00 cm**-1
     6:      64.90 cm**-1
     7:     147.46 cm**-1
     8:     225.44 cm**-1
     9:     250.05 cm**-1
    10:     359.95 cm**-1
    11:     390.38 cm**-1
    12:     413.76 cm**-1
    13:     493.28 cm**-1
    14:     539.23 cm**-1
    15:     562.77 cm**-1
    16:     636.92 cm**-1
    17:     703.29 cm**-1
    18:     713.38 cm**-1
    19:     750.81 cm**-1
    20:     796.63 cm**-1
    21:     845.73 cm**-1
    22:     905.86 cm**-1
    23:     917.07 cm**-1
    24:     940.16 cm**-1
    25:     956.74 cm**-1
    26:     976.71 cm**-1
    27:    1019.04 cm**-1
    28:    1021.37 cm**-1
    29:    1048.54 cm**-1
    30:    1063.30 cm**-1
    31:    1109.02 cm**-1
    32:    1139.89 cm**-1
    33:    1182.00 cm**-1
    34:    1206.23 cm**-1
    35:    1306.13 cm**-1
    36:    1335.89 cm**-1
    37:    1352.44 cm**-1
    38:    1398.20 cm**-1
    39:    1432.67 cm**-1
    40:    1469.31 cm**-1
    41:    1475.76 cm**-1
    42:    1490.23 cm**-1
    43:    1519.84 cm**-1
    44:    1603.74 cm**-1
    45:    1629.03 cm**-1
    46:    1666.21 cm**-1
    47:    3002.01 cm**-1
    48:    3060.90 cm**-1
    49:    3103.42 cm**-1
    50:    3121.75 cm**-1
    51:    3153.58 cm**-1
    52:    3160.21 cm**-1
    53:    3171.36 cm**-1
    54:    3178.24 cm**-1
    55:    3184.26 cm**-1
    56:    3208.61 cm**-1

IR SPECTRUM
-----------

 Mode   freq       eps      Int      T**2         TX        TY        TZ
       cm**-1   L/(mol*cm) km/mol    a.u.
----------------------------------------------------------------------------
  6:     64.90   0.000028    0.14  0.000135  (-0.001540 -0.008146  0.008158)
  7:    147.46   0.000248    1.26  0.000526  (-0.004052 -0.018146  0.013423)
  8:    225.44   0.000166    0.84  0.000229  (-0.002946 -0.014521  0.003151)
  9:    250.05   0.000061    0.31  0.000076  ( 0.008610 -0.001317 -0.000732)
 10:    359.95   0.000136    0.69  0.000118  (-0.003394 -0.007305  0.007308)
 11:    390.38   0.000486    2.46  0.000389  ( 0.011221  0.015809 -0.003585)
 12:    413.76   0.000004    0.02  0.000003  (-0.000035  0.001526  0.000772)
 13:    493.28   0.001303    6.58  0.000824  ( 0.011892 -0.021324  0.015106)
 14:    539.23   0.000662    3.35  0.000383  (-0.019116 -0.001425 -0.003958)
 15:    562.77   0.000742    3.75  0.000411  ( 0.006248 -0.004755  0.018701)
 16:    636.92   0.000011    0.06  0.000005  (-0.000226  0.000399 -0.002284)
 17:    703.29   0.002516   12.72  0.001116  ( 0.002748  0.023736 -0.023356)
 18:    713.38   0.008411   42.50  0.003679  (-0.008317  0.044380 -0.040502)
 19:    750.81   0.000129    0.65  0.000054  ( 0.005614  0.002717 -0.003826)
 20:    796.63   0.004839   24.45  0.001896  ( 0.013184  0.031375 -0.027156)
 21:    845.73   0.000050    0.26  0.000019  (-0.003919  0.001654  0.000732)
 22:    905.86   0.008694   43.94  0.002995  ( 0.006247  0.052167 -0.015316)
 23:    917.07   0.000155    0.78  0.000053  ( 0.002671 -0.003318 -0.005874)
 24:    940.16   0.000114    0.58  0.000038  ( 0.002177  0.002369  0.005251)
 25:    956.74   0.000066    0.33  0.000022  ( 0.004402  0.001406 -0.000414)
 26:    976.71   0.000008    0.04  0.000002  (-0.000158 -0.001540 -0.000047)
 27:   1019.04   0.000149    0.75  0.000046  ( 0.000824 -0.002282 -0.006299)
 28:   1021.37   0.000315    1.59  0.000096  (-0.004230  0.005159  0.007189)
 29:   1048.54   0.001122    5.67  0.000334  ( 0.018262  0.000507 -0.000216)
 30:   1063.30   0.000106    0.54  0.000031  ( 0.000338  0.001803  0.005275)
 31:   1109.02   0.000839    4.24  0.000236  (-0.000511  0.011404  0.010282)
 32:   1139.89   0.000326    1.65  0.000089  ( 0.008515 -0.000514 -0.004061)
 33:   1182.00   0.000003    0.02  0.000001  ( 0.000537 -0.000554 -0.000524)
 34:   1206.23   0.000079    0.40  0.000020  (-0.004289 -0.000935 -0.001029)
 35:   1306.13   0.000978    4.94  0.000234  (-0.015117 -0.000108 -0.002248)
 36:   1335.89   0.001277    6.45  0.000298  ( 0.016115  0.001868  0.005920)
 37:   1352.44   0.000015    0.07  0.000003  ( 0.001381 -0.001169  0.000332)
 38:   1398.20   0.001780    9.00  0.000397  (-0.013236 -0.005793 -0.013734)
 39:   1432.67   0.000167    0.84  0.000036  ( 0.002076  0.001888  0.005334)
 40:   1469.31   0.001633    8.25  0.000347  ( 0.003239  0.017621  0.005084)
 41:   1475.76   0.001098    5.55  0.000232  ( 0.001138 -0.011270  0.010187)
 42:   1490.23   0.003187   16.10  0.000667  ( 0.024514  0.000205 -0.008147)
 43:   1519.84   0.001707    8.63  0.000351  (-0.018390  0.002365  0.002605)
 44:   1603.74   0.000986    4.98  0.000192  (-0.007090  0.007730  0.009046)
 45:   1629.03   0.000436    2.20  0.000083  (-0.009060 -0.000790 -0.000872)
 46:   1666.21   0.003893   19.67  0.000729  (-0.013165  0.004576  0.023127)
 47:   3002.01   0.003853   19.47  0.000401  ( 0.005758  0.005994  0.018206)
 48:   3060.90   0.002714   13.71  0.000277  (-0.000774  0.015251 -0.006594)
 49:   3103.42   0.004332   21.89  0.000436  (-0.020685  0.000793  0.002665)
 50:   3121.75   0.001224    6.19  0.000122  (-0.007969  0.001584  0.007505)
 51:   3153.58   0.000316    1.60  0.000031  (-0.005585  0.000149  0.000307)
 52:   3160.21   0.000830    4.20  0.000082  ( 0.001178  0.005931  0.006740)
 53:   3171.36   0.003193   16.13  0.000314  (-0.016053  0.005666  0.004935)
 54:   3178.24   0.004933   24.93  0.000484  (-0.010130 -0.014042 -0.013586)
 55:   3184.26   0.001547    7.82  0.000152  ( 0.009863 -0.004882 -0.005519)
 56:   3208.61   0.002426   12.26  0.000236  (-0.013671 -0.001281 -0.006884)

--------------------------
THERMOCHEMISTRY AT 298.15K
--------------------------

Temperature         ...   298.15 K
Pressure            ...     1.00 atm
Total Mass          ...   118.18 AMU
Quasi RRHO          ...     True
Cut-Off Frequency   ...     1.00 cm^-1

Throughout the following assumptions are being made:
  (1) The electronic state is orbitally nondegenerate
  (2) There are no thermally accessible electronically excited states
  (3) Hindered rotations indicated by low frequency modes are not
      treated as such but are treated as vibrations and this may
      cause some error
  (4) All equations used are the standard statistical mechanics
      equations for an ideal gas
  (5) All vibrations are strictly harmonic

freq.      64.90  E(vib)   ...       0.50
freq.     147.46  E(vib)   ...       0.41
freq.     225.44  E(vib)   ...       0.33
freq.     250.05  E(vib)   ...       0.31
freq.     359.95  E(vib)   ...       0.22
freq.     390.38  E(vib)   ...       0.20
freq.     413.76  E(vib)   ...       0.19
freq.     493.28  E(vib)   ...       0.14
freq.     539.23  E(vib)   ...       0.12
freq.     562.77  E(vib)   ...       0.11
freq.     636.92  E(vib)   ...       0.09
freq.     703.29  E(vib)   ...       0.07
freq.     713.38  E(vib)   ...       0.07
freq.     750.81  E(vib)   ...       0.06
freq.     796.63  E(vib)   ...       0.05
freq.     845.73  E(vib)   ...       0.04
freq.     905.86  E(vib)   ...       0.03
freq.     917.07  E(vib)   ...       0.03
freq.     940.16  E(vib)   ...       0.03
freq.     956.74  E(vib)   ...       0.03
freq.     976.71  E(vib)   ...       0.03
freq.    1019.04  E(vib)   ...       0.02
freq.    1021.37  E(vib)   ...       0.02
freq.    1048.54  E(vib)   ...       0.02
freq.    1063.30  E(vib)   ...       0.02
freq.    1109.02  E(vib)   ...       0.02
freq.    1139.89  E(vib)   ...       0.01
freq.    1182.00  E(vib)   ...       0.01
freq.    1206.23  E(vib)   ...       0.01
freq.    1306.13  E(vib)   ...       0.01
freq.    1335.89  E(vib)   ...       0.01
freq.    1352.44  E(vib)   ...       0.01
freq.    1398.20  E(vib)   ...       0.00
freq.    1432.67  E(vib)   ...       0.00
freq.    1469.31  E(vib)   ...       0.00
freq.    1475.76  E(vib)   ...       0.00
freq.    1490.23  E(vib)   ...       0.00
freq.    1519.84  E(vib)   ...       0.00
freq.    1603.74  E(vib)   ...       0.00
freq.    1629.03  E(vib)   ...       0.00
freq.    1666.21  E(vib)   ...       0.00
freq.    3002.01  E(vib)   ...       0.00
freq.    3060.90  E(vib)   ...       0.00
freq.    3103.42  E(vib)   ...       0.00
freq.    3121.75  E(vib)   ...       0.00
freq.    3153.58  E(vib)   ...       0.00
freq.    3160.21  E(vib)   ...       0.00
freq.    3171.36  E(vib)   ...       0.00
freq.    3178.24  E(vib)   ...       0.00
freq.    3184.26  E(vib)   ...       0.00
freq.    3208.61  E(vib)   ...       0.00

------------
INNER ENERGY
------------

The inner energy is: U= E(el) + E(ZPE) + E(vib) + E(rot) + E(trans)
    E(el)   - is the total energy from the electronic structure calculation
              = E(kin-el) + E(nuc-el) + E(el-el) + E(nuc-nuc)
    E(ZPE)  - the the zero temperature vibrational energy from the frequency calculation
    E(vib)  - the the finite temperature correction to E(ZPE) due to population
              of excited vibrational states
    E(rot)  - is the rotational thermal energy
    E(trans)- is the translational thermal energy

Summary of contributions to the inner energy U:
Electronic energy                ...   -348.88485527 Eh
Zero point energy                ...      0.16039144 Eh     100.65 kcal/mol
Thermal vibrational correction   ...      0.00514579 Eh       3.23 kcal/mol
Thermal rotational correction    ...      0.00141627 Eh       0.89 kcal/mol
Thermal translational correction ...      0.00141627 Eh       0.89 kcal/mol
-----------------------------------------------------------------------
Total thermal energy                   -348.71648550 Eh

Summary of corrections to the electronic energy:
(perhaps to be used in another calculation)
Total thermal correction                  0.00797834 Eh       5.01 kcal/mol
Non-thermal (ZPE) correction              0.16039144 Eh     100.65 kcal/mol
-----------------------------------------------------------------------
Total correction                          0.16836977 Eh     105.65 kcal/mol

--------
ENTHALPY
--------

The enthalpy is H = U + kB*T
                kB is Boltzmann's constant
Total thermal energy              ...   -348.71648550 Eh
Thermal Enthalpy correction       ...      0.00094421 Eh       0.59 kcal/mol
-----------------------------------------------------------------------
Total Enthalpy                    ...   -348.71554129 Eh

Note: Only C1 symmetry has been detected, increase convergence thresholds
      if your molecule has a higher symmetry. Symmetry factor of 1.0 is
      used for the rotational entropy correction.

Note: Rotational entropy computed according to Herzberg
Infrared and Raman Spectra, Chapter V,1, Van Nostrand Reinhold, 1945
Point Group:  C1, Symmetry Number:   1
Rotational constants in cm-1:     0.119531     0.040178     0.031114

Vibrational entropy computed according to the QRRHO of S. Grimme
Chem.Eur.J. 2012 18 9955 using a reference frequency of 100.0 cm-1

-------
ENTROPY
-------

The entropy contributions are T*S = T*(S(el)+S(vib)+S(rot)+S(trans))
     S(el)   - electronic entropy
     S(vib)  - vibrational entropy
     S(rot)  - rotational entropy
     S(trans)- translational entropy
The entropies will be listed as multiplied by the temperature to get
units of energy

Electronic entropy                ...      0.00000000 Eh      0.00 kcal/mol
Vibrational entropy               ...      0.00830323 Eh      5.21 kcal/mol
Rotational entropy                ...      0.01366932 Eh      8.58 kcal/mol
Translational entropy             ...      0.01910780 Eh     11.99 kcal/mol
-----------------------------------------------------------------------
Final entropy term                ...      0.04108035 Eh     25.78 kcal/mol

In case the symmetry of your molecule has not been determined correctly
or in case you have a reason to use a different symmetry number we print
out the resulting rotational entropy values for sn=1,12:

 non-linear molecules -----------------------------------
|  sn= 1 | S(rot)=       0.01366932 Eh      8.58 kcal/mol|
|  sn= 2 | S(rot)=       0.01301486 Eh      8.17 kcal/mol|
|  sn= 3 | S(rot)=       0.01263203 Eh      7.93 kcal/mol|
|  sn= 4 | S(rot)=       0.01236041 Eh      7.76 kcal/mol|
|  sn= 5 | S(rot)=       0.01214972 Eh      7.62 kcal/mol|
|  sn= 6 | S(rot)=       0.01197757 Eh      7.52 kcal/mol|
|  sn= 7 | S(rot)=       0.01183203 Eh      7.42 kcal/mol|
|  sn= 8 | S(rot)=       0.01170595 Eh      7.35 kcal/mol|
|  sn= 9 | S(rot)=       0.01159474 Eh      7.28 kcal/mol|

                             ****ORCA TERMINATED NORMALLY****
TOTAL RUN TIME: 0 days 0 hours 17 minutes 18 seconds 891 msec
