                         Program Version 6.0.0  -   RELEASE  -
|  1> ! r2SCAN-3c DEF2-TZVP FREQ
|  2> * xyzfile 0 1 vacuum_censo.xyz
|  3>
|  4>                          ****END OF INPUT****

CARTESIAN COORDINATES (ANGSTROEM)
---------------------------------
  C     -2.465357   -1.128946    0.450469
  C     -1.724055    0.095427   -0.015528
  C     -2.383280    1.182359   -0.436600
  C     -0.244621    0.042907   -0.005116
  C      0.517481    1.197907    0.223375
  C      1.904992    1.154577    0.214141
  C      2.569047   -0.047711   -0.016200
  C      1.828559   -1.206004   -0.226430
  C      0.438805   -1.163031   -0.212535
  H     -2.096013   -1.465584    1.424400
  H     -3.534848   -0.926946    0.528400
  H     -2.335778   -1.963031   -0.247699
  H     -1.864523    2.050848   -0.827356
  H     -3.467669    1.218046   -0.424937
  H      0.011036    2.132896    0.438890
  H      2.471780    2.061160    0.401562
  H      3.653519   -0.082341   -0.020271
  H      2.334438   -2.150218   -0.401989
  H     -0.118673   -2.077343   -0.383766

 Total Charge           Charge          ....    0
 Multiplicity           Mult            ....    1
 Number of Electrons    NEL             ....   64
 Basis Dimension        Dim             ....  339

ORBITAL ENERGIES
----------------

  NO   OCC          E(Eh)            E(eV)
   0   2.0000     -10.049760      -273.4679
   1   2.0000     -10.047104      -273.3956
   2   2.0000     -10.037980      -273.1473
   3   2.0000     -10.037489      -273.1340
   4   2.0000     -10.037357      -273.1304
   5   2.0000     -10.036456      -273.1058
   6   2.0000     -10.036162      -273.0978
   7   2.0000     -10.030950      -272.9560
   8   2.0000     -10.022496      -272.7260
   9   2.0000      -0.828910       -22.5558
  10   2.0000      -0.773770       -21.0554
  11   2.0000      -0.715452       -19.4684
  12   2.0000      -0.701787       -19.0966
  13   2.0000      -0.656155       -17.8549
  14   2.0000      -0.584625       -15.9085
  15   2.0000      -0.571119       -15.5409
  16   2.0000      -0.515318       -14.0225
  17   2.0000      -0.477619       -12.9967
  18   2.0000      -0.431252       -11.7350
  19   2.0000      -0.428070       -11.6484
  20   2.0000      -0.413932       -11.2637
  21   2.0000      -0.396832       -10.7983
  22   2.0000      -0.390797       -10.6341
  23   2.0000      -0.375623       -10.2212
  24   2.0000      -0.351683        -9.5698
  25   2.0000      -0.344073        -9.3627
  26   2.0000      -0.337684        -9.1889
  27   2.0000      -0.310617        -8.4523
  28   2.0000      -0.305359        -8.3092
  29   2.0000      -0.263045        -7.1578
  30   2.0000      -0.238269        -6.4836
  31   2.0000      -0.212160        -5.7732
  32   0.0000      -0.057056        -1.5526
  33   0.0000      -0.035232        -0.9587
  34   0.0000       0.012294         0.3345
  35   0.0000       0.050162         1.3650
  36   0.0000       0.072095         1.9618

MULLIKEN ATOMIC CHARGES
-----------------------
   0 C :   -0.324329
   1 C :   -0.003680
   2 C :   -0.267492
   3 C :    0.195378
   4 C :   -0.192359
   5 C :   -0.104931
   6 C :   -0.107379
   7 C :   -0.123736
   8 C :   -0.179771
   9 H :    0.123023
  10 H :    0.106793
  11 H :    0.112652
  12 H :    0.114673
  13 H :    0.111083
  14 H :    0.112551
  15 H :    0.106719
  16 H :    0.109355
  17 H :    0.106193
  18 H :    0.105258
Sum of atomic charges:   -0.0000000

LOEWDIN ATOMIC CHARGES
----------------------
   0 C :   -0.250782
   1 C :   -0.190200
   2 C :   -0.177155
   3 C :   -0.110043
   4 C :   -0.098648
   5 C :   -0.139816
   6 C :   -0.142302
   7 C :   -0.140671
   8 C :   -0.103565
   9 H :    0.130352
  10 H :    0.126653
  11 H :    0.127884
  12 H :    0.123334
  13 H :    0.121438
  14 H :    0.148338
  15 H :    0.143341
  16 H :    0.142179
  17 H :    0.143161
  18 H :    0.146503

  Mayer bond orders larger than 0.100000
B(  0-C ,  1-C ) :   0.9615 B(  0-C ,  9-H ) :   0.9687 B(  0-C , 10-H ) :   0.9756
B(  0-C , 11-H ) :   0.9574 B(  1-C ,  2-C ) :   1.8292 B(  1-C ,  3-C ) :   0.9069
B(  2-C , 12-H ) :   0.9613 B(  2-C , 13-H ) :   0.9598 B(  3-C ,  4-C ) :   1.3323
B(  3-C ,  8-C ) :   1.3069 B(  4-C ,  5-C ) :   1.4362 B(  4-C , 14-H ) :   0.9647
B(  5-C ,  6-C ) :   1.3776 B(  5-C , 15-H ) :   0.9714 B(  6-C ,  7-C ) :   1.3940
B(  6-C , 16-H ) :   0.9689 B(  7-C ,  8-C ) :   1.4259 B(  7-C , 17-H ) :   0.9723
B(  8-C , 18-H ) :   0.9713

Dispersion correction           -0.006447339
FINAL SINGLE POINT ENERGY      -348.884851309405

DIPOLE MOMENT
-------------

Method             : SCF
Type of density    : Electron Density
Multiplicity       :   1
Irrep              :   0
Energy             :  -348.8836991184797398 Eh
Relativity type    :
Basis              : AO
                                X                 Y                 Z
Electronic contribution:      4.669969779       1.013962641      -0.387469980
Nuclear contribution   :     -4.666103094      -1.153502921       0.441409620
                        -----------------------------------------
Total Dipole Moment    :      0.003866685      -0.139540280       0.053939640
                        -----------------------------------------
Magnitude (a.u.)       :      0.149652684
Magnitude (Debye)      :      0.380386893

VIBRATIONAL FREQUENCIES
-----------------------

Scaling factor for frequencies =  1.000000000  (already applied!)

     0:       0.00 cm**-1
     1:       0.00 cm**-1
     2:       0.00 cm**-1
     3:       0.00 cm**-1
     4:       0.00 cm**-1
     5:       0.00 cm**-1
     6:      54.79 cm**-1
     7:     141.43 cm**-1
     8:     201.09 cm**-1
     9:     237.03 cm**-1
    10:     354.82 cm**-1
    11:     384.22 cm**-1
    12:     411.69 cm**-1
    13:     495.92 cm**-1
    14:     537.16 cm**-1
    15:     559.85 cm**-1
    16:     636.86 cm**-1
    17:     703.11 cm**-1
    18:     710.59 cm**-1
    19:     751.88 cm**-1
    20:     794.81 cm**-1
    21:     845.42 cm**-1
    22:     902.49 cm**-1
    23:     917.29 cm**-1
    24:     938.48 cm**-1
    25:     956.73 cm**-1
    26:     977.06 cm**-1
    27:    1016.04 cm**-1
    28:    1022.80 cm**-1
    29:    1051.27 cm**-1
    30:    1061.23 cm**-1
    31:    1110.23 cm**-1
    32:    1140.60 cm**-1
    33:    1182.82 cm**-1
    34:    1207.43 cm**-1
    35:    1309.79 cm**-1
    36:    1339.41 cm**-1
    37:    1356.37 cm**-1
    38:    1395.90 cm**-1
    39:    1432.64 cm**-1
    40:    1470.04 cm**-1
    41:    1476.18 cm**-1
    42:    1487.90 cm**-1
    43:    1522.88 cm**-1
    44:    1609.32 cm**-1
    45:    1635.03 cm**-1
    46:    1672.86 cm**-1
    47:    3012.54 cm**-1
    48:    3073.19 cm**-1
    49:    3114.54 cm**-1
    50:    3132.31 cm**-1
    51:    3155.79 cm**-1
    52:    3162.74 cm**-1
    53:    3174.22 cm**-1
    54:    3180.59 cm**-1
    55:    3186.55 cm**-1
    56:    3219.17 cm**-1

IR SPECTRUM
-----------

 Mode   freq       eps      Int      T**2         TX        TY        TZ
       cm**-1   L/(mol*cm) km/mol    a.u.
----------------------------------------------------------------------------
  6:     54.79   0.000023    0.12  0.000133  ( 0.001230 -0.001368  0.011387)
  7:    141.43   0.000215    1.09  0.000475  ( 0.004324 -0.002020  0.021261)
  8:    201.09   0.000163    0.83  0.000254  (-0.007292 -0.004632 -0.013382)
  9:    237.03   0.000082    0.42  0.000109  ( 0.006841 -0.003635 -0.006969)
 10:    354.82   0.000152    0.77  0.000133  ( 0.003820 -0.002175  0.010684)
 11:    384.22   0.000462    2.33  0.000375  ( 0.011393  0.005665  0.014594)
 12:    411.69   0.000003    0.02  0.000003  (-0.000256  0.001592 -0.000056)
 13:    495.92   0.001422    7.18  0.000895  (-0.011617  0.000069  0.027562)
 14:    537.16   0.000646    3.27  0.000375  ( 0.019034  0.003413 -0.001234)
 15:    559.85   0.000826    4.18  0.000461  (-0.006363 -0.014040  0.014930)
 16:    636.86   0.000011    0.06  0.000005  ( 0.000168  0.001743 -0.001513)
 17:    703.11   0.001931    9.76  0.000857  (-0.003441  0.005902 -0.028465)
 18:    710.59   0.008812   44.53  0.003870  ( 0.008745  0.010346 -0.060716)
 19:    751.88   0.000116    0.59  0.000048  (-0.005551  0.001525 -0.003885)
 20:    794.81   0.005036   25.45  0.001977  (-0.014175  0.006142 -0.041698)
 21:    845.42   0.000056    0.28  0.000021  (-0.003984  0.002142  0.000303)
 22:    902.49   0.008665   43.79  0.002996  (-0.006698 -0.018629 -0.051033)
 23:    917.29   0.000225    1.14  0.000077  (-0.002905  0.007604 -0.003218)
 24:    938.48   0.000122    0.62  0.000041  (-0.002134 -0.006010 -0.000206)
 25:    956.73   0.000085    0.43  0.000028  (-0.005058  0.000284 -0.001417)
 26:    977.06   0.000005    0.03  0.000002  ( 0.000025  0.000699  0.001049)
 27:   1016.04   0.000406    2.05  0.000125  (-0.003319  0.010549 -0.001570)
 28:   1022.80   0.000053    0.27  0.000016  ( 0.002319 -0.003072 -0.001207)
 29:   1051.27   0.001102    5.57  0.000327  ( 0.018051 -0.000955  0.000681)
 30:   1061.23   0.000116    0.59  0.000034  (-0.001823 -0.005328  0.001577)
 31:   1110.23   0.000861    4.35  0.000242  (-0.000388 -0.014981 -0.004180)
 32:   1140.60   0.000370    1.87  0.000101  (-0.009249  0.003602 -0.001649)
 33:   1182.82   0.000003    0.01  0.000001  (-0.000453  0.000623  0.000333)
 34:   1207.43   0.000054    0.27  0.000014  (-0.003559 -0.001075 -0.000311)
 35:   1309.79   0.001097    5.54  0.000261  ( 0.015997  0.001690 -0.001597)
 36:   1339.41   0.001049    5.30  0.000244  (-0.014508 -0.005538  0.001773)
 37:   1356.37   0.000062    0.31  0.000014  ( 0.003357  0.000613 -0.001619)
 38:   1395.90   0.001785    9.02  0.000399  ( 0.013896  0.014011 -0.003118)
 39:   1432.64   0.000171    0.86  0.000037  ( 0.002608  0.005220 -0.001787)
 40:   1470.04   0.001986   10.04  0.000422  (-0.002124 -0.014109 -0.014767)
 41:   1476.18   0.000769    3.89  0.000163  (-0.001527 -0.005225  0.011530)
 42:   1487.90   0.003010   15.21  0.000631  (-0.023365  0.007250 -0.005724)
 43:   1522.88   0.001733    8.76  0.000355  ( 0.018355 -0.004268 -0.000198)
 44:   1609.32   0.000918    4.64  0.000178  ( 0.006201 -0.011727 -0.001413)
 45:   1635.03   0.000437    2.21  0.000083  ( 0.009112  0.000358  0.000449)
 46:   1672.86   0.003893   19.67  0.000726  ( 0.012458 -0.021812  0.009759)
 47:   3012.54   0.003879   19.61  0.000402  (-0.006433 -0.018159  0.005543)
 48:   3073.19   0.002669   13.49  0.000271  ( 0.001757 -0.003101 -0.016073)
 49:   3114.54   0.004317   21.82  0.000433  ( 0.020509 -0.003149  0.001423)
 50:   3132.31   0.001226    6.20  0.000122  (-0.007803  0.007186 -0.003108)
 51:   3155.79   0.000311    1.57  0.000031  ( 0.005535 -0.000246  0.000159)
 52:   3162.74   0.000866    4.37  0.000085  ( 0.001123  0.009070  0.001373)
 53:   3174.22   0.003279   16.57  0.000322  ( 0.017065 -0.005352 -0.001588)
 54:   3180.59   0.005073   25.64  0.000498  (-0.008395 -0.020221 -0.004290)
 55:   3186.55   0.001543    7.80  0.000151  (-0.010616  0.006155  0.000684)
 56:   3219.17   0.002422   12.24  0.000235  (-0.013878 -0.005786  0.002944)

--------------------------
THERMOCHEMISTRY AT 298.15K
--------------------------

Temperature         ...   298.15 K
Pressure            ...     1.00 atm
Total Mass          ...   118.18 AMU
Quasi RRHO          ...     True
Cut-Off Frequency   ...     1.00 cm^-1

Throughout the following assumptions are being made:
  (1) The electronic state is orbitally nondegenerate
  (2) There are no thermally accessible electronically excited states
  (3) Hindered rotations indicated by low frequency modes are not
      treated as such but are treated as vibrations and this may
      cause some error
  (4) All equations used are the standard statistical mechanics
      equations for an ideal gas
  (5) All vibrations are strictly harmonic

freq.      54.79  E(vib)   ...       0.52
freq.     141.43  E(vib)   ...       0.41
freq.     201.09  E(vib)   ...       0.35
freq.     237.03  E(vib)   ...       0.32
freq.     354.82  E(vib)   ...       0.22
freq.     384.22  E(vib)   ...       0.20
freq.     411.69  E(vib)   ...       0.19
freq.     495.92  E(vib)   ...       0.14
freq.     537.16  E(vib)   ...       0.12
freq.     559.85  E(vib)   ...       0.12
freq.     636.86  E(vib)   ...       0.09
freq.     703.11  E(vib)   ...       0.07
freq.     710.59  E(vib)   ...       0.07
freq.     751.88  E(vib)   ...       0.06
freq.     794.81  E(vib)   ...       0.05
freq.     845.42  E(vib)   ...       0.04
freq.     902.49  E(vib)   ...       0.03
freq.     917.29  E(vib)   ...       0.03
freq.     938.48  E(vib)   ...       0.03
freq.     956.73  E(vib)   ...       0.03
freq.     977.06  E(vib)   ...       0.03
freq.    1016.04  E(vib)   ...       0.02
freq.    1022.80  E(vib)   ...       0.02
freq.    1051.27  E(vib)   ...       0.02
freq.    1061.23  E(vib)   ...       0.02
freq.    1110.23  E(vib)   ...       0.02
freq.    1140.60  E(vib)   ...       0.01
freq.    1182.82  E(vib)   ...       0.01
freq.    1207.43  E(vib)   ...       0.01
freq.    1309.79  E(vib)   ...       0.01
freq.    1339.41  E(vib)   ...       0.01
freq.    1356.37  E(vib)   ...       0.01
freq.    1395.90  E(vib)   ...       0.00
freq.    1432.64  E(vib)   ...       0.00
freq.    1470.04  E(vib)   ...       0.00
freq.    1476.18  E(vib)   ...       0.00
freq.    1487.90  E(vib)   ...       0.00
freq.    1522.88  E(vib)   ...       0.00
freq.    1609.32  E(vib)   ...       0.00
freq.    1635.03  E(vib)   ...       0.00
freq.    1672.86  E(vib)   ...       0.00
freq.    3012.54  E(vib)   ...       0.00
freq.    3073.19  E(vib)   ...       0.00
freq.    3114.54  E(vib)   ...       0.00
freq.    3132.31  E(vib)   ...       0.00
freq.    3155.79  E(vib)   ...       0.00
freq.    3162.74  E(vib)   ...       0.00
freq.    3174.22  E(vib)   ...       0.00
freq.    3180.59  E(vib)   ...       0.00
freq.    3186.55  E(vib)   ...       0.00
freq.    3219.17  E(vib)   ...       0.00

------------
INNER ENERGY
------------

The inner energy is: U= E(el) + E(ZPE) + E(vib) + E(rot) + E(trans)
    E(el)   - is the total energy from the electronic structure calculation
              = E(kin-el) + E(nuc-el) + E(el-el) + E(nuc-nuc)
    E(ZPE)  - the the zero temperature vibrational energy from the frequency calculation
    E(vib)  - the the finite temperature correction to E(ZPE) due to population
              of excited vibrational states
    E(rot)  - is the rotational thermal energy
    E(trans)- is the translational thermal energy

Summary of contributions to the inner energy U:
Electronic energy                ...   -348.88485131 Eh
Zero point energy                ...      0.16044029 Eh     100.68 kcal/mol
Thermal vibrational correction   ...      0.00524924 Eh       3.29 kcal/mol
Thermal rotational correction    ...      0.00141627 Eh       0.89 kcal/mol
Thermal translational correction ...      0.00141627 Eh       0.89 kcal/mol
-----------------------------------------------------------------------
Total thermal energy                   -348.71632924 Eh

Summary of corrections to the electronic energy:
(perhaps to be used in another calculation)
Total thermal correction                  0.00808179 Eh       5.07 kcal/mol
Non-thermal (ZPE) correction              0.16044029 Eh     100.68 kcal/mol
-----------------------------------------------------------------------
Total correction                          0.16852207 Eh     105.75 kcal/mol

--------
ENTHALPY
--------

The enthalpy is H = U + kB*T
                kB is Boltzmann's constant
Total thermal energy              ...   -348.71632924 Eh
Thermal Enthalpy correction       ...      0.00094421 Eh       0.59 kcal/mol
-----------------------------------------------------------------------
Total Enthalpy                    ...   -348.71538503 Eh

Note: Only C1 symmetry has been detected, increase convergence thresholds
      if your molecule has a higher symmetry. Symmetry factor of 1.0 is
      used for the rotational entropy correction.

Note: Rotational entropy computed according to Herzberg
Infrared and Raman Spectra, Chapter V,1, Van Nostrand Reinhold, 1945
Point Group:  C1, Symmetry Number:   1
Rotational constants in cm-1:     0.119800     0.040096     0.031262

Vibrational entropy computed according to the QRRHO of S. Grimme
Chem.Eur.J. 2012 18 9955 using a reference frequency of 100.0 cm-1

-------
ENTROPY
-------

The entropy contributions are T*S = T*(S(el)+S(vib)+S(rot)+S(trans))
     S(el)   - electronic entropy
     S(vib)  - vibrational entropy
     S(rot)  - rotational entropy
     S(trans)- translational entropy
The entropies will be listed as multiplied by the temperature to get
units of energy

Electronic entropy                ...      0.00000000 Eh      0.00 kcal/mol
Vibrational entropy               ...      0.00856003 Eh      5.37 kcal/mol
Rotational entropy                ...      0.01366698 Eh      8.58 kcal/mol
Translational entropy             ...      0.01910780 Eh     11.99 kcal/mol
-----------------------------------------------------------------------
Final entropy term                ...      0.04133481 Eh     25.94 kcal/mol

In case the symmetry of your molecule has not been determined correctly
or in case you have a reason to use a different symmetry number we print
out the resulting rotational entropy values for sn=1,12:

 non-linear molecules -----------------------------------
|  sn= 1 | S(rot)=       0.01366698 Eh      8.58 kcal/mol|
|  sn= 2 | S(rot)=       0.01301252 Eh      8.17 kcal/mol|
|  sn= 3 | S(rot)=       0.01262969 Eh      7.93 kcal/mol|
|  sn= 4 | S(rot)=       0.01235807 Eh      7.75 kcal/mol|
|  sn= 5 | S(rot)=       0.01214738 Eh      7.62 kcal/mol|
|  sn= 6 | S(rot)=       0.01197523 Eh      7.51 kcal/mol|
|  sn= 7 | S(rot)=       0.01182969 Eh      7.42 kcal/mol|
|  sn= 8 | S(rot)=       0.01170361 Eh      7.34 kcal/mol|
|  sn= 9 | S(rot)=       0.01159240 Eh      7.27 kcal/mol|

                             ****ORCA TERMINATED NORMALLY****
TOTAL RUN TIME: 0 days 0 hours 16 minutes 59 seconds 762 msec
