                         Program Version 6.0.1  -  RELEASE   -
|  1> ! pbe def2-sv(p) def2/J RI DEFGRID1 loosescf d4 GCP(DFT/SV(P)) printgap
|  2> %output
|  3>     printlevel normal
|  4> end
|  5> * xyz 0 1
|  6> C -3.1448093578 -0.2761291708 -0.5554915208
|  7> C -1.6180239699 -0.3208729996 -0.4935162748
|  8> H -1.2278049674 -0.1879557898 -1.5110543048
|  9> C -1.09463518 -1.6417454304 0.0607188601
| 10> C 0.4290261575 -1.6742426188 0.0074743442
| 11> C 1.0770643431 -0.4575596998 0.7155088527
| 12> H 1.6525966085 -0.8198198069 1.5749283093
| 13> C 0.0264008466 0.5144056147 1.2669468948
| 14> C -1.0892999049 0.8530106756 0.3105941886
| 15> O -1.5510809576 1.9642547814 0.2178552987
| 16> C 2.0577520323 0.2053417222 -0.2272535865
| 17> C 1.7779633866 1.2740157565 -0.954040571
| 18> C 3.391183765 -0.4786897254 -0.3027372964
| 19> H -3.5216333802 -1.0191910576 -1.2541596245
| 20> H -3.5681324028 -0.476038136 0.4269080096
| 21> H -3.4716302452 0.7096137491 -0.8758861667
| 22> H -1.4446033381 -1.7772423441 1.0862291505
| 23> H -1.4927740761 -2.4683734475 -0.531994177
| 24> H 0.7873146189 -2.6031475739 0.4543999853
| 25> H 0.7331513157 -1.6774706014 -1.042085036
| 26> H -0.4547997044 0.0574193141 2.1370791985
| 27> H 0.5050096624 1.4360859912 1.6024712343
| 28> H 2.5030892494 1.6950474411 -1.6303337728
| 29> H 0.8315845665 1.7818585274 -0.9088803246
| 30> H 3.914938097 -0.382124497 0.6484519563
| 31> H 3.264807513 -1.5416839186 -0.5039095361
| 32> H 4.0099802513 -0.0444501354 -1.083129282
| 33> *
| 34>
| 35>                          ****END OF INPUT****

CARTESIAN COORDINATES (ANGSTROEM)
---------------------------------
  C     -3.144809   -0.276129   -0.555492
  C     -1.618024   -0.320873   -0.493516
  H     -1.227805   -0.187956   -1.511054
  C     -1.094635   -1.641745    0.060719
  C      0.429026   -1.674243    0.007474
  C      1.077064   -0.457560    0.715509
  H      1.652597   -0.819820    1.574928
  C      0.026401    0.514406    1.266947
  C     -1.089300    0.853011    0.310594
  O     -1.551081    1.964255    0.217855
  C      2.057752    0.205342   -0.227254
  C      1.777963    1.274016   -0.954041
  C      3.391184   -0.478690   -0.302737
  H     -3.521633   -1.019191   -1.254160
  H     -3.568132   -0.476038    0.426908
  H     -3.471630    0.709614   -0.875886
  H     -1.444603   -1.777242    1.086229
  H     -1.492774   -2.468373   -0.531994
  H      0.787315   -2.603148    0.454400
  H      0.733151   -1.677471   -1.042085
  H     -0.454800    0.057419    2.137079
  H      0.505010    1.436086    1.602471
  H      2.503089    1.695047   -1.630334
  H      0.831585    1.781859   -0.908880
  H      3.914938   -0.382124    0.648452
  H      3.264808   -1.541684   -0.503910
  H      4.009980   -0.044450   -1.083129

 Total Charge           Charge          ....    0
 Multiplicity           Mult            ....    1
 Number of Electrons    NEL             ....   84
 Basis Dimension        Dim             ....  186

ORBITAL ENERGIES
----------------

  NO   OCC          E(Eh)            E(eV)
   0   2.0000     -18.734326      -509.7869
   1   2.0000      -9.968402      -271.2540
   2   2.0000      -9.909775      -269.6587
   3   2.0000      -9.902391      -269.4578
   4   2.0000      -9.901346      -269.4293
   5   2.0000      -9.895728      -269.2764
   6   2.0000      -9.895577      -269.2723
   7   2.0000      -9.891764      -269.1686
   8   2.0000      -9.883439      -268.9421
   9   2.0000      -9.877007      -268.7670
  10   2.0000      -9.869242      -268.5557
  11   2.0000      -0.936929       -25.4951
  12   2.0000      -0.772847       -21.0302
  13   2.0000      -0.728233       -19.8162
  14   2.0000      -0.682346       -18.5676
  15   2.0000      -0.661077       -17.9888
  16   2.0000      -0.614554       -16.7229
  17   2.0000      -0.607801       -16.5391
  18   2.0000      -0.555820       -15.1246
  19   2.0000      -0.531954       -14.4752
  20   2.0000      -0.473179       -12.8759
  21   2.0000      -0.467480       -12.7208
  22   2.0000      -0.439515       -11.9598
  23   2.0000      -0.424805       -11.5595
  24   2.0000      -0.412620       -11.2280
  25   2.0000      -0.396838       -10.7985
  26   2.0000      -0.380021       -10.3409
  27   2.0000      -0.377311       -10.2672
  28   2.0000      -0.375278       -10.2118
  29   2.0000      -0.362891        -9.8748
  30   2.0000      -0.350537        -9.5386
  31   2.0000      -0.346925        -9.4403
  32   2.0000      -0.335266        -9.1231
  33   2.0000      -0.330479        -8.9928
  34   2.0000      -0.322094        -8.7646
  35   2.0000      -0.313299        -8.5253
  36   2.0000      -0.301858        -8.2140
  37   2.0000      -0.292825        -7.9682
  38   2.0000      -0.278385        -7.5753
  39   2.0000      -0.272911        -7.4263
  40   2.0000      -0.220112        -5.9896
  41   2.0000      -0.190162        -5.1746
  42   0.0000      -0.050346        -1.3700
  43   0.0000      -0.013160        -0.3581
  44   0.0000       0.022010         0.5989
  45   0.0000       0.046773         1.2728
  46   0.0000       0.056069         1.5257

MULLIKEN ATOMIC CHARGES
-----------------------
   0 C :   -0.213138
   1 C :   -0.202671
   2 H :    0.096850
   3 C :   -0.108936
   4 C :   -0.093203
   5 C :   -0.146633
   6 H :    0.065529
   7 C :   -0.044565
   8 C :   -0.019592
   9 O :   -0.160601
  10 C :   -0.079051
  11 C :   -0.250864
  12 C :   -0.212876
  13 H :    0.098337
  14 H :    0.093605
  15 H :    0.120470
  16 H :    0.074188
  17 H :    0.087091
  18 H :    0.085320
  19 H :    0.089661
  20 H :    0.101705
  21 H :    0.096608
  22 H :    0.082064
  23 H :    0.121261
  24 H :    0.111133
  25 H :    0.107603
  26 H :    0.100706
Sum of atomic charges:   -0.0000000

LOEWDIN ATOMIC CHARGES
----------------------
   0 C :   -0.322506
   1 C :   -0.178320
   2 H :    0.141929
   3 C :   -0.216865
   4 C :   -0.212380
   5 C :   -0.129852
   6 H :    0.123860
   7 C :   -0.236829
   8 C :    0.047248
   9 O :   -0.122853
  10 C :   -0.052963
  11 C :   -0.272673
  12 C :   -0.322634
  13 H :    0.119044
  14 H :    0.119051
  15 H :    0.128052
  16 H :    0.115595
  17 H :    0.122116
  18 H :    0.120366
  19 H :    0.122957
  20 H :    0.145120
  21 H :    0.135228
  22 H :    0.120109
  23 H :    0.126100
  24 H :    0.130096
  25 H :    0.126347
  26 H :    0.124656

  Mayer bond orders larger than 0.100000
B(  0-C ,  1-C ) :   1.1195 B(  0-C , 13-H ) :   0.9489 B(  0-C , 14-H ) :   0.9501
B(  0-C , 15-H ) :   0.9382 B(  1-C ,  2-H ) :   0.8540 B(  1-C ,  3-C ) :   1.1088
B(  1-C ,  8-C ) :   0.9221 B(  3-C ,  4-C ) :   1.1834 B(  3-C , 16-H ) :   0.8883
B(  3-C , 17-H ) :   0.9105 B(  4-C ,  5-C ) :   1.0398 B(  4-C , 18-H ) :   0.9079
B(  4-C , 19-H ) :   0.9077 B(  5-C ,  6-H ) :   0.8734 B(  5-C ,  7-C ) :   1.1178
B(  5-C , 10-C ) :   0.9980 B(  7-C ,  8-C ) :   1.0660 B(  7-C , 20-H ) :   0.8554
B(  7-C , 21-H ) :   0.8917 B(  8-C ,  9-O ) :   2.1552 B( 10-C , 11-C ) :   2.0487
B( 10-C , 12-C ) :   1.1198 B( 11-C , 22-H ) :   0.9015 B( 11-C , 23-H ) :   0.8881
B( 12-C , 24-H ) :   0.9284 B( 12-C , 25-H ) :   0.9314 B( 12-C , 26-H ) :   0.9419

Dispersion correction           -0.029189688
FINAL SINGLE POINT ENERGY      -464.824601099524

DIPOLE MOMENT
-------------

Method             : SCF
Type of density    : Electron Density
Multiplicity       :   1
Irrep              :   0
Energy             :  -464.9103991898084587 Eh
Relativity type    :
Basis              : AO
                                X                 Y                 Z
Electronic contribution:     -2.366288959       5.715122245       1.449374410
Nuclear contribution   :      2.811288473      -6.835880206      -1.320489053
                        -----------------------------------------
Total Dipole Moment    :      0.444999514      -1.120757961       0.128885358
                        -----------------------------------------
Magnitude (a.u.)       :      1.212738393
Magnitude (Debye)      :      3.082536021

Rotational constants in cm-1:             0.063000             0.026844             0.022267
Rotational constants in MHz :          1888.691304           804.774383           667.548046

                             ****ORCA TERMINATED NORMALLY****
TOTAL RUN TIME: 0 days 0 hours 0 minutes 26 seconds 137 msec
