                         Program Version 6.0.1  -  RELEASE   -
|  1> ! pbe def2-sv(p) def2/J RI DEFGRID1 loosescf d4 GCP(DFT/SV(P)) printgap
|  2> %output
|  3>     printlevel normal
|  4> end
|  5> * xyz 0 1
|  6> C -3.3358313173 0.2614665449 -0.6878062944
|  7> O -1.9151620609 0.3280941185 -0.7117208559
|  8> C -1.2523555115 -0.2331625546 0.3060489204
|  9> O -1.7749821781 -0.7955921406 1.2316533287
| 10> C 0.2229674214 -0.0663966415 0.126678809
| 11> C 0.8659058621 1.0344691798 0.6772578757
| 12> C 2.2344197652 1.1778908017 0.5296184314
| 13> C 2.9623188766 0.225840802 -0.1639626722
| 14> C 2.3213250785 -0.8728760859 -0.7109262928
| 15> C 0.9528038776 -1.0218782694 -0.5678224553
| 16> H -3.6682091191 0.0672167198 -1.7058948038
| 17> H -3.7353267655 1.2161243803 -0.3410652545
| 18> H -3.6606150392 -0.5357757223 -0.0163427432
| 19> H 0.2950238447 1.7729220814 1.2202568208
| 20> H 2.7328035425 2.0350090639 0.957450163
| 21> H 4.0302785257 0.3396125727 -0.2771340461
| 22> H 2.8880584965 -1.6171321808 -1.2503896717
| 23> H 0.4500214486 -1.8791440576 -0.9901381452
| 24> *
| 25>
| 26>                          ****END OF INPUT****

CARTESIAN COORDINATES (ANGSTROEM)
---------------------------------
  C     -3.335831    0.261467   -0.687806
  O     -1.915162    0.328094   -0.711721
  C     -1.252356   -0.233163    0.306049
  O     -1.774982   -0.795592    1.231653
  C      0.222967   -0.066397    0.126679
  C      0.865906    1.034469    0.677258
  C      2.234420    1.177891    0.529618
  C      2.962319    0.225841   -0.163963
  C      2.321325   -0.872876   -0.710926
  C      0.952804   -1.021878   -0.567822
  H     -3.668209    0.067217   -1.705895
  H     -3.735327    1.216124   -0.341065
  H     -3.660615   -0.535776   -0.016343
  H      0.295024    1.772922    1.220257
  H      2.732804    2.035009    0.957450
  H      4.030279    0.339613   -0.277134
  H      2.888058   -1.617132   -1.250390
  H      0.450021   -1.879144   -0.990138

 Total Charge           Charge          ....    0
 Multiplicity           Mult            ....    1
 Number of Electrons    NEL             ....   72
 Basis Dimension        Dim             ....  156

ORBITAL ENERGIES
----------------

  NO   OCC          E(Eh)            E(eV)
   0   2.0000     -18.803977      -511.6822
   1   2.0000     -18.743213      -510.0288
   2   2.0000     -10.011527      -272.4275
   3   2.0000      -9.940315      -270.4897
   4   2.0000      -9.911123      -269.6954
   5   2.0000      -9.902414      -269.4584
   6   2.0000      -9.902403      -269.4581
   7   2.0000      -9.899960      -269.3916
   8   2.0000      -9.899898      -269.3899
   9   2.0000      -9.899138      -269.3692
  10   2.0000      -1.010052       -27.4849
  11   2.0000      -0.921487       -25.0749
  12   2.0000      -0.786333       -21.3972
  13   2.0000      -0.702119       -19.1056
  14   2.0000      -0.678925       -18.4745
  15   2.0000      -0.655778       -17.8446
  16   2.0000      -0.564909       -15.3720
  17   2.0000      -0.552499       -15.0343
  18   2.0000      -0.513037       -13.9604
  19   2.0000      -0.487865       -13.2755
  20   2.0000      -0.441838       -12.0230
  21   2.0000      -0.439862       -11.9693
  22   2.0000      -0.414954       -11.2915
  23   2.0000      -0.411039       -11.1849
  24   2.0000      -0.399556       -10.8725
  25   2.0000      -0.383633       -10.4392
  26   2.0000      -0.373760       -10.1705
  27   2.0000      -0.351404        -9.5622
  28   2.0000      -0.339682        -9.2432
  29   2.0000      -0.323832        -8.8119
  30   2.0000      -0.308614        -8.3978
  31   2.0000      -0.300067        -8.1652
  32   2.0000      -0.262504        -7.1431
  33   2.0000      -0.246019        -6.6945
  34   2.0000      -0.237020        -6.4496
  35   2.0000      -0.219751        -5.9797
  36   0.0000      -0.043429        -1.1818
  37   0.0000      -0.041551        -1.1307
  38   0.0000      -0.025204        -0.6858
  39   0.0000       0.036887         1.0037
  40   0.0000       0.057409         1.5622

MULLIKEN ATOMIC CHARGES
-----------------------
   0 C :   -0.131001
   1 O :   -0.244000
   2 C :    0.128466
   3 O :   -0.182031
   4 C :    0.073153
   5 C :   -0.076945
   6 C :   -0.052746
   7 C :   -0.041221
   8 C :   -0.052676
   9 C :   -0.076408
  10 H :    0.123682
  11 H :    0.121080
  12 H :    0.131006
  13 H :    0.052751
  14 H :    0.058229
  15 H :    0.057956
  16 H :    0.058201
  17 H :    0.052503
Sum of atomic charges:    0.0000000

LOEWDIN ATOMIC CHARGES
----------------------
   0 C :   -0.212678
   1 O :   -0.070389
   2 C :    0.045415
   3 O :   -0.138398
   4 C :   -0.053939
   5 C :   -0.106286
   6 C :   -0.117446
   7 C :   -0.120100
   8 C :   -0.117463
   9 C :   -0.106205
  10 H :    0.121179
  11 H :    0.119503
  12 H :    0.122662
  13 H :    0.127863
  14 H :    0.126426
  15 H :    0.125572
  16 H :    0.126401
  17 H :    0.127885

  Mayer bond orders larger than 0.100000
B(  0-C ,  1-O ) :   0.9397 B(  0-C , 10-H ) :   0.9600 B(  0-C , 11-H ) :   0.9593
B(  0-C , 12-H ) :   0.9309 B(  1-O ,  2-C ) :   1.2142 B(  1-O ,  3-O ) :   0.1074
B(  2-C ,  3-O ) :   2.0894 B(  2-C ,  4-C ) :   0.8720 B(  4-C ,  5-C ) :   1.4129
B(  4-C ,  9-C ) :   1.4120 B(  5-C ,  6-C ) :   1.3740 B(  5-C , 13-H ) :   0.9651
B(  6-C ,  7-C ) :   1.3844 B(  6-C , 14-H ) :   0.9627 B(  7-C ,  8-C ) :   1.3845
B(  7-C , 15-H ) :   0.9649 B(  8-C ,  9-C ) :   1.3733 B(  8-C , 16-H ) :   0.9627
B(  9-C , 17-H ) :   0.9650

Dispersion correction           -0.018215657
FINAL SINGLE POINT ENERGY      -459.151463659714

DIPOLE MOMENT
-------------

Method             : SCF
Type of density    : Electron Density
Multiplicity       :   1
Irrep              :   0
Energy             :  -459.2065235344339271 Eh
Relativity type    :
Basis              : AO
                                X                 Y                 Z
Electronic contribution:      0.697236147      -0.956473483       1.655632539
Nuclear contribution   :     -0.681321707       1.305419939      -2.246965432
                        -----------------------------------------
Total Dipole Moment    :      0.015914440       0.348946456      -0.591332893
                        -----------------------------------------
Magnitude (a.u.)       :      0.686797997
Magnitude (Debye)      :      1.745701776

Rotational constants in cm-1:             0.115054             0.026182             0.024938
Rotational constants in MHz :          3449.239648           784.912930           747.614250

                             ****ORCA TERMINATED NORMALLY****
TOTAL RUN TIME: 0 days 0 hours 0 minutes 7 seconds 614 msec
