                         Program Version 6.0.1  -  RELEASE   -
|  1> ! r2scan-3c def2/J RI DEFGRID2 scfconv6 printgap
|  2> %output
|  3>     printlevel normal
|  4> end
|  5> * xyz 0 1
|  6> C -2.3612020457 0.1186091928 0.1654869457
|  7> C -0.9285031007 0.4081997009 -0.2673598475
|  8> C 0.0017250263 -0.7174994119 0.0743839827
|  9> C 1.3200900201 -0.6133213217 0.143721677
| 10> C 2.083490579 0.6508394584 -0.1043993733
| 11> H -2.735703833 -0.7772412662 -0.3253460384
| 12> H -3.0147087149 0.9491704717 -0.0925708678
| 13> H -2.4089188199 -0.0337877183 1.2416797093
| 14> H -0.90532285 0.5761054744 -1.3500609046
| 15> H -0.5812855902 1.328628468 0.2084917074
| 16> H -0.469441333 -1.6724598452 0.2630560795
| 17> H 1.9092436342 -1.4820066344 0.403601252
| 18> H 1.9708896913 1.3349102658 0.7379936392
| 19> H 1.7151850491 1.1579865969 -0.9945175625
| 20> H 3.1424684079 0.4440275281 -0.2333437631
| 21> *
| 22>
| 23>                          ****END OF INPUT****

CARTESIAN COORDINATES (ANGSTROEM)
---------------------------------
  C     -2.361202    0.118609    0.165487
  C     -0.928503    0.408200   -0.267360
  C      0.001725   -0.717499    0.074384
  C      1.320090   -0.613321    0.143722
  C      2.083491    0.650839   -0.104399
  H     -2.735704   -0.777241   -0.325346
  H     -3.014709    0.949170   -0.092571
  H     -2.408919   -0.033788    1.241680
  H     -0.905323    0.576105   -1.350061
  H     -0.581286    1.328628    0.208492
  H     -0.469441   -1.672460    0.263056
  H      1.909244   -1.482007    0.403601
  H      1.970890    1.334910    0.737994
  H      1.715185    1.157987   -0.994518
  H      3.142468    0.444028   -0.233344

 Total Charge           Charge          ....    0
 Multiplicity           Mult            ....    1
 Number of Electrons    NEL             ....   40
 Basis Dimension        Dim             ....  145

ORBITAL ENERGIES
----------------

  NO   OCC          E(Eh)            E(eV)
   0   2.0000     -10.028286      -272.8835
   1   2.0000     -10.021772      -272.7063
   2   2.0000     -10.021556      -272.7004
   3   2.0000     -10.018601      -272.6200
   4   2.0000     -10.017898      -272.6008
   5   2.0000      -0.772729       -21.0270
   6   2.0000      -0.718142       -19.5416
   7   2.0000      -0.646049       -17.5799
   8   2.0000      -0.581563       -15.8251
   9   2.0000      -0.495542       -13.4844
  10   2.0000      -0.439653       -11.9636
  11   2.0000      -0.415109       -11.2957
  12   2.0000      -0.397403       -10.8139
  13   2.0000      -0.379496       -10.3266
  14   2.0000      -0.348501        -9.4832
  15   2.0000      -0.338488        -9.2107
  16   2.0000      -0.323905        -8.8139
  17   2.0000      -0.315000        -8.5716
  18   2.0000      -0.291238        -7.9250
  19   2.0000      -0.216532        -5.8921
  20   0.0000      -0.005722        -0.1557
  21   0.0000       0.095012         2.5854
  22   0.0000       0.112136         3.0514
  23   0.0000       0.131118         3.5679
  24   0.0000       0.143441         3.9032

MULLIKEN ATOMIC CHARGES
-----------------------
   0 C :   -0.478113
   1 C :   -0.237456
   2 C :   -0.166255
   3 C :   -0.136079
   4 C :   -0.488002
   5 H :    0.141193
   6 H :    0.144375
   7 H :    0.151088
   8 H :    0.155869
   9 H :    0.145399
  10 H :    0.150110
  11 H :    0.152178
  12 H :    0.165157
  13 H :    0.155201
  14 H :    0.145334
Sum of atomic charges:   -0.0000000

LOEWDIN ATOMIC CHARGES
----------------------
   0 C :   -0.421293
   1 C :   -0.309689
   2 C :   -0.212813
   3 C :   -0.214139
   4 C :   -0.419388
   5 H :    0.150653
   6 H :    0.150087
   7 H :    0.152441
   8 H :    0.162364
   9 H :    0.159415
  10 H :    0.163970
  11 H :    0.160158
  12 H :    0.162923
  13 H :    0.159775
  14 H :    0.155537

  Mayer bond orders larger than 0.100000
B(  0-C ,  1-C ) :   0.8952 B(  0-C ,  5-H ) :   0.9741 B(  0-C ,  6-H ) :   0.9755
B(  0-C ,  7-H ) :   0.9875 B(  1-C ,  2-C ) :   0.9179 B(  1-C ,  8-H ) :   0.9627
B(  1-C ,  9-H ) :   0.9796 B(  2-C ,  3-C ) :   1.9448 B(  2-C , 10-H ) :   0.9510
B(  3-C ,  4-C ) :   0.8971 B(  3-C , 11-H ) :   0.9505 B(  4-C , 12-H ) :   0.9718
B(  4-C , 13-H ) :   0.9802 B(  4-C , 14-H ) :   0.9739

Dispersion correction           -0.003240041
FINAL SINGLE POINT ENERGY      -196.458610061085

DIPOLE MOMENT
-------------

Method             : SCF
Type of density    : Electron Density
Multiplicity       :   1
Irrep              :   0
Energy             :  -196.4614816696721959 Eh
Relativity type    :
Basis              : AO
                                X                 Y                 Z
Electronic contribution:      1.290212945      -1.562878062       0.095277169
Nuclear contribution   :     -1.292408111       1.712460275      -0.132296702
                        -----------------------------------------
Total Dipole Moment    :     -0.002195166       0.149582213      -0.037019533
                        -----------------------------------------
Magnitude (a.u.)       :      0.154110684
Magnitude (Debye)      :      0.391718229

Rotational constants in cm-1:             0.456414             0.083990             0.074585
Rotational constants in MHz :         13682.939488          2517.955443          2236.006902

                             ****ORCA TERMINATED NORMALLY****
TOTAL RUN TIME: 0 days 0 hours 0 minutes 9 seconds 707 msec
