                         Program Version 6.0.1  -  RELEASE   -
|  1> ! pbe def2-sv(p) def2/J RI DEFGRID1 loosescf d4 GCP(DFT/SV(P)) printgap
|  2> %output
|  3>     printlevel normal
|  4> end
|  5> * xyz 0 1
|  6> C -1.8166914165 -0.9715619765 -0.8263630407
|  7> C -1.3078272587 -0.1704291038 0.3905889915
|  8> H -2.128499442 -0.0869934653 1.1123816208
|  9> C -0.8394050883 1.2409557983 -0.0258735187
| 10> H -1.0681263046 1.4126576256 -1.0837757871
| 11> C 0.6795689704 1.3658449309 0.1651283912
| 12> H 0.8998491408 1.464380027 1.2430218726
| 13> C 1.3852850481 0.1087580446 -0.3532492942
| 14> H 1.1204780323 -0.0471427693 -1.4097417952
| 15> C 0.9137168865 -1.0974699213 0.4718130704
| 16> H 1.6422265248 -1.2529953482 1.2788126733
| 17> O -0.3038973031 -0.8603221969 1.128748538
| 18> O 0.838730923 -2.2225518952 -0.3574352732
| 19> O 2.773716342 0.2156666963 -0.2088546554
| 20> O 1.1961151262 2.4747725162 -0.530670809
| 21> O -1.5095334852 2.2728359192 0.6572833197
| 22> O -2.1614190542 -2.282374989 -0.4877356906
| 23> H -1.0559124198 -0.9633481624 -1.6180911648
| 24> H -2.7254656435 -0.4939950477 -1.1985604265
| 25> H 0.9661923438 -3.0235694929 0.1624200191
| 26> H 3.0301201518 1.0724412728 -0.5757204215
| 27> H 0.5981712936 3.2186139976 -0.3874276105
| 28> H -1.4228245694 2.1295748168 1.6079136238
| 29> H -1.3482493575 -2.7222798049 -0.2065612636
| 30> *
| 31>
| 32>                          ****END OF INPUT****

CARTESIAN COORDINATES (ANGSTROEM)
---------------------------------
  C     -1.816691   -0.971562   -0.826363
  C     -1.307827   -0.170429    0.390589
  H     -2.128499   -0.086993    1.112382
  C     -0.839405    1.240956   -0.025874
  H     -1.068126    1.412658   -1.083776
  C      0.679569    1.365845    0.165128
  H      0.899849    1.464380    1.243022
  C      1.385285    0.108758   -0.353249
  H      1.120478   -0.047143   -1.409742
  C      0.913717   -1.097470    0.471813
  H      1.642227   -1.252995    1.278813
  O     -0.303897   -0.860322    1.128749
  O      0.838731   -2.222552   -0.357435
  O      2.773716    0.215667   -0.208855
  O      1.196115    2.474773   -0.530671
  O     -1.509533    2.272836    0.657283
  O     -2.161419   -2.282375   -0.487736
  H     -1.055912   -0.963348   -1.618091
  H     -2.725466   -0.493995   -1.198560
  H      0.966192   -3.023569    0.162420
  H      3.030120    1.072441   -0.575720
  H      0.598171    3.218614   -0.387428
  H     -1.422825    2.129575    1.607914
  H     -1.348249   -2.722280   -0.206561

 Total Charge           Charge          ....    0
 Multiplicity           Mult            ....    1
 Number of Electrons    NEL             ....   96
 Basis Dimension        Dim             ....  192

ORBITAL ENERGIES
----------------

  NO   OCC          E(Eh)            E(eV)
   0   2.0000     -18.779818      -511.0248
   1   2.0000     -18.775133      -510.8973
   2   2.0000     -18.765408      -510.6327
   3   2.0000     -18.763178      -510.5720
   4   2.0000     -18.752011      -510.2682
   5   2.0000     -18.737729      -509.8795
   6   2.0000      -9.994801      -271.9724
   7   2.0000      -9.950256      -270.7602
   8   2.0000      -9.947803      -270.6935
   9   2.0000      -9.947137      -270.6754
  10   2.0000      -9.946111      -270.6474
  11   2.0000      -9.930492      -270.2224
  12   2.0000      -0.991388       -26.9770
  13   2.0000      -0.956001       -26.0141
  14   2.0000      -0.940865       -25.6023
  15   2.0000      -0.927524       -25.2392
  16   2.0000      -0.922240       -25.0954
  17   2.0000      -0.914524       -24.8855
  18   2.0000      -0.710310       -19.3285
  19   2.0000      -0.696121       -18.9424
  20   2.0000      -0.625483       -17.0202
  21   2.0000      -0.592296       -16.1172
  22   2.0000      -0.571400       -15.5486
  23   2.0000      -0.521747       -14.1975
  24   2.0000      -0.515964       -14.0401
  25   2.0000      -0.497362       -13.5339
  26   2.0000      -0.491084       -13.3631
  27   2.0000      -0.458752       -12.4833
  28   2.0000      -0.442638       -12.0448
  29   2.0000      -0.424323       -11.5464
  30   2.0000      -0.421211       -11.4617
  31   2.0000      -0.407766       -11.0959
  32   2.0000      -0.392529       -10.6813
  33   2.0000      -0.388505       -10.5717
  34   2.0000      -0.360742        -9.8163
  35   2.0000      -0.359543        -9.7837
  36   2.0000      -0.333819        -9.0837
  37   2.0000      -0.320283        -8.7154
  38   2.0000      -0.310993        -8.4626
  39   2.0000      -0.300997        -8.1905
  40   2.0000      -0.282472        -7.6864
  41   2.0000      -0.276147        -7.5144
  42   2.0000      -0.260449        -7.0872
  43   2.0000      -0.252943        -6.8829
  44   2.0000      -0.245726        -6.6865
  45   2.0000      -0.225813        -6.1447
  46   2.0000      -0.220995        -6.0136
  47   2.0000      -0.201121        -5.4728
  48   0.0000       0.008609         0.2343
  49   0.0000       0.016340         0.4446
  50   0.0000       0.031997         0.8707
  51   0.0000       0.048955         1.3321
  52   0.0000       0.060630         1.6498

MULLIKEN ATOMIC CHARGES
-----------------------
   0 C :    0.016348
   1 C :    0.023083
   2 H :    0.067624
   3 C :    0.036530
   4 H :    0.072094
   5 C :    0.059744
   6 H :    0.045690
   7 C :    0.018459
   8 H :    0.072829
   9 C :    0.196013
  10 H :    0.077933
  11 O :   -0.306842
  12 O :   -0.389314
  13 O :   -0.413636
  14 O :   -0.425305
  15 O :   -0.419056
  16 O :   -0.431572
  17 H :    0.089637
  18 H :    0.096517
  19 H :    0.312250
  20 H :    0.310972
  21 H :    0.308595
  22 H :    0.302751
  23 H :    0.278658
Sum of atomic charges:   -0.0000000

LOEWDIN ATOMIC CHARGES
----------------------
   0 C :   -0.143065
   1 C :   -0.077279
   2 H :    0.118285
   3 C :   -0.081175
   4 H :    0.118327
   5 C :   -0.081774
   6 H :    0.100817
   7 C :   -0.078673
   8 H :    0.109280
   9 C :    0.000886
  10 H :    0.110408
  11 O :   -0.147664
  12 O :   -0.300941
  13 O :   -0.313786
  14 O :   -0.325739
  15 O :   -0.313890
  16 O :   -0.331188
  17 H :    0.098920
  18 H :    0.120526
  19 H :    0.291463
  20 H :    0.288616
  21 H :    0.289445
  22 H :    0.285640
  23 H :    0.262564

  Mayer bond orders larger than 0.100000
B(  0-C ,  1-C ) :   1.0260 B(  0-C , 16-O ) :   1.0878 B(  0-C , 17-H ) :   0.9061
B(  0-C , 18-H ) :   0.9138 B(  1-C ,  2-H ) :   0.8867 B(  1-C ,  3-C ) :   0.9580
B(  1-C , 11-O ) :   1.0359 B(  3-C ,  4-H ) :   0.8764 B(  3-C ,  5-C ) :   1.0107
B(  3-C , 15-O ) :   1.0138 B(  5-C ,  6-H ) :   0.8609 B(  5-C ,  7-C ) :   1.0154
B(  5-C , 14-O ) :   1.0762 B(  7-C ,  8-H ) :   0.8741 B(  7-C ,  9-C ) :   0.9908
B(  7-C , 13-O ) :   1.0870 B(  9-C , 10-H ) :   0.8873 B(  9-C , 11-O ) :   1.0676
B(  9-C , 12-O ) :   1.1156 B( 12-O , 19-H ) :   0.8355 B( 13-O , 20-H ) :   0.8347
B( 14-O , 21-H ) :   0.8336 B( 15-O , 22-H ) :   0.8501 B( 16-O , 23-H ) :   0.8295

Dispersion correction           -0.024923613
FINAL SINGLE POINT ENERGY      -685.694188555355

DIPOLE MOMENT
-------------

Method             : SCF
Type of density    : Electron Density
Multiplicity       :   1
Irrep              :   0
Energy             :  -685.8259897085206376 Eh
Relativity type    :
Basis              : AO
                                X                 Y                 Z
Electronic contribution:      1.699975877      -0.337926265       1.549688788
Nuclear contribution   :     -1.387436550       0.657653635      -1.005858533
                        -----------------------------------------
Total Dipole Moment    :      0.312539327       0.319727370       0.543830255
                        -----------------------------------------
Magnitude (a.u.)       :      0.704029664
Magnitude (Debye)      :      1.789501193

Rotational constants in cm-1:             0.039316             0.029185             0.019247
Rotational constants in MHz :          1178.653325           874.938339           577.023706

                             ****ORCA TERMINATED NORMALLY****
TOTAL RUN TIME: 0 days 0 hours 0 minutes 8 seconds 103 msec
