                         Program Version 6.0.1  -  RELEASE   -
|  1> ! pbe def2-sv(p) def2/J RI DEFGRID1 loosescf d4 GCP(DFT/SV(P)) printgap
|  2> %output
|  3>     printlevel normal
|  4> end
|  5> * xyz 0 1
|  6> C -3.8053793064 0.7179261905 -0.0050802824
|  7> O -2.3881251823 0.7951297602 -0.0086206586
|  8> C -1.707736535 -0.3652001867 0.0038348934
|  9> O -2.2405097454 -1.4489507868 0.0100342338
| 10> C -0.2446505024 -0.1569532683 0.0012777607
| 11> C 0.5852705018 -1.2789279297 -0.0046118513
| 12> C 1.9543969156 -1.1388988746 -0.0059923467
| 13> C 2.5214603091 0.1353767344 -0.0006501201
| 14> C 1.6969025958 1.2580081724 0.0055400306
| 15> C 0.3247613773 1.1136612733 0.0063502137
| 16> O 3.8715988071 0.2347281919 -0.0015030246
| 17> H -4.1751597566 1.4573558409 -0.7140064421
| 18> H -4.1757687383 0.9447999429 0.9965222369
| 19> H -4.1251938235 -0.2851206871 -0.2941818126
| 20> H 0.1287516527 -2.2567201047 -0.008097277
| 21> H 2.6085898349 -1.9958190957 -0.0108157939
| 22> H 2.1390269641 2.2459292313 0.0098511821
| 23> H -0.312286452 1.9836899621 0.0112359647
| 24> H 4.139090779 1.1623524656 0.0029478505
| 25> *
| 26>
| 27>                          ****END OF INPUT****

CARTESIAN COORDINATES (ANGSTROEM)
---------------------------------
  C     -3.805379    0.717926   -0.005080
  O     -2.388125    0.795130   -0.008621
  C     -1.707737   -0.365200    0.003835
  O     -2.240510   -1.448951    0.010034
  C     -0.244651   -0.156953    0.001278
  C      0.585271   -1.278928   -0.004612
  C      1.954397   -1.138899   -0.005992
  C      2.521460    0.135377   -0.000650
  C      1.696903    1.258008    0.005540
  C      0.324761    1.113661    0.006350
  O      3.871599    0.234728   -0.001503
  H     -4.175160    1.457356   -0.714006
  H     -4.175769    0.944800    0.996522
  H     -4.125194   -0.285121   -0.294182
  H      0.128752   -2.256720   -0.008097
  H      2.608590   -1.995819   -0.010816
  H      2.139027    2.245929    0.009851
  H     -0.312286    1.983690    0.011236
  H      4.139091    1.162352    0.002948

 Total Charge           Charge          ....    0
 Multiplicity           Mult            ....    1
 Number of Electrons    NEL             ....   80
 Basis Dimension        Dim             ....  170

ORBITAL ENERGIES
----------------

  NO   OCC          E(Eh)            E(eV)
   0   2.0000     -18.798198      -511.5250
   1   2.0000     -18.794590      -511.4268
   2   2.0000     -18.730200      -509.6747
   3   2.0000     -10.003773      -272.2165
   4   2.0000      -9.967494      -271.2293
   5   2.0000      -9.935069      -270.3470
   6   2.0000      -9.904431      -269.5133
   7   2.0000      -9.902555      -269.4622
   8   2.0000      -9.901699      -269.4389
   9   2.0000      -9.899908      -269.3902
  10   2.0000      -9.895543      -269.2714
  11   2.0000      -1.000365       -27.2213
  12   2.0000      -0.980666       -26.6853
  13   2.0000      -0.910399       -24.7732
  14   2.0000      -0.783632       -21.3237
  15   2.0000      -0.696893       -18.9634
  16   2.0000      -0.682333       -18.5672
  17   2.0000      -0.649821       -17.6825
  18   2.0000      -0.579052       -15.7568
  19   2.0000      -0.559473       -15.2240
  20   2.0000      -0.513641       -13.9769
  21   2.0000      -0.504442       -13.7266
  22   2.0000      -0.473415       -12.8823
  23   2.0000      -0.436157       -11.8684
  24   2.0000      -0.429559       -11.6889
  25   2.0000      -0.409597       -11.1457
  26   2.0000      -0.395110       -10.7515
  27   2.0000      -0.386046       -10.5048
  28   2.0000      -0.382921       -10.4198
  29   2.0000      -0.379282       -10.3208
  30   2.0000      -0.358391        -9.7523
  31   2.0000      -0.348595        -9.4857
  32   2.0000      -0.335814        -9.1380
  33   2.0000      -0.306079        -8.3288
  34   2.0000      -0.301595        -8.2068
  35   2.0000      -0.293711        -7.9923
  36   2.0000      -0.253527        -6.8988
  37   2.0000      -0.238857        -6.4996
  38   2.0000      -0.222432        -6.0527
  39   2.0000      -0.208099        -5.6627
  40   0.0000      -0.063011        -1.7146
  41   0.0000      -0.042464        -1.1555
  42   0.0000       0.014462         0.3935
  43   0.0000       0.031132         0.8471
  44   0.0000       0.049501         1.3470

MULLIKEN ATOMIC CHARGES
-----------------------
   0 C :   -0.128217
   1 O :   -0.255693
   2 C :    0.151629
   3 O :   -0.183299
   4 C :    0.040035
   5 C :   -0.095763
   6 C :   -0.111932
   7 C :    0.247127
   8 C :   -0.150258
   9 C :   -0.092936
  10 O :   -0.319552
  11 H :    0.118344
  12 H :    0.117937
  13 H :    0.131600
  14 H :    0.066936
  15 H :    0.052373
  16 H :    0.033102
  17 H :    0.058875
  18 H :    0.319694
Sum of atomic charges:   -0.0000000

LOEWDIN ATOMIC CHARGES
----------------------
   0 C :   -0.211563
   1 O :   -0.080969
   2 C :    0.045750
   3 O :   -0.160318
   4 C :   -0.099228
   5 C :   -0.079594
   6 C :   -0.144679
   7 C :    0.032884
   8 C :   -0.174755
   9 C :   -0.091025
  10 O :   -0.220429
  11 H :    0.117966
  12 H :    0.117078
  13 H :    0.123394
  14 H :    0.137211
  15 H :    0.134105
  16 H :    0.121901
  17 H :    0.132074
  18 H :    0.300198

  Mayer bond orders larger than 0.100000
B(  0-C ,  1-O ) :   0.9479 B(  0-C , 11-H ) :   0.9607 B(  0-C , 12-H ) :   0.9591
B(  0-C , 13-H ) :   0.9290 B(  1-O ,  2-C ) :   1.2121 B(  2-C ,  3-O ) :   2.0825
B(  2-C ,  4-C ) :   0.9512 B(  4-C ,  5-C ) :   1.3562 B(  4-C ,  9-C ) :   1.3540
B(  5-C ,  6-C ) :   1.3638 B(  5-C , 14-H ) :   0.9598 B(  6-C ,  7-C ) :   1.3319
B(  6-C , 15-H ) :   0.9693 B(  7-C ,  8-C ) :   1.2952 B(  7-C , 10-O ) :   1.2064
B(  8-C ,  9-C ) :   1.3571 B(  8-C , 16-H ) :   0.9569 B(  9-C , 17-H ) :   0.9562
B( 10-O , 18-H ) :   0.8408

Dispersion correction           -0.019650836
FINAL SINGLE POINT ENERGY      -534.245238296700

DIPOLE MOMENT
-------------

Method             : SCF
Type of density    : Electron Density
Multiplicity       :   1
Irrep              :   0
Energy             :  -534.3108112694987994 Eh
Relativity type    :
Basis              : AO
                                X                 Y                 Z
Electronic contribution:      3.987268956      -1.819646294       0.003785595
Nuclear contribution   :     -3.550884615       3.048918495      -0.006140804
                        -----------------------------------------
Total Dipole Moment    :      0.436384341       1.229272201      -0.002355209
                        -----------------------------------------
Magnitude (a.u.)       :      1.304433587
Magnitude (Debye)      :      3.315606684

Rotational constants in cm-1:             0.115233             0.019465             0.016705
Rotational constants in MHz :          3454.599297           583.548827           500.811168

                             ****ORCA TERMINATED NORMALLY****
TOTAL RUN TIME: 0 days 0 hours 0 minutes 16 seconds 335 msec
