                         Program Version 6.0.1  -  RELEASE   -
|  1> ! r2scan-3c def2/J RI DEFGRID2 scfconv6 printgap
|  2> %output
|  3>     printlevel normal
|  4> end
|  5> * xyz 0 1
|  6> C -1.8940428021 0.0881976171 0.329988966
|  7> C -0.7063240179 0.6715655269 -0.4202547001
|  8> N 0.5307571375 -0.0561722402 -0.0627445062
|  9> O 0.5098890308 -1.2583780198 -0.1521527834
| 10> O 1.4787238345 0.6044873827 0.2841007722
| 11> H -1.9580861 -0.9816677131 0.1465426292
| 12> H -1.7921643732 0.2549068242 1.3997676796
| 13> H -2.8123156673 0.5585902973 -0.009054972
| 14> H -0.5462210523 1.7250412474 -0.1864785887
| 15> H -0.8461317469 0.5496185326 -1.4976796593
| 16> *
| 17>
| 18>                          ****END OF INPUT****

CARTESIAN COORDINATES (ANGSTROEM)
---------------------------------
  C     -1.894043    0.088198    0.329989
  C     -0.706324    0.671566   -0.420255
  N      0.530757   -0.056172   -0.062745
  O      0.509889   -1.258378   -0.152153
  O      1.478724    0.604487    0.284101
  H     -1.958086   -0.981668    0.146543
  H     -1.792164    0.254907    1.399768
  H     -2.812316    0.558590   -0.009055
  H     -0.546221    1.725041   -0.186479
  H     -0.846132    0.549619   -1.497680

 Total Charge           Charge          ....    0
 Multiplicity           Mult            ....    1
 Number of Electrons    NEL             ....   40
 Basis Dimension        Dim             ....  135

ORBITAL ENERGIES
----------------

  NO   OCC          E(Eh)            E(eV)
   0   2.0000     -18.986366      -516.6453
   1   2.0000     -18.986316      -516.6439
   2   2.0000     -14.392855      -391.6495
   3   2.0000     -10.099678      -274.8262
   4   2.0000     -10.051163      -273.5061
   5   2.0000      -1.213069       -33.0093
   6   2.0000      -1.036624       -28.2080
   7   2.0000      -0.806880       -21.9563
   8   2.0000      -0.680214       -18.5096
   9   2.0000      -0.573025       -15.5928
  10   2.0000      -0.526106       -14.3161
  11   2.0000      -0.508303       -13.8316
  12   2.0000      -0.489139       -13.3101
  13   2.0000      -0.442384       -12.0379
  14   2.0000      -0.395322       -10.7573
  15   2.0000      -0.373543       -10.1646
  16   2.0000      -0.352909        -9.6031
  17   2.0000      -0.296544        -8.0694
  18   2.0000      -0.275372        -7.4932
  19   2.0000      -0.261159        -7.1065
  20   0.0000      -0.098582        -2.6825
  21   0.0000       0.079463         2.1623
  22   0.0000       0.087951         2.3933
  23   0.0000       0.107844         2.9346
  24   0.0000       0.135193         3.6788

MULLIKEN ATOMIC CHARGES
-----------------------
   0 C :   -0.438777
   1 C :   -0.260499
   2 N :    0.242743
   3 O :   -0.192424
   4 O :   -0.198906
   5 H :    0.177555
   6 H :    0.157520
   7 H :    0.155262
   8 H :    0.185748
   9 H :    0.171779
Sum of atomic charges:   -0.0000000

LOEWDIN ATOMIC CHARGES
----------------------
   0 C :   -0.369380
   1 C :    0.015726
   2 N :   -0.536689
   3 O :   -0.004403
   4 O :    0.003866
   5 H :    0.174350
   6 H :    0.160961
   7 H :    0.160258
   8 H :    0.195879
   9 H :    0.199431

  Mayer bond orders larger than 0.100000
B(  0-C ,  1-C ) :   0.9221 B(  0-C ,  5-H ) :   0.9613 B(  0-C ,  6-H ) :   0.9673
B(  0-C ,  7-H ) :   0.9654 B(  1-C ,  2-N ) :   0.8526 B(  1-C ,  8-H ) :   0.9630
B(  1-C ,  9-H ) :   0.9383 B(  2-N ,  3-O ) :   1.8589 B(  2-N ,  4-O ) :   1.8561
B(  3-O ,  4-O ) :   0.2845

Dispersion correction           -0.001889434
FINAL SINGLE POINT ENERGY      -284.281055189472

DIPOLE MOMENT
-------------

Method             : SCF
Type of density    : Electron Density
Multiplicity       :   1
Irrep              :   0
Energy             :  -284.2903024673379946 Eh
Relativity type    :
Basis              : AO
                                X                 Y                 Z
Electronic contribution:      6.179896840      -1.369308008      -0.144884540
Nuclear contribution   :     -7.430694324       1.966249906      -0.136209508
                        -----------------------------------------
Total Dipole Moment    :     -1.250797484       0.596941898      -0.281094048
                        -----------------------------------------
Magnitude (a.u.)       :      1.414159765
Magnitude (Debye)      :      3.594508462

Rotational constants in cm-1:             0.334744             0.142782             0.112559
Rotational constants in MHz :         10035.381361          4280.489115          3374.432104

                             ****ORCA TERMINATED NORMALLY****
TOTAL RUN TIME: 0 days 0 hours 0 minutes 15 seconds 495 msec
