                         Program Version 6.0.1  -  RELEASE   -
|  1> ! r2scan-3c def2/J RI DEFGRID2 scfconv6 printgap
|  2> %output
|  3>     printlevel normal
|  4> end
|  5> * xyz 0 1
|  6> C -1.9439734502 -0.0578206631 0.000737152
|  7> C -0.6905581166 0.7929084193 -0.00093529
|  8> N 0.5399913125 -0.0309097571 -0.0001225712
|  9> O 0.4263567698 -1.2296464358 -0.000345872
| 10> O 1.5851514298 0.5748833987 0.0006344236
| 11> H -1.9737588994 -0.6963756309 -0.8782726064
| 12> H -1.9736199003 -0.6931820953 0.8820665975
| 13> H -2.8210610615 0.5828859528 -0.0003416727
| 14> H -0.6352394681 1.4363951018 0.880968281
| 15> H -0.6358701876 1.4335968335 -0.8849365227
| 16> *
| 17>
| 18>                          ****END OF INPUT****

CARTESIAN COORDINATES (ANGSTROEM)
---------------------------------
  C     -1.943973   -0.057821    0.000737
  C     -0.690558    0.792908   -0.000935
  N      0.539991   -0.030910   -0.000123
  O      0.426357   -1.229646   -0.000346
  O      1.585151    0.574883    0.000634
  H     -1.973759   -0.696376   -0.878273
  H     -1.973620   -0.693182    0.882067
  H     -2.821061    0.582886   -0.000342
  H     -0.635239    1.436395    0.880968
  H     -0.635870    1.433597   -0.884937

 Total Charge           Charge          ....    0
 Multiplicity           Mult            ....    1
 Number of Electrons    NEL             ....   40
 Basis Dimension        Dim             ....  135

ORBITAL ENERGIES
----------------

  NO   OCC          E(Eh)            E(eV)
   0   2.0000     -18.988953      -516.7157
   1   2.0000     -18.983771      -516.5747
   2   2.0000     -14.392778      -391.6474
   3   2.0000     -10.100324      -274.8438
   4   2.0000     -10.046368      -273.3756
   5   2.0000      -1.212926       -33.0054
   6   2.0000      -1.036568       -28.2065
   7   2.0000      -0.805921       -21.9302
   8   2.0000      -0.679180       -18.4814
   9   2.0000      -0.569246       -15.4900
  10   2.0000      -0.530464       -14.4347
  11   2.0000      -0.515571       -14.0294
  12   2.0000      -0.485921       -13.2226
  13   2.0000      -0.431384       -11.7385
  14   2.0000      -0.398438       -10.8421
  15   2.0000      -0.372110       -10.1256
  16   2.0000      -0.351099        -9.5539
  17   2.0000      -0.295334        -8.0364
  18   2.0000      -0.277070        -7.5395
  19   2.0000      -0.261066        -7.1040
  20   0.0000      -0.097981        -2.6662
  21   0.0000       0.072385         1.9697
  22   0.0000       0.089376         2.4320
  23   0.0000       0.117264         3.1909
  24   0.0000       0.136080         3.7029

MULLIKEN ATOMIC CHARGES
-----------------------
   0 C :   -0.397709
   1 C :   -0.305390
   2 N :    0.215450
   3 O :   -0.173688
   4 O :   -0.179816
   5 H :    0.163356
   6 H :    0.163287
   7 H :    0.150816
   8 H :    0.181873
   9 H :    0.181820
Sum of atomic charges:   -0.0000000

LOEWDIN ATOMIC CHARGES
----------------------
   0 C :   -0.375909
   1 C :    0.013354
   2 N :   -0.528996
   3 O :   -0.003123
   4 O :   -0.003299
   5 H :    0.167779
   6 H :    0.167715
   7 H :    0.158606
   8 H :    0.201929
   9 H :    0.201943

  Mayer bond orders larger than 0.100000
B(  0-C ,  1-C ) :   0.9264 B(  0-C ,  5-H ) :   0.9693 B(  0-C ,  6-H ) :   0.9693
B(  0-C ,  7-H ) :   0.9553 B(  1-C ,  2-N ) :   0.8947 B(  1-C ,  8-H ) :   0.9353
B(  1-C ,  9-H ) :   0.9352 B(  2-N ,  3-O ) :   1.8726 B(  2-N ,  4-O ) :   1.8770
B(  3-O ,  4-O ) :   0.2865

Dispersion correction           -0.001883518
FINAL SINGLE POINT ENERGY      -284.281637609195

DIPOLE MOMENT
-------------

Method             : SCF
Type of density    : Electron Density
Multiplicity       :   1
Irrep              :   0
Energy             :  -284.2908792076485724 Eh
Relativity type    :
Basis              : AO
                                X                 Y                 Z
Electronic contribution:      6.269114702      -1.275782561      -0.000239713
Nuclear contribution   :     -7.509702345       1.925875725      -0.000480422
                        -----------------------------------------
Total Dipole Moment    :     -1.240587643       0.650093164      -0.000720135
                        -----------------------------------------
Magnitude (a.u.)       :      1.400599636
Magnitude (Debye)      :      3.560041354

Rotational constants in cm-1:             0.369006             0.142699             0.106998
Rotational constants in MHz :         11062.522032          4278.013381          3207.718942

                             ****ORCA TERMINATED NORMALLY****
TOTAL RUN TIME: 0 days 0 hours 0 minutes 16 seconds 623 msec
