                         Program Version 6.0.1  -  RELEASE   -
|  1> ! pbe def2-sv(p) def2/J RI DEFGRID1 loosescf d4 GCP(DFT/SV(P)) printgap
|  2> %output
|  3>     printlevel normal
|  4> end
|  5> * xyz 0 1
|  6> C -2.4674569297 -1.1527162534 0.1779033025
|  7> C -1.0580066772 -0.6089151781 0.5201224374
|  8> H -0.9425007165 -0.5303533466 1.6131436966
|  9> C -0.8078030715 0.7825107423 -0.0805073137
| 10> H -0.9257519209 0.7253501179 -1.1735489041
| 11> C 0.6266849415 1.222161035 0.2245796864
| 12> H 0.7550864515 1.3168907291 1.3163826628
| 13> C 1.6020813131 0.162218796 -0.2850535339
| 14> H 1.5168734398 0.0823060091 -1.3801951937
| 15> C 1.2187557821 -1.1984101803 0.3195693937
| 16> H 1.3558500845 -1.1463500574 1.4229736188
| 17> O -0.1086484861 -1.5333855678 0.0238508133
| 18> O 2.047372209 -2.1729900834 -0.2216998607
| 19> O 2.9039963655 0.5406740186 0.0837509592
| 20> O 0.8370900181 2.4708347766 -0.3878515097
| 21> O -1.735557787 1.6905933314 0.4644976682
| 22> O -3.1865888757 -0.3746203177 -0.730036809
| 23> H -3.0344812227 -1.2768906301 1.1102404373
| 24> H -2.3384401992 -2.1312072086 -0.2897869123
| 25> H 1.5318534656 -2.9844653215 -0.295612579
| 26> H 3.4871049465 -0.2073870368 -0.0928427746
| 27> H 1.7856225667 2.6452684551 -0.3633012788
| 28> H -1.4192641023 2.5759508237 0.2423012543
| 29> H -3.2438067603 0.5233185247 -0.3731244953
| 30> *
| 31>
| 32>                          ****END OF INPUT****

CARTESIAN COORDINATES (ANGSTROEM)
---------------------------------
  C     -2.467457   -1.152716    0.177903
  C     -1.058007   -0.608915    0.520122
  H     -0.942501   -0.530353    1.613144
  C     -0.807803    0.782511   -0.080507
  H     -0.925752    0.725350   -1.173549
  C      0.626685    1.222161    0.224580
  H      0.755086    1.316891    1.316383
  C      1.602081    0.162219   -0.285054
  H      1.516873    0.082306   -1.380195
  C      1.218756   -1.198410    0.319569
  H      1.355850   -1.146350    1.422974
  O     -0.108648   -1.533386    0.023851
  O      2.047372   -2.172990   -0.221700
  O      2.903996    0.540674    0.083751
  O      0.837090    2.470835   -0.387852
  O     -1.735558    1.690593    0.464498
  O     -3.186589   -0.374620   -0.730037
  H     -3.034481   -1.276891    1.110240
  H     -2.338440   -2.131207   -0.289787
  H      1.531853   -2.984465   -0.295613
  H      3.487105   -0.207387   -0.092843
  H      1.785623    2.645268   -0.363301
  H     -1.419264    2.575951    0.242301
  H     -3.243807    0.523319   -0.373124

 Total Charge           Charge          ....    0
 Multiplicity           Mult            ....    1
 Number of Electrons    NEL             ....   96
 Basis Dimension        Dim             ....  192

ORBITAL ENERGIES
----------------

  NO   OCC          E(Eh)            E(eV)
   0   2.0000     -18.783933      -511.1368
   1   2.0000     -18.769655      -510.7483
   2   2.0000     -18.768723      -510.7229
   3   2.0000     -18.764777      -510.6155
   4   2.0000     -18.761477      -510.5258
   5   2.0000     -18.737597      -509.8759
   6   2.0000      -9.994015      -271.9510
   7   2.0000      -9.950850      -270.7764
   8   2.0000      -9.947933      -270.6970
   9   2.0000      -9.947715      -270.6911
  10   2.0000      -9.945444      -270.6293
  11   2.0000      -9.930011      -270.2093
  12   2.0000      -0.996843       -27.1255
  13   2.0000      -0.957450       -26.0535
  14   2.0000      -0.946942       -25.7676
  15   2.0000      -0.927682       -25.2435
  16   2.0000      -0.925492       -25.1839
  17   2.0000      -0.914888       -24.8954
  18   2.0000      -0.711719       -19.3669
  19   2.0000      -0.695163       -18.9164
  20   2.0000      -0.618458       -16.8291
  21   2.0000      -0.590277       -16.0623
  22   2.0000      -0.565162       -15.3788
  23   2.0000      -0.534194       -14.5361
  24   2.0000      -0.519851       -14.1459
  25   2.0000      -0.490934       -13.3590
  26   2.0000      -0.477835       -13.0025
  27   2.0000      -0.461754       -12.5650
  28   2.0000      -0.445135       -12.1127
  29   2.0000      -0.440221       -11.9790
  30   2.0000      -0.423590       -11.5265
  31   2.0000      -0.416629       -11.3370
  32   2.0000      -0.389244       -10.5919
  33   2.0000      -0.369790       -10.0625
  34   2.0000      -0.365401        -9.9431
  35   2.0000      -0.358744        -9.7619
  36   2.0000      -0.337895        -9.1946
  37   2.0000      -0.329011        -8.9528
  38   2.0000      -0.321022        -8.7355
  39   2.0000      -0.303379        -8.2554
  40   2.0000      -0.292514        -7.9597
  41   2.0000      -0.271008        -7.3745
  42   2.0000      -0.254957        -6.9377
  43   2.0000      -0.251918        -6.8550
  44   2.0000      -0.234823        -6.3899
  45   2.0000      -0.229932        -6.2568
  46   2.0000      -0.213243        -5.8026
  47   2.0000      -0.212448        -5.7810
  48   0.0000       0.010203         0.2776
  49   0.0000       0.023739         0.6460
  50   0.0000       0.037852         1.0300
  51   0.0000       0.054465         1.4821
  52   0.0000       0.063129         1.7178

MULLIKEN ATOMIC CHARGES
-----------------------
   0 C :    0.092521
   1 C :    0.017140
   2 H :    0.054620
   3 C :    0.029474
   4 H :    0.072066
   5 C :    0.059006
   6 H :    0.056078
   7 C :    0.039136
   8 H :    0.060993
   9 C :    0.179032
  10 H :    0.040535
  11 O :   -0.313186
  12 O :   -0.399235
  13 O :   -0.425029
  14 O :   -0.426030
  15 O :   -0.432884
  16 O :   -0.433884
  17 H :    0.072882
  18 H :    0.088936
  19 H :    0.312117
  20 H :    0.314783
  21 H :    0.315969
  22 H :    0.320307
  23 H :    0.304653
Sum of atomic charges:    0.0000000

LOEWDIN ATOMIC CHARGES
----------------------
   0 C :   -0.121550
   1 C :   -0.061077
   2 H :    0.104099
   3 C :   -0.076199
   4 H :    0.112204
   5 C :   -0.075716
   6 H :    0.103796
   7 C :   -0.093018
   8 H :    0.108738
   9 C :    0.000352
  10 H :    0.081333
  11 O :   -0.144481
  12 O :   -0.312875
  13 O :   -0.322201
  14 O :   -0.324188
  15 O :   -0.316312
  16 O :   -0.332852
  17 H :    0.099440
  18 H :    0.119896
  19 H :    0.294100
  20 H :    0.293399
  21 H :    0.293620
  22 H :    0.294451
  23 H :    0.275038

  Mayer bond orders larger than 0.100000
B(  0-C ,  1-C ) :   1.0067 B(  0-C , 16-O ) :   1.1286 B(  0-C , 17-H ) :   0.9217
B(  0-C , 18-H ) :   0.9163 B(  1-C ,  2-H ) :   0.8706 B(  1-C ,  3-C ) :   1.0536
B(  1-C , 11-O ) :   0.9865 B(  3-C ,  4-H ) :   0.8644 B(  3-C ,  5-C ) :   1.0280
B(  3-C , 15-O ) :   1.0303 B(  5-C ,  6-H ) :   0.8725 B(  5-C ,  7-C ) :   1.0145
B(  5-C , 14-O ) :   1.0826 B(  7-C ,  8-H ) :   0.8625 B(  7-C ,  9-C ) :   0.9922
B(  7-C , 13-O ) :   1.0649 B(  9-C , 10-H ) :   0.8828 B(  9-C , 11-O ) :   1.0237
B(  9-C , 12-O ) :   1.1423 B( 12-O , 19-H ) :   0.8358 B( 13-O , 20-H ) :   0.8369
B( 14-O , 21-H ) :   0.8352 B( 15-O , 22-H ) :   0.8302 B( 16-O , 23-H ) :   0.8146

Dispersion correction           -0.024010437
FINAL SINGLE POINT ENERGY      -685.699417905241

DIPOLE MOMENT
-------------

Method             : SCF
Type of density    : Electron Density
Multiplicity       :   1
Irrep              :   0
Energy             :  -685.8321059623692690 Eh
Relativity type    :
Basis              : AO
                                X                 Y                 Z
Electronic contribution:      2.058004033       0.288044486      -1.186863926
Nuclear contribution   :     -1.369625012      -0.373167630       1.617883978
                        -----------------------------------------
Total Dipole Moment    :      0.688379021      -0.085123144       0.431020051
                        -----------------------------------------
Magnitude (a.u.)       :      0.816633278
Magnitude (Debye)      :      2.075716834

Rotational constants in cm-1:             0.042893             0.025656             0.017140
Rotational constants in MHz :          1285.894650           769.159440           513.836482

                             ****ORCA TERMINATED NORMALLY****
TOTAL RUN TIME: 0 days 0 hours 0 minutes 22 seconds 942 msec
