                         Program Version 6.0.1  -  RELEASE   -
|  1> ! pbe def2-sv(p) def2/J RI DEFGRID1 loosescf d4 GCP(DFT/SV(P)) printgap
|  2> %output
|  3>     printlevel normal
|  4> end
|  5> * xyz 0 1
|  6> C 3.6886055389 -0.365890961 -0.0456200654
|  7> C 2.2154764162 -0.2938480922 0.3465314181
|  8> H 2.1421858595 -0.3274356985 1.4394252278
|  9> C 1.4326781566 -1.4740501185 -0.2276931642
| 10> C -0.0385063916 -1.3874650313 0.1667287399
| 11> C -0.6678820037 -0.0910095203 -0.3442228926
| 12> H -0.5389512201 -0.0578728682 -1.4352279741
| 13> C 0.1053013551 1.1079266177 0.2355842188
| 14> H 0.006225429 1.1197449202 1.3256159948
| 15> C 1.5877854927 1.0108276702 -0.1398941743
| 16> O -0.4366805868 2.3434167509 -0.1814589277
| 17> C -2.1806435584 0.0245395461 -0.0661542222
| 18> C -2.9862640881 -0.8388561747 -1.03591638
| 19> C -2.5641955811 -0.316712805 1.3721112923
| 20> H 4.1352053244 -1.289014192 0.3168485312
| 21> H 3.7964378817 -0.3356746037 -1.1280199049
| 22> H 4.2390187231 0.4714153297 0.3771540664
| 23> H 1.5231740903 -1.4720248817 -1.3168737251
| 24> H 1.8569074167 -2.4112629537 0.1391314272
| 25> H -0.576678445 -2.2442450312 -0.2418774347
| 26> H -0.1128563856 -1.4262555881 1.2542964069
| 27> H 1.6803234461 1.0713992351 -1.2292406428
| 28> H 2.1156220507 1.8665292233 0.286798981
| 29> H -0.3556298306 2.399002217 -1.1408700769
| 30> H -2.4485412215 1.0729870671 -0.2412972773
| 31> H -2.7645305455 -1.8939501655 -0.8917449369
| 32> H -2.7627392734 -0.5786522205 -2.0685781757
| 33> H -4.0514134707 -0.692656921 -0.8715449688
| 34> H -1.9751857516 0.2601201116 2.0799067036
| 35> H -2.4225095152 -1.3755292131 1.5746119785
| 36> H -3.6132126588 -0.0797566266 1.5362449235
| 37> *
| 38>
| 39>                          ****END OF INPUT****

CARTESIAN COORDINATES (ANGSTROEM)
---------------------------------
  C      3.688606   -0.365891   -0.045620
  C      2.215476   -0.293848    0.346531
  H      2.142186   -0.327436    1.439425
  C      1.432678   -1.474050   -0.227693
  C     -0.038506   -1.387465    0.166729
  C     -0.667882   -0.091010   -0.344223
  H     -0.538951   -0.057873   -1.435228
  C      0.105301    1.107927    0.235584
  H      0.006225    1.119745    1.325616
  C      1.587785    1.010828   -0.139894
  O     -0.436681    2.343417   -0.181459
  C     -2.180644    0.024540   -0.066154
  C     -2.986264   -0.838856   -1.035916
  C     -2.564196   -0.316713    1.372111
  H      4.135205   -1.289014    0.316849
  H      3.796438   -0.335675   -1.128020
  H      4.239019    0.471415    0.377154
  H      1.523174   -1.472025   -1.316874
  H      1.856907   -2.411263    0.139131
  H     -0.576678   -2.244245   -0.241877
  H     -0.112856   -1.426256    1.254296
  H      1.680323    1.071399   -1.229241
  H      2.115622    1.866529    0.286799
  H     -0.355630    2.399002   -1.140870
  H     -2.448541    1.072987   -0.241297
  H     -2.764531   -1.893950   -0.891745
  H     -2.762739   -0.578652   -2.068578
  H     -4.051413   -0.692657   -0.871545
  H     -1.975186    0.260120    2.079907
  H     -2.422510   -1.375529    1.574612
  H     -3.613213   -0.079757    1.536245

 Total Charge           Charge          ....    0
 Multiplicity           Mult            ....    1
 Number of Electrons    NEL             ....   88
 Basis Dimension        Dim             ....  194

ORBITAL ENERGIES
----------------

  NO   OCC          E(Eh)            E(eV)
   0   2.0000     -18.738709      -509.9062
   1   2.0000      -9.930757      -270.2296
   2   2.0000      -9.894361      -269.2392
   3   2.0000      -9.887958      -269.0650
   4   2.0000      -9.884797      -268.9790
   5   2.0000      -9.882205      -268.9085
   6   2.0000      -9.881789      -268.8971
   7   2.0000      -9.880296      -268.8565
   8   2.0000      -9.873057      -268.6595
   9   2.0000      -9.868515      -268.5359
  10   2.0000      -9.867477      -268.5077
  11   2.0000      -0.919851       -25.0304
  12   2.0000      -0.759939       -20.6790
  13   2.0000      -0.721036       -19.6204
  14   2.0000      -0.669051       -18.2058
  15   2.0000      -0.655264       -17.8306
  16   2.0000      -0.606488       -16.5034
  17   2.0000      -0.602383       -16.3917
  18   2.0000      -0.549922       -14.9641
  19   2.0000      -0.540780       -14.7154
  20   2.0000      -0.504389       -13.7251
  21   2.0000      -0.488694       -13.2980
  22   2.0000      -0.441614       -12.0169
  23   2.0000      -0.418437       -11.3862
  24   2.0000      -0.411884       -11.2079
  25   2.0000      -0.402117       -10.9421
  26   2.0000      -0.399289       -10.8652
  27   2.0000      -0.373922       -10.1749
  28   2.0000      -0.365814        -9.9543
  29   2.0000      -0.359229        -9.7751
  30   2.0000      -0.353599        -9.6219
  31   2.0000      -0.339264        -9.2318
  32   2.0000      -0.331858        -9.0303
  33   2.0000      -0.325971        -8.8701
  34   2.0000      -0.318223        -8.6593
  35   2.0000      -0.302419        -8.2292
  36   2.0000      -0.301104        -8.1934
  37   2.0000      -0.289132        -7.8677
  38   2.0000      -0.284765        -7.7488
  39   2.0000      -0.283550        -7.7158
  40   2.0000      -0.272859        -7.4249
  41   2.0000      -0.262109        -7.1324
  42   2.0000      -0.246963        -6.7202
  43   2.0000      -0.207300        -5.6409
  44   0.0000       0.026040         0.7086
  45   0.0000       0.036208         0.9853
  46   0.0000       0.043365         1.1800
  47   0.0000       0.048206         1.3117
  48   0.0000       0.074891         2.0379

MULLIKEN ATOMIC CHARGES
-----------------------
   0 C :   -0.196223
   1 C :   -0.217378
   2 H :    0.066123
   3 C :   -0.097742
   4 C :   -0.115294
   5 C :   -0.175506
   6 H :    0.032891
   7 C :    0.071355
   8 H :    0.059717
   9 C :   -0.075852
  10 O :   -0.411944
  11 C :   -0.095338
  12 C :   -0.237006
  13 C :   -0.265041
  14 H :    0.095789
  15 H :    0.089022
  16 H :    0.096732
  17 H :    0.064506
  18 H :    0.077964
  19 H :    0.084267
  20 H :    0.077536
  21 H :    0.046606
  22 H :    0.083722
  23 H :    0.291547
  24 H :    0.064867
  25 H :    0.094409
  26 H :    0.090473
  27 H :    0.096469
  28 H :    0.105647
  29 H :    0.099844
  30 H :    0.097839
Sum of atomic charges:   -0.0000000

LOEWDIN ATOMIC CHARGES
----------------------
   0 C :   -0.326438
   1 C :   -0.153002
   2 H :    0.115133
   3 C :   -0.214430
   4 C :   -0.216303
   5 C :   -0.149703
   6 H :    0.106047
   7 C :   -0.050631
   8 H :    0.111209
   9 C :   -0.225114
  10 O :   -0.313782
  11 C :   -0.153917
  12 C :   -0.328713
  13 C :   -0.329944
  14 H :    0.117209
  15 H :    0.116139
  16 H :    0.117667
  17 H :    0.112600
  18 H :    0.115303
  19 H :    0.116692
  20 H :    0.117836
  21 H :    0.107849
  22 H :    0.118137
  23 H :    0.279740
  24 H :    0.115205
  25 H :    0.113050
  26 H :    0.113283
  27 H :    0.117529
  28 H :    0.116591
  29 H :    0.115142
  30 H :    0.119614

  Mayer bond orders larger than 0.100000
B(  0-C ,  1-C ) :   1.1116 B(  0-C , 14-H ) :   0.9481 B(  0-C , 15-H ) :   0.9459
B(  0-C , 16-H ) :   0.9487 B(  1-C ,  2-H ) :   0.8917 B(  1-C ,  3-C ) :   1.0929
B(  1-C ,  9-C ) :   1.0789 B(  3-C ,  4-C ) :   1.1411 B(  3-C , 17-H ) :   0.9044
B(  3-C , 18-H ) :   0.9132 B(  4-C ,  5-C ) :   1.0770 B(  4-C , 19-H ) :   0.9072
B(  4-C , 20-H ) :   0.8917 B(  5-C ,  6-H ) :   0.8709 B(  5-C ,  7-C ) :   1.0267
B(  5-C , 11-C ) :   1.0317 B(  7-C ,  8-H ) :   0.8755 B(  7-C ,  9-C ) :   1.1004
B(  7-C , 10-O ) :   1.0288 B(  9-C , 21-H ) :   0.8869 B(  9-C , 22-H ) :   0.9070
B( 10-O , 23-H ) :   0.8521 B( 11-C , 12-C ) :   1.1132 B( 11-C , 13-C ) :   1.1104
B( 11-C , 24-H ) :   0.8801 B( 12-C , 25-H ) :   0.9428 B( 12-C , 26-H ) :   0.9480
B( 12-C , 27-H ) :   0.9503 B( 13-C , 28-H ) :   0.9465 B( 13-C , 29-H ) :   0.9400
B( 13-C , 30-H ) :   0.9467

Dispersion correction           -0.031456847
FINAL SINGLE POINT ENERGY      -467.200429830832

DIPOLE MOMENT
-------------

Method             : SCF
Type of density    : Electron Density
Multiplicity       :   1
Irrep              :   0
Energy             :  -467.3127564246589145 Eh
Relativity type    :
Basis              : AO
                                X                 Y                 Z
Electronic contribution:      0.373023634       5.187194438      -0.110219712
Nuclear contribution   :     -0.125765007      -5.522102255      -0.223386988
                        -----------------------------------------
Total Dipole Moment    :      0.247258627      -0.334907817      -0.333606700
                        -----------------------------------------
Magnitude (a.u.)       :      0.533473059
Magnitude (Debye)      :      1.355980755

Rotational constants in cm-1:             0.059585             0.023146             0.019341
Rotational constants in MHz :          1786.324270           693.910274           579.817435

                             ****ORCA TERMINATED NORMALLY****
TOTAL RUN TIME: 0 days 0 hours 0 minutes 11 seconds 906 msec
