                         Program Version 6.0.1  -  RELEASE   -
|  1> ! pbe def2-sv(p) def2/J RI DEFGRID1 loosescf d4 GCP(DFT/SV(P)) printgap
|  2> %output
|  3>     printlevel normal
|  4> end
|  5> * xyz 0 1
|  6> C 1.315624563 -1.0485077991 -0.8696583976
|  7> C 0.6626293289 -0.3781402453 0.3398529913
|  8> C 1.4885154026 0.825641587 0.7992059914
|  9> C -0.7258632249 0.1120511323 -0.0539885331
| 10> O -0.900740322 0.8693623787 -0.9736607771
| 11> C -1.8531457422 -0.4158011668 0.7954894375
| 12> H 2.3330991385 -1.3498834201 -0.6319654923
| 13> H 0.752787707 -1.9300707712 -1.1700178789
| 14> H 1.3397576325 -0.353393749 -1.7053231071
| 15> H 0.5820946784 -1.0979571881 1.1595742355
| 16> H 1.5314434354 1.5662732921 0.0043766808
| 17> H 2.5012506041 0.5159023579 1.046531512
| 18> H 1.0418426816 1.2868075585 1.6778709257
| 19> H -2.8041702559 -0.0085492484 0.4631523049
| 20> H -1.6816356031 -0.1457199972 1.8355358316
| 21> H -1.8774349806 -1.501809684 0.729383399
| 22> *
| 23>
| 24>                          ****END OF INPUT****

CARTESIAN COORDINATES (ANGSTROEM)
---------------------------------
  C      1.315625   -1.048508   -0.869658
  C      0.662629   -0.378140    0.339853
  C      1.488515    0.825642    0.799206
  C     -0.725863    0.112051   -0.053989
  O     -0.900740    0.869362   -0.973661
  C     -1.853146   -0.415801    0.795489
  H      2.333099   -1.349883   -0.631965
  H      0.752788   -1.930071   -1.170018
  H      1.339758   -0.353394   -1.705323
  H      0.582095   -1.097957    1.159574
  H      1.531443    1.566273    0.004377
  H      2.501251    0.515902    1.046532
  H      1.041843    1.286808    1.677871
  H     -2.804170   -0.008549    0.463152
  H     -1.681636   -0.145720    1.835536
  H     -1.877435   -1.501810    0.729383

 Total Charge           Charge          ....    0
 Multiplicity           Mult            ....    1
 Number of Electrons    NEL             ....   48
 Basis Dimension        Dim             ....  104

ORBITAL ENERGIES
----------------

  NO   OCC          E(Eh)            E(eV)
   0   2.0000     -18.739417      -509.9255
   1   2.0000      -9.970260      -271.3046
   2   2.0000      -9.902198      -269.4525
   3   2.0000      -9.886286      -269.0195
   4   2.0000      -9.882509      -268.9167
   5   2.0000      -9.880481      -268.8615
   6   2.0000      -0.941304       -25.6142
   7   2.0000      -0.728189       -19.8150
   8   2.0000      -0.666719       -18.1423
   9   2.0000      -0.617875       -16.8132
  10   2.0000      -0.551267       -15.0007
  11   2.0000      -0.458443       -12.4749
  12   2.0000      -0.430517       -11.7150
  13   2.0000      -0.407792       -11.0966
  14   2.0000      -0.404803       -11.0153
  15   2.0000      -0.371805       -10.1173
  16   2.0000      -0.361214        -9.8291
  17   2.0000      -0.359813        -9.7910
  18   2.0000      -0.347123        -9.4457
  19   2.0000      -0.318080        -8.6554
  20   2.0000      -0.313821        -8.5395
  21   2.0000      -0.297656        -8.0996
  22   2.0000      -0.296189        -8.0597
  23   2.0000      -0.195541        -5.3209
  24   0.0000      -0.047164        -1.2834
  25   0.0000       0.026659         0.7254
  26   0.0000       0.066101         1.7987
  27   0.0000       0.073843         2.0094
  28   0.0000       0.088186         2.3996

MULLIKEN ATOMIC CHARGES
-----------------------
   0 C :   -0.248962
   1 C :   -0.170133
   2 C :   -0.250621
   3 C :    0.013423
   4 O :   -0.159647
   5 C :   -0.260576
   6 H :    0.102910
   7 H :    0.101706
   8 H :    0.117145
   9 H :    0.066417
  10 H :    0.116785
  11 H :    0.105598
  12 H :    0.101522
  13 H :    0.114721
  14 H :    0.124218
  15 H :    0.125492
Sum of atomic charges:   -0.0000000

LOEWDIN ATOMIC CHARGES
----------------------
   0 C :   -0.322067
   1 C :   -0.182677
   2 C :   -0.320518
   3 C :    0.050892
   4 O :   -0.121228
   5 C :   -0.363395
   6 H :    0.119794
   7 H :    0.118807
   8 H :    0.126384
   9 H :    0.115028
  10 H :    0.126402
  11 H :    0.120687
  12 H :    0.118453
  13 H :    0.131170
  14 H :    0.140830
  15 H :    0.141438

  Mayer bond orders larger than 0.100000
B(  0-C ,  1-C ) :   1.0948 B(  0-C ,  6-H ) :   0.9502 B(  0-C ,  7-H ) :   0.9529
B(  0-C ,  8-H ) :   0.9438 B(  1-C ,  2-C ) :   1.0930 B(  1-C ,  3-C ) :   0.9073
B(  1-C ,  9-H ) :   0.9023 B(  2-C , 10-H ) :   0.9454 B(  2-C , 11-H ) :   0.9497
B(  2-C , 12-H ) :   0.9518 B(  3-C ,  4-O ) :   2.1966 B(  3-C ,  5-C ) :   1.0791
B(  5-C , 13-H ) :   0.9352 B(  5-C , 14-H ) :   0.9247 B(  5-C , 15-H ) :   0.9250

Dispersion correction           -0.011758794
FINAL SINGLE POINT ENERGY      -271.143293731429

DIPOLE MOMENT
-------------

Method             : SCF
Type of density    : Electron Density
Multiplicity       :   1
Irrep              :   0
Energy             :  -271.1972245015177805 Eh
Relativity type    :
Basis              : AO
                                X                 Y                 Z
Electronic contribution:     -3.281538567       2.220704918      -2.452082987
Nuclear contribution   :      3.475709770      -2.818864368       3.183875056
                        -----------------------------------------
Total Dipole Moment    :      0.194171203      -0.598159450       0.731792070
                        -----------------------------------------
Magnitude (a.u.)       :      0.964892127
Magnitude (Debye)      :      2.452560878

Rotational constants in cm-1:             0.159991             0.086346             0.083118
Rotational constants in MHz :          4796.417322          2588.585299          2491.813373

                             ****ORCA TERMINATED NORMALLY****
TOTAL RUN TIME: 0 days 0 hours 0 minutes 4 seconds 949 msec
