                         Program Version 6.0.0  -   RELEASE  -
|  1> ! r2SCAN-3c DEF2-TZVP FREQ
|  2> * xyzfile 0 1 censo.xyz
|  3>
|  4>                          ****END OF INPUT****

CARTESIAN COORDINATES (ANGSTROEM)
---------------------------------
  C      2.765332   -0.012784    0.730671
  C      1.973297   -0.018828   -0.581963
  C      0.492235    0.021301   -0.329661
  C     -0.199421    1.223303   -0.177408
  C     -1.558975    1.195585    0.108610
  C     -2.189811   -0.035444    0.237274
  N     -1.551841   -1.207024    0.094463
  C     -0.241110   -1.157318   -0.182179
  H      2.505114   -0.882274    1.343462
  H      2.546077    0.888851    1.312025
  H      3.841636   -0.041003    0.534733
  H      2.221462   -0.919297   -1.154339
  H      2.262057    0.846493   -1.188212
  H      0.324084    2.169484   -0.285632
  H     -2.125210    2.113236    0.228186
  H     -3.252586   -0.086255    0.462836
  H      0.261782   -2.116629   -0.299971

 Total Charge           Charge          ....    0
 Multiplicity           Mult            ....    1
 Number of Electrons    NEL             ....   58
 Basis Dimension        Dim             ....  302

ORBITAL ENERGIES
----------------

  NO   OCC          E(Eh)            E(eV)
   0   2.0000     -14.157185      -385.2366
   1   2.0000     -10.064860      -273.8788
   2   2.0000     -10.064754      -273.8759
   3   2.0000     -10.053351      -273.5656
   4   2.0000     -10.051344      -273.5110
   5   2.0000     -10.045194      -273.3436
   6   2.0000     -10.044876      -273.3350
   7   2.0000     -10.031920      -272.9824
   8   2.0000      -0.903706       -24.5911
   9   2.0000      -0.790110       -21.5000
  10   2.0000      -0.749665       -20.3994
  11   2.0000      -0.704571       -19.1723
  12   2.0000      -0.616091       -16.7647
  13   2.0000      -0.599793       -16.3212
  14   2.0000      -0.562516       -15.3068
  15   2.0000      -0.487203       -13.2575
  16   2.0000      -0.462232       -12.5780
  17   2.0000      -0.434703       -11.8289
  18   2.0000      -0.408138       -11.1060
  19   2.0000      -0.402027       -10.9397
  20   2.0000      -0.381729       -10.3874
  21   2.0000      -0.370041       -10.0693
  22   2.0000      -0.357012        -9.7148
  23   2.0000      -0.346251        -9.4220
  24   2.0000      -0.326334        -8.8800
  25   2.0000      -0.315759        -8.5922
  26   2.0000      -0.267031        -7.2663
  27   2.0000      -0.238930        -6.5016
  28   2.0000      -0.223742        -6.0883
  29   0.0000      -0.057233        -1.5574
  30   0.0000      -0.039716        -1.0807
  31   0.0000       0.044893         1.2216
  32   0.0000       0.069097         1.8802
  33   0.0000       0.083114         2.2616

MULLIKEN ATOMIC CHARGES
-----------------------
   0 C :   -0.324498
   1 C :   -0.179553
   2 C :    0.201247
   3 C :   -0.217741
   4 C :   -0.078304
   5 C :   -0.020132
   6 N :   -0.254578
   7 C :   -0.087678
   8 H :    0.112185
   9 H :    0.107224
  10 H :    0.108476
  11 H :    0.096575
  12 H :    0.093098
  13 H :    0.112938
  14 H :    0.110997
  15 H :    0.112071
  16 H :    0.107673
Sum of atomic charges:    0.0000000

LOEWDIN ATOMIC CHARGES
----------------------
   0 C :   -0.294617
   1 C :   -0.243045
   2 C :   -0.159878
   3 C :   -0.096812
   4 C :   -0.150714
   5 C :   -0.208633
   6 N :    0.121739
   7 C :   -0.176732
   8 H :    0.121699
   9 H :    0.120151
  10 H :    0.118370
  11 H :    0.142244
  12 H :    0.140651
  13 H :    0.147583
  14 H :    0.144503
  15 H :    0.134943
  16 H :    0.138547

  Mayer bond orders larger than 0.100000
B(  0-C ,  1-C ) :   0.9694 B(  0-C ,  8-H ) :   0.9738 B(  0-C ,  9-H ) :   0.9742
B(  0-C , 10-H ) :   0.9705 B(  1-C ,  2-C ) :   0.8982 B(  1-C , 11-H ) :   0.9719
B(  1-C , 12-H ) :   0.9725 B(  2-C ,  3-C ) :   1.3623 B(  2-C ,  7-C ) :   1.3301
B(  3-C ,  4-C ) :   1.4266 B(  3-C , 13-H ) :   0.9712 B(  4-C ,  5-C ) :   1.3852
B(  4-C , 14-H ) :   0.9640 B(  5-C ,  6-N ) :   1.4401 B(  5-C , 15-H ) :   0.9806
B(  6-N ,  7-C ) :   1.4779 B(  7-C , 16-H ) :   0.9941

Dispersion correction           -0.005247315
FINAL SINGLE POINT ENERGY      -326.842048464597

DIPOLE MOMENT
-------------

Method             : SCF
Type of density    : Electron Density
Multiplicity       :   1
Irrep              :   0
Energy             :  -326.8443509509161800 Eh
Relativity type    :
Basis              : AO
                                X                 Y                 Z
Electronic contribution:     -7.456645597      -1.116875443      -0.977973888
Nuclear contribution   :      8.090374292       1.868862924       0.898954779
                        -----------------------------------------
Total Dipole Moment    :      0.633728694       0.751987481      -0.079019109
                        -----------------------------------------
Magnitude (a.u.)       :      0.986580584
Magnitude (Debye)      :      2.507688556

VIBRATIONAL FREQUENCIES
-----------------------

Scaling factor for frequencies =  1.000000000  (already applied!)

     0:       0.00 cm**-1
     1:       0.00 cm**-1
     2:       0.00 cm**-1
     3:       0.00 cm**-1
     4:       0.00 cm**-1
     5:       0.00 cm**-1
     6:      51.58 cm**-1
     7:     137.17 cm**-1
     8:     241.08 cm**-1
     9:     301.07 cm**-1
    10:     358.75 cm**-1
    11:     408.05 cm**-1
    12:     505.80 cm**-1
    13:     579.27 cm**-1
    14:     643.29 cm**-1
    15:     731.59 cm**-1
    16:     796.22 cm**-1
    17:     798.81 cm**-1
    18:     817.72 cm**-1
    19:     933.17 cm**-1
    20:     951.21 cm**-1
    21:     972.81 cm**-1
    22:     987.36 cm**-1
    23:    1045.17 cm**-1
    24:    1060.83 cm**-1
    25:    1067.64 cm**-1
    26:    1080.82 cm**-1
    27:    1138.40 cm**-1
    28:    1210.92 cm**-1
    29:    1239.87 cm**-1
    30:    1263.93 cm**-1
    31:    1293.60 cm**-1
    32:    1339.62 cm**-1
    33:    1362.45 cm**-1
    34:    1398.65 cm**-1
    35:    1450.24 cm**-1
    36:    1478.96 cm**-1
    37:    1489.03 cm**-1
    38:    1497.31 cm**-1
    39:    1502.16 cm**-1
    40:    1603.30 cm**-1
    41:    1616.72 cm**-1
    42:    3004.13 cm**-1
    43:    3017.88 cm**-1
    44:    3060.65 cm**-1
    45:    3087.52 cm**-1
    46:    3090.57 cm**-1
    47:    3123.44 cm**-1
    48:    3142.88 cm**-1
    49:    3151.95 cm**-1
    50:    3179.16 cm**-1

IR SPECTRUM
-----------

 Mode   freq       eps      Int      T**2         TX        TY        TZ
       cm**-1   L/(mol*cm) km/mol    a.u.
----------------------------------------------------------------------------
  6:     51.58   0.000095    0.48  0.000574  (-0.013501  0.001675 -0.019716)
  7:    137.17   0.000045    0.23  0.000103  ( 0.002167  0.000032  0.009910)
  8:    241.08   0.000020    0.10  0.000026  (-0.004698  0.001096  0.001548)
  9:    301.07   0.000025    0.13  0.000026  ( 0.001109  0.000587 -0.004909)
 10:    358.75   0.000085    0.43  0.000074  ( 0.008322 -0.002131  0.000191)
 11:    408.05   0.000599    3.03  0.000458  (-0.004481  0.000358 -0.020921)
 12:    505.80   0.000191    0.97  0.000118  (-0.002625  0.003434 -0.009965)
 13:    579.27   0.000235    1.19  0.000127  ( 0.002465  0.006333  0.008970)
 14:    643.29   0.000821    4.15  0.000398  (-0.009434 -0.017354  0.002832)
 15:    731.59   0.007111   35.94  0.003033  (-0.012350 -0.000239 -0.053672)
 16:    796.22   0.000295    1.49  0.000115  ( 0.001555 -0.009328  0.005099)
 17:    798.81   0.000235    1.19  0.000092  ( 0.001029 -0.001563  0.009398)
 18:    817.72   0.002292   11.58  0.000875  (-0.005012 -0.002023 -0.029078)
 19:    933.17   0.000055    0.28  0.000018  ( 0.000528 -0.000258  0.004248)
 20:    951.21   0.000112    0.57  0.000037  ( 0.001199  0.000127 -0.005936)
 21:    972.81   0.000621    3.14  0.000199  ( 0.013462  0.003372 -0.002559)
 22:    987.36   0.000014    0.07  0.000004  (-0.001041 -0.000949  0.001573)
 23:   1045.17   0.002319   11.72  0.000692  (-0.012965 -0.022850  0.001460)
 24:   1060.83   0.000076    0.39  0.000022  ( 0.004493 -0.001462  0.000317)
 25:   1067.64   0.000046    0.23  0.000014  ( 0.001556 -0.003272 -0.000647)
 26:   1080.82   0.002021   10.22  0.000584  ( 0.024019  0.000186 -0.002580)
 27:   1138.40   0.001408    7.12  0.000386  (-0.001509 -0.019569  0.000849)
 28:   1210.92   0.000906    4.58  0.000233  (-0.012963 -0.008079  0.000209)
 29:   1239.87   0.000211    1.07  0.000053  (-0.005263  0.004761 -0.001647)
 30:   1263.93   0.000118    0.60  0.000029  (-0.000365  0.005380  0.000109)
 31:   1293.60   0.000074    0.37  0.000018  ( 0.003874 -0.001576 -0.000566)
 32:   1339.62   0.000106    0.53  0.000025  (-0.004792  0.001292 -0.000133)
 33:   1362.45   0.000239    1.21  0.000055  ( 0.003200 -0.006622 -0.000807)
 34:   1398.65   0.000537    2.71  0.000120  ( 0.001313 -0.000617 -0.010847)
 35:   1450.24   0.004411   22.29  0.000949  ( 0.024159 -0.018553 -0.004626)
 36:   1478.96   0.000287    1.45  0.000061  ( 0.003214 -0.001493  0.006931)
 37:   1489.03   0.002147   10.85  0.000450  ( 0.000770 -0.021172  0.001067)
 38:   1497.31   0.000562    2.84  0.000117  (-0.004802 -0.002478 -0.009377)
 39:   1502.16   0.002959   14.95  0.000615  (-0.023479 -0.001388  0.007841)
 40:   1603.30   0.002015   10.18  0.000392  (-0.007171 -0.018458  0.000223)
 41:   1616.72   0.000637    3.22  0.000123  ( 0.005231  0.008819 -0.004232)
 42:   3004.13   0.005609   28.34  0.000583  ( 0.018934  0.000263  0.014969)
 43:   3017.88   0.005633   28.47  0.000582  (-0.009216 -0.000041  0.022306)
 44:   3060.65   0.000363    1.84  0.000037  (-0.000719 -0.006007  0.000668)
 45:   3087.52   0.008262   41.75  0.000835  ( 0.026453 -0.001197 -0.011569)
 46:   3090.57   0.006447   32.58  0.000651  (-0.001564 -0.025459  0.000584)
 47:   3123.44   0.005703   28.82  0.000570  ( 0.015961 -0.017370 -0.003649)
 48:   3142.88   0.001797    9.08  0.000178  ( 0.013092 -0.000051 -0.002645)
 49:   3151.95   0.003299   16.67  0.000327  ( 0.015846  0.008053 -0.003274)
 50:   3179.16   0.003608   18.24  0.000354  ( 0.011547 -0.014752 -0.001806)

--------------------------
THERMOCHEMISTRY AT 298.15K
--------------------------

Temperature         ...   298.15 K
Pressure            ...     1.00 atm
Total Mass          ...   107.16 AMU
Quasi RRHO          ...     True
Cut-Off Frequency   ...     1.00 cm^-1

Throughout the following assumptions are being made:
  (1) The electronic state is orbitally nondegenerate
  (2) There are no thermally accessible electronically excited states
  (3) Hindered rotations indicated by low frequency modes are not
      treated as such but are treated as vibrations and this may
      cause some error
  (4) All equations used are the standard statistical mechanics
      equations for an ideal gas
  (5) All vibrations are strictly harmonic

freq.      51.58  E(vib)   ...       0.52
freq.     137.17  E(vib)   ...       0.42
freq.     241.08  E(vib)   ...       0.31
freq.     301.07  E(vib)   ...       0.26
freq.     358.75  E(vib)   ...       0.22
freq.     408.05  E(vib)   ...       0.19
freq.     505.80  E(vib)   ...       0.14
freq.     579.27  E(vib)   ...       0.11
freq.     643.29  E(vib)   ...       0.09
freq.     731.59  E(vib)   ...       0.06
freq.     796.22  E(vib)   ...       0.05
freq.     798.81  E(vib)   ...       0.05
freq.     817.72  E(vib)   ...       0.05
freq.     933.17  E(vib)   ...       0.03
freq.     951.21  E(vib)   ...       0.03
freq.     972.81  E(vib)   ...       0.03
freq.     987.36  E(vib)   ...       0.02
freq.    1045.17  E(vib)   ...       0.02
freq.    1060.83  E(vib)   ...       0.02
freq.    1067.64  E(vib)   ...       0.02
freq.    1080.82  E(vib)   ...       0.02
freq.    1138.40  E(vib)   ...       0.01
freq.    1210.92  E(vib)   ...       0.01
freq.    1239.87  E(vib)   ...       0.01
freq.    1263.93  E(vib)   ...       0.01
freq.    1293.60  E(vib)   ...       0.01
freq.    1339.62  E(vib)   ...       0.01
freq.    1362.45  E(vib)   ...       0.01
freq.    1398.65  E(vib)   ...       0.00
freq.    1450.24  E(vib)   ...       0.00
freq.    1478.96  E(vib)   ...       0.00
freq.    1489.03  E(vib)   ...       0.00
freq.    1497.31  E(vib)   ...       0.00
freq.    1502.16  E(vib)   ...       0.00
freq.    1603.30  E(vib)   ...       0.00
freq.    1616.72  E(vib)   ...       0.00
freq.    3004.13  E(vib)   ...       0.00
freq.    3017.88  E(vib)   ...       0.00
freq.    3060.65  E(vib)   ...       0.00
freq.    3087.52  E(vib)   ...       0.00
freq.    3090.57  E(vib)   ...       0.00
freq.    3123.44  E(vib)   ...       0.00
freq.    3142.88  E(vib)   ...       0.00
freq.    3151.95  E(vib)   ...       0.00
freq.    3179.16  E(vib)   ...       0.00

------------
INNER ENERGY
------------

The inner energy is: U= E(el) + E(ZPE) + E(vib) + E(rot) + E(trans)
    E(el)   - is the total energy from the electronic structure calculation
              = E(kin-el) + E(nuc-el) + E(el-el) + E(nuc-nuc)
    E(ZPE)  - the the zero temperature vibrational energy from the frequency calculation
    E(vib)  - the the finite temperature correction to E(ZPE) due to population
              of excited vibrational states
    E(rot)  - is the rotational thermal energy
    E(trans)- is the translational thermal energy

Summary of contributions to the inner energy U:
Electronic energy                ...   -326.84204846 Eh
Zero point energy                ...      0.14400920 Eh      90.37 kcal/mol
Thermal vibrational correction   ...      0.00435185 Eh       2.73 kcal/mol
Thermal rotational correction    ...      0.00141627 Eh       0.89 kcal/mol
Thermal translational correction ...      0.00141627 Eh       0.89 kcal/mol
-----------------------------------------------------------------------
Total thermal energy                   -326.69085488 Eh

Summary of corrections to the electronic energy:
(perhaps to be used in another calculation)
Total thermal correction                  0.00718439 Eh       4.51 kcal/mol
Non-thermal (ZPE) correction              0.14400920 Eh      90.37 kcal/mol
-----------------------------------------------------------------------
Total correction                          0.15119359 Eh      94.88 kcal/mol

--------
ENTHALPY
--------

The enthalpy is H = U + kB*T
                kB is Boltzmann's constant
Total thermal energy              ...   -326.69085488 Eh
Thermal Enthalpy correction       ...      0.00094421 Eh       0.59 kcal/mol
-----------------------------------------------------------------------
Total Enthalpy                    ...   -326.68991067 Eh

Note: Only C1 symmetry has been detected, increase convergence thresholds
      if your molecule has a higher symmetry. Symmetry factor of 1.0 is
      used for the rotational entropy correction.

Note: Rotational entropy computed according to Herzberg
Infrared and Raman Spectra, Chapter V,1, Van Nostrand Reinhold, 1945
Point Group:  C1, Symmetry Number:   1
Rotational constants in cm-1:     0.154454     0.050017     0.041616

Vibrational entropy computed according to the QRRHO of S. Grimme
Chem.Eur.J. 2012 18 9955 using a reference frequency of 100.0 cm-1

-------
ENTROPY
-------

The entropy contributions are T*S = T*(S(el)+S(vib)+S(rot)+S(trans))
     S(el)   - electronic entropy
     S(vib)  - vibrational entropy
     S(rot)  - rotational entropy
     S(trans)- translational entropy
The entropies will be listed as multiplied by the temperature to get
units of energy

Electronic entropy                ...      0.00000000 Eh      0.00 kcal/mol
Vibrational entropy               ...      0.00717724 Eh      4.50 kcal/mol
Rotational entropy                ...      0.01330760 Eh      8.35 kcal/mol
Translational entropy             ...      0.01896913 Eh     11.90 kcal/mol
-----------------------------------------------------------------------
Final entropy term                ...      0.03945397 Eh     24.76 kcal/mol

In case the symmetry of your molecule has not been determined correctly
or in case you have a reason to use a different symmetry number we print
out the resulting rotational entropy values for sn=1,12:

 non-linear molecules -----------------------------------
|  sn= 1 | S(rot)=       0.01330760 Eh      8.35 kcal/mol|
|  sn= 2 | S(rot)=       0.01265314 Eh      7.94 kcal/mol|
|  sn= 3 | S(rot)=       0.01227031 Eh      7.70 kcal/mol|
|  sn= 4 | S(rot)=       0.01199869 Eh      7.53 kcal/mol|
|  sn= 5 | S(rot)=       0.01178800 Eh      7.40 kcal/mol|
|  sn= 6 | S(rot)=       0.01161586 Eh      7.29 kcal/mol|
|  sn= 7 | S(rot)=       0.01147031 Eh      7.20 kcal/mol|
|  sn= 8 | S(rot)=       0.01134423 Eh      7.12 kcal/mol|
|  sn= 9 | S(rot)=       0.01123302 Eh      7.05 kcal/mol|
|  sn=10 | S(rot)=       0.01113354 Eh      6.99 kcal/mol|
|  sn=11 | S(rot)=       0.01104355 Eh      6.93 kcal/mol|
|  sn=12 | S(rot)=       0.01096140 Eh      6.88 kcal/mol|
 linear molecules ---------------------------------------
|  Dinfh | S(rot)=       0.00832760 Eh      5.23 kcal/mol|
|  Cinfv | S(rot)=       0.00898206 Eh      5.64 kcal/mol|

                             ****ORCA TERMINATED NORMALLY****
TOTAL RUN TIME: 0 days 0 hours 13 minutes 4 seconds 348 msec
