                         Program Version 6.0.0  -   RELEASE  -
|  1> ! r2SCAN-3c DEF2-TZVP FREQ
|  2> * xyzfile 0 1 vacuum_censo.xyz
|  3>
|  4>                          ****END OF INPUT****

CARTESIAN COORDINATES (ANGSTROEM)
---------------------------------
  C      2.772471    0.022120    0.731603
  C      1.973257    0.003760   -0.578250
  C      0.490450   -0.028805   -0.326799
  C     -0.206609   -1.225780   -0.169490
  C     -1.565937   -1.191779    0.114355
  C     -2.190583    0.045360    0.234580
  N     -1.548128    1.207758    0.084346
  C     -0.242820    1.153139   -0.189272
  H      2.515246    0.902285    1.328961
  H      3.848494    0.043029    0.534482
  H      2.550186   -0.864594    1.333365
  H      2.262449   -0.870194   -1.173120
  H      2.223483    0.890118   -1.172289
  H      0.312636   -2.175396   -0.273040
  H     -2.135243   -2.107311    0.237172
  H     -3.253969    0.106857    0.459444
  H      0.261054    2.112650   -0.315129

 Total Charge           Charge          ....    0
 Multiplicity           Mult            ....    1
 Number of Electrons    NEL             ....   58
 Basis Dimension        Dim             ....  302

ORBITAL ENERGIES
----------------

  NO   OCC          E(Eh)            E(eV)
   0   2.0000     -14.156318      -385.2130
   1   2.0000     -10.064684      -273.8740
   2   2.0000     -10.064594      -273.8715
   3   2.0000     -10.053120      -273.5593
   4   2.0000     -10.051513      -273.5156
   5   2.0000     -10.045237      -273.3448
   6   2.0000     -10.045150      -273.3424
   7   2.0000     -10.031830      -272.9800
   8   2.0000      -0.905933       -24.6517
   9   2.0000      -0.790020       -21.4975
  10   2.0000      -0.749466       -20.3940
  11   2.0000      -0.704588       -19.1728
  12   2.0000      -0.616557       -16.7774
  13   2.0000      -0.599264       -16.3068
  14   2.0000      -0.563051       -15.3214
  15   2.0000      -0.487231       -13.2582
  16   2.0000      -0.462240       -12.5782
  17   2.0000      -0.434562       -11.8250
  18   2.0000      -0.407718       -11.0946
  19   2.0000      -0.401728       -10.9316
  20   2.0000      -0.382068       -10.3966
  21   2.0000      -0.370104       -10.0711
  22   2.0000      -0.357542        -9.7292
  23   2.0000      -0.346428        -9.4268
  24   2.0000      -0.326166        -8.8754
  25   2.0000      -0.315534        -8.5861
  26   2.0000      -0.267705        -7.2846
  27   2.0000      -0.238755        -6.4969
  28   2.0000      -0.223316        -6.0767
  29   0.0000      -0.056209        -1.5295
  30   0.0000      -0.040184        -1.0935
  31   0.0000       0.045098         1.2272
  32   0.0000       0.069062         1.8793
  33   0.0000       0.083486         2.2718

MULLIKEN ATOMIC CHARGES
-----------------------
   0 C :   -0.324627
   1 C :   -0.181893
   2 C :    0.199399
   3 C :   -0.215995
   4 C :   -0.079187
   5 C :   -0.019558
   6 N :   -0.252827
   7 C :   -0.086637
   8 H :    0.112146
   9 H :    0.108961
  10 H :    0.107249
  11 H :    0.093367
  12 H :    0.096975
  13 H :    0.112557
  14 H :    0.111229
  15 H :    0.111593
  16 H :    0.107247
Sum of atomic charges:   -0.0000000

LOEWDIN ATOMIC CHARGES
----------------------
   0 C :   -0.294732
   1 C :   -0.242915
   2 C :   -0.158686
   3 C :   -0.097751
   4 C :   -0.149832
   5 C :   -0.210023
   6 N :    0.124303
   7 C :   -0.178688
   8 H :    0.121414
   9 H :    0.118302
  10 H :    0.119990
  11 H :    0.140476
  12 H :    0.142169
  13 H :    0.147715
  14 H :    0.144409
  15 H :    0.135067
  16 H :    0.138781

  Mayer bond orders larger than 0.100000
B(  0-C ,  1-C ) :   0.9696 B(  0-C ,  8-H ) :   0.9741 B(  0-C ,  9-H ) :   0.9703
B(  0-C , 10-H ) :   0.9743 B(  1-C ,  2-C ) :   0.8984 B(  1-C , 11-H ) :   0.9728
B(  1-C , 12-H ) :   0.9716 B(  2-C ,  3-C ) :   1.3653 B(  2-C ,  7-C ) :   1.3268
B(  3-C ,  4-C ) :   1.4271 B(  3-C , 13-H ) :   0.9712 B(  4-C ,  5-C ) :   1.3832
B(  4-C , 14-H ) :   0.9642 B(  5-C ,  6-N ) :   1.4415 B(  5-C , 15-H ) :   0.9805
B(  6-N ,  7-C ) :   1.4814 B(  7-C , 16-H ) :   0.9940

Dispersion correction           -0.005243143
FINAL SINGLE POINT ENERGY      -326.842157225684

DIPOLE MOMENT
-------------

Method             : SCF
Type of density    : Electron Density
Multiplicity       :   1
Irrep              :   0
Energy             :  -326.8444778620362854 Eh
Relativity type    :
Basis              : AO
                                X                 Y                 Z
Electronic contribution:     -7.471163412       1.106344320      -0.978873573
Nuclear contribution   :      8.096943126      -1.855194546       0.905095893
                        -----------------------------------------
Total Dipole Moment    :      0.625779713      -0.748850226      -0.073777681
                        -----------------------------------------
Magnitude (a.u.)       :      0.978682817
Magnitude (Debye)      :      2.487614027

VIBRATIONAL FREQUENCIES
-----------------------

Scaling factor for frequencies =  1.000000000  (already applied!)

     0:       0.00 cm**-1
     1:       0.00 cm**-1
     2:       0.00 cm**-1
     3:       0.00 cm**-1
     4:       0.00 cm**-1
     5:       0.00 cm**-1
     6:      49.36 cm**-1
     7:     135.36 cm**-1
     8:     230.51 cm**-1
     9:     299.70 cm**-1
    10:     356.48 cm**-1
    11:     405.55 cm**-1
    12:     504.88 cm**-1
    13:     578.63 cm**-1
    14:     642.97 cm**-1
    15:     732.42 cm**-1
    16:     793.19 cm**-1
    17:     797.92 cm**-1
    18:     818.88 cm**-1
    19:     937.60 cm**-1
    20:     954.97 cm**-1
    21:     970.25 cm**-1
    22:     989.36 cm**-1
    23:    1045.81 cm**-1
    24:    1062.29 cm**-1
    25:    1065.24 cm**-1
    26:    1080.02 cm**-1
    27:    1142.07 cm**-1
    28:    1214.88 cm**-1
    29:    1241.51 cm**-1
    30:    1266.37 cm**-1
    31:    1305.94 cm**-1
    32:    1341.11 cm**-1
    33:    1365.75 cm**-1
    34:    1397.59 cm**-1
    35:    1454.09 cm**-1
    36:    1480.59 cm**-1
    37:    1487.67 cm**-1
    38:    1498.83 cm**-1
    39:    1505.33 cm**-1
    40:    1605.21 cm**-1
    41:    1621.60 cm**-1
    42:    3008.68 cm**-1
    43:    3014.20 cm**-1
    44:    3055.45 cm**-1
    45:    3091.48 cm**-1
    46:    3092.94 cm**-1
    47:    3108.51 cm**-1
    48:    3133.67 cm**-1
    49:    3147.11 cm**-1
    50:    3177.10 cm**-1

IR SPECTRUM
-----------

 Mode   freq       eps      Int      T**2         TX        TY        TZ
       cm**-1   L/(mol*cm) km/mol    a.u.
----------------------------------------------------------------------------
  6:     49.36   0.000100    0.50  0.000630  (-0.013832 -0.001791 -0.020862)
  7:    135.36   0.000039    0.20  0.000091  ( 0.001614 -0.000023  0.009382)
  8:    230.51   0.000019    0.10  0.000026  (-0.004732 -0.001200  0.001358)
  9:    299.70   0.000025    0.13  0.000026  ( 0.000863 -0.000815 -0.004993)
 10:    356.48   0.000084    0.42  0.000073  ( 0.008300  0.002044  0.000229)
 11:    405.55   0.000589    2.98  0.000453  (-0.004520 -0.000391 -0.020806)
 12:    504.88   0.000194    0.98  0.000120  (-0.002632 -0.003517 -0.010032)
 13:    578.63   0.000229    1.16  0.000124  ( 0.002594 -0.006570  0.008594)
 14:    642.97   0.000825    4.17  0.000400  (-0.009401  0.017468  0.002641)
 15:    732.42   0.006890   34.82  0.002936  (-0.011978  0.000051 -0.052842)
 16:    793.19   0.000242    1.22  0.000095  ( 0.001501  0.009172  0.002945)
 17:    797.92   0.000310    1.57  0.000121  ( 0.001688  0.003511  0.010303)
 18:    818.88   0.002462   12.44  0.000938  (-0.005154  0.001921 -0.030135)
 19:    937.60   0.000058    0.29  0.000019  ( 0.000641  0.000463  0.004311)
 20:    954.97   0.000118    0.60  0.000039  ( 0.001175 -0.000151 -0.006104)
 21:    970.25   0.000586    2.96  0.000188  ( 0.013110 -0.003040 -0.002693)
 22:    989.36   0.000011    0.06  0.000004  (-0.000708  0.000877  0.001495)
 23:   1045.81   0.002321   11.73  0.000693  (-0.013056  0.022809  0.001360)
 24:   1062.29   0.000078    0.40  0.000023  (-0.004750  0.000562 -0.000376)
 25:   1065.24   0.000109    0.55  0.000032  ( 0.004609  0.003156 -0.000795)
 26:   1080.02   0.001908    9.64  0.000551  ( 0.023337 -0.000235 -0.002589)
 27:   1142.07   0.001333    6.74  0.000364  (-0.001050  0.019046  0.000707)
 28:   1214.88   0.001011    5.11  0.000260  (-0.013726  0.008450  0.000008)
 29:   1241.51   0.000219    1.11  0.000055  (-0.004090 -0.005974 -0.001618)
 30:   1266.37   0.000176    0.89  0.000043  (-0.001140 -0.006477  0.000378)
 31:   1305.94   0.000034    0.17  0.000008  ( 0.002797 -0.000498 -0.000233)
 32:   1341.11   0.000122    0.62  0.000028  ( 0.005167  0.001303  0.000309)
 33:   1365.75   0.000286    1.44  0.000065  ( 0.003922  0.006988 -0.001027)
 34:   1397.59   0.000521    2.63  0.000116  ( 0.001425  0.000312 -0.010687)
 35:   1454.09   0.004406   22.27  0.000946  ( 0.024495  0.017969 -0.004767)
 36:   1480.59   0.000307    1.55  0.000065  ( 0.004577  0.001821  0.006365)
 37:   1487.67   0.002173   10.98  0.000456  ( 0.000485  0.021336  0.000611)
 38:   1498.83   0.000636    3.22  0.000133  (-0.001202 -0.001625  0.011332)
 39:   1505.33   0.002839   14.35  0.000588  (-0.023542  0.002249  0.005401)
 40:   1605.21   0.002475   12.51  0.000481  (-0.007757  0.020489  0.001113)
 41:   1621.60   0.000264    1.33  0.000051  ( 0.004469 -0.003584 -0.004233)
 42:   3008.68   0.005378   27.18  0.000558  ( 0.020415 -0.000256  0.011873)
 43:   3014.20   0.006147   31.06  0.000636  (-0.007086  0.000759  0.024200)
 44:   3055.45   0.000937    4.74  0.000096  (-0.000922  0.009738  0.000192)
 45:   3091.48   0.007554   38.18  0.000763  ( 0.024101  0.007301 -0.011329)
 46:   3092.94   0.005991   30.28  0.000604  (-0.008550  0.022816  0.003285)
 47:   3108.51   0.006188   31.27  0.000621  ( 0.016313  0.018436 -0.003902)
 48:   3133.67   0.002663   13.46  0.000265  ( 0.015966  0.000171 -0.003202)
 49:   3147.11   0.002837   14.34  0.000281  ( 0.014049 -0.008700 -0.002868)
 50:   3177.10   0.003485   17.61  0.000342  ( 0.011265  0.014564 -0.001818)

--------------------------
THERMOCHEMISTRY AT 298.15K
--------------------------

Temperature         ...   298.15 K
Pressure            ...     1.00 atm
Total Mass          ...   107.16 AMU
Quasi RRHO          ...     True
Cut-Off Frequency   ...     1.00 cm^-1

Throughout the following assumptions are being made:
  (1) The electronic state is orbitally nondegenerate
  (2) There are no thermally accessible electronically excited states
  (3) Hindered rotations indicated by low frequency modes are not
      treated as such but are treated as vibrations and this may
      cause some error
  (4) All equations used are the standard statistical mechanics
      equations for an ideal gas
  (5) All vibrations are strictly harmonic

freq.      49.36  E(vib)   ...       0.52
freq.     135.36  E(vib)   ...       0.42
freq.     230.51  E(vib)   ...       0.32
freq.     299.70  E(vib)   ...       0.26
freq.     356.48  E(vib)   ...       0.22
freq.     405.55  E(vib)   ...       0.19
freq.     504.88  E(vib)   ...       0.14
freq.     578.63  E(vib)   ...       0.11
freq.     642.97  E(vib)   ...       0.09
freq.     732.42  E(vib)   ...       0.06
freq.     793.19  E(vib)   ...       0.05
freq.     797.92  E(vib)   ...       0.05
freq.     818.88  E(vib)   ...       0.05
freq.     937.60  E(vib)   ...       0.03
freq.     954.97  E(vib)   ...       0.03
freq.     970.25  E(vib)   ...       0.03
freq.     989.36  E(vib)   ...       0.02
freq.    1045.81  E(vib)   ...       0.02
freq.    1062.29  E(vib)   ...       0.02
freq.    1065.24  E(vib)   ...       0.02
freq.    1080.02  E(vib)   ...       0.02
freq.    1142.07  E(vib)   ...       0.01
freq.    1214.88  E(vib)   ...       0.01
freq.    1241.51  E(vib)   ...       0.01
freq.    1266.37  E(vib)   ...       0.01
freq.    1305.94  E(vib)   ...       0.01
freq.    1341.11  E(vib)   ...       0.01
freq.    1365.75  E(vib)   ...       0.01
freq.    1397.59  E(vib)   ...       0.00
freq.    1454.09  E(vib)   ...       0.00
freq.    1480.59  E(vib)   ...       0.00
freq.    1487.67  E(vib)   ...       0.00
freq.    1498.83  E(vib)   ...       0.00
freq.    1505.33  E(vib)   ...       0.00
freq.    1605.21  E(vib)   ...       0.00
freq.    1621.60  E(vib)   ...       0.00
freq.    3008.68  E(vib)   ...       0.00
freq.    3014.20  E(vib)   ...       0.00
freq.    3055.45  E(vib)   ...       0.00
freq.    3091.48  E(vib)   ...       0.00
freq.    3092.94  E(vib)   ...       0.00
freq.    3108.51  E(vib)   ...       0.00
freq.    3133.67  E(vib)   ...       0.00
freq.    3147.11  E(vib)   ...       0.00
freq.    3177.10  E(vib)   ...       0.00

------------
INNER ENERGY
------------

The inner energy is: U= E(el) + E(ZPE) + E(vib) + E(rot) + E(trans)
    E(el)   - is the total energy from the electronic structure calculation
              = E(kin-el) + E(nuc-el) + E(el-el) + E(nuc-nuc)
    E(ZPE)  - the the zero temperature vibrational energy from the frequency calculation
    E(vib)  - the the finite temperature correction to E(ZPE) due to population
              of excited vibrational states
    E(rot)  - is the rotational thermal energy
    E(trans)- is the translational thermal energy

Summary of contributions to the inner energy U:
Electronic energy                ...   -326.84215723 Eh
Zero point energy                ...      0.14400089 Eh      90.36 kcal/mol
Thermal vibrational correction   ...      0.00438034 Eh       2.75 kcal/mol
Thermal rotational correction    ...      0.00141627 Eh       0.89 kcal/mol
Thermal translational correction ...      0.00141627 Eh       0.89 kcal/mol
-----------------------------------------------------------------------
Total thermal energy                   -326.69094345 Eh

Summary of corrections to the electronic energy:
(perhaps to be used in another calculation)
Total thermal correction                  0.00721289 Eh       4.53 kcal/mol
Non-thermal (ZPE) correction              0.14400089 Eh      90.36 kcal/mol
-----------------------------------------------------------------------
Total correction                          0.15121377 Eh      94.89 kcal/mol

--------
ENTHALPY
--------

The enthalpy is H = U + kB*T
                kB is Boltzmann's constant
Total thermal energy              ...   -326.69094345 Eh
Thermal Enthalpy correction       ...      0.00094421 Eh       0.59 kcal/mol
-----------------------------------------------------------------------
Total Enthalpy                    ...   -326.68999924 Eh

Note: Only C1 symmetry has been detected, increase convergence thresholds
      if your molecule has a higher symmetry. Symmetry factor of 1.0 is
      used for the rotational entropy correction.

Note: Rotational entropy computed according to Herzberg
Infrared and Raman Spectra, Chapter V,1, Van Nostrand Reinhold, 1945
Point Group:  C1, Symmetry Number:   1
Rotational constants in cm-1:     0.154743     0.049905     0.041547

Vibrational entropy computed according to the QRRHO of S. Grimme
Chem.Eur.J. 2012 18 9955 using a reference frequency of 100.0 cm-1

-------
ENTROPY
-------

The entropy contributions are T*S = T*(S(el)+S(vib)+S(rot)+S(trans))
     S(el)   - electronic entropy
     S(vib)  - vibrational entropy
     S(rot)  - rotational entropy
     S(trans)- translational entropy
The entropies will be listed as multiplied by the temperature to get
units of energy

Electronic entropy                ...      0.00000000 Eh      0.00 kcal/mol
Vibrational entropy               ...      0.00725207 Eh      4.55 kcal/mol
Rotational entropy                ...      0.01330857 Eh      8.35 kcal/mol
Translational entropy             ...      0.01896913 Eh     11.90 kcal/mol
-----------------------------------------------------------------------
Final entropy term                ...      0.03952976 Eh     24.81 kcal/mol

In case the symmetry of your molecule has not been determined correctly
or in case you have a reason to use a different symmetry number we print
out the resulting rotational entropy values for sn=1,12:

 non-linear molecules -----------------------------------
|  sn= 1 | S(rot)=       0.01330857 Eh      8.35 kcal/mol|
|  sn= 2 | S(rot)=       0.01265411 Eh      7.94 kcal/mol|
|  sn= 3 | S(rot)=       0.01227128 Eh      7.70 kcal/mol|
|  sn= 4 | S(rot)=       0.01199965 Eh      7.53 kcal/mol|
|  sn= 5 | S(rot)=       0.01178897 Eh      7.40 kcal/mol|
|  sn= 6 | S(rot)=       0.01161682 Eh      7.29 kcal/mol|
|  sn= 7 | S(rot)=       0.01147128 Eh      7.20 kcal/mol|
|  sn= 8 | S(rot)=       0.01134520 Eh      7.12 kcal/mol|
|  sn= 9 | S(rot)=       0.01123399 Eh      7.05 kcal/mol|
|  sn=10 | S(rot)=       0.01113451 Eh      6.99 kcal/mol|
|  sn=11 | S(rot)=       0.01104452 Eh      6.93 kcal/mol|
|  sn=12 | S(rot)=       0.01096237 Eh      6.88 kcal/mol|
 linear molecules ---------------------------------------
|  Dinfh | S(rot)=       0.00832918 Eh      5.23 kcal/mol|
|  Cinfv | S(rot)=       0.00898364 Eh      5.64 kcal/mol|

                             ****ORCA TERMINATED NORMALLY****
TOTAL RUN TIME: 0 days 0 hours 12 minutes 58 seconds 695 msec
