                         Program Version 6.0.1  -  RELEASE   -
|  1> ! pbe def2-sv(p) def2/J RI DEFGRID1 loosescf d4 GCP(DFT/SV(P)) printgap
|  2> %output
|  3>     printlevel normal
|  4> end
|  5> * xyz 0 1
|  6> C -2.3013584639 -1.0488671073 -0.2786654521
|  7> C -0.9203112462 -0.5620510669 0.1874146734
|  8> H -0.8182486797 -0.7678480438 1.2652255184
|  9> C -0.7453648265 0.9616140838 -0.0255037243
| 10> H -1.3916872089 1.3119975422 -0.847531139
| 11> C 0.7118380195 1.2416724329 -0.4497690983
| 12> H 0.9323091583 2.3003320031 -0.2808126295
| 13> C 1.6521185538 0.3685253657 0.3990297999
| 14> H 2.6948969494 0.5595715863 0.1125436864
| 15> C 1.3591114898 -1.1286366103 0.0778766222
| 16> H 1.3956329982 -1.7072343648 1.012614161
| 17> O 0.0696932188 -1.2726883005 -0.5215570699
| 18> O 2.2866602396 -1.6882468574 -0.7696575089
| 19> O 1.5378850814 0.6434215216 1.7683061467
| 20> O 0.8856616392 1.0042105442 -1.8217658044
| 21> O -1.0263233851 1.6766429186 1.1570366954
| 22> O -3.3317130378 -0.2719478842 0.2864100539
| 23> H -2.4525837553 -2.0747698136 0.0622179219
| 24> H -2.3346859636 -1.0387423206 -1.3730939258
| 25> H 2.3321230103 -1.1737083853 -1.5870287455
| 26> H 0.69760389 1.0984502918 1.9329601338
| 27> H 0.5534552596 0.1116108751 -2.0051761707
| 28> H -1.9057479349 1.4244649972 1.4690932707
| 29> H -3.4924175246 0.5040885046 -0.2609714025
| 30> *
| 31>
| 32>                          ****END OF INPUT****

CARTESIAN COORDINATES (ANGSTROEM)
---------------------------------
  C     -2.301358   -1.048867   -0.278665
  C     -0.920311   -0.562051    0.187415
  H     -0.818249   -0.767848    1.265226
  C     -0.745365    0.961614   -0.025504
  H     -1.391687    1.311998   -0.847531
  C      0.711838    1.241672   -0.449769
  H      0.932309    2.300332   -0.280813
  C      1.652119    0.368525    0.399030
  H      2.694897    0.559572    0.112544
  C      1.359111   -1.128637    0.077877
  H      1.395633   -1.707234    1.012614
  O      0.069693   -1.272688   -0.521557
  O      2.286660   -1.688247   -0.769658
  O      1.537885    0.643422    1.768306
  O      0.885662    1.004211   -1.821766
  O     -1.026323    1.676643    1.157037
  O     -3.331713   -0.271948    0.286410
  H     -2.452584   -2.074770    0.062218
  H     -2.334686   -1.038742   -1.373094
  H      2.332123   -1.173708   -1.587029
  H      0.697604    1.098450    1.932960
  H      0.553455    0.111611   -2.005176
  H     -1.905748    1.424465    1.469093
  H     -3.492418    0.504089   -0.260971

 Total Charge           Charge          ....    0
 Multiplicity           Mult            ....    1
 Number of Electrons    NEL             ....   96
 Basis Dimension        Dim             ....  192

ORBITAL ENERGIES
----------------

  NO   OCC          E(Eh)            E(eV)
   0   2.0000     -18.788547      -511.2624
   1   2.0000     -18.783630      -511.1286
   2   2.0000     -18.782641      -511.1017
   3   2.0000     -18.764466      -510.6071
   4   2.0000     -18.763957      -510.5932
   5   2.0000     -18.744065      -510.0519
   6   2.0000      -9.987575      -271.7757
   7   2.0000      -9.961372      -271.0627
   8   2.0000      -9.957964      -270.9700
   9   2.0000      -9.954537      -270.8767
  10   2.0000      -9.953773      -270.8559
  11   2.0000      -9.939646      -270.4715
  12   2.0000      -0.996662       -27.1206
  13   2.0000      -0.963587       -26.2205
  14   2.0000      -0.954408       -25.9708
  15   2.0000      -0.941675       -25.6243
  16   2.0000      -0.927375       -25.2352
  17   2.0000      -0.922561       -25.1042
  18   2.0000      -0.711677       -19.3657
  19   2.0000      -0.690151       -18.7800
  20   2.0000      -0.635628       -17.2963
  21   2.0000      -0.593201       -16.1418
  22   2.0000      -0.583305       -15.8725
  23   2.0000      -0.540193       -14.6994
  24   2.0000      -0.520310       -14.1583
  25   2.0000      -0.502440       -13.6721
  26   2.0000      -0.489137       -13.3101
  27   2.0000      -0.470127       -12.7928
  28   2.0000      -0.465349       -12.6628
  29   2.0000      -0.447539       -12.1782
  30   2.0000      -0.423221       -11.5164
  31   2.0000      -0.411399       -11.1947
  32   2.0000      -0.395365       -10.7584
  33   2.0000      -0.382695       -10.4137
  34   2.0000      -0.369827       -10.0635
  35   2.0000      -0.360687        -9.8148
  36   2.0000      -0.342903        -9.3309
  37   2.0000      -0.329133        -8.9562
  38   2.0000      -0.313905        -8.5418
  39   2.0000      -0.305411        -8.3107
  40   2.0000      -0.303310        -8.2535
  41   2.0000      -0.291438        -7.9304
  42   2.0000      -0.263558        -7.1718
  43   2.0000      -0.259767        -7.0686
  44   2.0000      -0.252783        -6.8786
  45   2.0000      -0.234097        -6.3701
  46   2.0000      -0.230207        -6.2643
  47   2.0000      -0.203858        -5.5473
  48   0.0000      -0.014144        -0.3849
  49   0.0000       0.009109         0.2479
  50   0.0000       0.038593         1.0502
  51   0.0000       0.043571         1.1856
  52   0.0000       0.050938         1.3861

MULLIKEN ATOMIC CHARGES
-----------------------
   0 C :    0.052589
   1 C :    0.015596
   2 H :    0.064031
   3 C :   -0.013811
   4 H :    0.055227
   5 C :    0.023432
   6 H :    0.094057
   7 C :    0.028108
   8 H :    0.081370
   9 C :    0.172721
  10 H :    0.078515
  11 O :   -0.307201
  12 O :   -0.367516
  13 O :   -0.420358
  14 O :   -0.419703
  15 O :   -0.412289
  16 O :   -0.432679
  17 H :    0.106070
  18 H :    0.088827
  19 H :    0.292840
  20 H :    0.305581
  21 H :    0.297717
  22 H :    0.304054
  23 H :    0.312821
Sum of atomic charges:    0.0000000

LOEWDIN ATOMIC CHARGES
----------------------
   0 C :   -0.121522
   1 C :   -0.085916
   2 H :    0.108625
   3 C :   -0.087758
   4 H :    0.097144
   5 C :   -0.070639
   6 H :    0.124494
   7 C :   -0.092816
   8 H :    0.115677
   9 C :   -0.003244
  10 H :    0.109260
  11 O :   -0.160039
  12 O :   -0.279746
  13 O :   -0.321310
  14 O :   -0.311424
  15 O :   -0.309364
  16 O :   -0.326560
  17 H :    0.121982
  18 H :    0.105898
  19 H :    0.278085
  20 H :    0.272737
  21 H :    0.265371
  22 H :    0.281877
  23 H :    0.289189

  Mayer bond orders larger than 0.100000
B(  0-C ,  1-C ) :   1.0193 B(  0-C , 16-O ) :   1.0674 B(  0-C , 17-H ) :   0.9243
B(  0-C , 18-H ) :   0.9223 B(  1-C ,  2-H ) :   0.8583 B(  1-C ,  3-C ) :   0.9805
B(  1-C , 11-O ) :   1.0263 B(  3-C ,  4-H ) :   0.8858 B(  3-C ,  5-C ) :   0.9985
B(  3-C , 15-O ) :   1.0353 B(  5-C ,  6-H ) :   0.8903 B(  5-C ,  7-C ) :   0.9986
B(  5-C , 14-O ) :   1.0456 B(  7-C ,  8-H ) :   0.9012 B(  7-C ,  9-C ) :   0.9224
B(  7-C , 13-O ) :   1.0895 B(  9-C , 10-H ) :   0.8964 B(  9-C , 11-O ) :   0.9563
B(  9-C , 12-O ) :   1.1614 B( 12-O , 19-H ) :   0.8341 B( 13-O , 20-H ) :   0.8053
B( 14-O , 21-H ) :   0.8135 B( 15-O , 20-H ) :   0.1086 B( 15-O , 22-H ) :   0.8233
B( 16-O , 23-H ) :   0.8397

Dispersion correction           -0.025349048
FINAL SINGLE POINT ENERGY      -685.691362638589

DIPOLE MOMENT
-------------

Method             : SCF
Type of density    : Electron Density
Multiplicity       :   1
Irrep              :   0
Energy             :  -685.8262117227313865 Eh
Relativity type    :
Basis              : AO
                                X                 Y                 Z
Electronic contribution:      2.289121018      -0.224456643      -0.042492238
Nuclear contribution   :     -3.548805053       0.515670860      -0.467583631
                        -----------------------------------------
Total Dipole Moment    :     -1.259684035       0.291214217      -0.510075868
                        -----------------------------------------
Magnitude (a.u.)       :      1.389887398
Magnitude (Debye)      :      3.532813010

Rotational constants in cm-1:             0.043970             0.025644             0.021894
Rotational constants in MHz :          1318.175668           768.799107           656.375004

                             ****ORCA TERMINATED NORMALLY****
TOTAL RUN TIME: 0 days 0 hours 0 minutes 9 seconds 469 msec
