                         Program Version 6.0.1  -  RELEASE   -
|  1> ! r2scan-3c def2/J RI DEFGRID2 scfconv6 printgap
|  2> %output
|  3>     printlevel normal
|  4> end
|  5> * xyz 0 1
|  6> C 1.2282794605 0.564111289 6.25249e-05
|  7> C 0.2835604154 -0.6154076148 6.16563e-05
|  8> Br -1.5558024403 0.0278289076 -1.16843e-05
|  9> Cl 2.9086729738 -0.0425086568 -2.75087e-05
| 10> H 1.1016052985 1.1785693026 -0.8921476648
| 11> H 1.1015983519 1.1785833924 0.8923088324
| 12> H 0.4039640607 -1.2283435056 0.8923517582
| 13> H 0.4039906343 -1.2284832205 -0.8920988471
| 14> *
| 15>
| 16>                          ****END OF INPUT****

CARTESIAN COORDINATES (ANGSTROEM)
---------------------------------
  C      1.228279    0.564111    0.000063
  C      0.283560   -0.615408    0.000062
  Br    -1.555802    0.027829   -0.000012
  Cl     2.908673   -0.042509   -0.000028
  H      1.101605    1.178569   -0.892148
  H      1.101598    1.178583    0.892309
  H      0.403964   -1.228344    0.892352
  H      0.403991   -1.228483   -0.892099

 Total Charge           Charge          ....    0
 Multiplicity           Mult            ....    1
 Number of Electrons    NEL             ....   68
 Basis Dimension        Dim             ....  121

ORBITAL ENERGIES
----------------

  NO   OCC          E(Eh)            E(eV)
   0   2.0000    -482.230536    -13122.1600
   1   2.0000    -101.219252     -2754.3159
   2   2.0000     -62.302514     -1695.3376
   3   2.0000     -56.083074     -1526.0980
   4   2.0000     -56.080235     -1526.0208
   5   2.0000     -56.080138     -1526.0181
   6   2.0000     -10.114660      -275.2339
   7   2.0000     -10.111102      -275.1371
   8   2.0000      -9.375170      -255.1113
   9   2.0000      -8.634636      -234.9604
  10   2.0000      -7.121524      -193.7865
  11   2.0000      -7.111269      -193.5075
  12   2.0000      -7.111026      -193.5008
  13   2.0000      -6.442346      -175.3052
  14   2.0000      -6.428451      -174.9271
  15   2.0000      -6.428114      -174.9179
  16   2.0000      -2.539862       -69.1132
  17   2.0000      -2.536455       -69.0205
  18   2.0000      -2.536211       -69.0138
  19   2.0000      -2.525871       -68.7324
  20   2.0000      -2.525848       -68.7318
  21   2.0000      -0.848621       -23.0921
  22   2.0000      -0.783871       -21.3302
  23   2.0000      -0.685513       -18.6537
  24   2.0000      -0.600831       -16.3494
  25   2.0000      -0.478010       -13.0073
  26   2.0000      -0.432220       -11.7613
  27   2.0000      -0.419468       -11.4143
  28   2.0000      -0.385147       -10.4804
  29   2.0000      -0.361780        -9.8445
  30   2.0000      -0.289007        -7.8643
  31   2.0000      -0.282685        -7.6922
  32   2.0000      -0.268332        -7.3017
  33   2.0000      -0.265841        -7.2339
  34   0.0000      -0.044553        -1.2123
  35   0.0000       0.004741         0.1290
  36   0.0000       0.094861         2.5813
  37   0.0000       0.098133         2.6703
  38   0.0000       0.127551         3.4708

MULLIKEN ATOMIC CHARGES
-----------------------
   0 C :   -0.168823
   1 C :   -0.212487
   2 Br:   -0.148186
   3 Cl:   -0.176008
   4 H :    0.173942
   5 H :    0.173942
   6 H :    0.178807
   7 H :    0.178813
Sum of atomic charges:   -0.0000000

LOEWDIN ATOMIC CHARGES
----------------------
   0 C :   -0.354789
   1 C :   -0.421389
   2 Br:    0.096951
   3 Cl:    0.021390
   4 H :    0.164133
   5 H :    0.164140
   6 H :    0.164783
   7 H :    0.164781

  Mayer bond orders larger than 0.100000
B(  0-C ,  1-C ) :   0.9453 B(  0-C ,  3-Cl) :   0.9588 B(  0-C ,  4-H ) :   0.9518
B(  0-C ,  5-H ) :   0.9518 B(  1-C ,  2-Br) :   0.9631 B(  1-C ,  6-H ) :   0.9503
B(  1-C ,  7-H ) :   0.9503

Dispersion correction           -0.001908254
FINAL SINGLE POINT ENERGY     -3112.911112634964

DIPOLE MOMENT
-------------

Method             : SCF
Type of density    : Electron Density
Multiplicity       :   1
Irrep              :   0
Energy             : -3112.9156735647898131 Eh
Relativity type    :
Basis              : AO
                                X                 Y                 Z
Electronic contribution:    -13.351768122       0.296889247      -0.000474816
Nuclear contribution   :     13.366900472      -0.294853733       0.000533894
                        -----------------------------------------
Total Dipole Moment    :      0.015132350       0.002035514       0.000059078
                        -----------------------------------------
Magnitude (a.u.)       :      0.015268753
Magnitude (Debye)      :      0.038810086

Rotational constants in cm-1:             0.960594             0.032518             0.031834
Rotational constants in MHz :         28797.887958           974.851151           954.362330

                             ****ORCA TERMINATED NORMALLY****
TOTAL RUN TIME: 0 days 0 hours 0 minutes 16 seconds 949 msec
