                         Program Version 6.0.1  -  RELEASE   -
|  1> ! pbe def2-sv(p) def2/J RI DEFGRID1 loosescf d4 GCP(DFT/SV(P)) printgap
|  2> %output
|  3>     printlevel normal
|  4> end
|  5> * xyz 0 1
|  6> C -2.3433202069 -1.0487700317 0.3483116331
|  7> C -1.0840668958 -0.2778575421 0.805487807
|  8> H -1.3282764796 0.1649415957 1.7841699331
|  9> C -0.6935643787 0.8605749791 -0.1464099394
| 10> H -0.7105851528 0.5341407834 -1.192173395
| 11> C 0.7360343061 1.3027131904 0.1969626516
| 12> H 0.7955734233 1.503433668 1.2821919403
| 13> C 1.7080388617 0.1603115407 -0.1370468202
| 14> H 1.9578269513 0.2259009159 -1.2064081796
| 15> C 1.0143723413 -1.1983300603 0.0850604319
| 16> H 1.7520927792 -1.8975691421 0.507696017
| 17> O 0.0053286449 -1.154558417 1.0551990025
| 18> O 0.5447339979 -1.6330802524 -1.1530204806
| 19> O 2.8644697941 0.2095621158 0.6514597163
| 20> O 1.0980072064 2.4585520971 -0.5167375725
| 21> O -1.5893713408 1.9441305646 -0.0818876547
| 22> O -2.2001285734 -1.7509046134 -0.8570861397
| 23> H -3.1749914411 -0.3337389325 0.2925514003
| 24> H -2.5699312977 -1.8056797359 1.1020227818
| 25> H -0.145490348 -2.3004779237 -1.0053147528
| 26> H 3.2799623477 1.0692743078 0.5122328942
| 27> H 0.2850689379 2.9350274466 -0.7370759402
| 28> H -1.6397603077 2.26010324 0.8294376495
| 29> H -2.0840299508 -1.1257398632 -1.5824034479
| 30> *
| 31>
| 32>                          ****END OF INPUT****

CARTESIAN COORDINATES (ANGSTROEM)
---------------------------------
  C     -2.343320   -1.048770    0.348312
  C     -1.084067   -0.277858    0.805488
  H     -1.328276    0.164942    1.784170
  C     -0.693564    0.860575   -0.146410
  H     -0.710585    0.534141   -1.192173
  C      0.736034    1.302713    0.196963
  H      0.795573    1.503434    1.282192
  C      1.708039    0.160312   -0.137047
  H      1.957827    0.225901   -1.206408
  C      1.014372   -1.198330    0.085060
  H      1.752093   -1.897569    0.507696
  O      0.005329   -1.154558    1.055199
  O      0.544734   -1.633080   -1.153020
  O      2.864470    0.209562    0.651460
  O      1.098007    2.458552   -0.516738
  O     -1.589371    1.944131   -0.081888
  O     -2.200129   -1.750905   -0.857086
  H     -3.174991   -0.333739    0.292551
  H     -2.569931   -1.805680    1.102023
  H     -0.145490   -2.300478   -1.005315
  H      3.279962    1.069274    0.512233
  H      0.285069    2.935027   -0.737076
  H     -1.639760    2.260103    0.829438
  H     -2.084030   -1.125740   -1.582403

 Total Charge           Charge          ....    0
 Multiplicity           Mult            ....    1
 Number of Electrons    NEL             ....   96
 Basis Dimension        Dim             ....  192

ORBITAL ENERGIES
----------------

  NO   OCC          E(Eh)            E(eV)
   0   2.0000     -18.782334      -511.0933
   1   2.0000     -18.771660      -510.8028
   2   2.0000     -18.771474      -510.7978
   3   2.0000     -18.753478      -510.3081
   4   2.0000     -18.751510      -510.2545
   5   2.0000     -18.748361      -510.1689
   6   2.0000      -9.981647      -271.6144
   7   2.0000      -9.957673      -270.9621
   8   2.0000      -9.956582      -270.9324
   9   2.0000      -9.944038      -270.5910
  10   2.0000      -9.943730      -270.5826
  11   2.0000      -9.936278      -270.3799
  12   2.0000      -0.985764       -26.8240
  13   2.0000      -0.963306       -26.2129
  14   2.0000      -0.944742       -25.7077
  15   2.0000      -0.934145       -25.4194
  16   2.0000      -0.918963       -25.0063
  17   2.0000      -0.908318       -24.7166
  18   2.0000      -0.712374       -19.3847
  19   2.0000      -0.694613       -18.9014
  20   2.0000      -0.631670       -17.1886
  21   2.0000      -0.594590       -16.1796
  22   2.0000      -0.571061       -15.5393
  23   2.0000      -0.526524       -14.3274
  24   2.0000      -0.507880       -13.8201
  25   2.0000      -0.499422       -13.5900
  26   2.0000      -0.486143       -13.2286
  27   2.0000      -0.457194       -12.4409
  28   2.0000      -0.439558       -11.9610
  29   2.0000      -0.434545       -11.8246
  30   2.0000      -0.417755       -11.3677
  31   2.0000      -0.405650       -11.0383
  32   2.0000      -0.395181       -10.7534
  33   2.0000      -0.384870       -10.4728
  34   2.0000      -0.367880       -10.0105
  35   2.0000      -0.357391        -9.7251
  36   2.0000      -0.348008        -9.4698
  37   2.0000      -0.314995        -8.5714
  38   2.0000      -0.312676        -8.5084
  39   2.0000      -0.306397        -8.3375
  40   2.0000      -0.293392        -7.9836
  41   2.0000      -0.271037        -7.3753
  42   2.0000      -0.254836        -6.9344
  43   2.0000      -0.254308        -6.9201
  44   2.0000      -0.241545        -6.5728
  45   2.0000      -0.227185        -6.1820
  46   2.0000      -0.216452        -5.8900
  47   2.0000      -0.205854        -5.6016
  48   0.0000       0.004217         0.1148
  49   0.0000       0.016171         0.4400
  50   0.0000       0.033073         0.9000
  51   0.0000       0.047428         1.2906
  52   0.0000       0.067838         1.8460

MULLIKEN ATOMIC CHARGES
-----------------------
   0 C :    0.079126
   1 C :    0.041634
   2 H :    0.052670
   3 C :   -0.027281
   4 H :    0.066488
   5 C :    0.022841
   6 H :    0.041736
   7 C :    0.112815
   8 H :    0.075154
   9 C :    0.160518
  10 H :    0.074321
  11 O :   -0.305761
  12 O :   -0.420947
  13 O :   -0.410223
  14 O :   -0.417087
  15 O :   -0.409885
  16 O :   -0.430201
  17 H :    0.078442
  18 H :    0.098225
  19 H :    0.298206
  20 H :    0.308492
  21 H :    0.298964
  22 H :    0.302295
  23 H :    0.309459
Sum of atomic charges:   -0.0000000

LOEWDIN ATOMIC CHARGES
----------------------
   0 C :   -0.131488
   1 C :   -0.079046
   2 H :    0.112061
   3 C :   -0.095004
   4 H :    0.112809
   5 C :   -0.082412
   6 H :    0.098887
   7 C :   -0.075224
   8 H :    0.113605
   9 C :    0.005774
  10 H :    0.104346
  11 O :   -0.138088
  12 O :   -0.322241
  13 O :   -0.314537
  14 O :   -0.328912
  15 O :   -0.305006
  16 O :   -0.314014
  17 H :    0.105354
  18 H :    0.120909
  19 H :    0.271059
  20 H :    0.291264
  21 H :    0.277995
  22 H :    0.286276
  23 H :    0.285635

  Mayer bond orders larger than 0.100000
B(  0-C ,  1-C ) :   1.0295 B(  0-C , 16-O ) :   1.0748 B(  0-C , 17-H ) :   0.9115
B(  0-C , 18-H ) :   0.9177 B(  1-C ,  2-H ) :   0.8684 B(  1-C ,  3-C ) :   0.9732
B(  1-C , 11-O ) :   0.9868 B(  3-C ,  4-H ) :   0.8544 B(  3-C ,  5-C ) :   1.0549
B(  3-C , 15-O ) :   1.0087 B(  5-C ,  6-H ) :   0.8469 B(  5-C ,  7-C ) :   1.0292
B(  5-C , 14-O ) :   1.1072 B(  7-C ,  8-H ) :   0.8787 B(  7-C ,  9-C ) :   0.9866
B(  7-C , 13-O ) :   1.0917 B(  9-C , 10-H ) :   0.8905 B(  9-C , 11-O ) :   1.0664
B(  9-C , 12-O ) :   1.0818 B( 12-O , 19-H ) :   0.7978 B( 13-O , 20-H ) :   0.8483
B( 14-O , 21-H ) :   0.8236 B( 15-O , 22-H ) :   0.8437 B( 16-O , 23-H ) :   0.8348

Dispersion correction           -0.025128310
FINAL SINGLE POINT ENERGY      -685.695260545777

DIPOLE MOMENT
-------------

Method             : SCF
Type of density    : Electron Density
Multiplicity       :   1
Irrep              :   0
Energy             :  -685.8282408437870572 Eh
Relativity type    :
Basis              : AO
                                X                 Y                 Z
Electronic contribution:      2.497249905      -0.348015800      -0.261239348
Nuclear contribution   :     -3.350321014       1.154681176       0.537273525
                        -----------------------------------------
Total Dipole Moment    :     -0.853071109       0.806665375       0.276034177
                        -----------------------------------------
Magnitude (a.u.)       :      1.206082174
Magnitude (Debye)      :      3.065617259

Rotational constants in cm-1:             0.042174             0.028423             0.020503
Rotational constants in MHz :          1264.335709           852.094460           614.678389

                             ****ORCA TERMINATED NORMALLY****
TOTAL RUN TIME: 0 days 0 hours 2 minutes 32 seconds 57 msec
