                         Program Version 6.0.1  -  RELEASE   -
|  1> ! pbe def2-sv(p) def2/J RI DEFGRID1 loosescf d4 GCP(DFT/SV(P)) printgap
|  2> %output
|  3>     printlevel normal
|  4> end
|  5> * xyz 0 1
|  6> C -3.1784184725 -0.3053134741 3.2371e-05
|  7> O -2.0855930289 0.5799688285 -3.04978e-05
|  8> C -0.8267667603 0.060791823 -1.05773e-05
|  9> C -0.5256822965 -1.2978595633 2.71694e-05
| 10> C 0.7985410315 -1.7012637085 3.11775e-05
| 11> C 1.8272729611 -0.7804230837 1.1973e-05
| 12> C 1.5272232102 0.5787264372 -1.25181e-05
| 13> C 0.2058647381 0.994570675 -2.89591e-05
| 14> O 2.4990267112 1.5311435345 -2.25827e-05
| 15> H -4.0671167459 0.3240099629 -0.0001036359
| 16> H -3.1846553411 -0.9380527197 0.8936369804
| 17> H -3.1845670539 -0.9383068025 -0.893390911
| 18> H -1.3035019202 -2.0439982961 5.65116e-05
| 19> H 1.0288435375 -2.7563874848 5.38776e-05
| 20> H 2.8578308339 -1.1085021075 1.97439e-05
| 21> H -0.0268858377 2.0461061727 -5.44136e-05
| 22> H 3.3664974393 1.1088291316 2.10197e-05
| 23> *
| 24>
| 25>                          ****END OF INPUT****

CARTESIAN COORDINATES (ANGSTROEM)
---------------------------------
  C     -3.178418   -0.305313    0.000032
  O     -2.085593    0.579969   -0.000030
  C     -0.826767    0.060792   -0.000011
  C     -0.525682   -1.297860    0.000027
  C      0.798541   -1.701264    0.000031
  C      1.827273   -0.780423    0.000012
  C      1.527223    0.578726   -0.000013
  C      0.205865    0.994571   -0.000029
  O      2.499027    1.531144   -0.000023
  H     -4.067117    0.324010   -0.000104
  H     -3.184655   -0.938053    0.893637
  H     -3.184567   -0.938307   -0.893391
  H     -1.303502   -2.043998    0.000057
  H      1.028844   -2.756387    0.000054
  H      2.857831   -1.108502    0.000020
  H     -0.026886    2.046106   -0.000054
  H      3.366497    1.108829    0.000021

 Total Charge           Charge          ....    0
 Multiplicity           Mult            ....    1
 Number of Electrons    NEL             ....   66
 Basis Dimension        Dim             ....  142

ORBITAL ENERGIES
----------------

  NO   OCC          E(Eh)            E(eV)
   0   2.0000     -18.783030      -511.1122
   1   2.0000     -18.778515      -510.9894
   2   2.0000      -9.949374      -270.7362
   3   2.0000      -9.948018      -270.6993
   4   2.0000      -9.938191      -270.4319
   5   2.0000      -9.893899      -269.2267
   6   2.0000      -9.883778      -268.9513
   7   2.0000      -9.882188      -268.9080
   8   2.0000      -9.876442      -268.7517
   9   2.0000      -0.967283       -26.3211
  10   2.0000      -0.960938       -26.1485
  11   2.0000      -0.767072       -20.8731
  12   2.0000      -0.682865       -18.5817
  13   2.0000      -0.662271       -18.0213
  14   2.0000      -0.625151       -17.0112
  15   2.0000      -0.551883       -15.0175
  16   2.0000      -0.544038       -14.8040
  17   2.0000      -0.498478       -13.5643
  18   2.0000      -0.448370       -12.2008
  19   2.0000      -0.438169       -11.9232
  20   2.0000      -0.430976       -11.7274
  21   2.0000      -0.418490       -11.3877
  22   2.0000      -0.383121       -10.4252
  23   2.0000      -0.371947       -10.1212
  24   2.0000      -0.361171        -9.8280
  25   2.0000      -0.343083        -9.3358
  26   2.0000      -0.329631        -8.9697
  27   2.0000      -0.313171        -8.5218
  28   2.0000      -0.303552        -8.2601
  29   2.0000      -0.278682        -7.5833
  30   2.0000      -0.267804        -7.2873
  31   2.0000      -0.198073        -5.3898
  32   2.0000      -0.188364        -5.1256
  33   0.0000      -0.026195        -0.7128
  34   0.0000      -0.006665        -0.1814
  35   0.0000       0.026611         0.7241
  36   0.0000       0.045164         1.2290
  37   0.0000       0.059119         1.6087

MULLIKEN ATOMIC CHARGES
-----------------------
   0 C :   -0.116730
   1 O :   -0.263970
   2 C :    0.274139
   3 C :   -0.189440
   4 C :   -0.062664
   5 C :   -0.155351
   6 C :    0.246111
   7 C :   -0.201699
   8 O :   -0.334930
   9 H :    0.124380
  10 H :    0.109231
  11 H :    0.109234
  12 H :    0.035118
  13 H :    0.051481
  14 H :    0.023403
  15 H :    0.036559
  16 H :    0.315127
Sum of atomic charges:   -0.0000000

LOEWDIN ATOMIC CHARGES
----------------------
   0 C :   -0.204161
   1 O :   -0.086816
   2 C :    0.038526
   3 C :   -0.199673
   4 C :   -0.108827
   5 C :   -0.198169
   6 C :    0.027273
   7 C :   -0.171833
   8 O :   -0.235084
   9 H :    0.121517
  10 H :    0.108284
  11 H :    0.108283
  12 H :    0.124784
  13 H :    0.124135
  14 H :    0.118256
  15 H :    0.136694
  16 H :    0.296810

  Mayer bond orders larger than 0.100000
B(  0-C ,  1-O ) :   0.9944 B(  0-C ,  9-H ) :   0.9588 B(  0-C , 10-H ) :   0.9414
B(  0-C , 11-H ) :   0.9414 B(  1-O ,  2-C ) :   1.1392 B(  2-C ,  3-C ) :   1.2906
B(  2-C ,  7-C ) :   1.3227 B(  3-C ,  4-C ) :   1.3555 B(  3-C , 12-H ) :   0.9649
B(  4-C ,  5-C ) :   1.3814 B(  4-C , 13-H ) :   0.9576 B(  5-C ,  6-C ) :   1.2952
B(  5-C , 14-H ) :   0.9589 B(  6-C ,  7-C ) :   1.3475 B(  6-C ,  8-O ) :   1.1830
B(  7-C , 15-H ) :   0.9756 B(  8-O , 16-H ) :   0.8447

Dispersion correction           -0.016519455
FINAL SINGLE POINT ENERGY      -421.093309533872

DIPOLE MOMENT
-------------

Method             : SCF
Type of density    : Electron Density
Multiplicity       :   1
Irrep              :   0
Energy             :  -421.1521528104491381 Eh
Relativity type    :
Basis              : AO
                                X                 Y                 Z
Electronic contribution:      4.276605072       3.338041071      -0.000172284
Nuclear contribution   :     -4.228359109      -4.008771848       0.000223598
                        -----------------------------------------
Total Dipole Moment    :      0.048245963      -0.670730777       0.000051314
                        -----------------------------------------
Magnitude (a.u.)       :      0.672463717
Magnitude (Debye)      :      1.709266932

Rotational constants in cm-1:             0.122694             0.037733             0.029018
Rotational constants in MHz :          3678.265319          1131.217930           869.942893

                             ****ORCA TERMINATED NORMALLY****
TOTAL RUN TIME: 0 days 0 hours 0 minutes 10 seconds 841 msec
