                         Program Version 6.0.0  -   RELEASE  -
|  1> ! r2SCAN-3c DEF2-TZVP FREQ
|  2> * xyzfile 0 1 censo.xyz
|  3>
|  4>                          ****END OF INPUT****

CARTESIAN COORDINATES (ANGSTROEM)
---------------------------------
  C     -3.085099   -0.392749   -0.000135
  C     -1.622983   -0.042077    0.000130
  C     -1.188946    1.282855    0.000094
  C      0.173552    1.580608   -0.000029
  C      1.140569    0.575304   -0.000079
  C      0.714457   -0.768880   -0.000039
  C     -0.651840   -1.049989    0.000078
  C      1.719499   -1.885080    0.000020
  C      2.603625    0.915050    0.000025
  H     -3.348790   -0.985714   -0.882971
  H     -3.347243   -0.993671    0.877726
  H     -3.707476    0.505777    0.004322
  H     -1.917785    2.089083    0.000189
  H      0.493180    2.619837   -0.000021
  H     -0.972733   -2.090001    0.000155
  H      2.372945   -1.833019    0.878860
  H      1.223819   -2.858798   -0.000157
  H      2.373248   -1.832852   -0.878581
  H      2.752489    1.997595   -0.000700
  H      3.110845    0.500896    0.879477
  H      3.111329    0.499615   -0.878528

 Total Charge           Charge          ....    0
 Multiplicity           Mult            ....    1
 Number of Electrons    NEL             ....   66
 Basis Dimension        Dim             ....  351

ORBITAL ENERGIES
----------------

  NO   OCC          E(Eh)            E(eV)
   0   2.0000     -10.038589      -273.1639
   1   2.0000     -10.036210      -273.0992
   2   2.0000     -10.035726      -273.0860
   3   2.0000     -10.028446      -272.8879
   4   2.0000     -10.027747      -272.8689
   5   2.0000     -10.026442      -272.8333
   6   2.0000     -10.026101      -272.8241
   7   2.0000     -10.024580      -272.7827
   8   2.0000     -10.023926      -272.7649
   9   2.0000      -0.822222       -22.3738
  10   2.0000      -0.754128       -20.5209
  11   2.0000      -0.726331       -19.7645
  12   2.0000      -0.683757       -18.6060
  13   2.0000      -0.652228       -17.7480
  14   2.0000      -0.615393       -16.7457
  15   2.0000      -0.559880       -15.2351
  16   2.0000      -0.524727       -14.2786
  17   2.0000      -0.450133       -12.2487
  18   2.0000      -0.443677       -12.0731
  19   2.0000      -0.408160       -11.1066
  20   2.0000      -0.403877       -10.9901
  21   2.0000      -0.383814       -10.4441
  22   2.0000      -0.374565       -10.1924
  23   2.0000      -0.368666       -10.0319
  24   2.0000      -0.367505       -10.0003
  25   2.0000      -0.360565        -9.8115
  26   2.0000      -0.353711        -9.6250
  27   2.0000      -0.335328        -9.1247
  28   2.0000      -0.309381        -8.4187
  29   2.0000      -0.300166        -8.1679
  30   2.0000      -0.296798        -8.0763
  31   2.0000      -0.222356        -6.0506
  32   2.0000      -0.208665        -5.6781
  33   0.0000      -0.026465        -0.7202
  34   0.0000      -0.021246        -0.5781
  35   0.0000       0.047244         1.2856
  36   0.0000       0.063171         1.7190
  37   0.0000       0.075767         2.0617

MULLIKEN ATOMIC CHARGES
-----------------------
   0 C :   -0.350044
   1 C :    0.201972
   2 C :   -0.200589
   3 C :   -0.143911
   4 C :    0.052505
   5 C :    0.145862
   6 C :   -0.286406
   7 C :   -0.346160
   8 C :   -0.346585
   9 H :    0.115208
  10 H :    0.115122
  11 H :    0.107221
  12 H :    0.092851
  13 H :    0.091020
  14 H :    0.084255
  15 H :    0.113482
  16 H :    0.107650
  17 H :    0.113483
  18 H :    0.107679
  19 H :    0.112712
  20 H :    0.112672
Sum of atomic charges:    0.0000000

LOEWDIN ATOMIC CHARGES
----------------------
   0 C :   -0.255907
   1 C :   -0.176561
   2 C :   -0.126743
   3 C :   -0.120072
   4 C :   -0.151312
   5 C :   -0.145531
   6 C :   -0.096165
   7 C :   -0.251099
   8 C :   -0.252988
   9 H :    0.128526
  10 H :    0.128489
  11 H :    0.124872
  12 H :    0.142245
  13 H :    0.142921
  14 H :    0.145202
  15 H :    0.128658
  16 H :    0.125353
  17 H :    0.128651
  18 H :    0.125588
  19 H :    0.127944
  20 H :    0.127929

  Mayer bond orders larger than 0.100000
B(  0-C ,  1-C ) :   0.9041 B(  0-C ,  9-H ) :   0.9669 B(  0-C , 10-H ) :   0.9673
B(  0-C , 11-H ) :   0.9903 B(  1-C ,  2-C ) :   1.3631 B(  1-C ,  6-C ) :   1.3122
B(  2-C ,  3-C ) :   1.3890 B(  2-C , 12-H ) :   0.9782 B(  3-C ,  4-C ) :   1.3853
B(  3-C , 13-H ) :   0.9787 B(  4-C ,  5-C ) :   1.2587 B(  4-C ,  8-C ) :   0.9270
B(  5-C ,  6-C ) :   1.4032 B(  5-C ,  7-C ) :   0.9161 B(  6-C , 14-H ) :   0.9906
B(  7-C , 15-H ) :   0.9697 B(  7-C , 16-H ) :   0.9831 B(  7-C , 17-H ) :   0.9698
B(  8-C , 18-H ) :   0.9824 B(  8-C , 19-H ) :   0.9697 B(  8-C , 20-H ) :   0.9698

Dispersion correction           -0.006905140
FINAL SINGLE POINT ENERGY      -350.116023602431

DIPOLE MOMENT
-------------

Method             : SCF
Type of density    : Electron Density
Multiplicity       :   1
Irrep              :   0
Energy             :  -350.1167595040300853 Eh
Relativity type    :
Basis              : AO
                                X                 Y                 Z
Electronic contribution:     -1.915737299       2.123225479       0.000130711
Nuclear contribution   :      2.030693872      -2.251134417      -0.000266199
                        -----------------------------------------
Total Dipole Moment    :      0.114956573      -0.127908938      -0.000135488
                        -----------------------------------------
Magnitude (a.u.)       :      0.171975953
Magnitude (Debye)      :      0.437128135

VIBRATIONAL FREQUENCIES
-----------------------

Scaling factor for frequencies =  1.000000000  (already applied!)

     0:       0.00 cm**-1
     1:       0.00 cm**-1
     2:       0.00 cm**-1
     3:       0.00 cm**-1
     4:       0.00 cm**-1
     5:       0.00 cm**-1
     6:      74.67 cm**-1
     7:     132.12 cm**-1
     8:     152.48 cm**-1
     9:     190.77 cm**-1
    10:     220.09 cm**-1
    11:     286.15 cm**-1
    12:     313.13 cm**-1
    13:     321.42 cm**-1
    14:     444.54 cm**-1
    15:     445.81 cm**-1
    16:     482.27 cm**-1
    17:     554.60 cm**-1
    18:     562.90 cm**-1
    19:     726.25 cm**-1
    20:     730.53 cm**-1
    21:     759.81 cm**-1
    22:     810.70 cm**-1
    23:     876.66 cm**-1
    24:     931.08 cm**-1
    25:     939.17 cm**-1
    26:    1000.84 cm**-1
    27:    1014.99 cm**-1
    28:    1035.55 cm**-1
    29:    1036.13 cm**-1
    30:    1054.18 cm**-1
    31:    1064.26 cm**-1
    32:    1148.30 cm**-1
    33:    1173.43 cm**-1
    34:    1230.87 cm**-1
    35:    1265.43 cm**-1
    36:    1309.94 cm**-1
    37:    1330.22 cm**-1
    38:    1395.62 cm**-1
    39:    1400.02 cm**-1
    40:    1406.58 cm**-1
    41:    1426.74 cm**-1
    42:    1466.56 cm**-1
    43:    1476.64 cm**-1
    44:    1477.46 cm**-1
    45:    1482.79 cm**-1
    46:    1485.82 cm**-1
    47:    1495.64 cm**-1
    48:    1525.75 cm**-1
    49:    1604.09 cm**-1
    50:    1640.84 cm**-1
    51:    2998.24 cm**-1
    52:    2999.54 cm**-1
    53:    3004.28 cm**-1
    54:    3052.57 cm**-1
    55:    3056.81 cm**-1
    56:    3064.31 cm**-1
    57:    3098.07 cm**-1
    58:    3098.09 cm**-1
    59:    3099.98 cm**-1
    60:    3133.49 cm**-1
    61:    3140.81 cm**-1
    62:    3158.29 cm**-1

IR SPECTRUM
-----------

 Mode   freq       eps      Int      T**2         TX        TY        TZ
       cm**-1   L/(mol*cm) km/mol    a.u.
----------------------------------------------------------------------------
  6:     74.67   0.000052    0.26  0.000218  ( 0.000336 -0.000235  0.014763)
  7:    132.12   0.000234    1.18  0.000552  (-0.000040  0.000041  0.023488)
  8:    152.48   0.000082    0.41  0.000168  (-0.000041 -0.000011  0.012955)
  9:    190.77   0.000420    2.12  0.000687  ( 0.000017  0.000098  0.026212)
 10:    220.09   0.000154    0.78  0.000218  ( 0.000011 -0.000068 -0.014760)
 11:    286.15   0.000113    0.57  0.000123  ( 0.002832  0.010745 -0.000000)
 12:    313.13   0.000033    0.17  0.000033  ( 0.004191 -0.003911  0.000040)
 13:    321.42   0.000062    0.31  0.000060  (-0.000014  0.000016 -0.007775)
 14:    444.54   0.001004    5.07  0.000705  ( 0.000056 -0.000152  0.026550)
 15:    445.81   0.000028    0.14  0.000020  (-0.001457  0.004209  0.000261)
 16:    482.27   0.000014    0.07  0.000009  ( 0.000934 -0.002848  0.000012)
 17:    554.60   0.000743    3.76  0.000418  (-0.000093 -0.000071 -0.020448)
 18:    562.90   0.000052    0.26  0.000029  ( 0.001322 -0.005218 -0.000051)
 19:    726.25   0.000203    1.02  0.000087  (-0.000062 -0.000017 -0.009328)
 20:    730.53   0.000007    0.04  0.000003  (-0.001670 -0.000418 -0.000053)
 21:    759.81   0.000009    0.05  0.000004  ( 0.000602  0.001832 -0.000012)
 22:    810.70   0.005249   26.52  0.002020  (-0.000018 -0.000012  0.044948)
 23:    876.66   0.000499    2.52  0.000178  ( 0.000038 -0.000031 -0.013332)
 24:    931.08   0.000000    0.00  0.000000  (-0.000036 -0.000033 -0.000026)
 25:    939.17   0.000143    0.72  0.000048  ( 0.006676 -0.001748  0.000024)
 26:   1000.84   0.000560    2.83  0.000175  ( 0.012610 -0.003953  0.000012)
 27:   1014.99   0.002305   11.65  0.000709  ( 0.026183 -0.004801  0.000010)
 28:   1035.55   0.000597    3.02  0.000180  (-0.000011 -0.000032 -0.013414)
 29:   1036.13   0.000436    2.20  0.000131  (-0.005103 -0.010262  0.000016)
 30:   1054.18   0.000611    3.09  0.000181  (-0.000110 -0.000052 -0.013449)
 31:   1064.26   0.000032    0.16  0.000010  (-0.000037  0.000001 -0.003085)
 32:   1148.30   0.000215    1.09  0.000059  (-0.000142 -0.007650  0.000008)
 33:   1173.43   0.000473    2.39  0.000126  ( 0.000183 -0.011219 -0.000012)
 34:   1230.87   0.000689    3.48  0.000175  ( 0.013211  0.000320  0.000016)
 35:   1265.43   0.000162    0.82  0.000040  (-0.002125  0.005962  0.000018)
 36:   1309.94   0.000144    0.73  0.000034  ( 0.004706  0.003482  0.000010)
 37:   1330.22   0.000047    0.24  0.000011  (-0.003211 -0.000816 -0.000002)
 38:   1395.62   0.000172    0.87  0.000038  (-0.000017  0.006193 -0.000001)
 39:   1400.02   0.000296    1.49  0.000066  ( 0.006999  0.004110  0.000019)
 40:   1406.58   0.000390    1.97  0.000087  (-0.008420  0.003959 -0.000005)
 41:   1426.74   0.000037    0.19  0.000008  ( 0.001994  0.002021 -0.000023)
 42:   1466.56   0.000005    0.02  0.000001  (-0.000007 -0.000004 -0.000990)
 43:   1476.64   0.001352    6.83  0.000286  ( 0.000212  0.000411  0.016899)
 44:   1477.46   0.000535    2.70  0.000113  (-0.006171 -0.008611  0.000882)
 45:   1482.79   0.003525   17.81  0.000742  (-0.000014 -0.000062  0.027236)
 46:   1485.82   0.000328    1.66  0.000069  ( 0.000674 -0.008274 -0.000150)
 47:   1495.64   0.004804   24.28  0.001002  (-0.001205  0.031636  0.000036)
 48:   1525.75   0.005345   27.01  0.001093  ( 0.032910  0.003195  0.000016)
 49:   1604.09   0.000684    3.46  0.000133  ( 0.007280  0.008948  0.000005)
 50:   1640.84   0.001287    6.51  0.000245  ( 0.013646 -0.007657  0.000005)
 51:   2998.24   0.010643   53.78  0.001108  (-0.033269  0.000950 -0.000027)
 52:   2999.54   0.004353   22.00  0.000453  (-0.013668  0.016312 -0.000007)
 53:   3004.28   0.006509   32.90  0.000676  ( 0.024369  0.009070  0.000065)
 54:   3052.57   0.006460   32.65  0.000660  ( 0.000029 -0.000003 -0.025699)
 55:   3056.81   0.000255    1.29  0.000026  (-0.000008 -0.000006 -0.005104)
 56:   3064.31   0.003257   16.46  0.000332  ( 0.000088  0.000029 -0.018211)
 57:   3098.07   0.001098    5.55  0.000111  (-0.009425  0.004666  0.000006)
 58:   3098.09   0.007332   37.05  0.000739  (-0.001172  0.027151  0.000003)
 59:   3099.98   0.001832    9.26  0.000184  ( 0.008865  0.010286 -0.000002)
 60:   3133.49   0.004518   22.83  0.000450  ( 0.006109  0.020313 -0.000000)
 61:   3140.81   0.002357   11.91  0.000234  (-0.013841 -0.006525  0.000001)
 62:   3158.29   0.004355   22.01  0.000430  ( 0.006795 -0.019598 -0.000001)

--------------------------
THERMOCHEMISTRY AT 298.15K
--------------------------

Temperature         ...   298.15 K
Pressure            ...     1.00 atm
Total Mass          ...   120.19 AMU
Quasi RRHO          ...     True
Cut-Off Frequency   ...     1.00 cm^-1

Throughout the following assumptions are being made:
  (1) The electronic state is orbitally nondegenerate
  (2) There are no thermally accessible electronically excited states
  (3) Hindered rotations indicated by low frequency modes are not
      treated as such but are treated as vibrations and this may
      cause some error
  (4) All equations used are the standard statistical mechanics
      equations for an ideal gas
  (5) All vibrations are strictly harmonic

freq.      74.67  E(vib)   ...       0.49
freq.     132.12  E(vib)   ...       0.42
freq.     152.48  E(vib)   ...       0.40
freq.     190.77  E(vib)   ...       0.36
freq.     220.09  E(vib)   ...       0.33
freq.     286.15  E(vib)   ...       0.27
freq.     313.13  E(vib)   ...       0.25
freq.     321.42  E(vib)   ...       0.25
freq.     444.54  E(vib)   ...       0.17
freq.     445.81  E(vib)   ...       0.17
freq.     482.27  E(vib)   ...       0.15
freq.     554.60  E(vib)   ...       0.12
freq.     562.90  E(vib)   ...       0.11
freq.     726.25  E(vib)   ...       0.06
freq.     730.53  E(vib)   ...       0.06
freq.     759.81  E(vib)   ...       0.06
freq.     810.70  E(vib)   ...       0.05
freq.     876.66  E(vib)   ...       0.04
freq.     931.08  E(vib)   ...       0.03
freq.     939.17  E(vib)   ...       0.03
freq.    1000.84  E(vib)   ...       0.02
freq.    1014.99  E(vib)   ...       0.02
freq.    1035.55  E(vib)   ...       0.02
freq.    1036.13  E(vib)   ...       0.02
freq.    1054.18  E(vib)   ...       0.02
freq.    1064.26  E(vib)   ...       0.02
freq.    1148.30  E(vib)   ...       0.01
freq.    1173.43  E(vib)   ...       0.01
freq.    1230.87  E(vib)   ...       0.01
freq.    1265.43  E(vib)   ...       0.01
freq.    1309.94  E(vib)   ...       0.01
freq.    1330.22  E(vib)   ...       0.01
freq.    1395.62  E(vib)   ...       0.00
freq.    1400.02  E(vib)   ...       0.00
freq.    1406.58  E(vib)   ...       0.00
freq.    1426.74  E(vib)   ...       0.00
freq.    1466.56  E(vib)   ...       0.00
freq.    1476.64  E(vib)   ...       0.00
freq.    1477.46  E(vib)   ...       0.00
freq.    1482.79  E(vib)   ...       0.00
freq.    1485.82  E(vib)   ...       0.00
freq.    1495.64  E(vib)   ...       0.00
freq.    1525.75  E(vib)   ...       0.00
freq.    1604.09  E(vib)   ...       0.00
freq.    1640.84  E(vib)   ...       0.00
freq.    2998.24  E(vib)   ...       0.00
freq.    2999.54  E(vib)   ...       0.00
freq.    3004.28  E(vib)   ...       0.00
freq.    3052.57  E(vib)   ...       0.00
freq.    3056.81  E(vib)   ...       0.00
freq.    3064.31  E(vib)   ...       0.00
freq.    3098.07  E(vib)   ...       0.00
freq.    3098.09  E(vib)   ...       0.00
freq.    3099.98  E(vib)   ...       0.00
freq.    3133.49  E(vib)   ...       0.00
freq.    3140.81  E(vib)   ...       0.00
freq.    3158.29  E(vib)   ...       0.00

------------
INNER ENERGY
------------

The inner energy is: U= E(el) + E(ZPE) + E(vib) + E(rot) + E(trans)
    E(el)   - is the total energy from the electronic structure calculation
              = E(kin-el) + E(nuc-el) + E(el-el) + E(nuc-nuc)
    E(ZPE)  - the the zero temperature vibrational energy from the frequency calculation
    E(vib)  - the the finite temperature correction to E(ZPE) due to population
              of excited vibrational states
    E(rot)  - is the rotational thermal energy
    E(trans)- is the translational thermal energy

Summary of contributions to the inner energy U:
Electronic energy                ...   -350.11602360 Eh
Zero point energy                ...      0.18181671 Eh     114.09 kcal/mol
Thermal vibrational correction   ...      0.00645755 Eh       4.05 kcal/mol
Thermal rotational correction    ...      0.00141627 Eh       0.89 kcal/mol
Thermal translational correction ...      0.00141627 Eh       0.89 kcal/mol
-----------------------------------------------------------------------
Total thermal energy                   -349.92491680 Eh

Summary of corrections to the electronic energy:
(perhaps to be used in another calculation)
Total thermal correction                  0.00929009 Eh       5.83 kcal/mol
Non-thermal (ZPE) correction              0.18181671 Eh     114.09 kcal/mol
-----------------------------------------------------------------------
Total correction                          0.19110681 Eh     119.92 kcal/mol

--------
ENTHALPY
--------

The enthalpy is H = U + kB*T
                kB is Boltzmann's constant
Total thermal energy              ...   -349.92491680 Eh
Thermal Enthalpy correction       ...      0.00094421 Eh       0.59 kcal/mol
-----------------------------------------------------------------------
Total Enthalpy                    ...   -349.92397259 Eh

Note: Only C1 symmetry has been detected, increase convergence thresholds
      if your molecule has a higher symmetry. Symmetry factor of 1.0 is
      used for the rotational entropy correction.

Note: Rotational entropy computed according to Herzberg
Infrared and Raman Spectra, Chapter V,1, Van Nostrand Reinhold, 1945
Point Group:  C1, Symmetry Number:   1
Rotational constants in cm-1:     0.098657     0.042880     0.030393

Vibrational entropy computed according to the QRRHO of S. Grimme
Chem.Eur.J. 2012 18 9955 using a reference frequency of 100.0 cm-1

-------
ENTROPY
-------

The entropy contributions are T*S = T*(S(el)+S(vib)+S(rot)+S(trans))
     S(el)   - electronic entropy
     S(vib)  - vibrational entropy
     S(rot)  - rotational entropy
     S(trans)- translational entropy
The entropies will be listed as multiplied by the temperature to get
units of energy

Electronic entropy                ...      0.00000000 Eh      0.00 kcal/mol
Vibrational entropy               ...      0.01082464 Eh      6.79 kcal/mol
Rotational entropy                ...      0.01374027 Eh      8.62 kcal/mol
Translational entropy             ...      0.01913176 Eh     12.01 kcal/mol
-----------------------------------------------------------------------
Final entropy term                ...      0.04369667 Eh     27.42 kcal/mol

In case the symmetry of your molecule has not been determined correctly
or in case you have a reason to use a different symmetry number we print
out the resulting rotational entropy values for sn=1,12:

 non-linear molecules -----------------------------------
|  sn= 1 | S(rot)=       0.01374027 Eh      8.62 kcal/mol|
|  sn= 2 | S(rot)=       0.01308582 Eh      8.21 kcal/mol|
|  sn= 3 | S(rot)=       0.01270299 Eh      7.97 kcal/mol|

                             ****ORCA TERMINATED NORMALLY****
TOTAL RUN TIME: 0 days 0 hours 19 minutes 18 seconds 696 msec
