                         Program Version 6.0.0  -   RELEASE  -
|  1> ! r2SCAN-3c DEF2-TZVP FREQ
|  2> * xyzfile 0 1 vacuum_censo.xyz
|  3>
|  4>                          ****END OF INPUT****

CARTESIAN COORDINATES (ANGSTROEM)
---------------------------------
  C     -3.083610    0.393332    0.000948
  C     -1.620470    0.042057   -0.000774
  C     -1.186782   -1.280775   -0.000538
  C      0.173274   -1.578255    0.000139
  C      1.138898   -0.574149    0.000405
  C      0.713674    0.767950    0.000046
  C     -0.650774    1.048354   -0.000640
  C      1.718450    1.886671   -0.000066
  C      2.602745   -0.916804    0.000401
  H     -3.351327    0.964245    0.896888
  H     -3.342532    1.010743   -0.866035
  H     -3.707213   -0.503705   -0.025247
  H     -1.914815   -2.087243   -0.000994
  H      0.492037   -2.617401    0.000065
  H     -0.971945    2.088254   -0.001240
  H      1.222667    2.860065   -0.000889
  H      2.370542    1.839834    0.879918
  H      2.371580    1.838831   -0.879221
  H      3.112006   -0.507784   -0.880162
  H      3.112627   -0.505636    0.879581
  H      2.750462   -1.999176    0.001634

 Total Charge           Charge          ....    0
 Multiplicity           Mult            ....    1
 Number of Electrons    NEL             ....   66
 Basis Dimension        Dim             ....  351

ORBITAL ENERGIES
----------------

  NO   OCC          E(Eh)            E(eV)
   0   2.0000     -10.038260      -273.1549
   1   2.0000     -10.035766      -273.0871
   2   2.0000     -10.035386      -273.0767
   3   2.0000     -10.028329      -272.8847
   4   2.0000     -10.027580      -272.8643
   5   2.0000     -10.026038      -272.8224
   6   2.0000     -10.025862      -272.8176
   7   2.0000     -10.024090      -272.7694
   8   2.0000     -10.023341      -272.7490
   9   2.0000      -0.823000       -22.3950
  10   2.0000      -0.754089       -20.5198
  11   2.0000      -0.726523       -19.7697
  12   2.0000      -0.683686       -18.6040
  13   2.0000      -0.652370       -17.7519
  14   2.0000      -0.615674       -16.7533
  15   2.0000      -0.560180       -15.2433
  16   2.0000      -0.525104       -14.2888
  17   2.0000      -0.450502       -12.2588
  18   2.0000      -0.443683       -12.0732
  19   2.0000      -0.407870       -11.0987
  20   2.0000      -0.403828       -10.9887
  21   2.0000      -0.384101       -10.4519
  22   2.0000      -0.374388       -10.1876
  23   2.0000      -0.368099       -10.0165
  24   2.0000      -0.367661       -10.0046
  25   2.0000      -0.360662        -9.8141
  26   2.0000      -0.353217        -9.6115
  27   2.0000      -0.335148        -9.1198
  28   2.0000      -0.310072        -8.4375
  29   2.0000      -0.300005        -8.1636
  30   2.0000      -0.296811        -8.0766
  31   2.0000      -0.222701        -6.0600
  32   2.0000      -0.209058        -5.6888
  33   0.0000      -0.026099        -0.7102
  34   0.0000      -0.020921        -0.5693
  35   0.0000       0.047471         1.2917
  36   0.0000       0.063202         1.7198
  37   0.0000       0.075720         2.0604

MULLIKEN ATOMIC CHARGES
-----------------------
   0 C :   -0.350466
   1 C :    0.201154
   2 C :   -0.199456
   3 C :   -0.144045
   4 C :    0.053733
   5 C :    0.145455
   6 C :   -0.285118
   7 C :   -0.347196
   8 C :   -0.347452
   9 H :    0.115481
  10 H :    0.114960
  11 H :    0.107194
  12 H :    0.092582
  13 H :    0.090847
  14 H :    0.084098
  15 H :    0.107619
  16 H :    0.113698
  17 H :    0.113641
  18 H :    0.112873
  19 H :    0.112804
  20 H :    0.107596
Sum of atomic charges:   -0.0000000

LOEWDIN ATOMIC CHARGES
----------------------
   0 C :   -0.255437
   1 C :   -0.176647
   2 C :   -0.126869
   3 C :   -0.120196
   4 C :   -0.151170
   5 C :   -0.145451
   6 C :   -0.096285
   7 C :   -0.250775
   8 C :   -0.252679
   9 H :    0.128503
  10 H :    0.128285
  11 H :    0.124684
  12 H :    0.142461
  13 H :    0.143158
  14 H :    0.145506
  15 H :    0.125139
  16 H :    0.128450
  17 H :    0.128442
  18 H :    0.127763
  19 H :    0.127742
  20 H :    0.125375

  Mayer bond orders larger than 0.100000
B(  0-C ,  1-C ) :   0.9041 B(  0-C ,  9-H ) :   0.9662 B(  0-C , 10-H ) :   0.9683
B(  0-C , 11-H ) :   0.9905 B(  1-C ,  2-C ) :   1.3632 B(  1-C ,  6-C ) :   1.3134
B(  2-C ,  3-C ) :   1.3905 B(  2-C , 12-H ) :   0.9784 B(  3-C ,  4-C ) :   1.3852
B(  3-C , 13-H ) :   0.9789 B(  4-C ,  5-C ) :   1.2598 B(  4-C ,  8-C ) :   0.9272
B(  5-C ,  6-C ) :   1.4039 B(  5-C ,  7-C ) :   0.9164 B(  6-C , 14-H ) :   0.9910
B(  7-C , 15-H ) :   0.9832 B(  7-C , 16-H ) :   0.9699 B(  7-C , 17-H ) :   0.9697
B(  8-C , 18-H ) :   0.9697 B(  8-C , 19-H ) :   0.9698 B(  8-C , 20-H ) :   0.9827

Dispersion correction           -0.006907124
FINAL SINGLE POINT ENERGY      -350.116084400262

DIPOLE MOMENT
-------------

Method             : SCF
Type of density    : Electron Density
Multiplicity       :   1
Irrep              :   0
Energy             :  -350.1168201667185826 Eh
Relativity type    :
Basis              : AO
                                X                 Y                 Z
Electronic contribution:     -1.915558800      -2.121713694      -0.002565110
Nuclear contribution   :      2.028019570       2.247092924       0.003714974
                        -----------------------------------------
Total Dipole Moment    :      0.112460770       0.125379230       0.001149864
                        -----------------------------------------
Magnitude (a.u.)       :      0.168430099
Magnitude (Debye)      :      0.428115289

VIBRATIONAL FREQUENCIES
-----------------------

Scaling factor for frequencies =  1.000000000  (already applied!)

     0:       0.00 cm**-1
     1:       0.00 cm**-1
     2:       0.00 cm**-1
     3:       0.00 cm**-1
     4:       0.00 cm**-1
     5:       0.00 cm**-1
     6:      59.95 cm**-1
     7:     131.39 cm**-1
     8:     142.64 cm**-1
     9:     184.60 cm**-1
    10:     215.08 cm**-1
    11:     285.85 cm**-1
    12:     311.60 cm**-1
    13:     320.85 cm**-1
    14:     442.25 cm**-1
    15:     445.53 cm**-1
    16:     481.76 cm**-1
    17:     553.18 cm**-1
    18:     563.06 cm**-1
    19:     725.67 cm**-1
    20:     730.64 cm**-1
    21:     760.44 cm**-1
    22:     809.95 cm**-1
    23:     877.62 cm**-1
    24:     931.36 cm**-1
    25:     939.51 cm**-1
    26:     999.95 cm**-1
    27:    1013.97 cm**-1
    28:    1035.14 cm**-1
    29:    1035.23 cm**-1
    30:    1054.40 cm**-1
    31:    1063.92 cm**-1
    32:    1148.06 cm**-1
    33:    1175.82 cm**-1
    34:    1231.05 cm**-1
    35:    1266.18 cm**-1
    36:    1310.92 cm**-1
    37:    1339.75 cm**-1
    38:    1395.79 cm**-1
    39:    1399.57 cm**-1
    40:    1406.73 cm**-1
    41:    1429.24 cm**-1
    42:    1467.47 cm**-1
    43:    1477.05 cm**-1
    44:    1477.78 cm**-1
    45:    1483.42 cm**-1
    46:    1485.63 cm**-1
    47:    1495.88 cm**-1
    48:    1529.09 cm**-1
    49:    1611.10 cm**-1
    50:    1647.62 cm**-1
    51:    2999.87 cm**-1
    52:    3001.22 cm**-1
    53:    3005.95 cm**-1
    54:    3054.52 cm**-1
    55:    3058.67 cm**-1
    56:    3067.17 cm**-1
    57:    3099.23 cm**-1
    58:    3099.68 cm**-1
    59:    3101.07 cm**-1
    60:    3133.49 cm**-1
    61:    3143.60 cm**-1
    62:    3161.24 cm**-1

IR SPECTRUM
-----------

 Mode   freq       eps      Int      T**2         TX        TY        TZ
       cm**-1   L/(mol*cm) km/mol    a.u.
----------------------------------------------------------------------------
  6:     59.95   0.000039    0.20  0.000201  (-0.000863 -0.001269  0.014106)
  7:    131.39   0.000177    0.90  0.000421  (-0.000258 -0.000155 -0.020511)
  8:    142.64   0.000127    0.64  0.000278  (-0.000264 -0.000079 -0.016662)
  9:    184.60   0.000332    1.68  0.000561  (-0.000035  0.000094  0.023677)
 10:    215.08   0.000258    1.31  0.000375  ( 0.000106  0.000031  0.019361)
 11:    285.85   0.000111    0.56  0.000122  ( 0.002933 -0.010632  0.000034)
 12:    311.60   0.000036    0.18  0.000036  ( 0.004338  0.004166 -0.000045)
 13:    320.85   0.000062    0.31  0.000060  ( 0.000151 -0.000002 -0.007776)
 14:    442.25   0.001019    5.15  0.000719  (-0.000076  0.000053  0.026811)
 15:    445.53   0.000028    0.14  0.000020  (-0.001465 -0.004175 -0.000558)
 16:    481.76   0.000015    0.08  0.000010  ( 0.000969  0.002956 -0.000071)
 17:    553.18   0.000738    3.73  0.000416  ( 0.000098  0.000057 -0.020405)
 18:    563.06   0.000053    0.27  0.000029  ( 0.001301  0.005238  0.000251)
 19:    725.67   0.000202    1.02  0.000087  ( 0.000054 -0.000023 -0.009310)
 20:    730.64   0.000007    0.04  0.000003  (-0.001692  0.000354  0.000377)
 21:    760.44   0.000009    0.05  0.000004  (-0.000895  0.001750 -0.000087)
 22:    809.95   0.005195   26.25  0.002002  ( 0.000009 -0.000030  0.044740)
 23:    877.62   0.000504    2.55  0.000179  ( 0.000128 -0.000067  0.013388)
 24:    931.36   0.000000    0.00  0.000000  ( 0.000186  0.000068 -0.000014)
 25:    939.51   0.000148    0.75  0.000049  ( 0.006805  0.001677 -0.000130)
 26:    999.95   0.000618    3.12  0.000193  (-0.013322 -0.003911  0.000068)
 27:   1013.97   0.002211   11.17  0.000681  ( 0.025670  0.004646 -0.000049)
 28:   1035.14   0.000417    2.11  0.000126  ( 0.004634 -0.010129 -0.001269)
 29:   1035.23   0.000595    3.01  0.000179  (-0.000515  0.001024 -0.013347)
 30:   1054.40   0.000627    3.17  0.000186  ( 0.001249 -0.000324 -0.013563)
 31:   1063.92   0.000036    0.18  0.000011  ( 0.000307 -0.000077 -0.003234)
 32:   1148.06   0.000214    1.08  0.000058  (-0.000639  0.007599 -0.000048)
 33:   1175.82   0.000490    2.48  0.000130  (-0.000067 -0.011409 -0.000068)
 34:   1231.05   0.000672    3.40  0.000170  (-0.013043  0.000487  0.000076)
 35:   1266.18   0.000180    0.91  0.000044  ( 0.002230  0.006274  0.000121)
 36:   1310.92   0.000127    0.64  0.000030  (-0.004457  0.003236  0.000054)
 37:   1339.75   0.000049    0.25  0.000011  (-0.003314  0.000682  0.000007)
 38:   1395.79   0.000164    0.83  0.000037  (-0.000314 -0.006049  0.000015)
 39:   1399.57   0.000289    1.46  0.000064  (-0.006633  0.004517  0.000103)
 40:   1406.73   0.000378    1.91  0.000084  ( 0.008331  0.003806  0.000018)
 41:   1429.24   0.000068    0.34  0.000015  ( 0.002050 -0.003266  0.000127)
 42:   1467.47   0.000004    0.02  0.000001  ( 0.000043 -0.000004 -0.000950)
 43:   1477.05   0.000590    2.98  0.000125  ( 0.005925 -0.007215 -0.006121)
 44:   1477.78   0.001306    6.60  0.000276  ( 0.002532 -0.003100  0.016119)
 45:   1483.42   0.003491   17.64  0.000734  (-0.000008  0.000103 -0.027098)
 46:   1485.63   0.000235    1.19  0.000049  ( 0.000355 -0.007023 -0.000047)
 47:   1495.88   0.004954   25.04  0.001033  ( 0.001132  0.032127  0.000222)
 48:   1529.09   0.005369   27.13  0.001096  ( 0.032971 -0.002930 -0.000076)
 49:   1611.10   0.000641    3.24  0.000124  ( 0.006707 -0.008900 -0.000021)
 50:   1647.62   0.001263    6.38  0.000239  ( 0.013564  0.007433 -0.000034)
 51:   2999.87   0.010108   51.08  0.001052  ( 0.032427  0.000224 -0.000050)
 52:   3001.22   0.004804   24.28  0.000500  ( 0.015396  0.016201 -0.000014)
 53:   3005.95   0.006455   32.62  0.000670  ( 0.024232 -0.009099 -0.000362)
 54:   3054.52   0.006350   32.09  0.000649  ( 0.000032 -0.000001  0.025470)
 55:   3058.67   0.000361    1.82  0.000037  (-0.000032 -0.000002  0.006067)
 56:   3067.17   0.003231   16.33  0.000329  (-0.000551  0.000217 -0.018123)
 57:   3099.23   0.003277   16.56  0.000330  ( 0.009300  0.015604  0.000073)
 58:   3099.68   0.005888   29.76  0.000593  (-0.004128  0.023995 -0.000005)
 59:   3101.07   0.001272    6.43  0.000128  ( 0.008316 -0.007670  0.000010)
 60:   3133.49   0.004514   22.81  0.000450  (-0.006155  0.020288 -0.000007)
 61:   3143.60   0.002370   11.98  0.000235  ( 0.013851 -0.006591  0.000003)
 62:   3161.24   0.004430   22.39  0.000437  ( 0.006839  0.019763  0.000005)

--------------------------
THERMOCHEMISTRY AT 298.15K
--------------------------

Temperature         ...   298.15 K
Pressure            ...     1.00 atm
Total Mass          ...   120.19 AMU
Quasi RRHO          ...     True
Cut-Off Frequency   ...     1.00 cm^-1

Throughout the following assumptions are being made:
  (1) The electronic state is orbitally nondegenerate
  (2) There are no thermally accessible electronically excited states
  (3) Hindered rotations indicated by low frequency modes are not
      treated as such but are treated as vibrations and this may
      cause some error
  (4) All equations used are the standard statistical mechanics
      equations for an ideal gas
  (5) All vibrations are strictly harmonic

freq.      59.95  E(vib)   ...       0.51
freq.     131.39  E(vib)   ...       0.42
freq.     142.64  E(vib)   ...       0.41
freq.     184.60  E(vib)   ...       0.37
freq.     215.08  E(vib)   ...       0.34
freq.     285.85  E(vib)   ...       0.27
freq.     311.60  E(vib)   ...       0.25
freq.     320.85  E(vib)   ...       0.25
freq.     442.25  E(vib)   ...       0.17
freq.     445.53  E(vib)   ...       0.17
freq.     481.76  E(vib)   ...       0.15
freq.     553.18  E(vib)   ...       0.12
freq.     563.06  E(vib)   ...       0.11
freq.     725.67  E(vib)   ...       0.06
freq.     730.64  E(vib)   ...       0.06
freq.     760.44  E(vib)   ...       0.06
freq.     809.95  E(vib)   ...       0.05
freq.     877.62  E(vib)   ...       0.04
freq.     931.36  E(vib)   ...       0.03
freq.     939.51  E(vib)   ...       0.03
freq.     999.95  E(vib)   ...       0.02
freq.    1013.97  E(vib)   ...       0.02
freq.    1035.14  E(vib)   ...       0.02
freq.    1035.23  E(vib)   ...       0.02
freq.    1054.40  E(vib)   ...       0.02
freq.    1063.92  E(vib)   ...       0.02
freq.    1148.06  E(vib)   ...       0.01
freq.    1175.82  E(vib)   ...       0.01
freq.    1231.05  E(vib)   ...       0.01
freq.    1266.18  E(vib)   ...       0.01
freq.    1310.92  E(vib)   ...       0.01
freq.    1339.75  E(vib)   ...       0.01
freq.    1395.79  E(vib)   ...       0.00
freq.    1399.57  E(vib)   ...       0.00
freq.    1406.73  E(vib)   ...       0.00
freq.    1429.24  E(vib)   ...       0.00
freq.    1467.47  E(vib)   ...       0.00
freq.    1477.05  E(vib)   ...       0.00
freq.    1477.78  E(vib)   ...       0.00
freq.    1483.42  E(vib)   ...       0.00
freq.    1485.63  E(vib)   ...       0.00
freq.    1495.88  E(vib)   ...       0.00
freq.    1529.09  E(vib)   ...       0.00
freq.    1611.10  E(vib)   ...       0.00
freq.    1647.62  E(vib)   ...       0.00
freq.    2999.87  E(vib)   ...       0.00
freq.    3001.22  E(vib)   ...       0.00
freq.    3005.95  E(vib)   ...       0.00
freq.    3054.52  E(vib)   ...       0.00
freq.    3058.67  E(vib)   ...       0.00
freq.    3067.17  E(vib)   ...       0.00
freq.    3099.23  E(vib)   ...       0.00
freq.    3099.68  E(vib)   ...       0.00
freq.    3101.07  E(vib)   ...       0.00
freq.    3133.49  E(vib)   ...       0.00
freq.    3143.60  E(vib)   ...       0.00
freq.    3161.24  E(vib)   ...       0.00

------------
INNER ENERGY
------------

The inner energy is: U= E(el) + E(ZPE) + E(vib) + E(rot) + E(trans)
    E(el)   - is the total energy from the electronic structure calculation
              = E(kin-el) + E(nuc-el) + E(el-el) + E(nuc-nuc)
    E(ZPE)  - the the zero temperature vibrational energy from the frequency calculation
    E(vib)  - the the finite temperature correction to E(ZPE) due to population
              of excited vibrational states
    E(rot)  - is the rotational thermal energy
    E(trans)- is the translational thermal energy

Summary of contributions to the inner energy U:
Electronic energy                ...   -350.11608440 Eh
Zero point energy                ...      0.18184193 Eh     114.11 kcal/mol
Thermal vibrational correction   ...      0.00652912 Eh       4.10 kcal/mol
Thermal rotational correction    ...      0.00141627 Eh       0.89 kcal/mol
Thermal translational correction ...      0.00141627 Eh       0.89 kcal/mol
-----------------------------------------------------------------------
Total thermal energy                   -349.92488080 Eh

Summary of corrections to the electronic energy:
(perhaps to be used in another calculation)
Total thermal correction                  0.00936167 Eh       5.87 kcal/mol
Non-thermal (ZPE) correction              0.18184193 Eh     114.11 kcal/mol
-----------------------------------------------------------------------
Total correction                          0.19120360 Eh     119.98 kcal/mol

--------
ENTHALPY
--------

The enthalpy is H = U + kB*T
                kB is Boltzmann's constant
Total thermal energy              ...   -349.92488080 Eh
Thermal Enthalpy correction       ...      0.00094421 Eh       0.59 kcal/mol
-----------------------------------------------------------------------
Total Enthalpy                    ...   -349.92393659 Eh

Note: Only C1 symmetry has been detected, increase convergence thresholds
      if your molecule has a higher symmetry. Symmetry factor of 1.0 is
      used for the rotational entropy correction.

Note: Rotational entropy computed according to Herzberg
Infrared and Raman Spectra, Chapter V,1, Van Nostrand Reinhold, 1945
Point Group:  C1, Symmetry Number:   1
Rotational constants in cm-1:     0.098693     0.042932     0.030424

Vibrational entropy computed according to the QRRHO of S. Grimme
Chem.Eur.J. 2012 18 9955 using a reference frequency of 100.0 cm-1

-------
ENTROPY
-------

The entropy contributions are T*S = T*(S(el)+S(vib)+S(rot)+S(trans))
     S(el)   - electronic entropy
     S(vib)  - vibrational entropy
     S(rot)  - rotational entropy
     S(trans)- translational entropy
The entropies will be listed as multiplied by the temperature to get
units of energy

Electronic entropy                ...      0.00000000 Eh      0.00 kcal/mol
Vibrational entropy               ...      0.01100184 Eh      6.90 kcal/mol
Rotational entropy                ...      0.01373903 Eh      8.62 kcal/mol
Translational entropy             ...      0.01913176 Eh     12.01 kcal/mol
-----------------------------------------------------------------------
Final entropy term                ...      0.04387263 Eh     27.53 kcal/mol

In case the symmetry of your molecule has not been determined correctly
or in case you have a reason to use a different symmetry number we print
out the resulting rotational entropy values for sn=1,12:

 non-linear molecules -----------------------------------
|  sn= 1 | S(rot)=       0.01373903 Eh      8.62 kcal/mol|
|  sn= 2 | S(rot)=       0.01308458 Eh      8.21 kcal/mol|
|  sn= 3 | S(rot)=       0.01270174 Eh      7.97 kcal/mol|

                             ****ORCA TERMINATED NORMALLY****
TOTAL RUN TIME: 0 days 0 hours 20 minutes 18 seconds 112 msec
