                         Program Version 6.0.1  -  RELEASE   -
|  1> ! pbe def2-sv(p) def2/J RI DEFGRID1 loosescf d4 GCP(DFT/SV(P)) printgap
|  2> %output
|  3>     printlevel normal
|  4> end
|  5> * xyz 0 1
|  6> C 1.5886633118 1.6247348991 0.7909840364
|  7> C 0.2944150529 0.8773087285 1.1672758965
|  8> H -0.0439843207 1.2679247237 2.1297310484
|  9> C 0.3283774807 -0.6783343355 1.2518514645
| 10> H -0.0404297612 -0.9900081645 2.2324562057
| 11> C 1.6634712434 -1.404029028 1.040287228
| 12> O 2.4537362971 -0.8414664963 0.031144103
| 13> S 3.6848808745 0.1358838535 0.6203542064
| 14> O 4.4032161078 -0.5846208995 1.618250539
| 15> O 2.69523526 1.1529036426 1.5012279867
| 16> C -0.7388883294 -1.0924666088 0.2016676086
| 17> C -0.2222558412 -0.6965763211 -1.1666722515
| 18> C -0.279474139 0.6412185992 -1.2320270824
| 19> C -0.8087517864 1.1331779011 0.1026377941
| 20> C -1.8120673345 0.0004620966 0.410189687
| 21> Cl -3.1396242066 -0.0906613972 -0.7529138527
| 22> Cl -2.4948138117 0.053231389 2.0303128408
| 23> Cl -1.4475105067 2.7626881929 0.1038185851
| 24> Cl 0.1828774278 1.6670028165 -2.4974595873
| 25> Cl 0.3436735402 -1.7992597723 -2.3066551176
| 26> Cl -1.2864709036 -2.7484290353 0.3472356338
| 27> H 1.4551359967 2.6843262537 1.0312046834
| 28> H 1.7769272491 1.5333636897 -0.2837363642
| 29> H 2.232028087 -1.4013378254 1.9786982826
| 30> H 1.4555108473 -2.4450870162 0.7717898417
| 31> *
| 32>
| 33>                          ****END OF INPUT****

CARTESIAN COORDINATES (ANGSTROEM)
---------------------------------
  C      1.588663    1.624735    0.790984
  C      0.294415    0.877309    1.167276
  H     -0.043984    1.267925    2.129731
  C      0.328377   -0.678334    1.251851
  H     -0.040430   -0.990008    2.232456
  C      1.663471   -1.404029    1.040287
  O      2.453736   -0.841466    0.031144
  S      3.684881    0.135884    0.620354
  O      4.403216   -0.584621    1.618251
  O      2.695235    1.152904    1.501228
  C     -0.738888   -1.092467    0.201668
  C     -0.222256   -0.696576   -1.166672
  C     -0.279474    0.641219   -1.232027
  C     -0.808752    1.133178    0.102638
  C     -1.812067    0.000462    0.410190
  Cl    -3.139624   -0.090661   -0.752914
  Cl    -2.494814    0.053231    2.030313
  Cl    -1.447511    2.762688    0.103819
  Cl     0.182877    1.667003   -2.497460
  Cl     0.343674   -1.799260   -2.306655
  Cl    -1.286471   -2.748429    0.347236
  H      1.455136    2.684326    1.031205
  H      1.776927    1.533364   -0.283736
  H      2.232028   -1.401338    1.978698
  H      1.455511   -2.445087    0.771790

 Total Charge           Charge          ....    0
 Multiplicity           Mult            ....    1
 Number of Electrons    NEL             ....  202
 Basis Dimension        Dim             ....  306

ORBITAL ENERGIES
----------------

  NO   OCC          E(Eh)            E(eV)
   0   2.0000    -100.675823     -2739.5284
   1   2.0000    -100.672169     -2739.4290
   2   2.0000    -100.665730     -2739.2538
   3   2.0000    -100.658830     -2739.0660
   4   2.0000    -100.658520     -2739.0576
   5   2.0000    -100.654941     -2738.9602
   6   2.0000     -88.209232     -2400.2952
   7   2.0000     -18.805433      -511.7218
   8   2.0000     -18.804985      -511.7097
   9   2.0000     -18.774332      -510.8755
  10   2.0000     -10.042756      -273.2773
  11   2.0000     -10.010440      -272.3979
  12   2.0000     -10.007703      -272.3234
  13   2.0000      -9.980957      -271.5957
  14   2.0000      -9.980302      -271.5778
  15   2.0000      -9.967076      -271.2179
  16   2.0000      -9.961930      -271.0779
  17   2.0000      -9.944130      -270.5935
  18   2.0000      -9.943279      -270.5704
  19   2.0000      -9.211261      -250.6512
  20   2.0000      -9.207946      -250.5610
  21   2.0000      -9.201819      -250.3942
  22   2.0000      -9.194709      -250.2007
  23   2.0000      -9.194325      -250.1903
  24   2.0000      -9.190997      -250.0997
  25   2.0000      -7.835896      -213.2256
  26   2.0000      -7.042757      -191.6432
  27   2.0000      -7.039478      -191.5539
  28   2.0000      -7.033471      -191.3905
  29   2.0000      -7.031437      -191.3351
  30   2.0000      -7.030346      -191.3054
  31   2.0000      -7.028013      -191.2420
  32   2.0000      -7.027013      -191.2147
  33   2.0000      -7.026383      -191.1976
  34   2.0000      -7.025956      -191.1860
  35   2.0000      -7.022968      -191.1047
  36   2.0000      -7.021355      -191.0608
  37   2.0000      -7.021195      -191.0564
  38   2.0000      -7.014344      -190.8700
  39   2.0000      -7.014053      -190.8621
  40   2.0000      -7.013983      -190.8602
  41   2.0000      -7.013682      -190.8520
  42   2.0000      -7.010403      -190.7628
  43   2.0000      -7.010242      -190.7584
  44   2.0000      -5.864394      -159.5783
  45   2.0000      -5.863246      -159.5470
  46   2.0000      -5.853492      -159.2816
  47   2.0000      -1.051562       -28.6145
  48   2.0000      -0.959945       -26.1214
  49   2.0000      -0.956932       -26.0394
  50   2.0000      -0.916831       -24.9482
  51   2.0000      -0.844707       -22.9856
  52   2.0000      -0.833079       -22.6692
  53   2.0000      -0.807279       -21.9672
  54   2.0000      -0.799889       -21.7661
  55   2.0000      -0.776160       -21.1204
  56   2.0000      -0.772051       -21.0086
  57   2.0000      -0.727943       -19.8083
  58   2.0000      -0.692377       -18.8405
  59   2.0000      -0.669575       -18.2201
  60   2.0000      -0.628701       -17.1078
  61   2.0000      -0.627061       -17.0632
  62   2.0000      -0.564108       -15.3502
  63   2.0000      -0.551578       -15.0092
  64   2.0000      -0.538927       -14.6649
  65   2.0000      -0.513743       -13.9797
  66   2.0000      -0.503130       -13.6909
  67   2.0000      -0.494149       -13.4465
  68   2.0000      -0.483344       -13.1524
  69   2.0000      -0.469479       -12.7752
  70   2.0000      -0.456377       -12.4186
  71   2.0000      -0.440921       -11.9981
  72   2.0000      -0.434862       -11.8332
  73   2.0000      -0.430550       -11.7159
  74   2.0000      -0.424953       -11.5635
  75   2.0000      -0.410458       -11.1691
  76   2.0000      -0.405235       -11.0270
  77   2.0000      -0.400409       -10.8957
  78   2.0000      -0.392916       -10.6918
  79   2.0000      -0.377282       -10.2664
  80   2.0000      -0.366811        -9.9814
  81   2.0000      -0.363687        -9.8964
  82   2.0000      -0.349231        -9.5031
  83   2.0000      -0.335113        -9.1189
  84   2.0000      -0.324306        -8.8248
  85   2.0000      -0.323172        -8.7939
  86   2.0000      -0.313320        -8.5259
  87   2.0000      -0.304747        -8.2926
  88   2.0000      -0.296977        -8.0812
  89   2.0000      -0.294008        -8.0004
  90   2.0000      -0.291925        -7.9437
  91   2.0000      -0.289854        -7.8873
  92   2.0000      -0.284581        -7.7438
  93   2.0000      -0.282342        -7.6829
  94   2.0000      -0.280778        -7.6404
  95   2.0000      -0.276549        -7.5253
  96   2.0000      -0.274309        -7.4643
  97   2.0000      -0.272073        -7.4035
  98   2.0000      -0.261527        -7.1165
  99   2.0000      -0.250322        -6.8116
 100   2.0000      -0.225588        -6.1386
 101   0.0000      -0.069167        -1.8821
 102   0.0000      -0.059311        -1.6139
 103   0.0000      -0.043035        -1.1710
 104   0.0000      -0.021452        -0.5837
 105   0.0000      -0.011223        -0.3054

MULLIKEN ATOMIC CHARGES
-----------------------
   0 C :    0.053841
   1 C :   -0.049280
   2 H :    0.095837
   3 C :   -0.030203
   4 H :    0.098479
   5 C :    0.034203
   6 O :   -0.408534
   7 S :    0.807032
   8 O :   -0.381573
   9 O :   -0.405886
  10 C :   -0.141795
  11 C :    0.107858
  12 C :   -0.004507
  13 C :   -0.086626
  14 C :   -0.134498
  15 Cl:    0.014183
  16 Cl:    0.013013
  17 Cl:   -0.022460
  18 Cl:    0.002635
  19 Cl:    0.003943
  20 Cl:   -0.017900
  21 H :    0.108698
  22 H :    0.112986
  23 H :    0.121518
  24 H :    0.109034
Sum of atomic charges:    0.0000000

LOEWDIN ATOMIC CHARGES
----------------------
   0 C :   -0.146587
   1 C :   -0.144800
   2 H :    0.132288
   3 C :   -0.146868
   4 H :    0.134932
   5 C :   -0.153087
   6 O :   -0.303901
   7 S :    0.911866
   8 O :   -0.424549
   9 O :   -0.300425
  10 C :   -0.170730
  11 C :   -0.200398
  12 C :   -0.213207
  13 C :   -0.168023
  14 C :   -0.231044
  15 Cl:    0.127979
  16 Cl:    0.145430
  17 Cl:    0.133542
  18 Cl:    0.204652
  19 Cl:    0.215031
  20 Cl:    0.138001
  21 H :    0.124790
  22 H :    0.099602
  23 H :    0.114448
  24 H :    0.121057

  Mayer bond orders larger than 0.100000
B(  0-C ,  1-C ) :   1.0551 B(  0-C ,  9-O ) :   0.9875 B(  0-C , 21-H ) :   0.9073
B(  0-C , 22-H ) :   0.8932 B(  1-C ,  2-H ) :   0.8435 B(  1-C ,  3-C ) :   1.0436
B(  1-C , 13-C ) :   0.9794 B(  3-C ,  4-H ) :   0.8452 B(  3-C ,  5-C ) :   1.0486
B(  3-C , 10-C ) :   0.9962 B(  5-C ,  6-O ) :   0.9584 B(  5-C , 23-H ) :   0.8925
B(  5-C , 24-H ) :   0.9068 B(  6-O ,  7-S ) :   0.8707 B(  7-S ,  8-O ) :   1.8619
B(  7-S ,  9-O ) :   0.8854 B( 10-C , 11-C ) :   0.9070 B( 10-C , 14-C ) :   0.8248
B( 10-C , 20-Cl) :   1.1303 B( 11-C , 12-C ) :   1.7624 B( 11-C , 19-Cl) :   1.1476
B( 12-C , 13-C ) :   0.8968 B( 12-C , 18-Cl) :   1.1339 B( 13-C , 14-C ) :   0.8292
B( 13-C , 17-Cl) :   1.1280 B( 14-C , 15-Cl) :   1.1509 B( 14-C , 16-Cl) :   1.1414

Dispersion correction           -0.059958911
FINAL SINGLE POINT ENERGY     -3728.104179817704

DIPOLE MOMENT
-------------

Method             : SCF
Type of density    : Electron Density
Multiplicity       :   1
Irrep              :   0
Energy             : -3728.1584642367056404 Eh
Relativity type    :
Basis              : AO
                                X                 Y                 Z
Electronic contribution:    -17.091018494      -0.522170346     -11.615552989
Nuclear contribution   :     16.972603511       0.809690381      11.531011105
                        -----------------------------------------
Total Dipole Moment    :     -0.118414983       0.287520035      -0.084541884
                        -----------------------------------------
Magnitude (a.u.)       :      0.322237814
Magnitude (Debye)      :      0.819063431

Rotational constants in cm-1:             0.010026             0.006533             0.006151
Rotational constants in MHz :           300.583468           195.853238           184.409868

                             ****ORCA TERMINATED NORMALLY****
TOTAL RUN TIME: 0 days 0 hours 0 minutes 20 seconds 431 msec
