                         Program Version 6.0.1  -  RELEASE   -
|  1> ! pbe def2-sv(p) def2/J RI DEFGRID1 loosescf d4 GCP(DFT/SV(P)) printgap
|  2> %output
|  3>     printlevel normal
|  4> end
|  5> * xyz 0 1
|  6> C -2.5306814032 0.8715419312 0.8810979568
|  7> C -1.4505620965 0.3638679874 -0.0778270474
|  8> C -1.9734587849 -0.8750257204 -0.8011552287
|  9> C -0.1671933614 0.1104833257 0.7273982535
| 10> C 1.1755825826 -0.0676498611 -0.0132975704
| 11> C 1.3205756896 -1.4587658066 -0.6353400562
| 12> C 1.3653950168 0.9981449147 -1.0943338334
| 13> C 2.2878016556 0.0944587132 1.0328825851
| 14> H -2.7405079794 0.125330867 1.6448442636
| 15> H -2.2133436279 1.787447021 1.3750529324
| 16> H -3.4533943657 1.0785550314 0.3432508881
| 17> H -1.2649450223 1.1496205609 -0.8156099357
| 18> H -2.969738808 -0.683207062 -1.1955445851
| 19> H -1.3367847693 -1.1517898598 -1.6354306827
| 20> H -2.0345506932 -1.7188353191 -0.1172677782
| 21> H -0.0440380977 0.9686540939 1.393947515
| 22> H -0.3271697959 -0.7651480554 1.3620068089
| 23> H 1.1110864973 -2.2324713195 0.0997970765
| 24> H 2.3379282611 -1.5990620853 -0.9962097875
| 25> H 0.6497662335 -1.5935673091 -1.4773345911
| 26> H 0.6776373815 0.8452109278 -1.9219633749
| 27> H 2.3787055193 0.9531346602 -1.4880282405
| 28> H 1.2023674836 1.9927369868 -0.6850466537
| 29> H 3.2647911331 -0.0614621808 0.5804097656
| 30> H 2.1649226144 -0.6292021549 1.8359361903
| 31> H 2.2700395056 1.0924702985 1.4657045387
| 32> *
| 33>
| 34>                          ****END OF INPUT****

CARTESIAN COORDINATES (ANGSTROEM)
---------------------------------
  C     -2.530681    0.871542    0.881098
  C     -1.450562    0.363868   -0.077827
  C     -1.973459   -0.875026   -0.801155
  C     -0.167193    0.110483    0.727398
  C      1.175583   -0.067650   -0.013298
  C      1.320576   -1.458766   -0.635340
  C      1.365395    0.998145   -1.094334
  C      2.287802    0.094459    1.032883
  H     -2.740508    0.125331    1.644844
  H     -2.213344    1.787447    1.375053
  H     -3.453394    1.078555    0.343251
  H     -1.264945    1.149621   -0.815610
  H     -2.969739   -0.683207   -1.195545
  H     -1.336785   -1.151790   -1.635431
  H     -2.034551   -1.718835   -0.117268
  H     -0.044038    0.968654    1.393948
  H     -0.327170   -0.765148    1.362007
  H      1.111086   -2.232471    0.099797
  H      2.337928   -1.599062   -0.996210
  H      0.649766   -1.593567   -1.477335
  H      0.677637    0.845211   -1.921963
  H      2.378706    0.953135   -1.488028
  H      1.202367    1.992737   -0.685047
  H      3.264791   -0.061462    0.580410
  H      2.164923   -0.629202    1.835936
  H      2.270040    1.092470    1.465705

 Total Charge           Charge          ....    0
 Multiplicity           Mult            ....    1
 Number of Electrons    NEL             ....   66
 Basis Dimension        Dim             ....  148

ORBITAL ENERGIES
----------------

  NO   OCC          E(Eh)            E(eV)
   0   2.0000      -9.902294      -269.4551
   1   2.0000      -9.889704      -269.1125
   2   2.0000      -9.875924      -268.7376
   3   2.0000      -9.868832      -268.5446
   4   2.0000      -9.868098      -268.5246
   5   2.0000      -9.867978      -268.5213
   6   2.0000      -9.867450      -268.5070
   7   2.0000      -9.867035      -268.4957
   8   2.0000      -0.747933       -20.3523
   9   2.0000      -0.706754       -19.2318
  10   2.0000      -0.614084       -16.7101
  11   2.0000      -0.610122       -16.6023
  12   2.0000      -0.602236       -16.3877
  13   2.0000      -0.599695       -16.3185
  14   2.0000      -0.502563       -13.6754
  15   2.0000      -0.467137       -12.7114
  16   2.0000      -0.421581       -11.4718
  17   2.0000      -0.405086       -11.0229
  18   2.0000      -0.399577       -10.8730
  19   2.0000      -0.383732       -10.4419
  20   2.0000      -0.368503       -10.0275
  21   2.0000      -0.357075        -9.7165
  22   2.0000      -0.343310        -9.3419
  23   2.0000      -0.339451        -9.2369
  24   2.0000      -0.332276        -9.0417
  25   2.0000      -0.317926        -8.6512
  26   2.0000      -0.313563        -8.5325
  27   2.0000      -0.304359        -8.2820
  28   2.0000      -0.287969        -7.8360
  29   2.0000      -0.285327        -7.7642
  30   2.0000      -0.272897        -7.4259
  31   2.0000      -0.266359        -7.2480
  32   2.0000      -0.257575        -7.0090
  33   0.0000       0.026514         0.7215
  34   0.0000       0.056734         1.5438
  35   0.0000       0.064156         1.7458
  36   0.0000       0.070829         1.9273
  37   0.0000       0.078753         2.1430

MULLIKEN ATOMIC CHARGES
-----------------------
   0 C :   -0.245716
   1 C :   -0.167051
   2 C :   -0.243174
   3 C :   -0.091934
   4 C :   -0.236182
   5 C :   -0.210003
   6 C :   -0.221728
   7 C :   -0.211468
   8 H :    0.091632
   9 H :    0.096701
  10 H :    0.096001
  11 H :    0.073245
  12 H :    0.093171
  13 H :    0.108300
  14 H :    0.089369
  15 H :    0.067095
  16 H :    0.067137
  17 H :    0.089589
  18 H :    0.089335
  19 H :    0.099396
  20 H :    0.104747
  21 H :    0.091400
  22 H :    0.093485
  23 H :    0.091624
  24 H :    0.092276
  25 H :    0.092754
Sum of atomic charges:   -0.0000000

LOEWDIN ATOMIC CHARGES
----------------------
   0 C :   -0.327206
   1 C :   -0.157897
   2 C :   -0.330081
   3 C :   -0.198982
   4 C :   -0.105115
   5 C :   -0.317417
   6 C :   -0.317414
   7 C :   -0.315303
   8 H :    0.115558
   9 H :    0.114731
  10 H :    0.114930
  11 H :    0.115304
  12 H :    0.116239
  13 H :    0.114873
  14 H :    0.116467
  15 H :    0.113219
  16 H :    0.112238
  17 H :    0.115451
  18 H :    0.115311
  19 H :    0.114162
  20 H :    0.115526
  21 H :    0.116831
  22 H :    0.115979
  23 H :    0.113487
  24 H :    0.115362
  25 H :    0.113747

  Mayer bond orders larger than 0.100000
B(  0-C ,  1-C ) :   1.1107 B(  0-C ,  8-H ) :   0.9516 B(  0-C ,  9-H ) :   0.9486
B(  0-C , 10-H ) :   0.9494 B(  1-C ,  2-C ) :   1.1166 B(  1-C ,  3-C ) :   1.0913
B(  1-C , 11-H ) :   0.8886 B(  2-C , 12-H ) :   0.9465 B(  2-C , 13-H ) :   0.9391
B(  2-C , 14-H ) :   0.9471 B(  3-C ,  4-C ) :   1.0405 B(  3-C , 15-H ) :   0.9116
B(  3-C , 16-H ) :   0.9075 B(  4-C ,  5-C ) :   1.0829 B(  4-C ,  6-C ) :   1.0801
B(  4-C ,  7-C ) :   1.0739 B(  5-C , 17-H ) :   0.9463 B(  5-C , 18-H ) :   0.9446
B(  5-C , 19-H ) :   0.9370 B(  6-C , 20-H ) :   0.9388 B(  6-C , 21-H ) :   0.9458
B(  6-C , 22-H ) :   0.9462 B(  7-C , 23-H ) :   0.9456 B(  7-C , 24-H ) :   0.9494
B(  7-C , 25-H ) :   0.9451

Dispersion correction           -0.023283526
FINAL SINGLE POINT ENERGY      -314.872385773028

DIPOLE MOMENT
-------------

Method             : SCF
Type of density    : Electron Density
Multiplicity       :   1
Irrep              :   0
Energy             :  -314.9590804887827176 Eh
Relativity type    :
Basis              : AO
                                X                 Y                 Z
Electronic contribution:      0.310227548       0.444373667       0.180469312
Nuclear contribution   :     -0.306993252      -0.414278010      -0.217170956
                        -----------------------------------------
Total Dipole Moment    :      0.003234296       0.030095657      -0.036701644
                        -----------------------------------------
Magnitude (a.u.)       :      0.047573311
Magnitude (Debye)      :      0.120921747

Rotational constants in cm-1:             0.099433             0.040730             0.036864
Rotational constants in MHz :          2980.927983          1221.057636          1105.145874

                             ****ORCA TERMINATED NORMALLY****
TOTAL RUN TIME: 0 days 0 hours 0 minutes 38 seconds 361 msec
