                         Program Version 6.0.1  -  RELEASE   -
|  1> ! pbe def2-sv(p) def2/J RI DEFGRID1 loosescf d4 GCP(DFT/SV(P)) printgap
|  2> %output
|  3>     printlevel normal
|  4> end
|  5> * xyz 0 1
|  6> C -1.9553131937 0.1467791149 -0.0032799504
|  7> C -0.5905640242 -0.5280449966 0.0203099054
|  8> C 0.5440339626 0.4959470048 -0.0282063496
|  9> O 1.8193726753 -0.0957554316 0.0532968739
| 10> H -2.0717456702 0.7412813688 -0.9069707095
| 11> H -2.7474382219 -0.5972988213 0.0236193798
| 12> H -2.0701737786 0.8038407117 0.8555075422
| 13> H -0.5002613421 -1.2031152387 -0.8362035675
| 14> H -0.485455159 -1.1248757534 0.9285481544
| 15> H 0.4587504873 1.0993218776 -0.9449326118
| 16> H 0.4812955025 1.1680179441 0.8308945296
| 17> H 1.9099941092 -0.7337893302 -0.6633095553
| 18> *
| 19>
| 20>                          ****END OF INPUT****

CARTESIAN COORDINATES (ANGSTROEM)
---------------------------------
  C     -1.955313    0.146779   -0.003280
  C     -0.590564   -0.528045    0.020310
  C      0.544034    0.495947   -0.028206
  O      1.819373   -0.095755    0.053297
  H     -2.071746    0.741281   -0.906971
  H     -2.747438   -0.597299    0.023619
  H     -2.070174    0.803841    0.855508
  H     -0.500261   -1.203115   -0.836204
  H     -0.485455   -1.124876    0.928548
  H      0.458750    1.099322   -0.944933
  H      0.481296    1.168018    0.830895
  H      1.909994   -0.733789   -0.663310

 Total Charge           Charge          ....    0
 Multiplicity           Mult            ....    1
 Number of Electrons    NEL             ....   34
 Basis Dimension        Dim             ....   72

ORBITAL ENERGIES
----------------

  NO   OCC          E(Eh)            E(eV)
   0   2.0000     -18.736208      -509.8381
   1   2.0000      -9.925371      -270.0831
   2   2.0000      -9.886027      -269.0125
   3   2.0000      -9.879273      -268.8287
   4   2.0000      -0.915189       -24.9036
   5   2.0000      -0.701419       -19.0866
   6   2.0000      -0.600131       -16.3304
   7   2.0000      -0.534401       -14.5418
   8   2.0000      -0.452662       -12.3175
   9   2.0000      -0.417568       -11.3626
  10   2.0000      -0.375302       -10.2125
  11   2.0000      -0.365481        -9.9452
  12   2.0000      -0.340825        -9.2743
  13   2.0000      -0.311718        -8.4823
  14   2.0000      -0.300145        -8.1674
  15   2.0000      -0.266734        -7.2582
  16   2.0000      -0.209012        -5.6875
  17   0.0000       0.031013         0.8439
  18   0.0000       0.045482         1.2376
  19   0.0000       0.077467         2.1080
  20   0.0000       0.082920         2.2564
  21   0.0000       0.114585         3.1180

MULLIKEN ATOMIC CHARGES
-----------------------
   0 C :   -0.291383
   1 C :   -0.218748
   2 C :    0.009078
   3 O :   -0.431961
   4 H :    0.101086
   5 H :    0.108074
   6 H :    0.104811
   7 H :    0.076995
   8 H :    0.095936
   9 H :    0.068621
  10 H :    0.086431
  11 H :    0.291059
Sum of atomic charges:   -0.0000000

LOEWDIN ATOMIC CHARGES
----------------------
   0 C :   -0.340775
   1 C :   -0.260594
   2 C :   -0.125790
   3 O :   -0.341689
   4 H :    0.117393
   5 H :    0.121982
   6 H :    0.119569
   7 H :    0.108902
   8 H :    0.118772
   9 H :    0.091300
  10 H :    0.111392
  11 H :    0.279537

  Mayer bond orders larger than 0.100000
B(  0-C ,  1-C ) :   1.1314 B(  0-C ,  4-H ) :   0.9551 B(  0-C ,  5-H ) :   0.9512
B(  0-C ,  6-H ) :   0.9565 B(  1-C ,  2-C ) :   1.1074 B(  1-C ,  7-H ) :   0.9250
B(  1-C ,  8-H ) :   0.9223 B(  2-C ,  3-O ) :   1.0706 B(  2-C ,  9-H ) :   0.9271
B(  2-C , 10-H ) :   0.9297 B(  3-O , 11-H ) :   0.8569

Dispersion correction           -0.006225923
FINAL SINGLE POINT ENERGY      -193.874701292288

DIPOLE MOMENT
-------------

Method             : SCF
Type of density    : Electron Density
Multiplicity       :   1
Irrep              :   0
Energy             :  -193.9241677001685389 Eh
Relativity type    :
Basis              : AO
                                X                 Y                 Z
Electronic contribution:      4.273929093      -0.353409798       0.237306817
Nuclear contribution   :     -4.687307264       0.142477219      -0.667976281
                        -----------------------------------------
Total Dipole Moment    :     -0.413378172      -0.210932579      -0.430669464
                        -----------------------------------------
Magnitude (a.u.)       :      0.633127359
Magnitude (Debye)      :      1.609281855

Rotational constants in cm-1:             0.869614             0.127005             0.119021
Rotational constants in MHz :         26070.357033          3807.506250          3568.163972

                             ****ORCA TERMINATED NORMALLY****
TOTAL RUN TIME: 0 days 0 hours 0 minutes 6 seconds 549 msec
