                         Program Version 6.0.1  -  RELEASE   -
|  1> ! pbe def2-sv(p) def2/J RI DEFGRID1 loosescf d4 GCP(DFT/SV(P)) printgap
|  2> %output
|  3>     printlevel normal
|  4> end
|  5> * xyz 0 1
|  6> C 1.8281230134 -1.1221238933 -8.08109e-05
|  7> C 2.3153063935 0.1771441357 9.9619e-05
|  8> C 1.4456823067 1.2517644665 0.0001044267
|  9> C 0.0696102594 1.0478967643 -6.8669e-06
| 10> C -0.4306926354 -0.2650494759 -3.83252e-05
| 11> C 0.4659271949 -1.3344945227 -0.0001312518
| 12> C -1.8738747909 -0.5199523294 0.0002155645
| 13> O -2.3807432287 -1.6147039486 -5.45832e-05
| 14> O -0.8001095543 2.0849186603 -0.0001050553
| 15> H 2.5116237284 -1.9568075216 -0.0001485924
| 16> H 3.3800880378 0.3566030296 0.0002470536
| 17> H 1.8320537223 2.2629756191 0.000204084
| 18> H 0.0520965538 -2.3316758056 -0.000210545
| 19> H -2.4887168679 0.3973247431 0.000693539
| 20> H -0.3176698131 2.9215828743 -0.0001862061
| 21> *
| 22>
| 23>                          ****END OF INPUT****

CARTESIAN COORDINATES (ANGSTROEM)
---------------------------------
  C      1.828123   -1.122124   -0.000081
  C      2.315306    0.177144    0.000100
  C      1.445682    1.251764    0.000104
  C      0.069610    1.047897   -0.000007
  C     -0.430693   -0.265049   -0.000038
  C      0.465927   -1.334495   -0.000131
  C     -1.873875   -0.519952    0.000216
  O     -2.380743   -1.614704   -0.000055
  O     -0.800110    2.084919   -0.000105
  H      2.511624   -1.956808   -0.000149
  H      3.380088    0.356603    0.000247
  H      1.832054    2.262976    0.000204
  H      0.052097   -2.331676   -0.000211
  H     -2.488717    0.397325    0.000694
  H     -0.317670    2.921583   -0.000186

 Total Charge           Charge          ....    0
 Multiplicity           Mult            ....    1
 Number of Electrons    NEL             ....   64
 Basis Dimension        Dim             ....  138

ORBITAL ENERGIES
----------------

  NO   OCC          E(Eh)            E(eV)
   0   2.0000     -18.804625      -511.6999
   1   2.0000     -18.738078      -509.8890
   2   2.0000      -9.974037      -271.4073
   3   2.0000      -9.960154      -271.0296
   4   2.0000      -9.915094      -269.8034
   5   2.0000      -9.908071      -269.6123
   6   2.0000      -9.907902      -269.6077
   7   2.0000      -9.904835      -269.5243
   8   2.0000      -9.902353      -269.4567
   9   2.0000      -0.988715       -26.9043
  10   2.0000      -0.934972       -25.4419
  11   2.0000      -0.788913       -21.4674
  12   2.0000      -0.700335       -19.0571
  13   2.0000      -0.681094       -18.5335
  14   2.0000      -0.592618       -16.1259
  15   2.0000      -0.578063       -15.7299
  16   2.0000      -0.517791       -14.0898
  17   2.0000      -0.505722       -13.7614
  18   2.0000      -0.461579       -12.5602
  19   2.0000      -0.429011       -11.6740
  20   2.0000      -0.407996       -11.1021
  21   2.0000      -0.395948       -10.7743
  22   2.0000      -0.390966       -10.6387
  23   2.0000      -0.365614        -9.9489
  24   2.0000      -0.360360        -9.8059
  25   2.0000      -0.344431        -9.3724
  26   2.0000      -0.328177        -8.9302
  27   2.0000      -0.315659        -8.5895
  28   2.0000      -0.314035        -8.5453
  29   2.0000      -0.243729        -6.6322
  30   2.0000      -0.215965        -5.8767
  31   2.0000      -0.196801        -5.3552
  32   0.0000      -0.089880        -2.4458
  33   0.0000      -0.037022        -1.0074
  34   0.0000       0.003784         0.1030
  35   0.0000       0.007318         0.1991
  36   0.0000       0.038536         1.0486

MULLIKEN ATOMIC CHARGES
-----------------------
   0 C :   -0.038510
   1 C :   -0.041691
   2 C :   -0.159188
   3 C :    0.198519
   4 C :   -0.001922
   5 C :   -0.111898
   6 C :    0.039145
   7 O :   -0.160070
   8 O :   -0.317216
   9 H :    0.058806
  10 H :    0.063911
  11 H :    0.032978
  12 H :    0.063218
  13 H :    0.049889
  14 H :    0.324027
Sum of atomic charges:   -0.0000000

LOEWDIN ATOMIC CHARGES
----------------------
   0 C :   -0.141256
   1 C :   -0.095994
   2 C :   -0.173576
   3 C :    0.042486
   4 C :   -0.120597
   5 C :   -0.073473
   6 C :    0.000134
   7 O :   -0.124657
   8 O :   -0.216542
   9 H :    0.127478
  10 H :    0.129039
  11 H :    0.123125
  12 H :    0.135311
  13 H :    0.085255
  14 H :    0.303266

  Mayer bond orders larger than 0.100000
B(  0-C ,  1-C ) :   1.3349 B(  0-C ,  5-C ) :   1.3646 B(  0-C ,  9-H ) :   0.9714
B(  1-C ,  2-C ) :   1.3809 B(  1-C , 10-H ) :   0.9616 B(  2-C ,  3-C ) :   1.3104
B(  2-C , 11-H ) :   0.9538 B(  3-C ,  4-C ) :   1.3177 B(  3-C ,  8-O ) :   1.2326
B(  4-C ,  5-C ) :   1.3601 B(  4-C ,  6-C ) :   1.0147 B(  5-C , 12-H ) :   0.9595
B(  6-C ,  7-O ) :   2.1418 B(  6-C , 13-H ) :   0.9168 B(  8-O , 14-H ) :   0.8360

Dispersion correction           -0.015690816
FINAL SINGLE POINT ENERGY      -419.924266084474

DIPOLE MOMENT
-------------

Method             : SCF
Type of density    : Electron Density
Multiplicity       :   1
Irrep              :   0
Energy             :  -419.9709335418607452 Eh
Relativity type    :
Basis              : AO
                                X                 Y                 Z
Electronic contribution:     -3.342695102      -0.231621594      -0.000428933
Nuclear contribution   :      4.615120025       1.554949059       0.000559914
                        -----------------------------------------
Total Dipole Moment    :      1.272424923       1.323327465       0.000130981
                        -----------------------------------------
Magnitude (a.u.)       :      1.835827002
Magnitude (Debye)      :      4.666301403

Rotational constants in cm-1:             0.087686             0.052578             0.032869
Rotational constants in MHz :          2628.767030          1576.238268           985.388348

                             ****ORCA TERMINATED NORMALLY****
TOTAL RUN TIME: 0 days 0 hours 0 minutes 15 seconds 660 msec
