                         Program Version 6.0.1  -  RELEASE   -
|  1> ! pbe def2-sv(p) def2/J RI DEFGRID1 loosescf d4 GCP(DFT/SV(P)) printgap
|  2> %output
|  3>     printlevel normal
|  4> end
|  5> * xyz 0 1
|  6> C -2.9982986745 -0.2541868404 3.19095e-05
|  7> C -1.6375322821 0.4337269604 -4.09665e-05
|  8> C -0.5064495653 -0.5930485525 -0.0006450051
|  9> C 0.9245035926 -0.0252190763 -1.486e-07
| 10> C 1.1794338668 0.82155567 -1.2490073168
| 11> C 1.17901509 0.8198270307 1.2502629625
| 12> C 1.8988162604 -1.2088459612 -0.000638794
| 13> H -3.109767863 -0.8820846424 -0.8816020818
| 14> H -3.1096052371 -0.8821216233 0.8816556355
| 15> H -3.7997511322 0.4813301766 0.0001167111
| 16> H -1.5636201363 1.0704270428 -0.8827784365
| 17> H -1.5632403131 1.0699020296 0.8830428716
| 18> H -0.6215709446 -1.2306137641 -0.881385636
| 19> H -0.6218575994 -1.2319496833 0.8790858908
| 20> H 2.2246044342 1.1208399283 -1.2919974576
| 21> H 0.9489133129 0.2557075327 -2.1490926961
| 22> H 0.5724063162 1.7229955967 -1.2418402442
| 23> H 0.5724857235 1.721608356 1.2438487064
| 24> H 2.2243176741 1.1184851444 1.2943043978
| 25> H 0.9476121347 0.2529571672 2.1494712576
| 26> H 1.7499182172 -1.8280754942 -0.8826530233
| 27> H 2.92821229 -0.8570036377 -0.0007919118
| 28> H 1.7503668479 -1.8286296174 0.8810612189
| 29> *
| 30>
| 31>                          ****END OF INPUT****

CARTESIAN COORDINATES (ANGSTROEM)
---------------------------------
  C     -2.998299   -0.254187    0.000032
  C     -1.637532    0.433727   -0.000041
  C     -0.506450   -0.593049   -0.000645
  C      0.924504   -0.025219   -0.000000
  C      1.179434    0.821556   -1.249007
  C      1.179015    0.819827    1.250263
  C      1.898816   -1.208846   -0.000639
  H     -3.109768   -0.882085   -0.881602
  H     -3.109605   -0.882122    0.881656
  H     -3.799751    0.481330    0.000117
  H     -1.563620    1.070427   -0.882778
  H     -1.563240    1.069902    0.883043
  H     -0.621571   -1.230614   -0.881386
  H     -0.621858   -1.231950    0.879086
  H      2.224604    1.120840   -1.291997
  H      0.948913    0.255708   -2.149093
  H      0.572406    1.722996   -1.241840
  H      0.572486    1.721608    1.243849
  H      2.224318    1.118485    1.294304
  H      0.947612    0.252957    2.149471
  H      1.749918   -1.828075   -0.882653
  H      2.928212   -0.857004   -0.000792
  H      1.750367   -1.828630    0.881061

 Total Charge           Charge          ....    0
 Multiplicity           Mult            ....    1
 Number of Electrons    NEL             ....   58
 Basis Dimension        Dim             ....  130

ORBITAL ENERGIES
----------------

  NO   OCC          E(Eh)            E(eV)
   0   2.0000      -9.901286      -269.4277
   1   2.0000      -9.878501      -268.8077
   2   2.0000      -9.876460      -268.7521
   3   2.0000      -9.869515      -268.5632
   4   2.0000      -9.867790      -268.5162
   5   2.0000      -9.867778      -268.5159
   6   2.0000      -9.867082      -268.4970
   7   2.0000      -0.745178       -20.2773
   8   2.0000      -0.688602       -18.7378
   9   2.0000      -0.609043       -16.5729
  10   2.0000      -0.608750       -16.5649
  11   2.0000      -0.599950       -16.3255
  12   2.0000      -0.522938       -14.2299
  13   2.0000      -0.466753       -12.7010
  14   2.0000      -0.418602       -11.3907
  15   2.0000      -0.408970       -11.1286
  16   2.0000      -0.389981       -10.6119
  17   2.0000      -0.387151       -10.5349
  18   2.0000      -0.358987        -9.7685
  19   2.0000      -0.345615        -9.4047
  20   2.0000      -0.341315        -9.2877
  21   2.0000      -0.318797        -8.6749
  22   2.0000      -0.318381        -8.6636
  23   2.0000      -0.315633        -8.5888
  24   2.0000      -0.300713        -8.1828
  25   2.0000      -0.288283        -7.8446
  26   2.0000      -0.273317        -7.4373
  27   2.0000      -0.268925        -7.3178
  28   2.0000      -0.262399        -7.1403
  29   0.0000       0.029822         0.8115
  30   0.0000       0.056885         1.5479
  31   0.0000       0.069732         1.8975
  32   0.0000       0.069955         1.9036
  33   0.0000       0.083781         2.2798

MULLIKEN ATOMIC CHARGES
-----------------------
   0 C :   -0.261585
   1 C :   -0.184733
   2 C :   -0.128687
   3 C :   -0.228426
   4 C :   -0.223203
   5 C :   -0.223184
   6 C :   -0.204269
   7 H :    0.095815
   8 H :    0.095820
   9 H :    0.099965
  10 H :    0.087624
  11 H :    0.087620
  12 H :    0.070876
  13 H :    0.070874
  14 H :    0.091527
  15 H :    0.091238
  16 H :    0.103297
  17 H :    0.103297
  18 H :    0.091521
  19 H :    0.091239
  20 H :    0.090822
  21 H :    0.091725
  22 H :    0.090826
Sum of atomic charges:   -0.0000000

LOEWDIN ATOMIC CHARGES
----------------------
   0 C :   -0.337523
   1 C :   -0.236785
   2 C :   -0.207783
   3 C :   -0.107187
   4 C :   -0.317561
   5 C :   -0.317561
   6 C :   -0.315380
   7 H :    0.115782
   8 H :    0.115782
   9 H :    0.117444
  10 H :    0.115093
  11 H :    0.115093
  12 H :    0.111422
  13 H :    0.111419
  14 H :    0.116334
  15 H :    0.115561
  16 H :    0.115325
  17 H :    0.115324
  18 H :    0.116338
  19 H :    0.115560
  20 H :    0.114637
  21 H :    0.114026
  22 H :    0.114639

  Mayer bond orders larger than 0.100000
B(  0-C ,  1-C ) :   1.1562 B(  0-C ,  7-H ) :   0.9544 B(  0-C ,  8-H ) :   0.9544
B(  0-C ,  9-H ) :   0.9528 B(  1-C ,  2-C ) :   1.1379 B(  1-C , 10-H ) :   0.9167
B(  1-C , 11-H ) :   0.9168 B(  2-C ,  3-C ) :   1.0415 B(  2-C , 12-H ) :   0.9163
B(  2-C , 13-H ) :   0.9163 B(  3-C ,  4-C ) :   1.0725 B(  3-C ,  5-C ) :   1.0725
B(  3-C ,  6-C ) :   1.0800 B(  4-C , 14-H ) :   0.9475 B(  4-C , 15-H ) :   0.9489
B(  4-C , 16-H ) :   0.9423 B(  5-C , 17-H ) :   0.9423 B(  5-C , 18-H ) :   0.9475
B(  5-C , 19-H ) :   0.9489 B(  6-C , 20-H ) :   0.9473 B(  6-C , 21-H ) :   0.9469
B(  6-C , 22-H ) :   0.9473

Dispersion correction           -0.018964593
FINAL SINGLE POINT ENERGY      -275.663332606188

DIPOLE MOMENT
-------------

Method             : SCF
Type of density    : Electron Density
Multiplicity       :   1
Irrep              :   0
Energy             :  -275.7405817974924958 Eh
Relativity type    :
Basis              : AO
                                X                 Y                 Z
Electronic contribution:      0.430764337      -0.039864681      -0.000411918
Nuclear contribution   :     -0.441476514       0.069212402       0.000417672
                        -----------------------------------------
Total Dipole Moment    :     -0.010712177       0.029347721       0.000005754
                        -----------------------------------------
Magnitude (a.u.)       :      0.031241631
Magnitude (Debye)      :      0.079409914

Rotational constants in cm-1:             0.136100             0.047241             0.046626
Rotational constants in MHz :          4080.161599          1416.254911          1397.824632

                             ****ORCA TERMINATED NORMALLY****
TOTAL RUN TIME: 0 days 0 hours 0 minutes 14 seconds 548 msec
