                         Program Version 6.0.0  -   RELEASE  -
|  1> ! r2SCAN-3c DEF2-TZVP FREQ
|  2> * xyzfile 0 1 censo.xyz
|  3>
|  4>                          ****END OF INPUT****

CARTESIAN COORDINATES (ANGSTROEM)
---------------------------------
  C     -3.653192    0.041928   -0.030428
  C     -2.155276    0.008335   -0.030486
  C     -1.413657    1.194951   -0.063728
  C     -0.026615    1.170802   -0.096339
  C      0.663802   -0.049630   -0.095228
  C     -0.076713   -1.239537   -0.056895
  C     -1.461526   -1.208706   -0.023326
  C      2.145130   -0.113553   -0.134372
  O      2.726732   -1.201465   -0.153975
  C      2.928516    1.167848   -0.151614
  H     -4.029409    0.162602   -1.053749
  H     -4.072044   -0.884937    0.368959
  H     -4.030503    0.885756    0.553895
  H     -1.934507    2.148264   -0.063636
  H      0.516371    2.109096   -0.121195
  H      0.446116   -2.189966   -0.050037
  H     -2.020854   -2.139376    0.009815
  H      2.685043    1.781777    0.721782
  H      2.673782    1.757421   -1.039090
  H      3.995608    0.943972   -0.157317

 Total Charge           Charge          ....    0
 Multiplicity           Mult            ....    1
 Number of Electrons    NEL             ....   72
 Basis Dimension        Dim             ....  370

ORBITAL ENERGIES
----------------

  NO   OCC          E(Eh)            E(eV)
   0   2.0000     -18.930633      -515.1287
   1   2.0000     -10.118184      -275.3298
   2   2.0000     -10.061860      -273.7971
   3   2.0000     -10.052350      -273.5384
   4   2.0000     -10.048699      -273.4390
   5   2.0000     -10.046198      -273.3709
   6   2.0000     -10.045299      -273.3465
   7   2.0000     -10.044158      -273.3154
   8   2.0000     -10.041632      -273.2467
   9   2.0000     -10.035923      -273.0913
  10   2.0000      -0.989038       -26.9131
  11   2.0000      -0.837218       -22.7819
  12   2.0000      -0.762165       -20.7396
  13   2.0000      -0.726861       -19.7789
  14   2.0000      -0.711829       -19.3698
  15   2.0000      -0.667189       -18.1551
  16   2.0000      -0.585452       -15.9310
  17   2.0000      -0.580202       -15.7881
  18   2.0000      -0.524593       -14.2749
  19   2.0000      -0.467279       -12.7153
  20   2.0000      -0.447915       -12.1884
  21   2.0000      -0.427173       -11.6240
  22   2.0000      -0.415968       -11.3191
  23   2.0000      -0.412686       -11.2297
  24   2.0000      -0.402960       -10.9651
  25   2.0000      -0.398579       -10.8459
  26   2.0000      -0.387619       -10.5476
  27   2.0000      -0.361835        -9.8460
  28   2.0000      -0.358543        -9.7565
  29   2.0000      -0.349696        -9.5157
  30   2.0000      -0.330145        -8.9837
  31   2.0000      -0.320180        -8.7125
  32   2.0000      -0.315202        -8.5771
  33   2.0000      -0.248889        -6.7726
  34   2.0000      -0.237162        -6.4535
  35   2.0000      -0.214767        -5.8441
  36   0.0000      -0.086479        -2.3532
  37   0.0000      -0.045137        -1.2282
  38   0.0000       0.004800         0.1306
  39   0.0000       0.044974         1.2238
  40   0.0000       0.057401         1.5620

MULLIKEN ATOMIC CHARGES
-----------------------
   0 C :   -0.348867
   1 C :    0.184957
   2 C :   -0.206695
   3 C :   -0.146515
   4 C :    0.069863
   5 C :   -0.131188
   6 C :   -0.163102
   7 C :    0.211751
   8 O :   -0.348783
   9 C :   -0.323166
  10 H :    0.127251
  11 H :    0.116699
  12 H :    0.118079
  13 H :    0.104363
  14 H :    0.111617
  15 H :    0.135817
  16 H :    0.105946
  17 H :    0.123189
  18 H :    0.123393
  19 H :    0.135391
Sum of atomic charges:   -0.0000000

LOEWDIN ATOMIC CHARGES
----------------------
   0 C :   -0.249505
   1 C :   -0.157444
   2 C :   -0.113229
   3 C :   -0.096415
   4 C :   -0.132334
   5 C :   -0.070597
   6 C :   -0.109705
   7 C :   -0.310517
   8 O :    0.102688
   9 C :   -0.261145
  10 H :    0.135541
  11 H :    0.128694
  12 H :    0.129865
  13 H :    0.146290
  14 H :    0.148959
  15 H :    0.156940
  16 H :    0.146767
  17 H :    0.135461
  18 H :    0.136504
  19 H :    0.133182

  Mayer bond orders larger than 0.100000
B(  0-C ,  1-C ) :   0.9179 B(  0-C , 10-H ) :   0.9507 B(  0-C , 11-H ) :   0.9842
B(  0-C , 12-H ) :   0.9783 B(  1-C ,  2-C ) :   1.3210 B(  1-C ,  6-C ) :   1.3052
B(  2-C ,  3-C ) :   1.4566 B(  2-C , 13-H ) :   0.9809 B(  3-C ,  4-C ) :   1.2574
B(  3-C , 14-H ) :   0.9700 B(  4-C ,  5-C ) :   1.3360 B(  4-C ,  7-C ) :   0.9493
B(  4-C ,  8-O ) :  -0.1152 B(  5-C ,  6-C ) :   1.4228 B(  5-C , 15-H ) :   0.9612
B(  6-C , 16-H ) :   0.9823 B(  7-C ,  8-O ) :   2.0164 B(  7-C ,  9-C ) :   0.9995
B(  9-C , 17-H ) :   0.9488 B(  9-C , 18-H ) :   0.9458 B(  9-C , 19-H ) :   0.9740

Dispersion correction           -0.006754199
FINAL SINGLE POINT ENERGY      -424.134976280030

DIPOLE MOMENT
-------------

Method             : SCF
Type of density    : Electron Density
Multiplicity       :   1
Irrep              :   0
Energy             :  -424.1350189951228344 Eh
Relativity type    :
Basis              : AO
                                X                 Y                 Z
Electronic contribution:      4.337433642      -3.510053828      -0.016816733
Nuclear contribution   :     -5.455996297       4.479287119       0.023651541
                        -----------------------------------------
Total Dipole Moment    :     -1.118562655       0.969233291       0.006834808
                        -----------------------------------------
Magnitude (a.u.)       :      1.480081856
Magnitude (Debye)      :      3.762069101

VIBRATIONAL FREQUENCIES
-----------------------

Scaling factor for frequencies =  1.000000000  (already applied!)

     0:       0.00 cm**-1
     1:       0.00 cm**-1
     2:       0.00 cm**-1
     3:       0.00 cm**-1
     4:       0.00 cm**-1
     5:       0.00 cm**-1
     6:      72.27 cm**-1
     7:      85.79 cm**-1
     8:     105.54 cm**-1
     9:     196.21 cm**-1
    10:     203.03 cm**-1
    11:     266.87 cm**-1
    12:     343.42 cm**-1
    13:     357.94 cm**-1
    14:     411.63 cm**-1
    15:     465.61 cm**-1
    16:     473.74 cm**-1
    17:     580.69 cm**-1
    18:     601.60 cm**-1
    19:     654.43 cm**-1
    20:     691.45 cm**-1
    21:     733.57 cm**-1
    22:     818.47 cm**-1
    23:     826.11 cm**-1
    24:     849.68 cm**-1
    25:     947.25 cm**-1
    26:     963.72 cm**-1
    27:     984.17 cm**-1
    28:    1010.14 cm**-1
    29:    1035.78 cm**-1
    30:    1039.35 cm**-1
    31:    1053.59 cm**-1
    32:    1093.92 cm**-1
    33:    1140.90 cm**-1
    34:    1202.45 cm**-1
    35:    1238.05 cm**-1
    36:    1295.64 cm**-1
    37:    1327.85 cm**-1
    38:    1342.00 cm**-1
    39:    1377.87 cm**-1
    40:    1399.69 cm**-1
    41:    1434.28 cm**-1
    42:    1458.86 cm**-1
    43:    1468.72 cm**-1
    44:    1478.41 cm**-1
    45:    1482.82 cm**-1
    46:    1532.88 cm**-1
    47:    1591.45 cm**-1
    48:    1632.79 cm**-1
    49:    1663.66 cm**-1
    50:    3005.94 cm**-1
    51:    3014.79 cm**-1
    52:    3072.43 cm**-1
    53:    3083.30 cm**-1
    54:    3108.79 cm**-1
    55:    3135.55 cm**-1
    56:    3154.74 cm**-1
    57:    3156.88 cm**-1
    58:    3185.31 cm**-1
    59:    3188.23 cm**-1

IR SPECTRUM
-----------

 Mode   freq       eps      Int      T**2         TX        TY        TZ
       cm**-1   L/(mol*cm) km/mol    a.u.
----------------------------------------------------------------------------
  6:     72.27   0.000629    3.18  0.002718  (-0.001705 -0.002424 -0.052052)
  7:     85.79   0.000052    0.26  0.000190  (-0.001551  0.012378 -0.005880)
  8:    105.54   0.000069    0.35  0.000205  ( 0.001855  0.001520  0.014119)
  9:    196.21   0.000077    0.39  0.000123  (-0.008324  0.000460  0.007324)
 10:    203.03   0.000664    3.36  0.001021  (-0.031893 -0.001690 -0.001056)
 11:    266.87   0.000316    1.60  0.000370  (-0.000393  0.000043 -0.019220)
 12:    343.42   0.000064    0.32  0.000058  ( 0.006137 -0.004505 -0.000067)
 13:    357.94   0.000267    1.35  0.000233  ( 0.013946  0.006199 -0.000518)
 14:    411.63   0.000008    0.04  0.000006  ( 0.000044  0.000530 -0.002395)
 15:    465.61   0.000367    1.85  0.000246  (-0.001471  0.011986  0.009995)
 16:    473.74   0.001433    7.24  0.000944  ( 0.002962 -0.003342  0.030396)
 17:    580.69   0.003654   18.47  0.001964  (-0.042688 -0.011717  0.002080)
 18:    601.60   0.002202   11.13  0.001142  ( 0.002519  0.000565  0.033699)
 19:    654.43   0.000113    0.57  0.000054  ( 0.003076  0.006667 -0.000210)
 20:    691.45   0.001350    6.82  0.000609  (-0.023620 -0.006860 -0.002046)
 21:    733.57   0.000420    2.12  0.000179  ( 0.003156 -0.000288 -0.012993)
 22:    818.47   0.005415   27.36  0.002064  ( 0.002675 -0.001638 -0.045328)
 23:    826.11   0.000997    5.04  0.000377  (-0.000499  0.003503 -0.019078)
 24:    849.68   0.000964    4.87  0.000354  ( 0.001663 -0.001195 -0.018703)
 25:    947.25   0.000047    0.24  0.000015  (-0.002745 -0.000239 -0.002793)
 26:    963.72   0.007411   37.45  0.002400  (-0.047358 -0.012487  0.001025)
 27:    984.17   0.000218    1.10  0.000069  ( 0.001842 -0.000293  0.008097)
 28:   1010.14   0.000017    0.09  0.000005  (-0.002314 -0.000082 -0.000028)
 29:   1035.78   0.000835    4.22  0.000252  (-0.015052 -0.003560  0.003509)
 30:   1039.35   0.000178    0.90  0.000054  ( 0.002868 -0.000533  0.006710)
 31:   1053.59   0.003044   15.38  0.000902  (-0.025966 -0.000145 -0.015077)
 32:   1093.92   0.000389    1.96  0.000111  (-0.003867 -0.009789 -0.000356)
 33:   1140.90   0.001346    6.80  0.000368  (-0.002031 -0.019078  0.000381)
 34:   1202.45   0.007792   39.38  0.002022  ( 0.044831  0.003524 -0.000363)
 35:   1238.05   0.001034    5.22  0.000261  (-0.015872 -0.001938 -0.002198)
 36:   1295.64   0.031885  161.14  0.007680  ( 0.086530  0.013714 -0.002076)
 37:   1327.85   0.001858    9.39  0.000437  (-0.020825 -0.001676  0.000443)
 38:   1342.00   0.001985   10.03  0.000462  ( 0.018696 -0.010578 -0.000271)
 39:   1377.87   0.015079   76.20  0.003415  (-0.047881 -0.033469  0.001537)
 40:   1399.69   0.000379    1.92  0.000085  (-0.008709  0.000659 -0.002882)
 41:   1434.28   0.003502   17.70  0.000762  (-0.025104 -0.011425  0.001146)
 42:   1458.86   0.003520   17.79  0.000753  (-0.021953  0.016395  0.001523)
 43:   1468.72   0.002468   12.47  0.000524  (-0.002760  0.000678 -0.022723)
 44:   1478.41   0.001936    9.78  0.000409  (-0.008087 -0.010086 -0.015541)
 45:   1482.82   0.002771   14.00  0.000583  ( 0.008639  0.021234 -0.007589)
 46:   1532.88   0.000152    0.77  0.000031  ( 0.005440  0.000388 -0.001068)
 47:   1591.45   0.006716   33.94  0.001317  (-0.032458  0.016215  0.000661)
 48:   1632.79   0.029088  147.00  0.005559  (-0.068389  0.029687  0.001004)
 49:   1663.66   0.019351   97.79  0.003630  ( 0.026439 -0.054124 -0.001182)
 50:   3005.94   0.004111   20.78  0.000427  (-0.020352  0.000886 -0.003438)
 51:   3014.79   0.000622    3.14  0.000064  ( 0.002283 -0.007688  0.000213)
 52:   3072.43   0.002833   14.32  0.000288  ( 0.008812 -0.001095 -0.014455)
 53:   3083.30   0.001262    6.38  0.000128  (-0.000421 -0.000592 -0.011280)
 54:   3108.79   0.002463   12.45  0.000247  (-0.003070 -0.015413  0.000498)
 55:   3135.55   0.002517   12.72  0.000251  (-0.015792  0.000971  0.000472)
 56:   3154.74   0.002401   12.13  0.000238  ( 0.007601 -0.013407  0.000042)
 57:   3156.88   0.002565   12.96  0.000254  ( 0.013479  0.008468 -0.000461)
 58:   3185.31   0.001952    9.86  0.000191  (-0.004129 -0.013196  0.000236)
 59:   3188.23   0.000375    1.89  0.000037  ( 0.005152  0.003167 -0.000288)

--------------------------
THERMOCHEMISTRY AT 298.15K
--------------------------

Temperature         ...   298.15 K
Pressure            ...     1.00 atm
Total Mass          ...   134.18 AMU
Quasi RRHO          ...     True
Cut-Off Frequency   ...     1.00 cm^-1

Throughout the following assumptions are being made:
  (1) The electronic state is orbitally nondegenerate
  (2) There are no thermally accessible electronically excited states
  (3) Hindered rotations indicated by low frequency modes are not
      treated as such but are treated as vibrations and this may
      cause some error
  (4) All equations used are the standard statistical mechanics
      equations for an ideal gas
  (5) All vibrations are strictly harmonic

freq.      72.27  E(vib)   ...       0.50
freq.      85.79  E(vib)   ...       0.48
freq.     105.54  E(vib)   ...       0.45
freq.     196.21  E(vib)   ...       0.36
freq.     203.03  E(vib)   ...       0.35
freq.     266.87  E(vib)   ...       0.29
freq.     343.42  E(vib)   ...       0.23
freq.     357.94  E(vib)   ...       0.22
freq.     411.63  E(vib)   ...       0.19
freq.     465.61  E(vib)   ...       0.16
freq.     473.74  E(vib)   ...       0.15
freq.     580.69  E(vib)   ...       0.11
freq.     601.60  E(vib)   ...       0.10
freq.     654.43  E(vib)   ...       0.08
freq.     691.45  E(vib)   ...       0.07
freq.     733.57  E(vib)   ...       0.06
freq.     818.47  E(vib)   ...       0.05
freq.     826.11  E(vib)   ...       0.04
freq.     849.68  E(vib)   ...       0.04
freq.     947.25  E(vib)   ...       0.03
freq.     963.72  E(vib)   ...       0.03
freq.     984.17  E(vib)   ...       0.02
freq.    1010.14  E(vib)   ...       0.02
freq.    1035.78  E(vib)   ...       0.02
freq.    1039.35  E(vib)   ...       0.02
freq.    1053.59  E(vib)   ...       0.02
freq.    1093.92  E(vib)   ...       0.02
freq.    1140.90  E(vib)   ...       0.01
freq.    1202.45  E(vib)   ...       0.01
freq.    1238.05  E(vib)   ...       0.01
freq.    1295.64  E(vib)   ...       0.01
freq.    1327.85  E(vib)   ...       0.01
freq.    1342.00  E(vib)   ...       0.01
freq.    1377.87  E(vib)   ...       0.01
freq.    1399.69  E(vib)   ...       0.00
freq.    1434.28  E(vib)   ...       0.00
freq.    1458.86  E(vib)   ...       0.00
freq.    1468.72  E(vib)   ...       0.00
freq.    1478.41  E(vib)   ...       0.00
freq.    1482.82  E(vib)   ...       0.00
freq.    1532.88  E(vib)   ...       0.00
freq.    1591.45  E(vib)   ...       0.00
freq.    1632.79  E(vib)   ...       0.00
freq.    1663.66  E(vib)   ...       0.00
freq.    3005.94  E(vib)   ...       0.00
freq.    3014.79  E(vib)   ...       0.00
freq.    3072.43  E(vib)   ...       0.00
freq.    3083.30  E(vib)   ...       0.00
freq.    3108.79  E(vib)   ...       0.00
freq.    3135.55  E(vib)   ...       0.00
freq.    3154.74  E(vib)   ...       0.00
freq.    3156.88  E(vib)   ...       0.00
freq.    3185.31  E(vib)   ...       0.00
freq.    3188.23  E(vib)   ...       0.00

------------
INNER ENERGY
------------

The inner energy is: U= E(el) + E(ZPE) + E(vib) + E(rot) + E(trans)
    E(el)   - is the total energy from the electronic structure calculation
              = E(kin-el) + E(nuc-el) + E(el-el) + E(nuc-nuc)
    E(ZPE)  - the the zero temperature vibrational energy from the frequency calculation
    E(vib)  - the the finite temperature correction to E(ZPE) due to population
              of excited vibrational states
    E(rot)  - is the rotational thermal energy
    E(trans)- is the translational thermal energy

Summary of contributions to the inner energy U:
Electronic energy                ...   -424.13497628 Eh
Zero point energy                ...      0.16411975 Eh     102.99 kcal/mol
Thermal vibrational correction   ...      0.00668550 Eh       4.20 kcal/mol
Thermal rotational correction    ...      0.00141627 Eh       0.89 kcal/mol
Thermal translational correction ...      0.00141627 Eh       0.89 kcal/mol
-----------------------------------------------------------------------
Total thermal energy                   -423.96133849 Eh

Summary of corrections to the electronic energy:
(perhaps to be used in another calculation)
Total thermal correction                  0.00951804 Eh       5.97 kcal/mol
Non-thermal (ZPE) correction              0.16411975 Eh     102.99 kcal/mol
-----------------------------------------------------------------------
Total correction                          0.17363779 Eh     108.96 kcal/mol

--------
ENTHALPY
--------

The enthalpy is H = U + kB*T
                kB is Boltzmann's constant
Total thermal energy              ...   -423.96133849 Eh
Thermal Enthalpy correction       ...      0.00094421 Eh       0.59 kcal/mol
-----------------------------------------------------------------------
Total Enthalpy                    ...   -423.96039428 Eh

Note: Only C1 symmetry has been detected, increase convergence thresholds
      if your molecule has a higher symmetry. Symmetry factor of 1.0 is
      used for the rotational entropy correction.

Note: Rotational entropy computed according to Herzberg
Infrared and Raman Spectra, Chapter V,1, Van Nostrand Reinhold, 1945
Point Group:  C1, Symmetry Number:   1
Rotational constants in cm-1:     0.120588     0.026333     0.021790

Vibrational entropy computed according to the QRRHO of S. Grimme
Chem.Eur.J. 2012 18 9955 using a reference frequency of 100.0 cm-1

-------
ENTROPY
-------

The entropy contributions are T*S = T*(S(el)+S(vib)+S(rot)+S(trans))
     S(el)   - electronic entropy
     S(vib)  - vibrational entropy
     S(rot)  - rotational entropy
     S(trans)- translational entropy
The entropies will be listed as multiplied by the temperature to get
units of energy

Electronic entropy                ...      0.00000000 Eh      0.00 kcal/mol
Vibrational entropy               ...      0.01134173 Eh      7.12 kcal/mol
Rotational entropy                ...      0.01403279 Eh      8.81 kcal/mol
Translational entropy             ...      0.01928762 Eh     12.10 kcal/mol
-----------------------------------------------------------------------
Final entropy term                ...      0.04466214 Eh     28.03 kcal/mol

In case the symmetry of your molecule has not been determined correctly
or in case you have a reason to use a different symmetry number we print
out the resulting rotational entropy values for sn=1,12:

 non-linear molecules -----------------------------------
|  sn= 1 | S(rot)=       0.01403279 Eh      8.81 kcal/mol|
|  sn= 2 | S(rot)=       0.01337833 Eh      8.40 kcal/mol|
|  sn= 3 | S(rot)=       0.01299550 Eh      8.15 kcal/mol|
|  sn= 4 | S(rot)=       0.01272388 Eh      7.98 kcal/mol|
|  sn= 5 | S(rot)=       0.01251319 Eh      7.85 kcal/mol|
|  sn= 6 | S(rot)=       0.01234104 Eh      7.74 kcal/mol|

                             ****ORCA TERMINATED NORMALLY****
TOTAL RUN TIME: 0 days 0 hours 19 minutes 3 seconds 965 msec
