                         Program Version 6.0.0  -   RELEASE  -
|  1> ! r2SCAN-3c DEF2-TZVP FREQ
|  2> * xyzfile 0 1 vacuum_censo.xyz
|  3>
|  4>                          ****END OF INPUT****

CARTESIAN COORDINATES (ANGSTROEM)
---------------------------------
  C     -3.666511   -0.033565   -0.013670
  C     -2.164688   -0.020432    0.009609
  C     -1.433473   -1.210210    0.007978
  C     -0.043968   -1.195051    0.001399
  C      0.653729    0.016804   -0.001409
  C     -0.076936    1.211467    0.002011
  C     -1.461038    1.190748    0.009062
  C      2.144333    0.091031   -0.002338
  O      2.715951    1.168331   -0.005676
  C      2.932203   -1.202007   -0.002235
  H     -4.063865   -0.987504    0.341807
  H     -4.079535    0.767322    0.606282
  H     -4.036840    0.121088   -1.034237
  H     -1.960452   -2.160309    0.013236
  H      0.492447   -2.137943    0.002555
  H      0.471301    2.147579    0.003835
  H     -2.013897    2.126433    0.015585
  H      2.691795   -1.803519    0.881150
  H      3.996054   -0.965868   -0.003734
  H      2.689855   -1.805881   -0.883522

 Total Charge           Charge          ....    0
 Multiplicity           Mult            ....    1
 Number of Electrons    NEL             ....   72
 Basis Dimension        Dim             ....  370

ORBITAL ENERGIES
----------------

  NO   OCC          E(Eh)            E(eV)
   0   2.0000     -18.932767      -515.1868
   1   2.0000     -10.119002      -275.3521
   2   2.0000     -10.061146      -273.7777
   3   2.0000     -10.051639      -273.5190
   4   2.0000     -10.047675      -273.4111
   5   2.0000     -10.045679      -273.3568
   6   2.0000     -10.044003      -273.3112
   7   2.0000     -10.043427      -273.2955
   8   2.0000     -10.041329      -273.2385
   9   2.0000     -10.035826      -273.0887
  10   2.0000      -0.997954       -27.1557
  11   2.0000      -0.836979       -22.7754
  12   2.0000      -0.760782       -20.7019
  13   2.0000      -0.725782       -19.7495
  14   2.0000      -0.709870       -19.3165
  15   2.0000      -0.666526       -18.1371
  16   2.0000      -0.585565       -15.9340
  17   2.0000      -0.578805       -15.7501
  18   2.0000      -0.523767       -14.2524
  19   2.0000      -0.467445       -12.7198
  20   2.0000      -0.447120       -12.1668
  21   2.0000      -0.426708       -11.6113
  22   2.0000      -0.415792       -11.3143
  23   2.0000      -0.412508       -11.2249
  24   2.0000      -0.402378       -10.9493
  25   2.0000      -0.397828       -10.8254
  26   2.0000      -0.388382       -10.5684
  27   2.0000      -0.362495        -9.8640
  28   2.0000      -0.357986        -9.7413
  29   2.0000      -0.350497        -9.5375
  30   2.0000      -0.329770        -8.9735
  31   2.0000      -0.323838        -8.8121
  32   2.0000      -0.314817        -8.5666
  33   2.0000      -0.247942        -6.7468
  34   2.0000      -0.237782        -6.4704
  35   2.0000      -0.216409        -5.8888
  36   0.0000      -0.084500        -2.2994
  37   0.0000      -0.044530        -1.2117
  38   0.0000       0.005836         0.1588
  39   0.0000       0.045284         1.2322
  40   0.0000       0.057799         1.5728

MULLIKEN ATOMIC CHARGES
-----------------------
   0 C :   -0.349763
   1 C :    0.188646
   2 C :   -0.205183
   3 C :   -0.147194
   4 C :    0.059812
   5 C :   -0.123881
   6 C :   -0.170649
   7 C :    0.210655
   8 O :   -0.333902
   9 C :   -0.329315
  10 H :    0.114583
  11 H :    0.119857
  12 H :    0.127210
  13 H :    0.103123
  14 H :    0.111515
  15 H :    0.136465
  16 H :    0.106394
  17 H :    0.123628
  18 H :    0.134465
  19 H :    0.123534
Sum of atomic charges:   -0.0000000

LOEWDIN ATOMIC CHARGES
----------------------
   0 C :   -0.249557
   1 C :   -0.157580
   2 C :   -0.114706
   3 C :   -0.097357
   4 C :   -0.133143
   5 C :   -0.073484
   6 C :   -0.108345
   7 C :   -0.316486
   8 O :    0.120106
   9 C :   -0.262405
  10 H :    0.127589
  11 H :    0.130274
  12 H :    0.134783
  13 H :    0.145930
  14 H :    0.148819
  15 H :    0.157000
  16 H :    0.147316
  17 H :    0.134610
  18 H :    0.132011
  19 H :    0.134626

  Mayer bond orders larger than 0.100000
B(  0-C ,  1-C ) :   0.9156 B(  0-C , 10-H ) :   0.9857 B(  0-C , 11-H ) :   0.9772
B(  0-C , 12-H ) :   0.9510 B(  1-C ,  2-C ) :   1.3423 B(  1-C ,  6-C ) :   1.2868
B(  2-C ,  3-C ) :   1.4442 B(  2-C , 13-H ) :   0.9776 B(  3-C ,  4-C ) :   1.2722
B(  3-C , 14-H ) :   0.9704 B(  4-C ,  5-C ) :   1.3324 B(  4-C ,  7-C ) :   0.9415
B(  4-C ,  8-O ) :  -0.1032 B(  5-C ,  6-C ) :   1.4288 B(  5-C , 15-H ) :   0.9592
B(  6-C , 16-H ) :   0.9867 B(  7-C ,  8-O ) :   2.0278 B(  7-C ,  9-C ) :   0.9964
B(  9-C , 17-H ) :   0.9483 B(  9-C , 18-H ) :   0.9742 B(  9-C , 19-H ) :   0.9483

Dispersion correction           -0.006746501
FINAL SINGLE POINT ENERGY      -424.135522333420

DIPOLE MOMENT
-------------

Method             : SCF
Type of density    : Electron Density
Multiplicity       :   1
Irrep              :   0
Energy             :  -424.1355580557320195 Eh
Relativity type    :
Basis              : AO
                                X                 Y                 Z
Electronic contribution:      4.349849396       3.475159046       0.037580098
Nuclear contribution   :     -5.424951528      -4.399849645      -0.051968672
                        -----------------------------------------
Total Dipole Moment    :     -1.075102132      -0.924690599      -0.014388574
                        -----------------------------------------
Magnitude (a.u.)       :      1.418134101
Magnitude (Debye)      :      3.604610422

VIBRATIONAL FREQUENCIES
-----------------------

Scaling factor for frequencies =  1.000000000  (already applied!)

     0:       0.00 cm**-1
     1:       0.00 cm**-1
     2:       0.00 cm**-1
     3:       0.00 cm**-1
     4:       0.00 cm**-1
     5:       0.00 cm**-1
     6:      65.29 cm**-1
     7:      72.40 cm**-1
     8:     101.29 cm**-1
     9:     188.83 cm**-1
    10:     198.57 cm**-1
    11:     265.30 cm**-1
    12:     338.73 cm**-1
    13:     359.32 cm**-1
    14:     411.26 cm**-1
    15:     463.47 cm**-1
    16:     469.19 cm**-1
    17:     576.30 cm**-1
    18:     595.26 cm**-1
    19:     654.52 cm**-1
    20:     683.28 cm**-1
    21:     733.95 cm**-1
    22:     818.48 cm**-1
    23:     824.67 cm**-1
    24:     852.63 cm**-1
    25:     947.59 cm**-1
    26:     950.92 cm**-1
    27:     984.77 cm**-1
    28:    1007.42 cm**-1
    29:    1036.19 cm**-1
    30:    1039.95 cm**-1
    31:    1053.72 cm**-1
    32:    1089.18 cm**-1
    33:    1139.75 cm**-1
    34:    1202.50 cm**-1
    35:    1232.04 cm**-1
    36:    1278.69 cm**-1
    37:    1329.96 cm**-1
    38:    1350.00 cm**-1
    39:    1369.26 cm**-1
    40:    1399.65 cm**-1
    41:    1434.54 cm**-1
    42:    1460.43 cm**-1
    43:    1468.37 cm**-1
    44:    1479.04 cm**-1
    45:    1483.24 cm**-1
    46:    1533.51 cm**-1
    47:    1602.08 cm**-1
    48:    1638.80 cm**-1
    49:    1724.73 cm**-1
    50:    3007.73 cm**-1
    51:    3014.31 cm**-1
    52:    3074.22 cm**-1
    53:    3083.56 cm**-1
    54:    3105.66 cm**-1
    55:    3139.24 cm**-1
    56:    3151.42 cm**-1
    57:    3153.77 cm**-1
    58:    3180.97 cm**-1
    59:    3186.88 cm**-1

IR SPECTRUM
-----------

 Mode   freq       eps      Int      T**2         TX        TY        TZ
       cm**-1   L/(mol*cm) km/mol    a.u.
----------------------------------------------------------------------------
  6:     65.29   0.000666    3.36  0.003182  (-0.000227 -0.000608  0.056406)
  7:     72.40   0.000064    0.32  0.000275  ( 0.000901  0.012688  0.010646)
  8:    101.29   0.000001    0.00  0.000003  (-0.000973 -0.001448  0.000013)
  9:    188.83   0.000058    0.29  0.000096  (-0.000292  0.000092 -0.009784)
 10:    198.57   0.000821    4.15  0.001291  ( 0.035869 -0.002030 -0.000432)
 11:    265.30   0.000272    1.37  0.000320  (-0.000031 -0.000461  0.017877)
 12:    338.73   0.000086    0.43  0.000079  ( 0.007831  0.004198  0.000075)
 13:    359.32   0.000367    1.86  0.000319  ( 0.016473 -0.006898  0.000062)
 14:    411.26   0.000002    0.01  0.000002  (-0.000807  0.000500  0.000832)
 15:    463.47   0.000341    1.72  0.000229  (-0.001799  0.012226 -0.008749)
 16:    469.19   0.001381    6.98  0.000918  (-0.001771 -0.003091 -0.030094)
 17:    576.30   0.003503   17.70  0.001897  (-0.041992  0.011533  0.000565)
 18:    595.26   0.002261   11.43  0.001185  (-0.000382 -0.000146 -0.034425)
 19:    654.52   0.000131    0.66  0.000062  (-0.004007  0.006797  0.000093)
 20:    683.28   0.001331    6.73  0.000608  (-0.024113  0.004744 -0.001968)
 21:    733.95   0.000391    1.97  0.000166  (-0.003305 -0.000084  0.012456)
 22:    818.48   0.004888   24.70  0.001864  ( 0.002761  0.001680 -0.043047)
 23:    824.67   0.001490    7.53  0.000564  (-0.000168  0.003892  0.023426)
 24:    852.63   0.000977    4.94  0.000358  (-0.001511 -0.000773  0.018834)
 25:    947.59   0.000095    0.48  0.000031  ( 0.004912 -0.000752  0.002563)
 26:    950.92   0.008235   41.61  0.002702  ( 0.049285 -0.016531  0.000115)
 27:    984.77   0.000229    1.16  0.000073  ( 0.002189 -0.000174  0.008238)
 28:   1007.42   0.000749    3.78  0.000232  (-0.015212  0.000391 -0.000644)
 29:   1036.19   0.000124    0.63  0.000037  (-0.000602 -0.000146 -0.006088)
 30:   1039.95   0.000853    4.31  0.000256  ( 0.015210 -0.003628 -0.003384)
 31:   1053.72   0.002864   14.47  0.000848  (-0.024747  0.000441 -0.015351)
 32:   1089.18   0.000434    2.19  0.000124  (-0.005103  0.009896 -0.000608)
 33:   1139.75   0.001700    8.59  0.000465  (-0.008355  0.019891  0.000000)
 34:   1202.50   0.009112   46.05  0.002365  (-0.048318  0.005445 -0.000552)
 35:   1232.04   0.001395    7.05  0.000353  ( 0.018464 -0.002653  0.002334)
 36:   1278.69   0.036324  183.57  0.008865  ( 0.092796 -0.015927 -0.000235)
 37:   1329.96   0.000757    3.82  0.000178  (-0.013193  0.001858 -0.000079)
 38:   1350.00   0.000733    3.71  0.000170  ( 0.003844  0.012438 -0.000104)
 39:   1369.26   0.010990   55.54  0.002505  ( 0.038994 -0.031371  0.000040)
 40:   1399.65   0.000370    1.87  0.000082  ( 0.008703 -0.000812  0.002460)
 41:   1434.54   0.002459   12.43  0.000535  (-0.019401  0.012574 -0.000649)
 42:   1460.43   0.002425   12.26  0.000518  (-0.017783 -0.014213  0.000058)
 43:   1468.37   0.002309   11.67  0.000491  ( 0.000074  0.000188  0.022149)
 44:   1479.04   0.002010   10.16  0.000424  ( 0.004866 -0.013892 -0.014399)
 45:   1483.24   0.002863   14.47  0.000602  ( 0.012169 -0.019097  0.009468)
 46:   1533.51   0.000032    0.16  0.000007  (-0.002342 -0.000459  0.000920)
 47:   1602.08   0.002576   13.02  0.000502  (-0.021410 -0.006590 -0.000094)
 48:   1638.80   0.017750   89.70  0.003380  ( 0.056822  0.012292  0.000443)
 49:   1724.73   0.036830  186.13  0.006664  ( 0.052210  0.062753 -0.000152)
 50:   3007.73   0.004265   21.55  0.000443  (-0.020778  0.000329 -0.003269)
 51:   3014.31   0.000586    2.96  0.000061  (-0.002106 -0.007497  0.000011)
 52:   3074.22   0.002690   13.59  0.000273  (-0.008065  0.000210  0.014420)
 53:   3083.56   0.001289    6.51  0.000130  (-0.000002  0.000009 -0.011420)
 54:   3105.66   0.002609   13.19  0.000262  ( 0.003136  0.015882 -0.000367)
 55:   3139.24   0.002761   13.95  0.000274  (-0.016544 -0.000886  0.000027)
 56:   3151.42   0.002693   13.61  0.000267  ( 0.007045 -0.014733 -0.000049)
 57:   3153.77   0.002280   11.52  0.000226  ( 0.013816  0.005896 -0.000071)
 58:   3180.97   0.001923    9.72  0.000189  (-0.003037  0.013395 -0.000039)
 59:   3186.88   0.000618    3.12  0.000061  (-0.006024  0.004924  0.000050)

--------------------------
THERMOCHEMISTRY AT 298.15K
--------------------------

Temperature         ...   298.15 K
Pressure            ...     1.00 atm
Total Mass          ...   134.18 AMU
Quasi RRHO          ...     True
Cut-Off Frequency   ...     1.00 cm^-1

Throughout the following assumptions are being made:
  (1) The electronic state is orbitally nondegenerate
  (2) There are no thermally accessible electronically excited states
  (3) Hindered rotations indicated by low frequency modes are not
      treated as such but are treated as vibrations and this may
      cause some error
  (4) All equations used are the standard statistical mechanics
      equations for an ideal gas
  (5) All vibrations are strictly harmonic

freq.      65.29  E(vib)   ...       0.50
freq.      72.40  E(vib)   ...       0.50
freq.     101.29  E(vib)   ...       0.46
freq.     188.83  E(vib)   ...       0.36
freq.     198.57  E(vib)   ...       0.35
freq.     265.30  E(vib)   ...       0.29
freq.     338.73  E(vib)   ...       0.23
freq.     359.32  E(vib)   ...       0.22
freq.     411.26  E(vib)   ...       0.19
freq.     463.47  E(vib)   ...       0.16
freq.     469.19  E(vib)   ...       0.16
freq.     576.30  E(vib)   ...       0.11
freq.     595.26  E(vib)   ...       0.10
freq.     654.52  E(vib)   ...       0.08
freq.     683.28  E(vib)   ...       0.08
freq.     733.95  E(vib)   ...       0.06
freq.     818.48  E(vib)   ...       0.05
freq.     824.67  E(vib)   ...       0.04
freq.     852.63  E(vib)   ...       0.04
freq.     947.59  E(vib)   ...       0.03
freq.     950.92  E(vib)   ...       0.03
freq.     984.77  E(vib)   ...       0.02
freq.    1007.42  E(vib)   ...       0.02
freq.    1036.19  E(vib)   ...       0.02
freq.    1039.95  E(vib)   ...       0.02
freq.    1053.72  E(vib)   ...       0.02
freq.    1089.18  E(vib)   ...       0.02
freq.    1139.75  E(vib)   ...       0.01
freq.    1202.50  E(vib)   ...       0.01
freq.    1232.04  E(vib)   ...       0.01
freq.    1278.69  E(vib)   ...       0.01
freq.    1329.96  E(vib)   ...       0.01
freq.    1350.00  E(vib)   ...       0.01
freq.    1369.26  E(vib)   ...       0.01
freq.    1399.65  E(vib)   ...       0.00
freq.    1434.54  E(vib)   ...       0.00
freq.    1460.43  E(vib)   ...       0.00
freq.    1468.37  E(vib)   ...       0.00
freq.    1479.04  E(vib)   ...       0.00
freq.    1483.24  E(vib)   ...       0.00
freq.    1533.51  E(vib)   ...       0.00
freq.    1602.08  E(vib)   ...       0.00
freq.    1638.80  E(vib)   ...       0.00
freq.    1724.73  E(vib)   ...       0.00
freq.    3007.73  E(vib)   ...       0.00
freq.    3014.31  E(vib)   ...       0.00
freq.    3074.22  E(vib)   ...       0.00
freq.    3083.56  E(vib)   ...       0.00
freq.    3105.66  E(vib)   ...       0.00
freq.    3139.24  E(vib)   ...       0.00
freq.    3151.42  E(vib)   ...       0.00
freq.    3153.77  E(vib)   ...       0.00
freq.    3180.97  E(vib)   ...       0.00
freq.    3186.88  E(vib)   ...       0.00

------------
INNER ENERGY
------------

The inner energy is: U= E(el) + E(ZPE) + E(vib) + E(rot) + E(trans)
    E(el)   - is the total energy from the electronic structure calculation
              = E(kin-el) + E(nuc-el) + E(el-el) + E(nuc-nuc)
    E(ZPE)  - the the zero temperature vibrational energy from the frequency calculation
    E(vib)  - the the finite temperature correction to E(ZPE) due to population
              of excited vibrational states
    E(rot)  - is the rotational thermal energy
    E(trans)- is the translational thermal energy

Summary of contributions to the inner energy U:
Electronic energy                ...   -424.13552233 Eh
Zero point energy                ...      0.16404364 Eh     102.94 kcal/mol
Thermal vibrational correction   ...      0.00677677 Eh       4.25 kcal/mol
Thermal rotational correction    ...      0.00141627 Eh       0.89 kcal/mol
Thermal translational correction ...      0.00141627 Eh       0.89 kcal/mol
-----------------------------------------------------------------------
Total thermal energy                   -423.96186939 Eh

Summary of corrections to the electronic energy:
(perhaps to be used in another calculation)
Total thermal correction                  0.00960931 Eh       6.03 kcal/mol
Non-thermal (ZPE) correction              0.16404364 Eh     102.94 kcal/mol
-----------------------------------------------------------------------
Total correction                          0.17365295 Eh     108.97 kcal/mol

--------
ENTHALPY
--------

The enthalpy is H = U + kB*T
                kB is Boltzmann's constant
Total thermal energy              ...   -423.96186939 Eh
Thermal Enthalpy correction       ...      0.00094421 Eh       0.59 kcal/mol
-----------------------------------------------------------------------
Total Enthalpy                    ...   -423.96092518 Eh

Note: Only C1 symmetry has been detected, increase convergence thresholds
      if your molecule has a higher symmetry. Symmetry factor of 1.0 is
      used for the rotational entropy correction.

Note: Rotational entropy computed according to Herzberg
Infrared and Raman Spectra, Chapter V,1, Van Nostrand Reinhold, 1945
Point Group:  C1, Symmetry Number:   1
Rotational constants in cm-1:     0.120867     0.026261     0.021749

Vibrational entropy computed according to the QRRHO of S. Grimme
Chem.Eur.J. 2012 18 9955 using a reference frequency of 100.0 cm-1

-------
ENTROPY
-------

The entropy contributions are T*S = T*(S(el)+S(vib)+S(rot)+S(trans))
     S(el)   - electronic entropy
     S(vib)  - vibrational entropy
     S(rot)  - rotational entropy
     S(trans)- translational entropy
The entropies will be listed as multiplied by the temperature to get
units of energy

Electronic entropy                ...      0.00000000 Eh      0.00 kcal/mol
Vibrational entropy               ...      0.01152840 Eh      7.23 kcal/mol
Rotational entropy                ...      0.01403388 Eh      8.81 kcal/mol
Translational entropy             ...      0.01928762 Eh     12.10 kcal/mol
-----------------------------------------------------------------------
Final entropy term                ...      0.04484990 Eh     28.14 kcal/mol

In case the symmetry of your molecule has not been determined correctly
or in case you have a reason to use a different symmetry number we print
out the resulting rotational entropy values for sn=1,12:

 non-linear molecules -----------------------------------
|  sn= 1 | S(rot)=       0.01403388 Eh      8.81 kcal/mol|
|  sn= 2 | S(rot)=       0.01337942 Eh      8.40 kcal/mol|
|  sn= 3 | S(rot)=       0.01299659 Eh      8.16 kcal/mol|
|  sn= 4 | S(rot)=       0.01272497 Eh      7.99 kcal/mol|
|  sn= 5 | S(rot)=       0.01251428 Eh      7.85 kcal/mol|
|  sn= 6 | S(rot)=       0.01234214 Eh      7.74 kcal/mol|

                             ****ORCA TERMINATED NORMALLY****
TOTAL RUN TIME: 0 days 0 hours 18 minutes 52 seconds 930 msec
