                         Program Version 6.0.1  -  RELEASE   -
|  1> ! pbe def2-sv(p) def2/J RI DEFGRID1 loosescf d4 GCP(DFT/SV(P)) printgap
|  2> %output
|  3>     printlevel normal
|  4> end
|  5> * xyz 0 1
|  6> C -2.1052400754 -1.3229512725 0.0269820741
|  7> C -0.8644692323 -0.5787226926 0.5430224375
|  8> H -1.0444201868 -0.2902205333 1.5906422289
|  9> C -0.6337709928 0.7081740462 -0.2631977923
| 10> H -0.7662372541 0.4676871939 -1.3331144618
| 11> C 0.7837982877 1.2950482201 -0.0783088097
| 12> H 0.7260214473 2.0819232084 0.6852606867
| 13> C 1.8270170821 0.250171909 0.3793899741
| 14> H 2.7942101807 0.5463676532 -0.0393040149
| 15> C 1.3947898673 -1.1141135549 -0.1675033338
| 16> H 2.1054476418 -1.9034122047 0.1115986009
| 17> O 0.2156334713 -1.5038891983 0.509022832
| 18> O 1.2695120792 -1.1151216814 -1.5493490751
| 19> O 1.9759603379 0.2044690674 1.7686863265
| 20> O 1.2484666377 1.8153740985 -1.3083305191
| 21> O -1.5470947789 1.7073619424 0.1142400803
| 22> O -3.2415059531 -0.4946128669 0.1748587454
| 23> H -2.2091644758 -2.2475188456 0.60619385
| 24> H -1.944642023 -1.5876487855 -1.026485547
| 25> H 1.2636229855 -0.2035262005 -1.8791001965
| 26> H 1.3018995723 -0.3883024533 2.1272003385
| 27> H 0.6857443538 2.5582569485 -1.5554626951
| 28> H -2.4254227823 1.3022753309 0.1662313492
| 29> H -4.0246313795 -0.990536708 -0.0843651622
| 30> *
| 31>
| 32>                          ****END OF INPUT****

CARTESIAN COORDINATES (ANGSTROEM)
---------------------------------
  C     -2.105240   -1.322951    0.026982
  C     -0.864469   -0.578723    0.543022
  H     -1.044420   -0.290221    1.590642
  C     -0.633771    0.708174   -0.263198
  H     -0.766237    0.467687   -1.333114
  C      0.783798    1.295048   -0.078309
  H      0.726021    2.081923    0.685261
  C      1.827017    0.250172    0.379390
  H      2.794210    0.546368   -0.039304
  C      1.394790   -1.114114   -0.167503
  H      2.105448   -1.903412    0.111599
  O      0.215633   -1.503889    0.509023
  O      1.269512   -1.115122   -1.549349
  O      1.975960    0.204469    1.768686
  O      1.248467    1.815374   -1.308331
  O     -1.547095    1.707362    0.114240
  O     -3.241506   -0.494613    0.174859
  H     -2.209164   -2.247519    0.606194
  H     -1.944642   -1.587649   -1.026486
  H      1.263623   -0.203526   -1.879100
  H      1.301900   -0.388302    2.127200
  H      0.685744    2.558257   -1.555463
  H     -2.425423    1.302275    0.166231
  H     -4.024631   -0.990537   -0.084365

 Total Charge           Charge          ....    0
 Multiplicity           Mult            ....    1
 Number of Electrons    NEL             ....   96
 Basis Dimension        Dim             ....  192

ORBITAL ENERGIES
----------------

  NO   OCC          E(Eh)            E(eV)
   0   2.0000     -18.781308      -511.0654
   1   2.0000     -18.775382      -510.9041
   2   2.0000     -18.769319      -510.7391
   3   2.0000     -18.755165      -510.3540
   4   2.0000     -18.751666      -510.2588
   5   2.0000     -18.744291      -510.0581
   6   2.0000      -9.984290      -271.6863
   7   2.0000      -9.952086      -270.8100
   8   2.0000      -9.946597      -270.6607
   9   2.0000      -9.944647      -270.6076
  10   2.0000      -9.943732      -270.5827
  11   2.0000      -9.942339      -270.5448
  12   2.0000      -0.983742       -26.7690
  13   2.0000      -0.954457       -25.9721
  14   2.0000      -0.946775       -25.7630
  15   2.0000      -0.929844       -25.3023
  16   2.0000      -0.923538       -25.1307
  17   2.0000      -0.911997       -24.8167
  18   2.0000      -0.708755       -19.2862
  19   2.0000      -0.691996       -18.8302
  20   2.0000      -0.625138       -17.0109
  21   2.0000      -0.594589       -16.1796
  22   2.0000      -0.563044       -15.3212
  23   2.0000      -0.520499       -14.1635
  24   2.0000      -0.512192       -13.9375
  25   2.0000      -0.497235       -13.5305
  26   2.0000      -0.489485       -13.3196
  27   2.0000      -0.473209       -12.8767
  28   2.0000      -0.452740       -12.3197
  29   2.0000      -0.427467       -11.6320
  30   2.0000      -0.420561       -11.4440
  31   2.0000      -0.400876       -10.9084
  32   2.0000      -0.389419       -10.5966
  33   2.0000      -0.373817       -10.1721
  34   2.0000      -0.367573       -10.0022
  35   2.0000      -0.356192        -9.6925
  36   2.0000      -0.334817        -9.1108
  37   2.0000      -0.331460        -9.0195
  38   2.0000      -0.316537        -8.6134
  39   2.0000      -0.301700        -8.2097
  40   2.0000      -0.281294        -7.6544
  41   2.0000      -0.270902        -7.3716
  42   2.0000      -0.256489        -6.9794
  43   2.0000      -0.247094        -6.7238
  44   2.0000      -0.235954        -6.4206
  45   2.0000      -0.225812        -6.1447
  46   2.0000      -0.222908        -6.0656
  47   2.0000      -0.211629        -5.7587
  48   0.0000       0.001380         0.0375
  49   0.0000       0.020502         0.5579
  50   0.0000       0.036865         1.0032
  51   0.0000       0.052001         1.4150
  52   0.0000       0.066277         1.8035

MULLIKEN ATOMIC CHARGES
-----------------------
   0 C :    0.058405
   1 C :   -0.002347
   2 H :    0.069940
   3 C :    0.039366
   4 H :    0.041610
   5 C :    0.040870
   6 H :    0.081046
   7 C :    0.030048
   8 H :    0.093165
   9 C :    0.164314
  10 H :    0.077760
  11 O :   -0.322662
  12 O :   -0.394482
  13 O :   -0.410874
  14 O :   -0.417321
  15 O :   -0.427888
  16 O :   -0.448015
  17 H :    0.091513
  18 H :    0.084375
  19 H :    0.309256
  20 H :    0.305523
  21 H :    0.314206
  22 H :    0.305024
  23 H :    0.317168
Sum of atomic charges:    0.0000000

LOEWDIN ATOMIC CHARGES
----------------------
   0 C :   -0.124622
   1 C :   -0.074892
   2 H :    0.106902
   3 C :   -0.085171
   4 H :    0.099429
   5 C :   -0.073198
   6 H :    0.119393
   7 C :   -0.088158
   8 H :    0.124228
   9 C :   -0.007996
  10 H :    0.108010
  11 O :   -0.147361
  12 O :   -0.303588
  13 O :   -0.305748
  14 O :   -0.315226
  15 O :   -0.329856
  16 O :   -0.337838
  17 H :    0.106653
  18 H :    0.104888
  19 H :    0.275866
  20 H :    0.281814
  21 H :    0.295451
  22 H :    0.273932
  23 H :    0.297088

  Mayer bond orders larger than 0.100000
B(  0-C ,  1-C ) :   1.0671 B(  0-C , 16-O ) :   1.0421 B(  0-C , 17-H ) :   0.9193
B(  0-C , 18-H ) :   0.9081 B(  1-C ,  2-H ) :   0.8799 B(  1-C ,  3-C ) :   1.0351
B(  1-C , 11-O ) :   0.9623 B(  3-C ,  4-H ) :   0.8624 B(  3-C ,  5-C ) :   1.0241
B(  3-C , 15-O ) :   1.0821 B(  5-C ,  6-H ) :   0.8644 B(  5-C ,  7-C ) :   0.9682
B(  5-C , 14-O ) :   1.0273 B(  7-C ,  8-H ) :   0.8873 B(  7-C ,  9-C ) :   1.0519
B(  7-C , 13-O ) :   1.0710 B(  9-C , 10-H ) :   0.9061 B(  9-C , 11-O ) :   1.0116
B(  9-C , 12-O ) :   1.1360 B( 12-O , 19-H ) :   0.8072 B( 13-O , 20-H ) :   0.8326
B( 14-O , 21-H ) :   0.8429 B( 15-O , 22-H ) :   0.8086 B( 16-O , 23-H ) :   0.8418

Dispersion correction           -0.025148722
FINAL SINGLE POINT ENERGY      -685.693757960318

DIPOLE MOMENT
-------------

Method             : SCF
Type of density    : Electron Density
Multiplicity       :   1
Irrep              :   0
Energy             :  -685.8278866606691508 Eh
Relativity type    :
Basis              : AO
                                X                 Y                 Z
Electronic contribution:      1.967518365       0.450607359       0.308732513
Nuclear contribution   :     -3.320015028      -0.605088234      -0.596017721
                        -----------------------------------------
Total Dipole Moment    :     -1.352496663      -0.154480876      -0.287285208
                        -----------------------------------------
Magnitude (a.u.)       :      1.391274364
Magnitude (Debye)      :      3.536338396

Rotational constants in cm-1:             0.043236             0.025789             0.022038
Rotational constants in MHz :          1296.187487           773.143800           660.671003

                             ****ORCA TERMINATED NORMALLY****
TOTAL RUN TIME: 0 days 0 hours 0 minutes 9 seconds 986 msec
