                         Program Version 6.0.0  -   RELEASE  -
|  1> ! r2SCAN-3c DEF2-TZVP FREQ
|  2> * xyzfile 0 1 censo.xyz
|  3>
|  4>                          ****END OF INPUT****

CARTESIAN COORDINATES (ANGSTROEM)
---------------------------------
  C     -1.772152    0.682626   -0.001383
  C     -0.479391   -0.087701    0.002269
  O     -0.477898   -1.333988   -0.001778
  N      0.648739    0.646145    0.004340
  C      1.990931    0.083902   -0.001104
  H     -2.317987    0.442453   -0.919063
  H     -2.382636    0.347159    0.841795
  H     -1.632962    1.763724    0.059871
  H      0.558129    1.651033    0.006234
  H      2.540449    0.406468   -0.890975
  H      1.923301   -1.004060   -0.003001
  H      2.545732    0.403029    0.886696

 Total Charge           Charge          ....    0
 Multiplicity           Mult            ....    1
 Number of Electrons    NEL             ....   40
 Basis Dimension        Dim             ....  197

ORBITAL ENERGIES
----------------

  NO   OCC          E(Eh)            E(eV)
   0   2.0000     -18.901030      -514.3232
   1   2.0000     -14.193730      -386.2310
   2   2.0000     -10.125541      -275.5300
   3   2.0000     -10.066820      -273.9321
   4   2.0000     -10.037122      -273.1240
   5   2.0000      -0.980680       -26.6857
   6   2.0000      -0.887785       -24.1579
   7   2.0000      -0.721450       -19.6316
   8   2.0000      -0.659254       -17.9392
   9   2.0000      -0.555225       -15.1084
  10   2.0000      -0.476826       -12.9751
  11   2.0000      -0.434558       -11.8249
  12   2.0000      -0.430176       -11.7057
  13   2.0000      -0.396212       -10.7815
  14   2.0000      -0.373301       -10.1580
  15   2.0000      -0.365631        -9.9493
  16   2.0000      -0.352410        -9.5896
  17   2.0000      -0.319533        -8.6949
  18   2.0000      -0.229213        -6.2372
  19   2.0000      -0.211347        -5.7510
  20   0.0000       0.001117         0.0304
  21   0.0000       0.027608         0.7513
  22   0.0000       0.073875         2.0102
  23   0.0000       0.086248         2.3469
  24   0.0000       0.111194         3.0258

MULLIKEN ATOMIC CHARGES
-----------------------
   0 C :   -0.314334
   1 C :    0.311402
   2 O :   -0.442306
   3 N :   -0.291802
   4 C :   -0.207418
   5 H :    0.130676
   6 H :    0.131661
   7 H :    0.079681
   8 H :    0.218665
   9 H :    0.112228
  10 H :    0.159238
  11 H :    0.112310
Sum of atomic charges:   -0.0000000

LOEWDIN ATOMIC CHARGES
----------------------
   0 C :   -0.265612
   1 C :   -0.484048
   2 O :    0.016825
   3 N :    0.099399
   4 C :   -0.299358
   5 H :    0.139495
   6 H :    0.139193
   7 H :    0.114826
   8 H :    0.181490
   9 H :    0.112847
  10 H :    0.132065
  11 H :    0.112878

  Mayer bond orders larger than 0.100000
B(  0-C ,  1-C ) :   0.9422 B(  0-C ,  5-H ) :   0.9564 B(  0-C ,  6-H ) :   0.9608
B(  0-C ,  7-H ) :   0.9692 B(  1-C ,  2-O ) :   1.9217 B(  1-C ,  3-N ) :   1.2330
B(  3-N ,  4-C ) :   0.8881 B(  3-N ,  8-H ) :   0.9145 B(  4-C ,  9-H ) :   0.9700
B(  4-C , 10-H ) :   0.9593 B(  4-C , 11-H ) :   0.9698

Dispersion correction           -0.002377680
FINAL SINGLE POINT ENERGY      -248.479240974170

DIPOLE MOMENT
-------------

Method             : SCF
Type of density    : Electron Density
Multiplicity       :   1
Irrep              :   0
Energy             :  -248.4871999822603357 Eh
Relativity type    :
Basis              : AO
                                X                 Y                 Z
Electronic contribution:     -0.755743312      -2.217928795       0.016160947
Nuclear contribution   :      1.194370604       3.754445324      -0.018307621
                        -----------------------------------------
Total Dipole Moment    :      0.438627292       1.536516529      -0.002146675
                        -----------------------------------------
Magnitude (a.u.)       :      1.597899106
Magnitude (Debye)      :      4.061536752

VIBRATIONAL FREQUENCIES
-----------------------

Scaling factor for frequencies =  1.000000000  (already applied!)

     0:       0.00 cm**-1
     1:       0.00 cm**-1
     2:       0.00 cm**-1
     3:       0.00 cm**-1
     4:       0.00 cm**-1
     5:       0.00 cm**-1
     6:     -98.46 cm**-1 ***imaginary mode***
     7:     117.66 cm**-1
     8:     170.63 cm**-1
     9:     289.87 cm**-1
    10:     443.56 cm**-1
    11:     503.14 cm**-1
    12:     628.62 cm**-1
    13:     648.32 cm**-1
    14:     871.10 cm**-1
    15:    1001.77 cm**-1
    16:    1048.38 cm**-1
    17:    1096.81 cm**-1
    18:    1146.82 cm**-1
    19:    1158.15 cm**-1
    20:    1296.15 cm**-1
    21:    1390.51 cm**-1
    22:    1425.44 cm**-1
    23:    1462.04 cm**-1
    24:    1479.23 cm**-1
    25:    1488.77 cm**-1
    26:    1491.36 cm**-1
    27:    1589.91 cm**-1
    28:    1640.74 cm**-1
    29:    3016.03 cm**-1
    30:    3022.57 cm**-1
    31:    3076.03 cm**-1
    32:    3102.14 cm**-1
    33:    3114.82 cm**-1
    34:    3140.86 cm**-1
    35:    3594.78 cm**-1

IR SPECTRUM
-----------

 Mode   freq       eps      Int      T**2         TX        TY        TZ
       cm**-1   L/(mol*cm) km/mol    a.u.
----------------------------------------------------------------------------
  7:    117.66   0.000488    2.47  0.001295  ( 0.000458 -0.000867  0.035967)
  8:    170.63   0.001330    6.72  0.002433  (-0.000268  0.000076  0.049322)
  9:    289.87   0.001398    7.06  0.001505  (-0.035089 -0.016539 -0.000326)
 10:    443.56   0.002212   11.18  0.001556  (-0.036284  0.015484 -0.000391)
 11:    503.14   0.013565   68.55  0.008413  ( 0.000324  0.000226  0.091724)
 12:    628.62   0.000348    1.76  0.000173  (-0.012576 -0.001282  0.003582)
 13:    648.32   0.001082    5.47  0.000521  ( 0.001732  0.000194  0.022754)
 14:    871.10   0.000807    4.08  0.000289  ( 0.006528  0.015695 -0.000050)
 15:   1001.77   0.001045    5.28  0.000326  (-0.011747 -0.013679 -0.000661)
 16:   1048.38   0.001036    5.24  0.000308  ( 0.001199 -0.000887  0.017498)
 17:   1096.81   0.000342    1.73  0.000097  ( 0.009841 -0.000654  0.000295)
 18:   1146.82   0.000025    0.13  0.000007  ( 0.000175  0.000358  0.002597)
 19:   1158.15   0.007901   39.93  0.002129  ( 0.040712  0.021712  0.000016)
 20:   1296.15   0.014250   72.01  0.003431  (-0.058369  0.004881 -0.000297)
 21:   1390.51   0.006911   34.93  0.001551  (-0.039310 -0.002062 -0.001197)
 22:   1425.44   0.005449   27.54  0.001193  ( 0.002520  0.034445 -0.000469)
 23:   1462.04   0.001783    9.01  0.000381  ( 0.003779  0.005761 -0.018253)
 24:   1479.23   0.005421   27.39  0.001144  (-0.021556 -0.025846 -0.003300)
 25:   1488.77   0.005163   26.09  0.001082  (-0.024659  0.021763  0.000680)
 26:   1491.36   0.001609    8.13  0.000337  ( 0.000366 -0.000553 -0.018339)
 27:   1589.91   0.026488  133.86  0.005199  (-0.071300 -0.010738 -0.000180)
 28:   1640.74   0.054020  273.00  0.010275  (-0.040214 -0.093045  0.000018)
 29:   3016.03   0.010568   53.41  0.001093  (-0.032601 -0.005532  0.000137)
 30:   3022.57   0.002093   10.58  0.000216  (-0.009813  0.010943 -0.000219)
 31:   3076.03   0.005675   28.68  0.000576  ( 0.000099 -0.000039  0.023994)
 32:   3102.14   0.000993    5.02  0.000100  ( 0.000182 -0.004546 -0.008901)
 33:   3114.82   0.004401   22.24  0.000441  ( 0.002577  0.020826 -0.000745)
 34:   3140.86   0.000132    0.67  0.000013  ( 0.000555 -0.003573  0.000007)
 35:   3594.78   0.003527   17.82  0.000306  ( 0.004976  0.016775  0.000011)

--------------------------
THERMOCHEMISTRY AT 298.15K
--------------------------

Temperature         ...   298.15 K
Pressure            ...     1.00 atm
Total Mass          ...    73.09 AMU
Quasi RRHO          ...     True
Cut-Off Frequency   ...     1.00 cm^-1

Throughout the following assumptions are being made:
  (1) The electronic state is orbitally nondegenerate
  (2) There are no thermally accessible electronically excited states
  (3) Hindered rotations indicated by low frequency modes are not
      treated as such but are treated as vibrations and this may
      cause some error
  (4) All equations used are the standard statistical mechanics
      equations for an ideal gas
  (5) All vibrations are strictly harmonic

freq.     117.66  E(vib)   ...       0.44
freq.     170.63  E(vib)   ...       0.38
freq.     289.87  E(vib)   ...       0.27
freq.     443.56  E(vib)   ...       0.17
freq.     503.14  E(vib)   ...       0.14
freq.     628.62  E(vib)   ...       0.09
freq.     648.32  E(vib)   ...       0.08
freq.     871.10  E(vib)   ...       0.04
freq.    1001.77  E(vib)   ...       0.02
freq.    1048.38  E(vib)   ...       0.02
freq.    1096.81  E(vib)   ...       0.02
freq.    1146.82  E(vib)   ...       0.01
freq.    1158.15  E(vib)   ...       0.01
freq.    1296.15  E(vib)   ...       0.01
freq.    1390.51  E(vib)   ...       0.00
freq.    1425.44  E(vib)   ...       0.00
freq.    1462.04  E(vib)   ...       0.00
freq.    1479.23  E(vib)   ...       0.00
freq.    1488.77  E(vib)   ...       0.00
freq.    1491.36  E(vib)   ...       0.00
freq.    1589.91  E(vib)   ...       0.00
freq.    1640.74  E(vib)   ...       0.00
freq.    3016.03  E(vib)   ...       0.00
freq.    3022.57  E(vib)   ...       0.00
freq.    3076.03  E(vib)   ...       0.00
freq.    3102.14  E(vib)   ...       0.00
freq.    3114.82  E(vib)   ...       0.00
freq.    3140.86  E(vib)   ...       0.00
freq.    3594.78  E(vib)   ...       0.00

------------
INNER ENERGY
------------

The inner energy is: U= E(el) + E(ZPE) + E(vib) + E(rot) + E(trans)
    E(el)   - is the total energy from the electronic structure calculation
              = E(kin-el) + E(nuc-el) + E(el-el) + E(nuc-nuc)
    E(ZPE)  - the the zero temperature vibrational energy from the frequency calculation
    E(vib)  - the the finite temperature correction to E(ZPE) due to population
              of excited vibrational states
    E(rot)  - is the rotational thermal energy
    E(trans)- is the translational thermal energy

Summary of contributions to the inner energy U:
Electronic energy                ...   -248.47924097 Eh
Zero point energy                ...      0.10127870 Eh      63.55 kcal/mol
Thermal vibrational correction   ...      0.00276032 Eh       1.73 kcal/mol
Thermal rotational correction    ...      0.00141627 Eh       0.89 kcal/mol
Thermal translational correction ...      0.00141627 Eh       0.89 kcal/mol
-----------------------------------------------------------------------
Total thermal energy                   -248.37236941 Eh

Summary of corrections to the electronic energy:
(perhaps to be used in another calculation)
Total thermal correction                  0.00559286 Eh       3.51 kcal/mol
Non-thermal (ZPE) correction              0.10127870 Eh      63.55 kcal/mol
-----------------------------------------------------------------------
Total correction                          0.10687156 Eh      67.06 kcal/mol

--------
ENTHALPY
--------

The enthalpy is H = U + kB*T
                kB is Boltzmann's constant
Total thermal energy              ...   -248.37236941 Eh
Thermal Enthalpy correction       ...      0.00094421 Eh       0.59 kcal/mol
-----------------------------------------------------------------------
Total Enthalpy                    ...   -248.37142520 Eh

Note: Only C1 symmetry has been detected, increase convergence thresholds
      if your molecule has a higher symmetry. Symmetry factor of 1.0 is
      used for the rotational entropy correction.

Note: Rotational entropy computed according to Herzberg
Infrared and Raman Spectra, Chapter V,1, Van Nostrand Reinhold, 1945
Point Group:  C1, Symmetry Number:   1
Rotational constants in cm-1:     0.331831     0.127993     0.095682

Vibrational entropy computed according to the QRRHO of S. Grimme
Chem.Eur.J. 2012 18 9955 using a reference frequency of 100.0 cm-1

-------
ENTROPY
-------

The entropy contributions are T*S = T*(S(el)+S(vib)+S(rot)+S(trans))
     S(el)   - electronic entropy
     S(vib)  - vibrational entropy
     S(rot)  - rotational entropy
     S(trans)- translational entropy
The entropies will be listed as multiplied by the temperature to get
units of energy

Electronic entropy                ...      0.00000000 Eh      0.00 kcal/mol
Vibrational entropy               ...      0.00463098 Eh      2.91 kcal/mol
Rotational entropy                ...      0.01210997 Eh      7.60 kcal/mol
Translational entropy             ...      0.01842737 Eh     11.56 kcal/mol
-----------------------------------------------------------------------
Final entropy term                ...      0.03516831 Eh     22.07 kcal/mol

In case the symmetry of your molecule has not been determined correctly
or in case you have a reason to use a different symmetry number we print
out the resulting rotational entropy values for sn=1,12:

 non-linear molecules -----------------------------------
|  sn= 1 | S(rot)=       0.01210997 Eh      7.60 kcal/mol|
|  sn= 2 | S(rot)=       0.01145551 Eh      7.19 kcal/mol|
|  sn= 3 | S(rot)=       0.01107268 Eh      6.95 kcal/mol|
|  sn= 4 | S(rot)=       0.01080106 Eh      6.78 kcal/mol|
|  sn= 5 | S(rot)=       0.01059037 Eh      6.65 kcal/mol|
|  sn= 6 | S(rot)=       0.01041822 Eh      6.54 kcal/mol|
|  sn= 7 | S(rot)=       0.01027268 Eh      6.45 kcal/mol|
|  sn= 8 | S(rot)=       0.01014660 Eh      6.37 kcal/mol|
|  sn= 9 | S(rot)=       0.01003539 Eh      6.30 kcal/mol|
|  sn=10 | S(rot)=       0.00993591 Eh      6.23 kcal/mol|
|  sn=11 | S(rot)=       0.00984592 Eh      6.18 kcal/mol|
|  sn=12 | S(rot)=       0.00976377 Eh      6.13 kcal/mol|
 linear molecules ---------------------------------------
|  Dinfh | S(rot)=       0.00754154 Eh      4.73 kcal/mol|
|  Cinfv | S(rot)=       0.00819600 Eh      5.14 kcal/mol|
 --------------------------------------------------------

-------------------
GIBBS FREE ENERGY
-------------------

The Gibbs free energy is G = H - T*S

Total enthalpy                    ...   -248.37142520 Eh
Total entropy correction          ...     -0.03516831 Eh    -22.07 kcal/mol
-----------------------------------------------------------------------
Final Gibbs free energy         ...   -248.40659352 Eh

For completeness - the Gibbs free energy minus the electronic energy
G-E(el)                           ...      0.07264746 Eh     45.59 kcal/mol

                             ****ORCA TERMINATED NORMALLY****
TOTAL RUN TIME: 0 days 0 hours 3 minutes 49 seconds 532 msec
