                         Program Version 6.0.0  -   RELEASE  -
|  1> ! r2SCAN-3c DEF2-TZVP FREQ
|  2> * xyzfile 0 1 vacuum_censo.xyz
|  3>
|  4>                          ****END OF INPUT****

CARTESIAN COORDINATES (ANGSTROEM)
---------------------------------
  C     -1.786774    0.674491   -0.000166
  C     -0.474265   -0.083548    0.000706
  O     -0.428097   -1.306154    0.000195
  N      0.655092    0.679011    0.000211
  C      1.972021    0.060399   -0.000033
  H     -1.674546    1.761741    0.014357
  H     -2.352471    0.384441   -0.889391
  H     -2.366736    0.361572    0.871739
  H      0.579798    1.680969    0.002666
  H      2.732842    0.843733   -0.007872
  H      2.101956   -0.576795   -0.880867
  H      2.108775   -0.565608    0.887903

 Total Charge           Charge          ....    0
 Multiplicity           Mult            ....    1
 Number of Electrons    NEL             ....   40
 Basis Dimension        Dim             ....  197

ORBITAL ENERGIES
----------------

  NO   OCC          E(Eh)            E(eV)
   0   2.0000     -18.905913      -514.4561
   1   2.0000     -14.189329      -386.1113
   2   2.0000     -10.124889      -275.5122
   3   2.0000     -10.065754      -273.9031
   4   2.0000     -10.036830      -273.1160
   5   2.0000      -0.991576       -26.9821
   6   2.0000      -0.885213       -24.0879
   7   2.0000      -0.717654       -19.5283
   8   2.0000      -0.655605       -17.8399
   9   2.0000      -0.553846       -15.0709
  10   2.0000      -0.474254       -12.9051
  11   2.0000      -0.433612       -11.7992
  12   2.0000      -0.428248       -11.6532
  13   2.0000      -0.391865       -10.6632
  14   2.0000      -0.376947       -10.2573
  15   2.0000      -0.364333        -9.9140
  16   2.0000      -0.357679        -9.7330
  17   2.0000      -0.320005        -8.7078
  18   2.0000      -0.230826        -6.2811
  19   2.0000      -0.215874        -5.8742
  20   0.0000       0.001369         0.0373
  21   0.0000       0.028730         0.7818
  22   0.0000       0.073919         2.0114
  23   0.0000       0.078440         2.1345
  24   0.0000       0.112088         3.0501

MULLIKEN ATOMIC CHARGES
-----------------------
   0 C :   -0.324945
   1 C :    0.318562
   2 O :   -0.411395
   3 N :   -0.322013
   4 C :   -0.182066
   5 H :    0.084858
   6 H :    0.129865
   7 H :    0.130048
   8 H :    0.222804
   9 H :    0.106477
  10 H :    0.124170
  11 H :    0.123635
Sum of atomic charges:   -0.0000000

LOEWDIN ATOMIC CHARGES
----------------------
   0 C :   -0.268046
   1 C :   -0.489114
   2 O :    0.056204
   3 N :    0.085571
   4 C :   -0.303874
   5 H :    0.115335
   6 H :    0.137587
   7 H :    0.137508
   8 H :    0.176752
   9 H :    0.113510
  10 H :    0.119419
  11 H :    0.119148

  Mayer bond orders larger than 0.100000
B(  0-C ,  1-C ) :   0.9464 B(  0-C ,  5-H ) :   0.9728 B(  0-C ,  6-H ) :   0.9577
B(  0-C ,  7-H ) :   0.9588 B(  1-C ,  2-O ) :   1.9407 B(  1-C ,  3-N ) :   1.2003
B(  3-N ,  4-C ) :   0.9124 B(  3-N ,  8-H ) :   0.9158 B(  4-C ,  9-H ) :   0.9651
B(  4-C , 10-H ) :   0.9719 B(  4-C , 11-H ) :   0.9720

Dispersion correction           -0.002382833
FINAL SINGLE POINT ENERGY      -248.480373793339

DIPOLE MOMENT
-------------

Method             : SCF
Type of density    : Electron Density
Multiplicity       :   1
Irrep              :   0
Energy             :  -248.4882066699352094 Eh
Relativity type    :
Basis              : AO
                                X                 Y                 Z
Electronic contribution:     -0.693641072      -2.116386453       0.002507370
Nuclear contribution   :      1.057598344       3.601697469      -0.002333219
                        -----------------------------------------
Total Dipole Moment    :      0.363957272       1.485311016       0.000174151
                        -----------------------------------------
Magnitude (a.u.)       :      1.529252674
Magnitude (Debye)      :      3.887051388

VIBRATIONAL FREQUENCIES
-----------------------

Scaling factor for frequencies =  1.000000000  (already applied!)

     0:       0.00 cm**-1
     1:       0.00 cm**-1
     2:       0.00 cm**-1
     3:       0.00 cm**-1
     4:       0.00 cm**-1
     5:       0.00 cm**-1
     6:      48.74 cm**-1
     7:      94.60 cm**-1
     8:     162.52 cm**-1
     9:     266.24 cm**-1
    10:     353.80 cm**-1
    11:     430.63 cm**-1
    12:     624.29 cm**-1
    13:     631.61 cm**-1
    14:     872.36 cm**-1
    15:     987.90 cm**-1
    16:    1046.06 cm**-1
    17:    1090.21 cm**-1
    18:    1152.84 cm**-1
    19:    1187.46 cm**-1
    20:    1269.10 cm**-1
    21:    1384.26 cm**-1
    22:    1445.42 cm**-1
    23:    1463.64 cm**-1
    24:    1468.55 cm**-1
    25:    1477.90 cm**-1
    26:    1501.53 cm**-1
    27:    1536.05 cm**-1
    28:    1728.90 cm**-1
    29:    3012.98 cm**-1
    30:    3025.01 cm**-1
    31:    3075.22 cm**-1
    32:    3111.01 cm**-1
    33:    3112.35 cm**-1
    34:    3116.43 cm**-1
    35:    3647.54 cm**-1

IR SPECTRUM
-----------

 Mode   freq       eps      Int      T**2         TX        TY        TZ
       cm**-1   L/(mol*cm) km/mol    a.u.
----------------------------------------------------------------------------
  6:     48.74   0.001466    7.41  0.009388  ( 0.000258 -0.000679  0.096888)
  7:     94.60   0.000425    2.15  0.001402  ( 0.000066 -0.000300  0.037441)
  8:    162.52   0.002489   12.58  0.004778  ( 0.000366  0.000241 -0.069123)
  9:    266.24   0.001260    6.37  0.001477  (-0.034953 -0.015986  0.000219)
 10:    353.80   0.011206   56.63  0.009884  ( 0.000042  0.000753 -0.099417)
 11:    430.63   0.001763    8.91  0.001278  (-0.031809  0.016305  0.000058)
 12:    624.29   0.000829    4.19  0.000414  ( 0.019565  0.005589 -0.000363)
 13:    631.61   0.000021    0.11  0.000010  ( 0.001342  0.000278  0.002930)
 14:    872.36   0.001015    5.13  0.000363  (-0.006964  0.017734  0.000094)
 15:    987.90   0.002172   10.98  0.000686  ( 0.022755  0.012976  0.000112)
 16:   1046.06   0.001148    5.80  0.000342  ( 0.000300 -0.000029  0.018501)
 17:   1090.21   0.000326    1.65  0.000093  (-0.006252  0.007362 -0.000192)
 18:   1152.84   0.000035    0.18  0.000010  (-0.000498 -0.000171 -0.003052)
 19:   1187.46   0.000000    0.00  0.000000  ( 0.000093 -0.000016 -0.000069)
 20:   1269.10   0.017129   86.56  0.004212  ( 0.064897 -0.000392  0.000072)
 21:   1384.26   0.005588   28.24  0.001260  ( 0.035402 -0.002525  0.000353)
 22:   1445.42   0.002949   14.91  0.000637  ( 0.018919  0.016697  0.000210)
 23:   1463.64   0.001037    5.24  0.000221  (-0.000768 -0.001121  0.014807)
 24:   1468.55   0.002369   11.97  0.000503  (-0.001154 -0.000560  0.022401)
 25:   1477.90   0.004857   24.54  0.001025  (-0.019706 -0.025217 -0.001128)
 26:   1501.53   0.003180   16.07  0.000661  ( 0.024056 -0.009071 -0.000042)
 27:   1536.05   0.033766  170.64  0.006860  ( 0.079274  0.023989  0.000097)
 28:   1728.90   0.050067  253.02  0.009037  ( 0.019961  0.092944 -0.000054)
 29:   3012.98   0.007405   37.42  0.000767  (-0.027021  0.006061 -0.000356)
 30:   3025.01   0.002281   11.53  0.000235  ( 0.009304 -0.012196 -0.000013)
 31:   3075.22   0.004199   21.22  0.000426  ( 0.000253  0.000108 -0.020641)
 32:   3111.01   0.002546   12.87  0.000255  ( 0.002342  0.014382  0.006563)
 33:   3112.35   0.002084   10.53  0.000209  (-0.002184 -0.012339  0.007204)
 34:   3116.43   0.003456   17.47  0.000346  ( 0.009146  0.016200 -0.000041)
 35:   3647.54   0.004375   22.11  0.000374  ( 0.004835  0.018733  0.000027)

--------------------------
THERMOCHEMISTRY AT 298.15K
--------------------------

Temperature         ...   298.15 K
Pressure            ...     1.00 atm
Total Mass          ...    73.09 AMU
Quasi RRHO          ...     True
Cut-Off Frequency   ...     1.00 cm^-1

Throughout the following assumptions are being made:
  (1) The electronic state is orbitally nondegenerate
  (2) There are no thermally accessible electronically excited states
  (3) Hindered rotations indicated by low frequency modes are not
      treated as such but are treated as vibrations and this may
      cause some error
  (4) All equations used are the standard statistical mechanics
      equations for an ideal gas
  (5) All vibrations are strictly harmonic

freq.      48.74  E(vib)   ...       0.53
freq.      94.60  E(vib)   ...       0.47
freq.     162.52  E(vib)   ...       0.39
freq.     266.24  E(vib)   ...       0.29
freq.     353.80  E(vib)   ...       0.22
freq.     430.63  E(vib)   ...       0.18
freq.     624.29  E(vib)   ...       0.09
freq.     631.61  E(vib)   ...       0.09
freq.     872.36  E(vib)   ...       0.04
freq.     987.90  E(vib)   ...       0.02
freq.    1046.06  E(vib)   ...       0.02
freq.    1090.21  E(vib)   ...       0.02
freq.    1152.84  E(vib)   ...       0.01
freq.    1187.46  E(vib)   ...       0.01
freq.    1269.10  E(vib)   ...       0.01
freq.    1384.26  E(vib)   ...       0.00
freq.    1445.42  E(vib)   ...       0.00
freq.    1463.64  E(vib)   ...       0.00
freq.    1468.55  E(vib)   ...       0.00
freq.    1477.90  E(vib)   ...       0.00
freq.    1501.53  E(vib)   ...       0.00
freq.    1536.05  E(vib)   ...       0.00
freq.    1728.90  E(vib)   ...       0.00
freq.    3012.98  E(vib)   ...       0.00
freq.    3025.01  E(vib)   ...       0.00
freq.    3075.22  E(vib)   ...       0.00
freq.    3111.01  E(vib)   ...       0.00
freq.    3112.35  E(vib)   ...       0.00
freq.    3116.43  E(vib)   ...       0.00
freq.    3647.54  E(vib)   ...       0.00

------------
INNER ENERGY
------------

The inner energy is: U= E(el) + E(ZPE) + E(vib) + E(rot) + E(trans)
    E(el)   - is the total energy from the electronic structure calculation
              = E(kin-el) + E(nuc-el) + E(el-el) + E(nuc-nuc)
    E(ZPE)  - the the zero temperature vibrational energy from the frequency calculation
    E(vib)  - the the finite temperature correction to E(ZPE) due to population
              of excited vibrational states
    E(rot)  - is the rotational thermal energy
    E(trans)- is the translational thermal energy

Summary of contributions to the inner energy U:
Electronic energy                ...   -248.48037379 Eh
Zero point energy                ...      0.10098013 Eh      63.37 kcal/mol
Thermal vibrational correction   ...      0.00384448 Eh       2.41 kcal/mol
Thermal rotational correction    ...      0.00141627 Eh       0.89 kcal/mol
Thermal translational correction ...      0.00141627 Eh       0.89 kcal/mol
-----------------------------------------------------------------------
Total thermal energy                   -248.37271664 Eh

Summary of corrections to the electronic energy:
(perhaps to be used in another calculation)
Total thermal correction                  0.00667703 Eh       4.19 kcal/mol
Non-thermal (ZPE) correction              0.10098013 Eh      63.37 kcal/mol
-----------------------------------------------------------------------
Total correction                          0.10765715 Eh      67.56 kcal/mol

--------
ENTHALPY
--------

The enthalpy is H = U + kB*T
                kB is Boltzmann's constant
Total thermal energy              ...   -248.37271664 Eh
Thermal Enthalpy correction       ...      0.00094421 Eh       0.59 kcal/mol
-----------------------------------------------------------------------
Total Enthalpy                    ...   -248.37177243 Eh

Note: Only C1 symmetry has been detected, increase convergence thresholds
      if your molecule has a higher symmetry. Symmetry factor of 1.0 is
      used for the rotational entropy correction.

Note: Rotational entropy computed according to Herzberg
Infrared and Raman Spectra, Chapter V,1, Van Nostrand Reinhold, 1945
Point Group:  C1, Symmetry Number:   1
Rotational constants in cm-1:     0.336501     0.128966     0.096589

Vibrational entropy computed according to the QRRHO of S. Grimme
Chem.Eur.J. 2012 18 9955 using a reference frequency of 100.0 cm-1

-------
ENTROPY
-------

The entropy contributions are T*S = T*(S(el)+S(vib)+S(rot)+S(trans))
     S(el)   - electronic entropy
     S(vib)  - vibrational entropy
     S(rot)  - rotational entropy
     S(trans)- translational entropy
The entropies will be listed as multiplied by the temperature to get
units of energy

Electronic entropy                ...      0.00000000 Eh      0.00 kcal/mol
Vibrational entropy               ...      0.00684389 Eh      4.29 kcal/mol
Rotational entropy                ...      0.01209534 Eh      7.59 kcal/mol
Translational entropy             ...      0.01842737 Eh     11.56 kcal/mol
-----------------------------------------------------------------------
Final entropy term                ...      0.03736660 Eh     23.45 kcal/mol

In case the symmetry of your molecule has not been determined correctly
or in case you have a reason to use a different symmetry number we print
out the resulting rotational entropy values for sn=1,12:

 non-linear molecules -----------------------------------
|  sn= 1 | S(rot)=       0.01209534 Eh      7.59 kcal/mol|
|  sn= 2 | S(rot)=       0.01144089 Eh      7.18 kcal/mol|
|  sn= 3 | S(rot)=       0.01105805 Eh      6.94 kcal/mol|
|  sn= 4 | S(rot)=       0.01078643 Eh      6.77 kcal/mol|
|  sn= 5 | S(rot)=       0.01057574 Eh      6.64 kcal/mol|
|  sn= 6 | S(rot)=       0.01040360 Eh      6.53 kcal/mol|
|  sn= 7 | S(rot)=       0.01025805 Eh      6.44 kcal/mol|
|  sn= 8 | S(rot)=       0.01013197 Eh      6.36 kcal/mol|
|  sn= 9 | S(rot)=       0.01002077 Eh      6.29 kcal/mol|
|  sn=10 | S(rot)=       0.00992129 Eh      6.23 kcal/mol|
|  sn=11 | S(rot)=       0.00983130 Eh      6.17 kcal/mol|
|  sn=12 | S(rot)=       0.00974914 Eh      6.12 kcal/mol|
 linear molecules ---------------------------------------
|  Dinfh | S(rot)=       0.00753263 Eh      4.73 kcal/mol|
|  Cinfv | S(rot)=       0.00818709 Eh      5.14 kcal/mol|
 --------------------------------------------------------

-------------------
GIBBS FREE ENERGY
-------------------

The Gibbs free energy is G = H - T*S

Total enthalpy                    ...   -248.37177243 Eh
Total entropy correction          ...     -0.03736660 Eh    -23.45 kcal/mol
-----------------------------------------------------------------------
Final Gibbs free energy         ...   -248.40913903 Eh

For completeness - the Gibbs free energy minus the electronic energy

                             ****ORCA TERMINATED NORMALLY****
TOTAL RUN TIME: 0 days 0 hours 3 minutes 44 seconds 906 msec
