                         Program Version 6.0.1  -  RELEASE   -
|  1> ! pbe def2-sv(p) def2/J RI DEFGRID1 loosescf d4 GCP(DFT/SV(P)) printgap
|  2> %output
|  3>     printlevel normal
|  4> end
|  5> * xyz 0 1
|  6> C -3.498103122 0.3728315999 -0.1830617131
|  7> C -2.1859997115 -0.1130254639 0.4276294181
|  8> H -2.422865095 -0.7000305183 1.3204227289
|  9> C -1.283528426 1.0564010346 0.8446337298
| 10> C -0.3608336054 1.4867959965 -0.2927739133
| 11> C 0.6446261246 0.3748281441 -0.6568543029
| 12> H 0.7426737886 0.3497999762 -1.7510902668
| 13> C 0.0481293952 -0.9756066982 -0.304144893
| 14> O 0.6645120385 -1.9215217281 0.1163504045
| 15> C -1.4393085861 -1.0233270549 -0.5668875431
| 16> C 2.0635005314 0.6275107239 -0.1060165537
| 17> C 2.1426141029 0.5040665002 1.413339621
| 18> C 3.0759500093 -0.3091081382 -0.7645912215
| 19> H -3.3100522024 1.022217185 -1.0354644967
| 20> H -4.0965409961 -0.4707529011 -0.5196560037
| 21> H -4.0757071751 0.9299845148 0.5512465198
| 22> H -1.8999076387 1.9002868343 1.1602979532
| 23> H -0.6752374636 0.7512849688 1.6970794362
| 24> H -0.9678778926 1.746669669 -1.1621769911
| 25> H 0.1857831758 2.3856832787 -0.0028244158
| 26> H -1.6196024582 -0.6693052092 -1.5834541337
| 27> H -1.7942985717 -2.0509797815 -0.4855979781
| 28> H 2.3295253625 1.6571963012 -0.3807416482
| 29> H 1.8400668389 -0.4907299539 1.7278947155
| 30> H 1.5099083847 1.2414175895 1.9016494331
| 31> H 3.1661219102 0.6691870059 1.7430337935
| 32> H 4.0810130845 -0.0740518569 -0.4215727215
| 33> H 3.0523110041 -0.2046825795 -1.8479525877
| 34> H 2.8557356783 -1.3409671427 -0.509002058
| 35> *
| 36>
| 37>                          ****END OF INPUT****

CARTESIAN COORDINATES (ANGSTROEM)
---------------------------------
  C     -3.498103    0.372832   -0.183062
  C     -2.186000   -0.113025    0.427629
  H     -2.422865   -0.700031    1.320423
  C     -1.283528    1.056401    0.844634
  C     -0.360834    1.486796   -0.292774
  C      0.644626    0.374828   -0.656854
  H      0.742674    0.349800   -1.751090
  C      0.048129   -0.975607   -0.304145
  O      0.664512   -1.921522    0.116350
  C     -1.439309   -1.023327   -0.566888
  C      2.063501    0.627511   -0.106017
  C      2.142614    0.504067    1.413340
  C      3.075950   -0.309108   -0.764591
  H     -3.310052    1.022217   -1.035464
  H     -4.096541   -0.470753   -0.519656
  H     -4.075707    0.929985    0.551247
  H     -1.899908    1.900287    1.160298
  H     -0.675237    0.751285    1.697079
  H     -0.967878    1.746670   -1.162177
  H      0.185783    2.385683   -0.002824
  H     -1.619602   -0.669305   -1.583454
  H     -1.794299   -2.050980   -0.485598
  H      2.329525    1.657196   -0.380742
  H      1.840067   -0.490730    1.727895
  H      1.509908    1.241418    1.901649
  H      3.166122    0.669187    1.743034
  H      4.081013   -0.074052   -0.421573
  H      3.052311   -0.204683   -1.847953
  H      2.855736   -1.340967   -0.509002

 Total Charge           Charge          ....    0
 Multiplicity           Mult            ....    1
 Number of Electrons    NEL             ....   86
 Basis Dimension        Dim             ....  190

ORBITAL ENERGIES
----------------

  NO   OCC          E(Eh)            E(eV)
   0   2.0000     -18.736635      -509.8498
   1   2.0000      -9.971053      -271.3262
   2   2.0000      -9.907631      -269.6003
   3   2.0000      -9.899977      -269.3921
   4   2.0000      -9.894891      -269.2537
   5   2.0000      -9.894725      -269.2492
   6   2.0000      -9.889760      -269.1141
   7   2.0000      -9.888892      -269.0904
   8   2.0000      -9.881149      -268.8797
   9   2.0000      -9.866334      -268.4766
  10   2.0000      -9.860655      -268.3221
  11   2.0000      -0.940567       -25.5941
  12   2.0000      -0.769275       -20.9330
  13   2.0000      -0.726752       -19.7759
  14   2.0000      -0.675184       -18.3727
  15   2.0000      -0.656104       -17.8535
  16   2.0000      -0.615129       -16.7385
  17   2.0000      -0.602397       -16.3921
  18   2.0000      -0.555541       -15.1170
  19   2.0000      -0.525539       -14.3006
  20   2.0000      -0.496978       -13.5235
  21   2.0000      -0.450923       -12.2702
  22   2.0000      -0.443243       -12.0613
  23   2.0000      -0.436200       -11.8696
  24   2.0000      -0.414777       -11.2867
  25   2.0000      -0.389039       -10.5863
  26   2.0000      -0.387500       -10.5444
  27   2.0000      -0.378848       -10.3090
  28   2.0000      -0.358413        -9.7529
  29   2.0000      -0.352482        -9.5915
  30   2.0000      -0.347758        -9.4630
  31   2.0000      -0.342936        -9.3318
  32   2.0000      -0.340713        -9.2713
  33   2.0000      -0.339573        -9.2402
  34   2.0000      -0.321826        -8.7573
  35   2.0000      -0.313676        -8.5356
  36   2.0000      -0.303522        -8.2592
  37   2.0000      -0.287864        -7.8332
  38   2.0000      -0.286282        -7.7901
  39   2.0000      -0.279586        -7.6079
  40   2.0000      -0.274911        -7.4807
  41   2.0000      -0.266359        -7.2480
  42   2.0000      -0.187871        -5.1122
  43   0.0000      -0.049758        -1.3540
  44   0.0000       0.025980         0.7069
  45   0.0000       0.042489         1.1562
  46   0.0000       0.049230         1.3396
  47   0.0000       0.068635         1.8677

MULLIKEN ATOMIC CHARGES
-----------------------
   0 C :   -0.242830
   1 C :   -0.204158
   2 H :    0.081940
   3 C :   -0.117000
   4 C :   -0.108430
   5 C :   -0.148156
   6 H :    0.092098
   7 C :   -0.017831
   8 O :   -0.144113
   9 C :   -0.048272
  10 C :   -0.134832
  11 C :   -0.269398
  12 C :   -0.252295
  13 H :    0.097764
  14 H :    0.105400
  15 H :    0.103705
  16 H :    0.083175
  17 H :    0.096369
  18 H :    0.075637
  19 H :    0.091710
  20 H :    0.081774
  21 H :    0.089103
  22 H :    0.064985
  23 H :    0.120443
  24 H :    0.105045
  25 H :    0.095486
  26 H :    0.092761
  27 H :    0.087327
  28 H :    0.122594
Sum of atomic charges:    0.0000000

LOEWDIN ATOMIC CHARGES
----------------------
   0 C :   -0.329933
   1 C :   -0.142002
   2 H :    0.122225
   3 C :   -0.224250
   4 C :   -0.213688
   5 C :   -0.162037
   6 H :    0.141277
   7 C :    0.053170
   8 O :   -0.114794
   9 C :   -0.236238
  10 C :   -0.140831
  11 C :   -0.338055
  12 C :   -0.338517
  13 H :    0.115668
  14 H :    0.120557
  15 H :    0.119358
  16 H :    0.119895
  17 H :    0.121990
  18 H :    0.117308
  19 H :    0.122965
  20 H :    0.132270
  21 H :    0.129966
  22 H :    0.112651
  23 H :    0.124955
  24 H :    0.113368
  25 H :    0.119057
  26 H :    0.115478
  27 H :    0.111766
  28 H :    0.126421

  Mayer bond orders larger than 0.100000
B(  0-C ,  1-C ) :   1.1156 B(  0-C , 13-H ) :   0.9447 B(  0-C , 14-H ) :   0.9484
B(  0-C , 15-H ) :   0.9457 B(  1-C ,  2-H ) :   0.8987 B(  1-C ,  3-C ) :   1.0964
B(  1-C ,  9-C ) :   1.0739 B(  3-C ,  4-C ) :   1.1896 B(  3-C , 16-H ) :   0.9137
B(  3-C , 17-H ) :   0.8895 B(  4-C ,  5-C ) :   1.0593 B(  4-C , 18-H ) :   0.8909
B(  4-C , 19-H ) :   0.9088 B(  5-C ,  6-H ) :   0.8514 B(  5-C ,  7-C ) :   0.9235
B(  5-C , 10-C ) :   1.0434 B(  7-C ,  8-O ) :   2.1707 B(  7-C ,  9-C ) :   1.0736
B(  9-C , 20-H ) :   0.8722 B(  9-C , 21-H ) :   0.8911 B( 10-C , 11-C ) :   1.1133
B( 10-C , 12-C ) :   1.1046 B( 10-C , 22-H ) :   0.8979 B( 11-C , 23-H ) :   0.9393
B( 11-C , 24-H ) :   0.9381 B( 11-C , 25-H ) :   0.9451 B( 12-C , 26-H ) :   0.9469
B( 12-C , 27-H ) :   0.9473 B( 12-C , 28-H ) :   0.9375

Dispersion correction           -0.030882644
FINAL SINGLE POINT ENERGY      -466.026960426750

DIPOLE MOMENT
-------------

Method             : SCF
Type of density    : Electron Density
Multiplicity       :   1
Irrep              :   0
Energy             :  -466.1235613842196699 Eh
Relativity type    :
Basis              : AO
                                X                 Y                 Z
Electronic contribution:      0.428812318      -5.425852851      -0.633829727
Nuclear contribution   :     -1.021140389       6.212387778       0.378953990
                        -----------------------------------------
Total Dipole Moment    :     -0.592328071       0.786534927      -0.254875738
                        -----------------------------------------
Magnitude (a.u.)       :      1.017079828
Magnitude (Debye)      :      2.585211473

Rotational constants in cm-1:             0.069028             0.024887             0.021903
Rotational constants in MHz :          2069.394323           746.081706           656.621863

                             ****ORCA TERMINATED NORMALLY****
TOTAL RUN TIME: 0 days 0 hours 0 minutes 18 seconds 477 msec
