                         Program Version 6.0.0  -   RELEASE  -
|  1> ! r2SCAN-3c DEF2-TZVP FREQ
|  2> * xyzfile 0 1 censo.xyz
|  3>
|  4>                          ****END OF INPUT****

CARTESIAN COORDINATES (ANGSTROEM)
---------------------------------
  S     -0.000000   -0.061653    0.000000
  H     -0.975704    0.866265    0.000000
  H      0.975678    0.866291    0.000000

 Total Charge           Charge          ....    0
 Multiplicity           Mult            ....    1
 Number of Electrons    NEL             ....   18
 Basis Dimension        Dim             ....   49

ORBITAL ENERGIES
----------------

  NO   OCC          E(Eh)            E(eV)
   0   2.0000     -88.538816     -2409.2637
   1   2.0000      -7.853928      -213.7163
   2   2.0000      -5.798787      -157.7930
   3   2.0000      -5.795843      -157.7129
   4   2.0000      -5.791406      -157.5922
   5   2.0000      -0.705961       -19.2102
   6   2.0000      -0.420260       -11.4358
   7   2.0000      -0.341713        -9.2985
   8   2.0000      -0.237913        -6.4739
   9   0.0000      -0.003849        -0.1047
  10   0.0000       0.020920         0.5693
  11   0.0000       0.208219         5.6659
  12   0.0000       0.215608         5.8670
  13   0.0000       0.280898         7.6436

MULLIKEN ATOMIC CHARGES
-----------------------
   0 S :   -0.327576
   1 H :    0.163788
   2 H :    0.163788
Sum of atomic charges:   -0.0000000

LOEWDIN ATOMIC CHARGES
----------------------
   0 S :   -0.063212
   1 H :    0.031606
   2 H :    0.031606

  Mayer bond orders larger than 0.100000
B(  0-S ,  1-H ) :   0.9686 B(  0-S ,  2-H ) :   0.9686

Dispersion correction           -0.000190769
FINAL SINGLE POINT ENERGY      -399.368224406097

DIPOLE MOMENT
-------------

Method             : SCF
Type of density    : Electron Density
Multiplicity       :   1
Irrep              :   0
Energy             :  -399.3731141112271530 Eh
Relativity type    :
Basis              : AO
                                X                 Y                 Z
Electronic contribution:      0.000016114      -1.173869873      -0.000000009
Nuclear contribution   :     -0.000022515       1.639707726       0.000000011
                        -----------------------------------------
Total Dipole Moment    :     -0.000006400       0.465837853       0.000000002
                        -----------------------------------------
Magnitude (a.u.)       :      0.465837853
Magnitude (Debye)      :      1.184065724

VIBRATIONAL FREQUENCIES
-----------------------

Scaling factor for frequencies =  1.000000000  (already applied!)

     0:       0.00 cm**-1
     1:       0.00 cm**-1
     2:       0.00 cm**-1
     3:       0.00 cm**-1
     4:       0.00 cm**-1
     5:       0.00 cm**-1
     6:    1223.08 cm**-1
     7:    2661.57 cm**-1
     8:    2679.51 cm**-1

IR SPECTRUM
-----------

 Mode   freq       eps      Int      T**2         TX        TY        TZ
       cm**-1   L/(mol*cm) km/mol    a.u.
----------------------------------------------------------------------------
  6:   1223.08   0.000017    0.09  0.000004  ( 0.000000 -0.002081 -0.000000)
  7:   2661.57   0.000002    0.01  0.000000  ( 0.000000 -0.000456  0.000000)
  8:   2679.51   0.000003    0.01  0.000000  ( 0.000571 -0.000000 -0.000000)

--------------------------
THERMOCHEMISTRY AT 298.15K
--------------------------

Temperature         ...   298.15 K
Pressure            ...     1.00 atm
Total Mass          ...    34.08 AMU
Quasi RRHO          ...     True
Cut-Off Frequency   ...     1.00 cm^-1

Throughout the following assumptions are being made:
  (1) The electronic state is orbitally nondegenerate
  (2) There are no thermally accessible electronically excited states
  (3) Hindered rotations indicated by low frequency modes are not
      treated as such but are treated as vibrations and this may
      cause some error
  (4) All equations used are the standard statistical mechanics
      equations for an ideal gas
  (5) All vibrations are strictly harmonic

freq.    1223.08  E(vib)   ...       0.01
freq.    2661.57  E(vib)   ...       0.00
freq.    2679.51  E(vib)   ...       0.00

------------
INNER ENERGY
------------

The inner energy is: U= E(el) + E(ZPE) + E(vib) + E(rot) + E(trans)
    E(el)   - is the total energy from the electronic structure calculation
              = E(kin-el) + E(nuc-el) + E(el-el) + E(nuc-nuc)
    E(ZPE)  - the the zero temperature vibrational energy from the frequency calculation
    E(vib)  - the the finite temperature correction to E(ZPE) due to population
              of excited vibrational states
    E(rot)  - is the rotational thermal energy
    E(trans)- is the translational thermal energy

Summary of contributions to the inner energy U:
Electronic energy                ...   -399.36822441 Eh
Zero point energy                ...      0.01495424 Eh       9.38 kcal/mol
Thermal vibrational correction   ...      0.00001534 Eh       0.01 kcal/mol
Thermal rotational correction    ...      0.00141627 Eh       0.89 kcal/mol
Thermal translational correction ...      0.00141627 Eh       0.89 kcal/mol
-----------------------------------------------------------------------
Total thermal energy                   -399.35042228 Eh

Summary of corrections to the electronic energy:
(perhaps to be used in another calculation)
Total thermal correction                  0.00284788 Eh       1.79 kcal/mol
Non-thermal (ZPE) correction              0.01495424 Eh       9.38 kcal/mol
-----------------------------------------------------------------------
Total correction                          0.01780212 Eh      11.17 kcal/mol

--------
ENTHALPY
--------

The enthalpy is H = U + kB*T
                kB is Boltzmann's constant
Total thermal energy              ...   -399.35042228 Eh
Thermal Enthalpy correction       ...      0.00094421 Eh       0.59 kcal/mol
-----------------------------------------------------------------------
Total Enthalpy                    ...   -399.34947807 Eh

Note: Rotational entropy computed according to Herzberg
Infrared and Raman Spectra, Chapter V,1, Van Nostrand Reinhold, 1945
Point Group:  C2v, Symmetry Number:   2
Rotational constants in cm-1:    10.321901     8.783788     4.745466

Vibrational entropy computed according to the QRRHO of S. Grimme
Chem.Eur.J. 2012 18 9955 using a reference frequency of 100.0 cm-1

-------
ENTROPY
-------

The entropy contributions are T*S = T*(S(el)+S(vib)+S(rot)+S(trans))
     S(el)   - electronic entropy
     S(vib)  - vibrational entropy
     S(rot)  - rotational entropy
     S(trans)- translational entropy
The entropies will be listed as multiplied by the temperature to get
units of energy

Electronic entropy                ...      0.00000000 Eh      0.00 kcal/mol
Vibrational entropy               ...      0.00001793 Eh      0.01 kcal/mol
Rotational entropy                ...      0.00599342 Eh      3.76 kcal/mol
Translational entropy             ...      0.01734652 Eh     10.89 kcal/mol
-----------------------------------------------------------------------
Final entropy term                ...      0.02335788 Eh     14.66 kcal/mol

In case the symmetry of your molecule has not been determined correctly
or in case you have a reason to use a different symmetry number we print
out the resulting rotational entropy values for sn=1,12:

 non-linear molecules -----------------------------------
|  sn= 1 | S(rot)=       0.00664788 Eh      4.17 kcal/mol|
|  sn= 2 | S(rot)=       0.00599342 Eh      3.76 kcal/mol|
|  sn= 3 | S(rot)=       0.00561059 Eh      3.52 kcal/mol|
|  sn= 4 | S(rot)=       0.00533897 Eh      3.35 kcal/mol|
|  sn= 5 | S(rot)=       0.00512828 Eh      3.22 kcal/mol|
|  sn= 6 | S(rot)=       0.00495614 Eh      3.11 kcal/mol|
|  sn= 7 | S(rot)=       0.00481059 Eh      3.02 kcal/mol|
|  sn= 8 | S(rot)=       0.00468451 Eh      2.94 kcal/mol|
|  sn= 9 | S(rot)=       0.00457330 Eh      2.87 kcal/mol|
|  sn=10 | S(rot)=       0.00447382 Eh      2.81 kcal/mol|
|  sn=11 | S(rot)=       0.00438383 Eh      2.75 kcal/mol|
|  sn=12 | S(rot)=       0.00430168 Eh      2.70 kcal/mol|
 linear molecules ---------------------------------------
|  Dinfh | S(rot)=       0.00385554 Eh      2.42 kcal/mol|
|  Cinfv | S(rot)=       0.00450999 Eh      2.83 kcal/mol|
 --------------------------------------------------------

-------------------
GIBBS FREE ENERGY
-------------------

The Gibbs free energy is G = H - T*S

Total enthalpy                    ...   -399.34947807 Eh
Total entropy correction          ...     -0.02335788 Eh    -14.66 kcal/mol
-----------------------------------------------------------------------
Final Gibbs free energy         ...   -399.37283595 Eh

For completeness - the Gibbs free energy minus the electronic energy
G-E(el)                           ...     -0.00461154 Eh     -2.89 kcal/mol

                             ****ORCA TERMINATED NORMALLY****
TOTAL RUN TIME: 0 days 0 hours 0 minutes 9 seconds 724 msec
