                         Program Version 6.0.0  -   RELEASE  -
|  1> ! r2SCAN-3c DEF2-TZVP FREQ
|  2> * xyzfile 0 1 vacuum_censo.xyz
|  3>
|  4>                          ****END OF INPUT****

CARTESIAN COORDINATES (ANGSTROEM)
---------------------------------
  S      0.000000   -0.061614   -0.000000
  H     -0.970259    0.867855   -0.000000
  H      0.970260    0.867854    0.000000

 Total Charge           Charge          ....    0
 Multiplicity           Mult            ....    1
 Number of Electrons    NEL             ....   18
 Basis Dimension        Dim             ....   49

ORBITAL ENERGIES
----------------

  NO   OCC          E(Eh)            E(eV)
   0   2.0000     -88.538465     -2409.2541
   1   2.0000      -7.853701      -213.7101
   2   2.0000      -5.798549      -157.7865
   3   2.0000      -5.795602      -157.7063
   4   2.0000      -5.791181      -157.5860
   5   2.0000      -0.706636       -19.2285
   6   2.0000      -0.420082       -11.4310
   7   2.0000      -0.342419        -9.3177
   8   2.0000      -0.237972        -6.4755
   9   0.0000      -0.003696        -0.1006
  10   0.0000       0.021986         0.5983
  11   0.0000       0.208351         5.6695
  12   0.0000       0.216250         5.8845
  13   0.0000       0.280277         7.6267

MULLIKEN ATOMIC CHARGES
-----------------------
   0 S :   -0.327012
   1 H :    0.163506
   2 H :    0.163506
Sum of atomic charges:   -0.0000000

LOEWDIN ATOMIC CHARGES
----------------------
   0 S :   -0.061518
   1 H :    0.030759
   2 H :    0.030759

  Mayer bond orders larger than 0.100000
B(  0-S ,  1-H ) :   0.9690 B(  0-S ,  2-H ) :   0.9690

Dispersion correction           -0.000190779
FINAL SINGLE POINT ENERGY      -399.368266130723

DIPOLE MOMENT
-------------

Method             : SCF
Type of density    : Electron Density
Multiplicity       :   1
Irrep              :   0
Energy             :  -399.3731473027789889 Eh
Relativity type    :
Basis              : AO
                                X                 Y                 Z
Electronic contribution:     -0.000000563      -1.176699921       0.000000001
Nuclear contribution   :      0.000000786       1.642424322      -0.000000001
                        -----------------------------------------
Total Dipole Moment    :      0.000000223       0.465724401       0.000000000
                        -----------------------------------------
Magnitude (a.u.)       :      0.465724401
Magnitude (Debye)      :      1.183777351

VIBRATIONAL FREQUENCIES
-----------------------

Scaling factor for frequencies =  1.000000000  (already applied!)

     0:       0.00 cm**-1
     1:       0.00 cm**-1
     2:       0.00 cm**-1
     3:       0.00 cm**-1
     4:       0.00 cm**-1
     5:       0.00 cm**-1
     6:    1221.46 cm**-1
     7:    2682.59 cm**-1
     8:    2699.14 cm**-1

IR SPECTRUM
-----------

 Mode   freq       eps      Int      T**2         TX        TY        TZ
       cm**-1   L/(mol*cm) km/mol    a.u.
----------------------------------------------------------------------------
  6:   1221.46   0.000018    0.09  0.000005  ( 0.000000  0.002141 -0.000000)
  7:   2682.59   0.000000    0.00  0.000000  ( 0.000000  0.000216  0.000000)
  8:   2699.14   0.000005    0.02  0.000001  (-0.000755  0.000000 -0.000000)

--------------------------
THERMOCHEMISTRY AT 298.15K
--------------------------

Temperature         ...   298.15 K
Pressure            ...     1.00 atm
Total Mass          ...    34.08 AMU
Quasi RRHO          ...     True
Cut-Off Frequency   ...     1.00 cm^-1

Throughout the following assumptions are being made:
  (1) The electronic state is orbitally nondegenerate
  (2) There are no thermally accessible electronically excited states
  (3) Hindered rotations indicated by low frequency modes are not
      treated as such but are treated as vibrations and this may
      cause some error
  (4) All equations used are the standard statistical mechanics
      equations for an ideal gas
  (5) All vibrations are strictly harmonic

freq.    1221.46  E(vib)   ...       0.01
freq.    2682.59  E(vib)   ...       0.00
freq.    2699.14  E(vib)   ...       0.00

------------
INNER ENERGY
------------

The inner energy is: U= E(el) + E(ZPE) + E(vib) + E(rot) + E(trans)
    E(el)   - is the total energy from the electronic structure calculation
              = E(kin-el) + E(nuc-el) + E(el-el) + E(nuc-nuc)
    E(ZPE)  - the the zero temperature vibrational energy from the frequency calculation
    E(vib)  - the the finite temperature correction to E(ZPE) due to population
              of excited vibrational states
    E(rot)  - is the rotational thermal energy
    E(trans)- is the translational thermal energy

Summary of contributions to the inner energy U:
Electronic energy                ...   -399.36826613 Eh
Zero point energy                ...      0.01504317 Eh       9.44 kcal/mol
Thermal vibrational correction   ...      0.00001543 Eh       0.01 kcal/mol
Thermal rotational correction    ...      0.00141627 Eh       0.89 kcal/mol
Thermal translational correction ...      0.00141627 Eh       0.89 kcal/mol
-----------------------------------------------------------------------
Total thermal energy                   -399.35037499 Eh

Summary of corrections to the electronic energy:
(perhaps to be used in another calculation)
Total thermal correction                  0.00284798 Eh       1.79 kcal/mol
Non-thermal (ZPE) correction              0.01504317 Eh       9.44 kcal/mol
-----------------------------------------------------------------------
Total correction                          0.01789114 Eh      11.23 kcal/mol

--------
ENTHALPY
--------

The enthalpy is H = U + kB*T
                kB is Boltzmann's constant
Total thermal energy              ...   -399.35037499 Eh
Thermal Enthalpy correction       ...      0.00094421 Eh       0.59 kcal/mol
-----------------------------------------------------------------------
Total Enthalpy                    ...   -399.34943078 Eh

Note: Rotational entropy computed according to Herzberg
Infrared and Raman Spectra, Chapter V,1, Van Nostrand Reinhold, 1945
Point Group:  C2v, Symmetry Number:   2
Rotational constants in cm-1:    10.287784     8.882408     4.766791

Vibrational entropy computed according to the QRRHO of S. Grimme
Chem.Eur.J. 2012 18 9955 using a reference frequency of 100.0 cm-1

-------
ENTROPY
-------

The entropy contributions are T*S = T*(S(el)+S(vib)+S(rot)+S(trans))
     S(el)   - electronic entropy
     S(vib)  - vibrational entropy
     S(rot)  - rotational entropy
     S(trans)- translational entropy
The entropies will be listed as multiplied by the temperature to get
units of energy

Electronic entropy                ...      0.00000000 Eh      0.00 kcal/mol
Vibrational entropy               ...      0.00001805 Eh      0.01 kcal/mol
Rotational entropy                ...      0.00598760 Eh      3.76 kcal/mol
Translational entropy             ...      0.01734652 Eh     10.89 kcal/mol
-----------------------------------------------------------------------
Final entropy term                ...      0.02335217 Eh     14.65 kcal/mol

In case the symmetry of your molecule has not been determined correctly
or in case you have a reason to use a different symmetry number we print
out the resulting rotational entropy values for sn=1,12:

 non-linear molecules -----------------------------------
|  sn= 1 | S(rot)=       0.00664206 Eh      4.17 kcal/mol|
|  sn= 2 | S(rot)=       0.00598760 Eh      3.76 kcal/mol|
|  sn= 3 | S(rot)=       0.00560477 Eh      3.52 kcal/mol|
|  sn= 4 | S(rot)=       0.00533314 Eh      3.35 kcal/mol|
|  sn= 5 | S(rot)=       0.00512246 Eh      3.21 kcal/mol|
|  sn= 6 | S(rot)=       0.00495031 Eh      3.11 kcal/mol|
|  sn= 7 | S(rot)=       0.00480477 Eh      3.02 kcal/mol|
|  sn= 8 | S(rot)=       0.00467869 Eh      2.94 kcal/mol|
|  sn= 9 | S(rot)=       0.00456748 Eh      2.87 kcal/mol|
|  sn=10 | S(rot)=       0.00446800 Eh      2.80 kcal/mol|
|  sn=11 | S(rot)=       0.00437801 Eh      2.75 kcal/mol|
|  sn=12 | S(rot)=       0.00429586 Eh      2.70 kcal/mol|
 linear molecules ---------------------------------------
|  Dinfh | S(rot)=       0.00385130 Eh      2.42 kcal/mol|
|  Cinfv | S(rot)=       0.00450576 Eh      2.83 kcal/mol|
 --------------------------------------------------------

-------------------
GIBBS FREE ENERGY
-------------------

The Gibbs free energy is G = H - T*S

Total enthalpy                    ...   -399.34943078 Eh
Total entropy correction          ...     -0.02335217 Eh    -14.65 kcal/mol
-----------------------------------------------------------------------
Final Gibbs free energy         ...   -399.37278294 Eh

For completeness - the Gibbs free energy minus the electronic energy
G-E(el)                           ...     -0.00451681 Eh     -2.83 kcal/mol

                             ****ORCA TERMINATED NORMALLY****
TOTAL RUN TIME: 0 days 0 hours 0 minutes 11 seconds 480 msec
