                         Program Version 6.0.1  -  RELEASE   -
|  1> ! pbe def2-sv(p) def2/J RI DEFGRID1 loosescf d4 GCP(DFT/SV(P)) printgap
|  2> %output
|  3>     printlevel normal
|  4> end
|  5> * xyz 0 1
|  6> C 2.2772760365 0.1355337644 0.423105561
|  7> N 1.081557797 -0.0880276828 -0.3566829303
|  8> C 0.302192605 -1.2020723614 0.167944283
|  9> C -1.1324989144 -1.1195444407 -0.3353806189
| 10> O -1.8066834435 0.0211321356 0.1630947185
| 11> C -0.9494019376 1.1254925686 0.3880241721
| 12> C 0.2596853097 1.1033139509 -0.5463523481
| 13> H 2.8753034589 0.9103276195 -0.053696512
| 14> H 2.8567462343 -0.7871088816 0.4394441553
| 15> H 2.071403423 0.4334448248 1.4638386548
| 16> H 0.7619365295 -2.1352402022 -0.1721045702
| 17> H 0.2896558628 -1.2100596532 1.2718262025
| 18> H -1.1307608434 -1.1069651645 -1.4347472045
| 19> H -1.7092281487 -1.9844894417 0.0024181112
| 20> H -1.5507993775 2.0239860299 0.2260774102
| 21> H -0.6073231175 1.1232696325 1.4350190162
| 22> H -0.0959297555 1.1140949771 -1.5833782612
| 23> H 0.8638876044 1.9974723905 -0.3868690246
| 24> *
| 25>
| 26>                          ****END OF INPUT****

CARTESIAN COORDINATES (ANGSTROEM)
---------------------------------
  C      2.277276    0.135534    0.423106
  N      1.081558   -0.088028   -0.356683
  C      0.302193   -1.202072    0.167944
  C     -1.132499   -1.119544   -0.335381
  O     -1.806683    0.021132    0.163095
  C     -0.949402    1.125493    0.388024
  C      0.259685    1.103314   -0.546352
  H      2.875303    0.910328   -0.053697
  H      2.856746   -0.787109    0.439444
  H      2.071403    0.433445    1.463839
  H      0.761937   -2.135240   -0.172105
  H      0.289656   -1.210060    1.271826
  H     -1.130761   -1.106965   -1.434747
  H     -1.709228   -1.984489    0.002418
  H     -1.550799    2.023986    0.226077
  H     -0.607323    1.123270    1.435019
  H     -0.095930    1.114095   -1.583378
  H      0.863888    1.997472   -0.386869

 Total Charge           Charge          ....    0
 Multiplicity           Mult            ....    1
 Number of Electrons    NEL             ....   56
 Basis Dimension        Dim             ....  120

ORBITAL ENERGIES
----------------

  NO   OCC          E(Eh)            E(eV)
   0   2.0000     -18.746637      -510.1219
   1   2.0000     -13.985050      -380.5526
   2   2.0000      -9.929685      -270.2005
   3   2.0000      -9.928522      -270.1688
   4   2.0000      -9.911249      -269.6988
   5   2.0000      -9.910884      -269.6889
   6   2.0000      -9.903275      -269.4818
   7   2.0000      -0.935479       -25.4557
   8   2.0000      -0.836820       -22.7710
   9   2.0000      -0.692040       -18.8314
  10   2.0000      -0.653105       -17.7719
  11   2.0000      -0.596363       -16.2279
  12   2.0000      -0.568044       -15.4573
  13   2.0000      -0.478163       -13.0115
  14   2.0000      -0.460719       -12.5368
  15   2.0000      -0.450789       -12.2666
  16   2.0000      -0.437786       -11.9128
  17   2.0000      -0.383413       -10.4332
  18   2.0000      -0.376295       -10.2395
  19   2.0000      -0.373572       -10.1654
  20   2.0000      -0.361732        -9.8432
  21   2.0000      -0.342619        -9.3231
  22   2.0000      -0.333793        -9.0830
  23   2.0000      -0.320785        -8.7290
  24   2.0000      -0.312220        -8.4959
  25   2.0000      -0.256159        -6.9704
  26   2.0000      -0.197138        -5.3644
  27   2.0000      -0.166061        -4.5188
  28   0.0000       0.029007         0.7893
  29   0.0000       0.060558         1.6479
  30   0.0000       0.070068         1.9066
  31   0.0000       0.078049         2.1238
  32   0.0000       0.081476         2.2171

MULLIKEN ATOMIC CHARGES
-----------------------
   0 C :   -0.170432
   1 N :   -0.310644
   2 C :   -0.089176
   3 C :    0.023656
   4 O :   -0.345554
   5 C :    0.025292
   6 C :   -0.087077
   7 H :    0.107520
   8 H :    0.103881
   9 H :    0.073087
  10 H :    0.091868
  11 H :    0.066151
  12 H :    0.078500
  13 H :    0.094001
  14 H :    0.090466
  15 H :    0.068765
  16 H :    0.090747
  17 H :    0.088949
Sum of atomic charges:    0.0000000

LOEWDIN ATOMIC CHARGES
----------------------
   0 C :   -0.257625
   1 N :   -0.157527
   2 C :   -0.176589
   3 C :   -0.116686
   4 O :   -0.180236
   5 C :   -0.124734
   6 C :   -0.176553
   7 H :    0.113528
   8 H :    0.114593
   9 H :    0.087219
  10 H :    0.116686
  11 H :    0.095610
  12 H :    0.101219
  13 H :    0.116328
  14 H :    0.113365
  15 H :    0.096823
  16 H :    0.113744
  17 H :    0.120835

  Mayer bond orders larger than 0.100000
B(  0-C ,  1-N ) :   1.0463 B(  0-C ,  7-H ) :   0.9566 B(  0-C ,  8-H ) :   0.9540
B(  0-C ,  9-H ) :   0.9230 B(  1-N ,  2-C ) :   1.0461 B(  1-N ,  6-C ) :   1.0488
B(  2-C ,  3-C ) :   1.1471 B(  2-C , 10-H ) :   0.9142 B(  2-C , 11-H ) :   0.8831
B(  3-C ,  4-O ) :   1.0307 B(  3-C , 12-H ) :   0.9077 B(  3-C , 13-H ) :   0.9264
B(  4-O ,  5-C ) :   1.0255 B(  5-C ,  6-C ) :   1.1461 B(  5-C , 14-H ) :   0.9229
B(  5-C , 15-H ) :   0.9064 B(  6-C , 16-H ) :   0.9095 B(  6-C , 17-H ) :   0.9123

Dispersion correction           -0.015426312
FINAL SINGLE POINT ENERGY      -326.334001553875

DIPOLE MOMENT
-------------

Method             : SCF
Type of density    : Electron Density
Multiplicity       :   1
Irrep              :   0
Energy             :  -326.4070111553546667 Eh
Relativity type    :
Basis              : AO
                                X                 Y                 Z
Electronic contribution:     -3.850428625      -0.272338195      -1.034064805
Nuclear contribution   :      4.318046339       0.355145037       1.133608912
                        -----------------------------------------
Total Dipole Moment    :      0.467617714       0.082806842       0.099544106
                        -----------------------------------------
Magnitude (a.u.)       :      0.485213694
Magnitude (Debye)      :      1.233315196

Rotational constants in cm-1:             0.155919             0.079917             0.061357
Rotational constants in MHz :          4674.344764          2395.861964          1839.441541

                             ****ORCA TERMINATED NORMALLY****
TOTAL RUN TIME: 0 days 0 hours 0 minutes 22 seconds 859 msec
