                         Program Version 6.0.1  -  RELEASE   -
|  1> ! pbe def2-sv(p) def2/J RI DEFGRID1 loosescf d4 GCP(DFT/SV(P)) printgap
|  2> %output
|  3>     printlevel normal
|  4> end
|  5> * xyz 0 1
|  6> C -1.4241813606 -1.2090770797 0.0045974027
|  7> C -0.0515018881 -1.2097744711 0.0004642377
|  8> C 0.6420604664 1.48562e-05 -0.0004181566
|  9> C -0.0515159097 1.2097960163 0.0013262272
| 10> C -1.4241975189 1.2090448622 0.0054611025
| 11> C -2.137056215 -2.57353e-05 0.007104729
| 12> N -3.4942683781 2.70244e-05 -0.0285096015
| 13> N 2.0665294317 3.3732e-06 -0.0012371869
| 14> O 2.6375732258 1.0754315262 -0.0021519568
| 15> O 2.6375547134 -1.0754361564 -0.0002616733
| 16> H -1.9687647301 -2.1413380905 0.005235673
| 17> H 0.508127524 -2.1323663223 -0.000100418
| 18> H 0.5080511636 2.1324233332 0.0012972757
| 19> H -1.9688118976 2.1412872532 0.0069058319
| 20> H -3.9939042254 0.8601139635 0.1092434357
| 21> H -3.9938668222 -0.8602122446 0.1082353195
| 22> *
| 23>
| 24>                          ****END OF INPUT****

CARTESIAN COORDINATES (ANGSTROEM)
---------------------------------
  C     -1.424181   -1.209077    0.004597
  C     -0.051502   -1.209774    0.000464
  C      0.642060    0.000015   -0.000418
  C     -0.051516    1.209796    0.001326
  C     -1.424198    1.209045    0.005461
  C     -2.137056   -0.000026    0.007105
  N     -3.494268    0.000027   -0.028510
  N      2.066529    0.000003   -0.001237
  O      2.637573    1.075432   -0.002152
  O      2.637555   -1.075436   -0.000262
  H     -1.968765   -2.141338    0.005236
  H      0.508128   -2.132366   -0.000100
  H      0.508051    2.132423    0.001297
  H     -1.968812    2.141287    0.006906
  H     -3.993904    0.860114    0.109243
  H     -3.993867   -0.860212    0.108235

 Total Charge           Charge          ....    0
 Multiplicity           Mult            ....    1
 Number of Electrons    NEL             ....   72
 Basis Dimension        Dim             ....  152

ORBITAL ENERGIES
----------------

  NO   OCC          E(Eh)            E(eV)
   0   2.0000     -18.752266      -510.2751
   1   2.0000     -18.752246      -510.2746
   2   2.0000     -14.189444      -386.1144
   3   2.0000     -14.032250      -381.8369
   4   2.0000      -9.964225      -271.1404
   5   2.0000      -9.930122      -270.2124
   6   2.0000      -9.911559      -269.7072
   7   2.0000      -9.911532      -269.7065
   8   2.0000      -9.908849      -269.6335
   9   2.0000      -9.908841      -269.6333
  10   2.0000      -1.110680       -30.2231
  11   2.0000      -0.939884       -25.5756
  12   2.0000      -0.871363       -23.7110
  13   2.0000      -0.792412       -21.5626
  14   2.0000      -0.714617       -19.4457
  15   2.0000      -0.693040       -18.8586
  16   2.0000      -0.619542       -16.8586
  17   2.0000      -0.578862       -15.7516
  18   2.0000      -0.532110       -14.4795
  19   2.0000      -0.502112       -13.6632
  20   2.0000      -0.500646       -13.6233
  21   2.0000      -0.471402       -12.8275
  22   2.0000      -0.464464       -12.6387
  23   2.0000      -0.431544       -11.7429
  24   2.0000      -0.409858       -11.1528
  25   2.0000      -0.402875       -10.9628
  26   2.0000      -0.395816       -10.7707
  27   2.0000      -0.374295       -10.1851
  28   2.0000      -0.368888       -10.0380
  29   2.0000      -0.319261        -8.6875
  30   2.0000      -0.300914        -8.1883
  31   2.0000      -0.254431        -6.9234
  32   2.0000      -0.244863        -6.6631
  33   2.0000      -0.237100        -6.4518
  34   2.0000      -0.213686        -5.8147
  35   2.0000      -0.202296        -5.5048
  36   0.0000      -0.091775        -2.4973
  37   0.0000      -0.050923        -1.3857
  38   0.0000      -0.007496        -0.2040
  39   0.0000       0.010583         0.2880
  40   0.0000       0.044162         1.2017

MULLIKEN ATOMIC CHARGES
-----------------------
   0 C :   -0.129182
   1 C :   -0.133691
   2 C :    0.224345
   3 C :   -0.133699
   4 C :   -0.129195
   5 C :    0.199515
   6 N :   -0.310124
   7 N :    0.201733
   8 O :   -0.233954
   9 O :   -0.233956
  10 H :    0.036371
  11 H :    0.069206
  12 H :    0.069199
  13 H :    0.036371
  14 H :    0.233538
  15 H :    0.233523
Sum of atomic charges:    0.0000000

LOEWDIN ATOMIC CHARGES
----------------------
   0 C :   -0.155386
   1 C :   -0.096051
   2 C :   -0.075000
   3 C :   -0.096052
   4 C :   -0.155381
   5 C :    0.012753
   6 N :   -0.282198
   7 N :    0.249887
   8 O :   -0.204564
   9 O :   -0.204567
  10 H :    0.125313
  11 H :    0.142129
  12 H :    0.142128
  13 H :    0.125311
  14 H :    0.235843
  15 H :    0.235836

  Mayer bond orders larger than 0.100000
B(  0-C ,  1-C ) :   1.3735 B(  0-C ,  5-C ) :   1.2693 B(  0-C , 10-H ) :   0.9654
B(  1-C ,  2-C ) :   1.3346 B(  1-C , 11-H ) :   0.9484 B(  2-C ,  3-C ) :   1.3345
B(  2-C ,  7-N ) :   0.9072 B(  3-C ,  4-C ) :   1.3735 B(  3-C , 12-H ) :   0.9484
B(  4-C ,  5-C ) :   1.2693 B(  4-C , 13-H ) :   0.9654 B(  5-C ,  6-N ) :   1.3040
B(  6-N , 14-H ) :   0.8753 B(  6-N , 15-H ) :   0.8753 B(  7-N ,  8-O ) :   1.5310
B(  7-N ,  9-O ) :   1.5310 B(  8-O ,  9-O ) :   0.2788

Dispersion correction           -0.017123720
FINAL SINGLE POINT ENERGY      -491.135310714276

DIPOLE MOMENT
-------------

Method             : SCF
Type of density    : Electron Density
Multiplicity       :   1
Irrep              :   0
Energy             :  -491.1872929021387222 Eh
Relativity type    :
Basis              : AO
                                X                 Y                 Z
Electronic contribution:      7.220299423       0.000017200      -0.056103463
Nuclear contribution   :    -10.164422720      -0.000086314       0.216347055
                        -----------------------------------------
Total Dipole Moment    :     -2.944123297      -0.000069115       0.160243592
                        -----------------------------------------
Magnitude (a.u.)       :      2.948480965
Magnitude (Debye)      :      7.494443021

Rotational constants in cm-1:             0.132507             0.027976             0.023102
Rotational constants in MHz :          3972.461915           838.712029           692.572380

                             ****ORCA TERMINATED NORMALLY****
TOTAL RUN TIME: 0 days 0 hours 0 minutes 17 seconds 245 msec
