                         Program Version 6.0.0  -   RELEASE  -
|  1> ! r2SCAN-3c DEF2-TZVP FREQ
|  2> * xyzfile 0 1 censo.xyz
|  3>
|  4>                          ****END OF INPUT****

CARTESIAN COORDINATES (ANGSTROEM)
---------------------------------
  C     -0.691587   -1.206104    0.324604
  C      0.692908   -1.205342   -0.324474
  C      1.491189    0.022263    0.120137
  C      0.664217    1.275308    0.066035
  C     -0.665708    1.274547   -0.066005
  C     -1.491216    0.020578   -0.120142
  H     -0.573806   -1.184671    1.416262
  H     -1.237348   -2.122842    0.076979
  H      1.239715   -2.121437   -0.076772
  H      0.575106   -1.184130   -1.416135
  H      1.868662   -0.122394    1.143598
  H      2.383059    0.147640   -0.506750
  H      1.194487    2.224381    0.130112
  H     -1.197001    2.223038   -0.130054
  H     -2.383278    0.144937    0.506651
  H     -1.868425   -0.124571   -1.143618

 Total Charge           Charge          ....    0
 Multiplicity           Mult            ....    1
 Number of Electrons    NEL             ....   46
 Basis Dimension        Dim             ....  246

ORBITAL ENERGIES
----------------

  NO   OCC          E(Eh)            E(eV)
   0   2.0000     -10.027984      -272.8753
   1   2.0000     -10.027980      -272.8752
   2   2.0000     -10.024489      -272.7802
   3   2.0000     -10.024362      -272.7768
   4   2.0000     -10.023046      -272.7410
   5   2.0000     -10.022344      -272.7218
   6   2.0000      -0.796031       -21.6611
   7   2.0000      -0.705909       -19.2088
   8   2.0000      -0.703360       -19.1394
   9   2.0000      -0.583176       -15.8690
  10   2.0000      -0.563612       -15.3367
  11   2.0000      -0.476510       -12.9665
  12   2.0000      -0.458808       -12.4848
  13   2.0000      -0.412879       -11.2350
  14   2.0000      -0.393633       -10.7113
  15   2.0000      -0.373571       -10.1654
  16   2.0000      -0.356226        -9.6934
  17   2.0000      -0.347731        -9.4623
  18   2.0000      -0.346963        -9.4413
  19   2.0000      -0.296165        -8.0591
  20   2.0000      -0.284989        -7.7550
  21   2.0000      -0.273248        -7.4354
  22   2.0000      -0.216812        -5.8998
  23   0.0000      -0.004049        -0.1102
  24   0.0000       0.044692         1.2161
  25   0.0000       0.077513         2.1092
  26   0.0000       0.084051         2.2871
  27   0.0000       0.091984         2.5030

MULLIKEN ATOMIC CHARGES
-----------------------
   0 C :   -0.165750
   1 C :   -0.165752
   2 C :   -0.086178
   3 C :   -0.193137
   4 C :   -0.193131
   5 C :   -0.086164
   6 H :    0.081297
   7 H :    0.089543
   8 H :    0.089542
   9 H :    0.081297
  10 H :    0.083320
  11 H :    0.089532
  12 H :    0.101365
  13 H :    0.101367
  14 H :    0.089529
  15 H :    0.083320
Sum of atomic charges:    0.0000000

LOEWDIN ATOMIC CHARGES
----------------------
   0 C :   -0.253987
   1 C :   -0.253994
   2 C :   -0.252976
   3 C :   -0.178930
   4 C :   -0.178938
   5 C :   -0.252977
   6 H :    0.137285
   7 H :    0.131032
   8 H :    0.131032
   9 H :    0.137285
  10 H :    0.141176
  11 H :    0.139406
  12 H :    0.137001
  13 H :    0.137003
  14 H :    0.139406
  15 H :    0.141177

  Mayer bond orders larger than 0.100000
B(  0-C ,  1-C ) :   0.9664 B(  0-C ,  5-C ) :   1.0050 B(  0-C ,  6-H ) :   0.9707
B(  0-C ,  7-H ) :   0.9676 B(  1-C ,  2-C ) :   1.0050 B(  1-C ,  8-H ) :   0.9676
B(  1-C ,  9-H ) :   0.9707 B(  2-C ,  3-C ) :   0.9795 B(  2-C , 10-H ) :   0.9430
B(  2-C , 11-H ) :   0.9560 B(  3-C ,  4-C ) :   1.9156 B(  3-C , 12-H ) :   0.9642
B(  4-C ,  5-C ) :   0.9795 B(  4-C , 13-H ) :   0.9642 B(  5-C , 14-H ) :   0.9560
B(  5-C , 15-H ) :   0.9430

Dispersion correction           -0.004251640
FINAL SINGLE POINT ENERGY      -234.584989744903

DIPOLE MOMENT
-------------

Method             : SCF
Type of density    : Electron Density
Multiplicity       :   1
Irrep              :   0
Energy             :  -234.5863796655737588 Eh
Relativity type    :
Basis              : AO
                                X                 Y                 Z
Electronic contribution:     -0.001159137       1.849988941      -0.000019089
Nuclear contribution   :      0.001233217      -1.993546323       0.000014096
                        -----------------------------------------
Total Dipole Moment    :      0.000074080      -0.143557382      -0.000004993
                        -----------------------------------------
Magnitude (a.u.)       :      0.143557401
Magnitude (Debye)      :      0.364893915

VIBRATIONAL FREQUENCIES
-----------------------

Scaling factor for frequencies =  1.000000000  (already applied!)

     0:       0.00 cm**-1
     1:       0.00 cm**-1
     2:       0.00 cm**-1
     3:       0.00 cm**-1
     4:       0.00 cm**-1
     5:       0.00 cm**-1
     6:     170.59 cm**-1
     7:     282.98 cm**-1
     8:     404.38 cm**-1
     9:     456.55 cm**-1
    10:     503.17 cm**-1
    11:     652.61 cm**-1
    12:     731.21 cm**-1
    13:     823.24 cm**-1
    14:     830.75 cm**-1
    15:     886.38 cm**-1
    16:     911.92 cm**-1
    17:     929.41 cm**-1
    18:     990.34 cm**-1
    19:    1026.51 cm**-1
    20:    1049.03 cm**-1
    21:    1071.92 cm**-1
    22:    1092.36 cm**-1
    23:    1157.01 cm**-1
    24:    1157.73 cm**-1
    25:    1246.48 cm**-1
    26:    1267.20 cm**-1
    27:    1293.50 cm**-1
    28:    1344.64 cm**-1
    29:    1360.27 cm**-1
    30:    1364.24 cm**-1
    31:    1374.30 cm**-1
    32:    1417.66 cm**-1
    33:    1460.61 cm**-1
    34:    1467.43 cm**-1
    35:    1482.07 cm**-1
    36:    1489.62 cm**-1
    37:    1689.53 cm**-1
    38:    2977.28 cm**-1
    39:    2977.49 cm**-1
    40:    2994.84 cm**-1
    41:    3000.79 cm**-1
    42:    3025.94 cm**-1
    43:    3026.06 cm**-1
    44:    3054.25 cm**-1
    45:    3057.85 cm**-1
    46:    3112.91 cm**-1
    47:    3135.98 cm**-1

IR SPECTRUM
-----------

 Mode   freq       eps      Int      T**2         TX        TY        TZ
       cm**-1   L/(mol*cm) km/mol    a.u.
----------------------------------------------------------------------------
  6:    170.59   0.000053    0.27  0.000098  (-0.008345 -0.000004  0.005308)
  7:    282.98   0.000012    0.06  0.000013  (-0.000002  0.003622 -0.000002)
  8:    404.38   0.000003    0.02  0.000003  (-0.000001  0.001582  0.000001)
  9:    456.55   0.000252    1.27  0.000172  (-0.003349 -0.000002 -0.012687)
 10:    503.17   0.000006    0.03  0.000004  ( 0.000000  0.001913  0.000004)
 11:    652.61   0.005683   28.72  0.002718  (-0.001349 -0.000000  0.052113)
 12:    731.21   0.001811    9.15  0.000773  ( 0.002683 -0.000000  0.027672)
 13:    823.24   0.000209    1.06  0.000079  (-0.000008  0.008901 -0.000003)
 14:    830.75   0.000007    0.03  0.000003  ( 0.000004  0.001609 -0.000004)
 15:    886.38   0.001367    6.91  0.000481  ( 0.021446  0.000018 -0.004618)
 16:    911.92   0.000242    1.22  0.000083  (-0.000016  0.009106  0.000006)
 17:    929.41   0.001136    5.74  0.000381  ( 0.004674  0.000001  0.018960)
 18:    990.34   0.000001    0.00  0.000000  ( 0.000002 -0.000548  0.000006)
 19:   1026.51   0.000294    1.49  0.000089  (-0.007771 -0.000005 -0.005383)
 20:   1049.03   0.001125    5.68  0.000335  ( 0.017788  0.000008  0.004270)
 21:   1071.92   0.000020    0.10  0.000006  (-0.000003  0.002432 -0.000001)
 22:   1092.36   0.000000    0.00  0.000000  (-0.000001 -0.000162  0.000000)
 23:   1157.01   0.000004    0.02  0.000001  (-0.000003  0.000996  0.000009)
 24:   1157.73   0.001253    6.33  0.000338  (-0.008881 -0.000005  0.016086)
 25:   1246.48   0.000017    0.09  0.000004  ( 0.000001 -0.002083 -0.000000)
 26:   1267.20   0.000078    0.39  0.000019  ( 0.000005 -0.004378 -0.000001)
 27:   1293.50   0.000423    2.14  0.000102  ( 0.008541  0.000004 -0.005394)
 28:   1344.64   0.000324    1.64  0.000075  ( 0.008666  0.000004 -0.000088)
 29:   1360.27   0.000215    1.09  0.000049  (-0.006990  0.000001 -0.000713)
 30:   1364.24   0.000078    0.40  0.000018  ( 0.000008  0.004231 -0.000000)
 31:   1374.30   0.000000    0.00  0.000000  (-0.000000  0.000218 -0.000001)
 32:   1417.66   0.000027    0.14  0.000006  ( 0.002016  0.000000  0.001361)
 33:   1460.61   0.000001    0.00  0.000000  ( 0.000018 -0.000356  0.000007)
 34:   1467.43   0.002130   10.77  0.000453  (-0.020348 -0.000013 -0.006242)
 35:   1482.07   0.001229    6.21  0.000259  (-0.002889 -0.000002  0.015825)
 36:   1489.62   0.000621    3.14  0.000130  (-0.000009  0.011406  0.000000)
 37:   1689.53   0.000976    4.93  0.000180  (-0.000008  0.013427  0.000000)
 38:   2977.28   0.000899    4.54  0.000094  ( 0.008315 -0.001574  0.004753)
 39:   2977.49   0.012093   61.11  0.001267  ( 0.030913  0.000447  0.017653)
 40:   2994.84   0.003791   19.16  0.000395  (-0.000011  0.019875  0.000024)
 41:   3000.79   0.004632   23.41  0.000482  (-0.001120 -0.000036  0.021919)
 42:   3025.94   0.004007   20.25  0.000413  ( 0.015602 -0.002948 -0.012695)
 43:   3026.06   0.012468   63.01  0.001286  ( 0.027808  0.001664 -0.022576)
 44:   3054.25   0.010982   55.50  0.001122  (-0.000056  0.033498 -0.000070)
 45:   3057.85   0.010389   52.50  0.001060  (-0.016628 -0.000089 -0.027996)
 46:   3112.91   0.001910    9.65  0.000191  ( 0.013777  0.000066  0.001285)
 47:   3135.98   0.008080   40.83  0.000804  (-0.000044  0.028356 -0.000003)

--------------------------
THERMOCHEMISTRY AT 298.15K
--------------------------

Temperature         ...   298.15 K
Pressure            ...     1.00 atm
Total Mass          ...    82.15 AMU
Quasi RRHO          ...     True
Cut-Off Frequency   ...     1.00 cm^-1

Throughout the following assumptions are being made:
  (1) The electronic state is orbitally nondegenerate
  (2) There are no thermally accessible electronically excited states
  (3) Hindered rotations indicated by low frequency modes are not
      treated as such but are treated as vibrations and this may
      cause some error
  (4) All equations used are the standard statistical mechanics
      equations for an ideal gas
  (5) All vibrations are strictly harmonic

freq.     170.59  E(vib)   ...       0.38
freq.     282.98  E(vib)   ...       0.28
freq.     404.38  E(vib)   ...       0.19
freq.     456.55  E(vib)   ...       0.16
freq.     503.17  E(vib)   ...       0.14
freq.     652.61  E(vib)   ...       0.08
freq.     731.21  E(vib)   ...       0.06
freq.     823.24  E(vib)   ...       0.05
freq.     830.75  E(vib)   ...       0.04
freq.     886.38  E(vib)   ...       0.04
freq.     911.92  E(vib)   ...       0.03
freq.     929.41  E(vib)   ...       0.03
freq.     990.34  E(vib)   ...       0.02
freq.    1026.51  E(vib)   ...       0.02
freq.    1049.03  E(vib)   ...       0.02
freq.    1071.92  E(vib)   ...       0.02
freq.    1092.36  E(vib)   ...       0.02
freq.    1157.01  E(vib)   ...       0.01
freq.    1157.73  E(vib)   ...       0.01
freq.    1246.48  E(vib)   ...       0.01
freq.    1267.20  E(vib)   ...       0.01
freq.    1293.50  E(vib)   ...       0.01
freq.    1344.64  E(vib)   ...       0.01
freq.    1360.27  E(vib)   ...       0.01
freq.    1364.24  E(vib)   ...       0.01
freq.    1374.30  E(vib)   ...       0.01
freq.    1417.66  E(vib)   ...       0.00
freq.    1460.61  E(vib)   ...       0.00
freq.    1467.43  E(vib)   ...       0.00
freq.    1482.07  E(vib)   ...       0.00
freq.    1489.62  E(vib)   ...       0.00
freq.    1689.53  E(vib)   ...       0.00
freq.    2977.28  E(vib)   ...       0.00
freq.    2977.49  E(vib)   ...       0.00
freq.    2994.84  E(vib)   ...       0.00
freq.    3000.79  E(vib)   ...       0.00
freq.    3025.94  E(vib)   ...       0.00
freq.    3026.06  E(vib)   ...       0.00
freq.    3054.25  E(vib)   ...       0.00
freq.    3057.85  E(vib)   ...       0.00
freq.    3112.91  E(vib)   ...       0.00
freq.    3135.98  E(vib)   ...       0.00

------------
INNER ENERGY
------------

The inner energy is: U= E(el) + E(ZPE) + E(vib) + E(rot) + E(trans)
    E(el)   - is the total energy from the electronic structure calculation
              = E(kin-el) + E(nuc-el) + E(el-el) + E(nuc-nuc)
    E(ZPE)  - the the zero temperature vibrational energy from the frequency calculation
    E(vib)  - the the finite temperature correction to E(ZPE) due to population
              of excited vibrational states
    E(rot)  - is the rotational thermal energy
    E(trans)- is the translational thermal energy

Summary of contributions to the inner energy U:
Electronic energy                ...   -234.58498974 Eh
Zero point energy                ...      0.14523100 Eh      91.13 kcal/mol
Thermal vibrational correction   ...      0.00266752 Eh       1.67 kcal/mol
Thermal rotational correction    ...      0.00141627 Eh       0.89 kcal/mol
Thermal translational correction ...      0.00141627 Eh       0.89 kcal/mol
-----------------------------------------------------------------------
Total thermal energy                   -234.43425867 Eh

Summary of corrections to the electronic energy:
(perhaps to be used in another calculation)
Total thermal correction                  0.00550007 Eh       3.45 kcal/mol
Non-thermal (ZPE) correction              0.14523100 Eh      91.13 kcal/mol
-----------------------------------------------------------------------
Total correction                          0.15073107 Eh      94.58 kcal/mol

--------
ENTHALPY
--------

The enthalpy is H = U + kB*T
                kB is Boltzmann's constant
Total thermal energy              ...   -234.43425867 Eh
Thermal Enthalpy correction       ...      0.00094421 Eh       0.59 kcal/mol
-----------------------------------------------------------------------
Total Enthalpy                    ...   -234.43331447 Eh

Note: Only C1 symmetry has been detected, increase convergence thresholds
      if your molecule has a higher symmetry. Symmetry factor of 1.0 is
      used for the rotational entropy correction.

Note: Rotational entropy computed according to Herzberg
Infrared and Raman Spectra, Chapter V,1, Van Nostrand Reinhold, 1945
Point Group:  C1, Symmetry Number:   1
Rotational constants in cm-1:     0.158804     0.152001     0.085741

Vibrational entropy computed according to the QRRHO of S. Grimme
Chem.Eur.J. 2012 18 9955 using a reference frequency of 100.0 cm-1

-------
ENTROPY
-------

The entropy contributions are T*S = T*(S(el)+S(vib)+S(rot)+S(trans))
     S(el)   - electronic entropy
     S(vib)  - vibrational entropy
     S(rot)  - rotational entropy
     S(trans)- translational entropy
The entropies will be listed as multiplied by the temperature to get
units of energy

Electronic entropy                ...      0.00000000 Eh      0.00 kcal/mol
Vibrational entropy               ...      0.00402769 Eh      2.53 kcal/mol
Rotational entropy                ...      0.01242850 Eh      7.80 kcal/mol
Translational entropy             ...      0.01859270 Eh     11.67 kcal/mol
-----------------------------------------------------------------------
Final entropy term                ...      0.03504889 Eh     21.99 kcal/mol

In case the symmetry of your molecule has not been determined correctly
or in case you have a reason to use a different symmetry number we print
out the resulting rotational entropy values for sn=1,12:

 non-linear molecules -----------------------------------
|  sn= 1 | S(rot)=       0.01242850 Eh      7.80 kcal/mol|
|  sn= 2 | S(rot)=       0.01177405 Eh      7.39 kcal/mol|
|  sn= 3 | S(rot)=       0.01139122 Eh      7.15 kcal/mol|
|  sn= 4 | S(rot)=       0.01111959 Eh      6.98 kcal/mol|
|  sn= 5 | S(rot)=       0.01090890 Eh      6.85 kcal/mol|
|  sn= 6 | S(rot)=       0.01073676 Eh      6.74 kcal/mol|
|  sn= 7 | S(rot)=       0.01059121 Eh      6.65 kcal/mol|
|  sn= 8 | S(rot)=       0.01046513 Eh      6.57 kcal/mol|
|  sn= 9 | S(rot)=       0.01035393 Eh      6.50 kcal/mol|
|  sn=10 | S(rot)=       0.01025445 Eh      6.43 kcal/mol|
|  sn=11 | S(rot)=       0.01016446 Eh      6.38 kcal/mol|
|  sn=12 | S(rot)=       0.01008230 Eh      6.33 kcal/mol|
 linear molecules ---------------------------------------
|  Dinfh | S(rot)=       0.00764511 Eh      4.80 kcal/mol|
|  Cinfv | S(rot)=       0.00829957 Eh      5.21 kcal/mol|
 --------------------------------------------------------

                             ****ORCA TERMINATED NORMALLY****
TOTAL RUN TIME: 0 days 0 hours 9 minutes 22 seconds 712 msec
