                         Program Version 6.0.0  -   RELEASE  -
|  1> ! r2SCAN-3c DEF2-TZVP FREQ
|  2> * xyzfile 0 1 vacuum_censo.xyz
|  3>
|  4>                          ****END OF INPUT****

CARTESIAN COORDINATES (ANGSTROEM)
---------------------------------
  C     -0.693217   -1.205146    0.325029
  C      0.691108   -1.206372   -0.325153
  C      1.490936    0.020300    0.120642
  C      0.664892    1.274112    0.065659
  C     -0.662716    1.275274   -0.065597
  C     -1.490920    0.022971   -0.120651
  H     -0.575404   -1.181319    1.416406
  H     -1.239736   -2.122435    0.080508
  H      1.236040   -2.124628   -0.080685
  H      0.573366   -1.182218   -1.416530
  H      1.867089   -0.125525    1.144676
  H      2.383428    0.141915   -0.506328
  H      1.194985    2.222412    0.129439
  H     -1.191051    2.224523   -0.129362
  H     -2.383138    0.146072    0.506364
  H     -1.867371   -0.122130   -1.144644

 Total Charge           Charge          ....    0
 Multiplicity           Mult            ....    1
 Number of Electrons    NEL             ....   46
 Basis Dimension        Dim             ....  246

ORBITAL ENERGIES
----------------

  NO   OCC          E(Eh)            E(eV)
   0   2.0000     -10.028018      -272.8762
   1   2.0000     -10.028012      -272.8761
   2   2.0000     -10.024458      -272.7794
   3   2.0000     -10.024332      -272.7759
   4   2.0000     -10.022694      -272.7314
   5   2.0000     -10.021976      -272.7118
   6   2.0000      -0.796125       -21.6637
   7   2.0000      -0.705741       -19.2042
   8   2.0000      -0.703619       -19.1465
   9   2.0000      -0.583287       -15.8720
  10   2.0000      -0.563536       -15.3346
  11   2.0000      -0.476539       -12.9673
  12   2.0000      -0.458981       -12.4895
  13   2.0000      -0.412681       -11.2296
  14   2.0000      -0.393663       -10.7121
  15   2.0000      -0.373647       -10.1675
  16   2.0000      -0.356399        -9.6981
  17   2.0000      -0.347606        -9.4588
  18   2.0000      -0.346890        -9.4394
  19   2.0000      -0.296221        -8.0606
  20   2.0000      -0.284774        -7.7491
  21   2.0000      -0.273186        -7.4338
  22   2.0000      -0.217233        -5.9112
  23   0.0000      -0.003703        -0.1008
  24   0.0000       0.044772         1.2183
  25   0.0000       0.077606         2.1118
  26   0.0000       0.084022         2.2863
  27   0.0000       0.092050         2.5048

MULLIKEN ATOMIC CHARGES
-----------------------
   0 C :   -0.166072
   1 C :   -0.166060
   2 C :   -0.086425
   3 C :   -0.192546
   4 C :   -0.192561
   5 C :   -0.086372
   6 H :    0.081234
   7 H :    0.089665
   8 H :    0.089664
   9 H :    0.081229
  10 H :    0.083325
  11 H :    0.089528
  12 H :    0.101270
  13 H :    0.101268
  14 H :    0.089526
  15 H :    0.083326
Sum of atomic charges:   -0.0000000

LOEWDIN ATOMIC CHARGES
----------------------
   0 C :   -0.253961
   1 C :   -0.253974
   2 C :   -0.252573
   3 C :   -0.179133
   4 C :   -0.179151
   5 C :   -0.252568
   6 H :    0.137224
   7 H :    0.130908
   8 H :    0.130910
   9 H :    0.137224
  10 H :    0.141156
  11 H :    0.139331
  12 H :    0.137058
  13 H :    0.137058
  14 H :    0.139333
  15 H :    0.141156

  Mayer bond orders larger than 0.100000
B(  0-C ,  1-C ) :   0.9664 B(  0-C ,  5-C ) :   1.0049 B(  0-C ,  6-H ) :   0.9709
B(  0-C ,  7-H ) :   0.9675 B(  1-C ,  2-C ) :   1.0049 B(  1-C ,  8-H ) :   0.9675
B(  1-C ,  9-H ) :   0.9709 B(  2-C ,  3-C ) :   0.9795 B(  2-C , 10-H ) :   0.9431
B(  2-C , 11-H ) :   0.9561 B(  3-C ,  4-C ) :   1.9170 B(  3-C , 12-H ) :   0.9642
B(  4-C ,  5-C ) :   0.9795 B(  4-C , 13-H ) :   0.9642 B(  5-C , 14-H ) :   0.9561
B(  5-C , 15-H ) :   0.9431

Dispersion correction           -0.004252301
FINAL SINGLE POINT ENERGY      -234.585006923129

DIPOLE MOMENT
-------------

Method             : SCF
Type of density    : Electron Density
Multiplicity       :   1
Irrep              :   0
Energy             :  -234.5863957937879718 Eh
Relativity type    :
Basis              : AO
                                X                 Y                 Z
Electronic contribution:      0.001428817       1.853800879       0.000012320
Nuclear contribution   :     -0.001589627      -1.996097591      -0.000032387
                        -----------------------------------------
Total Dipole Moment    :     -0.000160810      -0.142296712      -0.000020067
                        -----------------------------------------
Magnitude (a.u.)       :      0.142296804
Magnitude (Debye)      :      0.361689733

VIBRATIONAL FREQUENCIES
-----------------------

Scaling factor for frequencies =  1.000000000  (already applied!)

     0:       0.00 cm**-1
     1:       0.00 cm**-1
     2:       0.00 cm**-1
     3:       0.00 cm**-1
     4:       0.00 cm**-1
     5:       0.00 cm**-1
     6:     171.77 cm**-1
     7:     282.69 cm**-1
     8:     403.72 cm**-1
     9:     456.36 cm**-1
    10:     502.90 cm**-1
    11:     650.46 cm**-1
    12:     729.83 cm**-1
    13:     823.12 cm**-1
    14:     830.88 cm**-1
    15:     885.39 cm**-1
    16:     911.99 cm**-1
    17:     929.22 cm**-1
    18:     988.92 cm**-1
    19:    1026.50 cm**-1
    20:    1048.06 cm**-1
    21:    1071.07 cm**-1
    22:    1092.54 cm**-1
    23:    1156.60 cm**-1
    24:    1157.44 cm**-1
    25:    1246.89 cm**-1
    26:    1267.07 cm**-1
    27:    1293.33 cm**-1
    28:    1344.46 cm**-1
    29:    1359.88 cm**-1
    30:    1363.61 cm**-1
    31:    1374.30 cm**-1
    32:    1417.00 cm**-1
    33:    1460.94 cm**-1
    34:    1467.65 cm**-1
    35:    1482.23 cm**-1
    36:    1489.69 cm**-1
    37:    1698.13 cm**-1
    38:    2975.48 cm**-1
    39:    2975.80 cm**-1
    40:    2996.33 cm**-1
    41:    3001.50 cm**-1
    42:    3025.03 cm**-1
    43:    3025.27 cm**-1
    44:    3053.36 cm**-1
    45:    3057.68 cm**-1
    46:    3119.67 cm**-1
    47:    3142.96 cm**-1

IR SPECTRUM
-----------

 Mode   freq       eps      Int      T**2         TX        TY        TZ
       cm**-1   L/(mol*cm) km/mol    a.u.
----------------------------------------------------------------------------
  6:    171.77   0.000050    0.25  0.000090  (-0.008234  0.000009  0.004748)
  7:    282.69   0.000012    0.06  0.000014  ( 0.000004  0.003680 -0.000004)
  8:    403.72   0.000003    0.01  0.000002  ( 0.000002  0.001494  0.000006)
  9:    456.36   0.000252    1.27  0.000172  (-0.003441  0.000003 -0.012669)
 10:    502.90   0.000006    0.03  0.000004  ( 0.000001  0.001924  0.000001)
 11:    650.46   0.005796   29.29  0.002781  ( 0.001479 -0.000004 -0.052710)
 12:    729.83   0.001716    8.67  0.000734  ( 0.002716 -0.000003  0.026952)
 13:    823.12   0.000207    1.05  0.000079  ( 0.000001  0.008864 -0.000005)
 14:    830.88   0.000012    0.06  0.000004  ( 0.000004  0.002086 -0.000005)
 15:    885.39   0.001362    6.88  0.000480  ( 0.021416 -0.000005 -0.004615)
 16:    911.99   0.000240    1.21  0.000082  (-0.000024  0.009056  0.000014)
 17:    929.22   0.001116    5.64  0.000375  ( 0.004742 -0.000005  0.018768)
 18:    988.92   0.000001    0.00  0.000000  ( 0.000004 -0.000554  0.000016)
 19:   1026.50   0.000297    1.50  0.000090  ( 0.007780 -0.000009  0.005458)
 20:   1048.06   0.001115    5.64  0.000332  ( 0.017728 -0.000019  0.004220)
 21:   1071.07   0.000021    0.11  0.000006  ( 0.000015  0.002472  0.000003)
 22:   1092.54   0.000000    0.00  0.000000  (-0.000004 -0.000124  0.000003)
 23:   1156.60   0.000005    0.02  0.000001  ( 0.000018  0.001145 -0.000031)
 24:   1157.44   0.001239    6.26  0.000334  (-0.008836  0.000008  0.016001)
 25:   1246.89   0.000015    0.08  0.000004  (-0.000005 -0.001937  0.000000)
 26:   1267.07   0.000079    0.40  0.000020  (-0.000013 -0.004417  0.000002)
 27:   1293.33   0.000418    2.11  0.000101  ( 0.008490 -0.000011 -0.005359)
 28:   1344.46   0.000322    1.63  0.000075  ( 0.008639 -0.000007 -0.000057)
 29:   1359.88   0.000223    1.13  0.000051  (-0.007114  0.000009 -0.000727)
 30:   1363.61   0.000074    0.37  0.000017  ( 0.000008  0.004109 -0.000000)
 31:   1374.30   0.000000    0.00  0.000000  ( 0.000005  0.000337  0.000001)
 32:   1417.00   0.000025    0.13  0.000005  ( 0.001935 -0.000002  0.001314)
 33:   1460.94   0.000001    0.00  0.000000  ( 0.000054 -0.000435  0.000017)
 34:   1467.65   0.002109   10.66  0.000448  (-0.020239  0.000012 -0.006230)
 35:   1482.23   0.001243    6.28  0.000262  (-0.002796  0.000005  0.015935)
 36:   1489.69   0.000607    3.07  0.000127  ( 0.000004  0.011273 -0.000006)
 37:   1698.13   0.000988    4.99  0.000182  ( 0.000014  0.013475  0.000000)
 38:   2975.48   0.002985   15.09  0.000313  ( 0.015203 -0.001090  0.008986)
 39:   2975.80   0.010133   51.21  0.001063  ( 0.028078  0.000566  0.016551)
 40:   2996.33   0.003952   19.97  0.000412  ( 0.000024  0.020288  0.000040)
 41:   3001.50   0.004082   20.63  0.000424  (-0.001341 -0.000075  0.020558)
 42:   3025.03   0.007502   37.91  0.000774  ( 0.021596 -0.002955 -0.017287)
 43:   3025.27   0.009308   47.04  0.000960  ( 0.024143  0.002575 -0.019250)
 44:   3053.36   0.010794   54.55  0.001103  (-0.000050  0.033213 -0.000165)
 45:   3057.68   0.010622   53.68  0.001084  (-0.016101 -0.000173 -0.028718)
 46:   3119.67   0.001878    9.49  0.000188  ( 0.013637  0.000136  0.001371)
 47:   3142.96   0.008091   40.89  0.000803  (-0.000047  0.028343 -0.000007)

--------------------------
THERMOCHEMISTRY AT 298.15K
--------------------------

Temperature         ...   298.15 K
Pressure            ...     1.00 atm
Total Mass          ...    82.15 AMU
Quasi RRHO          ...     True
Cut-Off Frequency   ...     1.00 cm^-1

Throughout the following assumptions are being made:
  (1) The electronic state is orbitally nondegenerate
  (2) There are no thermally accessible electronically excited states
  (3) Hindered rotations indicated by low frequency modes are not
      treated as such but are treated as vibrations and this may
      cause some error
  (4) All equations used are the standard statistical mechanics
      equations for an ideal gas
  (5) All vibrations are strictly harmonic

freq.     171.77  E(vib)   ...       0.38
freq.     282.69  E(vib)   ...       0.28
freq.     403.72  E(vib)   ...       0.19
freq.     456.36  E(vib)   ...       0.16
freq.     502.90  E(vib)   ...       0.14
freq.     650.46  E(vib)   ...       0.08
freq.     729.83  E(vib)   ...       0.06
freq.     823.12  E(vib)   ...       0.05
freq.     830.88  E(vib)   ...       0.04
freq.     885.39  E(vib)   ...       0.04
freq.     911.99  E(vib)   ...       0.03
freq.     929.22  E(vib)   ...       0.03
freq.     988.92  E(vib)   ...       0.02
freq.    1026.50  E(vib)   ...       0.02
freq.    1048.06  E(vib)   ...       0.02
freq.    1071.07  E(vib)   ...       0.02
freq.    1092.54  E(vib)   ...       0.02
freq.    1156.60  E(vib)   ...       0.01
freq.    1157.44  E(vib)   ...       0.01
freq.    1246.89  E(vib)   ...       0.01
freq.    1267.07  E(vib)   ...       0.01
freq.    1293.33  E(vib)   ...       0.01
freq.    1344.46  E(vib)   ...       0.01
freq.    1359.88  E(vib)   ...       0.01
freq.    1363.61  E(vib)   ...       0.01
freq.    1374.30  E(vib)   ...       0.01
freq.    1417.00  E(vib)   ...       0.00
freq.    1460.94  E(vib)   ...       0.00
freq.    1467.65  E(vib)   ...       0.00
freq.    1482.23  E(vib)   ...       0.00
freq.    1489.69  E(vib)   ...       0.00
freq.    1698.13  E(vib)   ...       0.00
freq.    2975.48  E(vib)   ...       0.00
freq.    2975.80  E(vib)   ...       0.00
freq.    2996.33  E(vib)   ...       0.00
freq.    3001.50  E(vib)   ...       0.00
freq.    3025.03  E(vib)   ...       0.00
freq.    3025.27  E(vib)   ...       0.00
freq.    3053.36  E(vib)   ...       0.00
freq.    3057.68  E(vib)   ...       0.00
freq.    3119.67  E(vib)   ...       0.00
freq.    3142.96  E(vib)   ...       0.00

------------
INNER ENERGY
------------

The inner energy is: U= E(el) + E(ZPE) + E(vib) + E(rot) + E(trans)
    E(el)   - is the total energy from the electronic structure calculation
              = E(kin-el) + E(nuc-el) + E(el-el) + E(nuc-nuc)
    E(ZPE)  - the the zero temperature vibrational energy from the frequency calculation
    E(vib)  - the the finite temperature correction to E(ZPE) due to population
              of excited vibrational states
    E(rot)  - is the rotational thermal energy
    E(trans)- is the translational thermal energy

Summary of contributions to the inner energy U:
Electronic energy                ...   -234.58500692 Eh
Zero point energy                ...      0.14525071 Eh      91.15 kcal/mol
Thermal vibrational correction   ...      0.00266910 Eh       1.67 kcal/mol
Thermal rotational correction    ...      0.00141627 Eh       0.89 kcal/mol
Thermal translational correction ...      0.00141627 Eh       0.89 kcal/mol
-----------------------------------------------------------------------
Total thermal energy                   -234.43425458 Eh

Summary of corrections to the electronic energy:
(perhaps to be used in another calculation)
Total thermal correction                  0.00550164 Eh       3.45 kcal/mol
Non-thermal (ZPE) correction              0.14525071 Eh      91.15 kcal/mol
-----------------------------------------------------------------------
Total correction                          0.15075235 Eh      94.60 kcal/mol

--------
ENTHALPY
--------

The enthalpy is H = U + kB*T
                kB is Boltzmann's constant
Total thermal energy              ...   -234.43425458 Eh
Thermal Enthalpy correction       ...      0.00094421 Eh       0.59 kcal/mol
-----------------------------------------------------------------------
Total Enthalpy                    ...   -234.43331037 Eh

Note: Rotational entropy computed according to Herzberg
Infrared and Raman Spectra, Chapter V,1, Van Nostrand Reinhold, 1945
Point Group:  C2, Symmetry Number:   2
Rotational constants in cm-1:     0.158803     0.152094     0.085785

Vibrational entropy computed according to the QRRHO of S. Grimme
Chem.Eur.J. 2012 18 9955 using a reference frequency of 100.0 cm-1

-------
ENTROPY
-------

The entropy contributions are T*S = T*(S(el)+S(vib)+S(rot)+S(trans))
     S(el)   - electronic entropy
     S(vib)  - vibrational entropy
     S(rot)  - rotational entropy
     S(trans)- translational entropy
The entropies will be listed as multiplied by the temperature to get
units of energy

Electronic entropy                ...      0.00000000 Eh      0.00 kcal/mol
Vibrational entropy               ...      0.00402752 Eh      2.53 kcal/mol
Rotational entropy                ...      0.01177352 Eh      7.39 kcal/mol
Translational entropy             ...      0.01859270 Eh     11.67 kcal/mol
-----------------------------------------------------------------------
Final entropy term                ...      0.03439374 Eh     21.58 kcal/mol

In case the symmetry of your molecule has not been determined correctly
or in case you have a reason to use a different symmetry number we print
out the resulting rotational entropy values for sn=1,12:

 non-linear molecules -----------------------------------
|  sn= 1 | S(rot)=       0.01242798 Eh      7.80 kcal/mol|
|  sn= 2 | S(rot)=       0.01177352 Eh      7.39 kcal/mol|
|  sn= 3 | S(rot)=       0.01139069 Eh      7.15 kcal/mol|
|  sn= 4 | S(rot)=       0.01111906 Eh      6.98 kcal/mol|
|  sn= 5 | S(rot)=       0.01090838 Eh      6.85 kcal/mol|
|  sn= 6 | S(rot)=       0.01073623 Eh      6.74 kcal/mol|
|  sn= 7 | S(rot)=       0.01059069 Eh      6.65 kcal/mol|
|  sn= 8 | S(rot)=       0.01046461 Eh      6.57 kcal/mol|
|  sn= 9 | S(rot)=       0.01035340 Eh      6.50 kcal/mol|
|  sn=10 | S(rot)=       0.01025392 Eh      6.43 kcal/mol|
|  sn=11 | S(rot)=       0.01016393 Eh      6.38 kcal/mol|
|  sn=12 | S(rot)=       0.01008178 Eh      6.33 kcal/mol|
 linear molecules ---------------------------------------
|  Dinfh | S(rot)=       0.00764463 Eh      4.80 kcal/mol|
|  Cinfv | S(rot)=       0.00829908 Eh      5.21 kcal/mol|
 --------------------------------------------------------

-------------------
GIBBS FREE ENERGY
-------------------

The Gibbs free energy is G = H - T*S

                             ****ORCA TERMINATED NORMALLY****
TOTAL RUN TIME: 0 days 0 hours 9 minutes 20 seconds 591 msec
