                         Program Version 6.0.1  -  RELEASE   -
|  1> ! pbe def2-sv(p) def2/J RI DEFGRID1 loosescf d4 GCP(DFT/SV(P)) printgap
|  2> %output
|  3>     printlevel normal
|  4> end
|  5> * xyz 0 1
|  6> C -2.497370008 -0.434679138 -0.2946761735
|  7> C -1.1005614453 -0.184407215 0.2814544872
|  8> H -1.1053078527 -0.4282286164 1.3561254146
|  9> C -0.6444580511 1.2846624436 0.1088976098
| 10> H -1.3290492443 1.8117351435 -0.5641607015
| 11> C 0.7686024165 1.3188155037 -0.5228717075
| 12> H 1.1610712801 2.3377017555 -0.4190921744
| 13> C 1.6828739 0.3344833851 0.2367489599
| 14> H 2.6579734424 0.281697777 -0.2636193572
| 15> C 1.07485641 -1.082420065 0.1820620081
| 16> H 1.0159012421 -1.4659465036 1.2218472968
| 17> O -0.2189822041 -1.0849853081 -0.379794097
| 18> O 1.8835459341 -1.8729667303 -0.612104905
| 19> O 1.8190770629 0.698184637 1.595117542
| 20> O 0.7511326458 1.0491159501 -1.8935592795
| 21> O -0.6836013788 1.9836902929 1.3214289679
| 22> O -2.9346882507 -1.7440163482 -0.0595742969
| 23> H -2.4776638554 -0.2159118563 -1.3719988769
| 24> H -3.2119035918 0.228427277 0.1951896844
| 25> H 1.4552955711 -2.7268758838 -0.7482198151
| 26> H 2.3951084167 1.4688286193 1.6553415073
| 27> H 0.4630956314 0.133550274 -2.0160899727
| 28> H -0.0163659984 1.5967160932 1.9098913163
| 29> H -2.2610701096 -2.3430577622 -0.4031059493
| 30> *
| 31>
| 32>                          ****END OF INPUT****

CARTESIAN COORDINATES (ANGSTROEM)
---------------------------------
  C     -2.497370   -0.434679   -0.294676
  C     -1.100561   -0.184407    0.281454
  H     -1.105308   -0.428229    1.356125
  C     -0.644458    1.284662    0.108898
  H     -1.329049    1.811735   -0.564161
  C      0.768602    1.318816   -0.522872
  H      1.161071    2.337702   -0.419092
  C      1.682874    0.334483    0.236749
  H      2.657973    0.281698   -0.263619
  C      1.074856   -1.082420    0.182062
  H      1.015901   -1.465947    1.221847
  O     -0.218982   -1.084985   -0.379794
  O      1.883546   -1.872967   -0.612105
  O      1.819077    0.698185    1.595118
  O      0.751133    1.049116   -1.893559
  O     -0.683601    1.983690    1.321429
  O     -2.934688   -1.744016   -0.059574
  H     -2.477664   -0.215912   -1.371999
  H     -3.211904    0.228427    0.195190
  H      1.455296   -2.726876   -0.748220
  H      2.395108    1.468829    1.655342
  H      0.463096    0.133550   -2.016090
  H     -0.016366    1.596716    1.909891
  H     -2.261070   -2.343058   -0.403106

 Total Charge           Charge          ....    0
 Multiplicity           Mult            ....    1
 Number of Electrons    NEL             ....   96
 Basis Dimension        Dim             ....  192

ORBITAL ENERGIES
----------------

  NO   OCC          E(Eh)            E(eV)
   0   2.0000     -18.794526      -511.4250
   1   2.0000     -18.786602      -511.2094
   2   2.0000     -18.778313      -510.9839
   3   2.0000     -18.749424      -510.1978
   4   2.0000     -18.747181      -510.1367
   5   2.0000     -18.743022      -510.0236
   6   2.0000     -10.003361      -272.2053
   7   2.0000      -9.954253      -270.8690
   8   2.0000      -9.948457      -270.7113
   9   2.0000      -9.944341      -270.5993
  10   2.0000      -9.940454      -270.4935
  11   2.0000      -9.937360      -270.4093
  12   2.0000      -1.005011       -27.3477
  13   2.0000      -0.960795       -26.1446
  14   2.0000      -0.943948       -25.6861
  15   2.0000      -0.931100       -25.3365
  16   2.0000      -0.921895       -25.0861
  17   2.0000      -0.920564       -25.0498
  18   2.0000      -0.702235       -19.1088
  19   2.0000      -0.698417       -19.0049
  20   2.0000      -0.628307       -17.0971
  21   2.0000      -0.586193       -15.9511
  22   2.0000      -0.576241       -15.6803
  23   2.0000      -0.531311       -14.4577
  24   2.0000      -0.524051       -14.2601
  25   2.0000      -0.502459       -13.6726
  26   2.0000      -0.487729       -13.2718
  27   2.0000      -0.465323       -12.6621
  28   2.0000      -0.451954       -12.2983
  29   2.0000      -0.446483       -12.1494
  30   2.0000      -0.414929       -11.2908
  31   2.0000      -0.399216       -10.8632
  32   2.0000      -0.387465       -10.5434
  33   2.0000      -0.378483       -10.2990
  34   2.0000      -0.363071        -9.8797
  35   2.0000      -0.357758        -9.7351
  36   2.0000      -0.344002        -9.3608
  37   2.0000      -0.329756        -8.9731
  38   2.0000      -0.318768        -8.6741
  39   2.0000      -0.308030        -8.3819
  40   2.0000      -0.285793        -7.7768
  41   2.0000      -0.277708        -7.5568
  42   2.0000      -0.267872        -7.2892
  43   2.0000      -0.258842        -7.0435
  44   2.0000      -0.250278        -6.8104
  45   2.0000      -0.227694        -6.1959
  46   2.0000      -0.218595        -5.9483
  47   2.0000      -0.197209        -5.3663
  48   0.0000      -0.000566        -0.0154
  49   0.0000       0.016710         0.4547
  50   0.0000       0.036869         1.0033
  51   0.0000       0.051573         1.4034
  52   0.0000       0.057397         1.5619

MULLIKEN ATOMIC CHARGES
-----------------------
   0 C :    0.064495
   1 C :   -0.010199
   2 H :    0.062569
   3 C :    0.080523
   4 H :    0.074587
   5 C :    0.016431
   6 H :    0.069710
   7 C :    0.008738
   8 H :    0.094909
   9 C :    0.189214
  10 H :    0.065595
  11 O :   -0.335694
  12 O :   -0.375884
  13 O :   -0.417370
  14 O :   -0.414166
  15 O :   -0.429401
  16 O :   -0.429399
  17 H :    0.074984
  18 H :    0.104870
  19 H :    0.305300
  20 H :    0.315754
  21 H :    0.301506
  22 H :    0.290056
  23 H :    0.292872
Sum of atomic charges:    0.0000000

LOEWDIN ATOMIC CHARGES
----------------------
   0 C :   -0.126194
   1 C :   -0.080613
   2 H :    0.108919
   3 C :   -0.074385
   4 H :    0.118257
   5 C :   -0.084509
   6 H :    0.113429
   7 C :   -0.089053
   8 H :    0.119165
   9 C :    0.004359
  10 H :    0.091584
  11 O :   -0.166657
  12 O :   -0.289287
  13 O :   -0.307290
  14 O :   -0.310466
  15 O :   -0.319554
  16 O :   -0.332752
  17 H :    0.099959
  18 H :    0.125406
  19 H :    0.289320
  20 H :    0.295974
  21 H :    0.272373
  22 H :    0.265040
  23 H :    0.276976

  Mayer bond orders larger than 0.100000
B(  0-C ,  1-C ) :   1.0547 B(  0-C , 16-O ) :   1.0766 B(  0-C , 17-H ) :   0.9042
B(  0-C , 18-H ) :   0.9198 B(  1-C ,  2-H ) :   0.8660 B(  1-C ,  3-C ) :   0.9591
B(  1-C , 11-O ) :   0.9727 B(  3-C ,  4-H ) :   0.8945 B(  3-C ,  5-C ) :   0.9630
B(  3-C , 15-O ) :   1.0446 B(  5-C ,  6-H ) :   0.8944 B(  5-C ,  7-C ) :   0.9939
B(  5-C , 14-O ) :   1.0570 B(  7-C ,  8-H ) :   0.8940 B(  7-C ,  9-C ) :   0.9690
B(  7-C , 13-O ) :   1.0248 B(  9-C , 10-H ) :   0.8931 B(  9-C , 11-O ) :   1.0018
B(  9-C , 12-O ) :   1.1709 B( 12-O , 19-H ) :   0.8409 B( 13-O , 20-H ) :   0.8393
B( 13-O , 22-H ) :   0.1038 B( 14-O , 21-H ) :   0.8284 B( 15-O , 22-H ) :   0.8154
B( 16-O , 23-H ) :   0.8463

Dispersion correction           -0.024899934
FINAL SINGLE POINT ENERGY      -685.695297171129

DIPOLE MOMENT
-------------

Method             : SCF
Type of density    : Electron Density
Multiplicity       :   1
Irrep              :   0
Energy             :  -685.8280150366382486 Eh
Relativity type    :
Basis              : AO
                                X                 Y                 Z
Electronic contribution:      2.013327088      -1.151250355      -0.321009689
Nuclear contribution   :     -1.166314584       0.622291776       0.517549570
                        -----------------------------------------
Total Dipole Moment    :      0.847012504      -0.528958579       0.196539881
                        -----------------------------------------
Magnitude (a.u.)       :      1.017769760
Magnitude (Debye)      :      2.586965141

Rotational constants in cm-1:             0.038438             0.027332             0.021788
Rotational constants in MHz :          1152.347691           819.406205           653.182239

                             ****ORCA TERMINATED NORMALLY****
TOTAL RUN TIME: 0 days 0 hours 23 minutes 58 seconds 513 msec
