                         Program Version 6.0.1  -  RELEASE   -
|  1> ! r2scan-3c def2/J RI DEFGRID2 scfconv6 printgap
|  2> %output
|  3>     printlevel normal
|  4> end
|  5> * xyz 0 1
|  6> C -3.3105437361 0.7151637644 0.383726735
|  7> C -2.4752898948 -0.3945009242 -0.2445607926
|  8> C -0.9829301931 -0.2143871589 -0.1313895855
|  9> C -0.1559851531 -1.3220111165 -0.3012997496
| 10> C 1.216919729 -1.2165308707 -0.2269292462
| 11> C 1.803517502 0.0192280305 0.0260429069
| 12> C 0.9921432901 1.1313034428 0.1968196696
| 13> C -0.3849165655 1.0119982116 0.1160850369
| 14> O 3.1629326172 0.0909532683 0.0980430266
| 15> H -3.0203774683 0.8723689953 1.4202052413
| 16> H -4.3634691706 0.4426402768 0.3595624179
| 17> H -3.1945444698 1.6502794877 -0.1586897992
| 18> H -2.734023878 -0.4772694761 -1.3056783072
| 19> H -2.7406451088 -1.3468680493 0.2223343265
| 20> H -0.6000598568 -2.2878845337 -0.4964321149
| 21> H 1.8533049664 -2.0771081419 -0.3587098573
| 22> H 1.4389542442 2.0976866586 0.394208218
| 23> H -0.9866972823 1.8966301173 0.2517105325
| 24> H 3.430070256 1.0001455935 0.2781241896
| 25> *
| 26>
| 27>                          ****END OF INPUT****

CARTESIAN COORDINATES (ANGSTROEM)
---------------------------------
  C     -3.310544    0.715164    0.383727
  C     -2.475290   -0.394501   -0.244561
  C     -0.982930   -0.214387   -0.131390
  C     -0.155985   -1.322011   -0.301300
  C      1.216920   -1.216531   -0.226929
  C      1.803518    0.019228    0.026043
  C      0.992143    1.131303    0.196820
  C     -0.384917    1.011998    0.116085
  O      3.162933    0.090953    0.098043
  H     -3.020377    0.872369    1.420205
  H     -4.363469    0.442640    0.359562
  H     -3.194544    1.650279   -0.158690
  H     -2.734024   -0.477269   -1.305678
  H     -2.740645   -1.346868    0.222334
  H     -0.600060   -2.287885   -0.496432
  H      1.853305   -2.077108   -0.358710
  H      1.438954    2.097687    0.394208
  H     -0.986697    1.896630    0.251711
  H      3.430070    1.000146    0.278124

 Total Charge           Charge          ....    0
 Multiplicity           Mult            ....    1
 Number of Electrons    NEL             ....   66
 Basis Dimension        Dim             ....  226

ORBITAL ENERGIES
----------------

  NO   OCC          E(Eh)            E(eV)
   0   2.0000     -18.982358      -516.5362
   1   2.0000     -10.091977      -274.6167
   2   2.0000     -10.033037      -273.0128
   3   2.0000     -10.032625      -273.0016
   4   2.0000     -10.032228      -272.9908
   5   2.0000     -10.031522      -272.9716
   6   2.0000     -10.030500      -272.9438
   7   2.0000     -10.027662      -272.8665
   8   2.0000     -10.020959      -272.6842
   9   2.0000      -1.026809       -27.9409
  10   2.0000      -0.824453       -22.4345
  11   2.0000      -0.751852       -20.4589
  12   2.0000      -0.717160       -19.5149
  13   2.0000      -0.687323       -18.7030
  14   2.0000      -0.604172       -16.4404
  15   2.0000      -0.590887       -16.0789
  16   2.0000      -0.545082       -14.8324
  17   2.0000      -0.514677       -14.0051
  18   2.0000      -0.459837       -12.5128
  19   2.0000      -0.430419       -11.7123
  20   2.0000      -0.418976       -11.4009
  21   2.0000      -0.408042       -11.1034
  22   2.0000      -0.389621       -10.6021
  23   2.0000      -0.380126       -10.3438
  24   2.0000      -0.377934       -10.2841
  25   2.0000      -0.347696        -9.4613
  26   2.0000      -0.335866        -9.1394
  27   2.0000      -0.326904        -8.8955
  28   2.0000      -0.307577        -8.3696
  29   2.0000      -0.300112        -8.1665
  30   2.0000      -0.295672        -8.0456
  31   2.0000      -0.235869        -6.4183
  32   2.0000      -0.197142        -5.3645
  33   0.0000      -0.031552        -0.8586
  34   0.0000      -0.011205        -0.3049
  35   0.0000       0.059487         1.6187
  36   0.0000       0.082967         2.2576
  37   0.0000       0.100758         2.7418

MULLIKEN ATOMIC CHARGES
-----------------------
   0 C :   -0.487140
   1 C :   -0.300369
   2 C :    0.121738
   3 C :   -0.169316
   4 C :   -0.308174
   5 C :    0.429582
   6 C :   -0.358909
   7 C :   -0.167882
   8 O :   -0.413988
   9 H :    0.164600
  10 H :    0.149513
  11 H :    0.141368
  12 H :    0.162237
  13 H :    0.148145
  14 H :    0.146326
  15 H :    0.154988
  16 H :    0.135575
  17 H :    0.143837
  18 H :    0.307870
Sum of atomic charges:   -0.0000000

LOEWDIN ATOMIC CHARGES
----------------------
   0 C :   -0.419943
   1 C :   -0.286530
   2 C :   -0.112150
   3 C :   -0.147876
   4 C :   -0.140271
   5 C :    0.176719
   6 C :   -0.171657
   7 C :   -0.152653
   8 O :   -0.497453
   9 H :    0.155223
  10 H :    0.152780
  11 H :    0.149494
  12 H :    0.164609
  13 H :    0.161370
  14 H :    0.169959
  15 H :    0.179225
  16 H :    0.167426
  17 H :    0.171223
  18 H :    0.280506

  Mayer bond orders larger than 0.100000
B(  0-C ,  1-C ) :   0.8710 B(  0-C ,  9-H ) :   0.9930 B(  0-C , 10-H ) :   0.9721
B(  0-C , 11-H ) :   0.9637 B(  1-C ,  2-C ) :   0.8358 B(  1-C , 12-H ) :   0.9601
B(  1-C , 13-H ) :   1.0119 B(  2-C ,  3-C ) :   1.3804 B(  2-C ,  7-C ) :   1.4682
B(  3-C ,  4-C ) :   1.4227 B(  3-C , 14-H ) :   0.9517 B(  4-C ,  5-C ) :   1.4217
B(  4-C , 15-H ) :   0.9470 B(  5-C ,  6-C ) :   1.3501 B(  5-C ,  8-O ) :   0.9214
B(  6-C ,  7-C ) :   1.4326 B(  6-C , 16-H ) :   0.9257 B(  7-C , 17-H ) :   0.9339
B(  8-O , 18-H ) :   0.8860

Dispersion correction           -0.006062628
FINAL SINGLE POINT ENERGY      -385.999478862485

DIPOLE MOMENT
-------------

Method             : SCF
Type of density    : Electron Density
Multiplicity       :   1
Irrep              :   0
Energy             :  -386.0002403998223599 Eh
Relativity type    :
Basis              : AO
                                X                 Y                 Z
Electronic contribution:      9.988074144      -1.207864454      -0.504114596
Nuclear contribution   :    -10.195570713       1.662489112       0.570578845
                        -----------------------------------------
Total Dipole Moment    :     -0.207496569       0.454624658       0.066464249
                        -----------------------------------------
Magnitude (a.u.)       :      0.504138772
Magnitude (Debye)      :      1.281418923

Rotational constants in cm-1:             0.155243             0.032067             0.026976
Rotational constants in MHz :          4654.063508           961.348388           808.709925

                             ****ORCA TERMINATED NORMALLY****
TOTAL RUN TIME: 0 days 0 hours 0 minutes 28 seconds 196 msec
