                         Program Version 6.0.1  -  RELEASE   -
|  1> ! r2scan-3c def2/J RI DEFGRID2 scfconv6 printgap
|  2> %output
|  3>     printlevel normal
|  4> end
|  5> * xyz 0 1
|  6> C -2.1940137499 -0.8919110125 -0.1447867608
|  7> C -1.1187506238 -0.3143576182 0.798910675
|  8> H -1.5743442227 -0.2692200193 1.7966639926
|  9> C -0.7189746434 1.1333456778 0.4520342056
| 10> H -1.5726742788 1.6187664426 -0.049472999
| 11> C 0.5044590381 1.2361053465 -0.4886888907
| 12> H 0.8588475759 2.2791788065 -0.4619355655
| 13> C 1.6249110969 0.3210842157 0.0296858181
| 14> H 2.461042499 0.32471133 -0.6780520734
| 15> C 1.0746497108 -1.1212587958 0.1230759861
| 16> H 1.8326084951 -1.758133197 0.6029251102
| 17> O -0.0235173503 -1.2031927428 0.9808520062
| 18> O 0.8383726087 -1.6159783448 -1.1699844605
| 19> O 2.1354979827 0.7593204037 1.2539489678
| 20> O 0.1378208587 0.9447778338 -1.8178283786
| 21> O -0.4601018096 1.7712249943 1.6849730303
| 22> O -1.7960287918 -1.0316158603 -1.4840872975
| 23> H -3.0895314116 -0.2614639906 -0.0690876202
| 24> H -2.4430664341 -1.8990375539 0.1979880947
| 25> H -0.1221089356 -1.7733213311 -1.28394899
| 26> H 1.4180076182 0.7460456599 1.9065018153
| 27> H 0.5737827914 0.1132396438 -2.0748465334
| 28> H -0.1796461988 2.6807597663 1.527283273
| 29> H -1.5069613328 -0.167328382 -1.8283037537
| 30> *
| 31>
| 32>                          ****END OF INPUT****

CARTESIAN COORDINATES (ANGSTROEM)
---------------------------------
  C     -2.194014   -0.891911   -0.144787
  C     -1.118751   -0.314358    0.798911
  H     -1.574344   -0.269220    1.796664
  C     -0.718975    1.133346    0.452034
  H     -1.572674    1.618766   -0.049473
  C      0.504459    1.236105   -0.488689
  H      0.858848    2.279179   -0.461936
  C      1.624911    0.321084    0.029686
  H      2.461042    0.324711   -0.678052
  C      1.074650   -1.121259    0.123076
  H      1.832608   -1.758133    0.602925
  O     -0.023517   -1.203193    0.980852
  O      0.838373   -1.615978   -1.169984
  O      2.135498    0.759320    1.253949
  O      0.137821    0.944778   -1.817828
  O     -0.460102    1.771225    1.684973
  O     -1.796029   -1.031616   -1.484087
  H     -3.089531   -0.261464   -0.069088
  H     -2.443066   -1.899038    0.197988
  H     -0.122109   -1.773321   -1.283949
  H      1.418008    0.746046    1.906502
  H      0.573783    0.113240   -2.074847
  H     -0.179646    2.680760    1.527283
  H     -1.506961   -0.167328   -1.828304

 Total Charge           Charge          ....    0
 Multiplicity           Mult            ....    1
 Number of Electrons    NEL             ....   96
 Basis Dimension        Dim             ....  318

ORBITAL ENERGIES
----------------

  NO   OCC          E(Eh)            E(eV)
   0   2.0000     -18.981971      -516.5257
   1   2.0000     -18.980817      -516.4943
   2   2.0000     -18.972855      -516.2776
   3   2.0000     -18.972651      -516.2721
   4   2.0000     -18.958013      -515.8737
   5   2.0000     -18.956279      -515.8266
   6   2.0000     -10.138150      -275.8731
   7   2.0000     -10.111011      -275.1346
   8   2.0000     -10.106876      -275.0221
   9   2.0000     -10.104497      -274.9574
  10   2.0000     -10.097129      -274.7568
  11   2.0000     -10.094515      -274.6857
  12   2.0000      -1.058168       -28.7942
  13   2.0000      -1.023548       -27.8522
  14   2.0000      -1.015061       -27.6212
  15   2.0000      -1.008510       -27.4430
  16   2.0000      -0.995975       -27.1019
  17   2.0000      -0.978452       -26.6250
  18   2.0000      -0.763992       -20.7893
  19   2.0000      -0.738916       -20.1069
  20   2.0000      -0.674440       -18.3525
  21   2.0000      -0.634609       -17.2686
  22   2.0000      -0.625200       -17.0126
  23   2.0000      -0.552126       -15.0241
  24   2.0000      -0.531818       -14.4715
  25   2.0000      -0.523643       -14.2490
  26   2.0000      -0.501840       -13.6557
  27   2.0000      -0.488537       -13.2938
  28   2.0000      -0.464424       -12.6376
  29   2.0000      -0.459387       -12.5006
  30   2.0000      -0.450654       -12.2629
  31   2.0000      -0.444653       -12.0996
  32   2.0000      -0.417009       -11.3474
  33   2.0000      -0.411968       -11.2102
  34   2.0000      -0.390623       -10.6294
  35   2.0000      -0.373318       -10.1585
  36   2.0000      -0.368455       -10.0262
  37   2.0000      -0.359383        -9.7793
  38   2.0000      -0.351492        -9.5646
  39   2.0000      -0.331367        -9.0170
  40   2.0000      -0.314122        -8.5477
  41   2.0000      -0.303900        -8.2695
  42   2.0000      -0.293270        -7.9803
  43   2.0000      -0.282677        -7.6920
  44   2.0000      -0.274379        -7.4662
  45   2.0000      -0.246173        -6.6987
  46   2.0000      -0.244213        -6.6454
  47   2.0000      -0.222983        -6.0677
  48   0.0000       0.023858         0.6492
  49   0.0000       0.036958         1.0057
  50   0.0000       0.063239         1.7208
  51   0.0000       0.070631         1.9220
  52   0.0000       0.086450         2.3524

MULLIKEN ATOMIC CHARGES
-----------------------
   0 C :   -0.224787
   1 C :    0.029370
   2 H :    0.172038
   3 C :   -0.090670
   4 H :    0.166152
   5 C :   -0.027084
   6 H :    0.163365
   7 C :   -0.102927
   8 H :    0.174832
   9 C :   -0.012781
  10 H :    0.148707
  11 O :   -0.214728
  12 O :   -0.459359
  13 O :   -0.401887
  14 O :   -0.438689
  15 O :   -0.426048
  16 O :   -0.472840
  17 H :    0.140088
  18 H :    0.158785
  19 H :    0.392581
  20 H :    0.337149
  21 H :    0.346767
  22 H :    0.299048
  23 H :    0.342918
Sum of atomic charges:   -0.0000000

LOEWDIN ATOMIC CHARGES
----------------------
   0 C :    0.026952
   1 C :    0.111180
   2 H :    0.216398
   3 C :    0.109238
   4 H :    0.182959
   5 C :    0.108504
   6 H :    0.187418
   7 C :    0.113997
   8 H :    0.200690
   9 C :    0.293541
  10 H :    0.208777
  11 O :   -0.645664
  12 O :   -0.543946
  13 O :   -0.553848
  14 O :   -0.593193
  15 O :   -0.594057
  16 O :   -0.612686
  17 H :    0.170600
  18 H :    0.189600
  19 H :    0.292780
  20 H :    0.285194
  21 H :    0.288693
  22 H :    0.274225
  23 H :    0.282647

  Mayer bond orders larger than 0.100000
B(  0-C ,  1-C ) :   0.8848 B(  0-C , 16-O ) :   0.9822 B(  0-C , 17-H ) :   0.9786
B(  0-C , 18-H ) :   0.9740 B(  1-C ,  2-H ) :   0.9433 B(  1-C ,  3-C ) :   0.8527
B(  1-C , 11-O ) :   0.9041 B(  3-C ,  4-H ) :   0.9836 B(  3-C ,  5-C ) :   0.8289
B(  3-C , 15-O ) :   0.9174 B(  5-C ,  6-H ) :   0.9975 B(  5-C ,  7-C ) :   0.8438
B(  5-C , 14-O ) :   0.9480 B(  7-C ,  8-H ) :   0.9825 B(  7-C ,  9-C ) :   0.9067
B(  7-C , 13-O ) :   1.0055 B(  9-C , 10-H ) :   0.9619 B(  9-C , 11-O ) :   1.0123
B(  9-C , 12-O ) :   0.9485 B( 12-O , 19-H ) :   0.7841 B( 13-O , 20-H ) :   0.8360
B( 14-O , 21-H ) :   0.8196 B( 15-O , 22-H ) :   0.8942 B( 16-O , 23-H ) :   0.8264

Dispersion correction           -0.008958728
FINAL SINGLE POINT ENERGY      -687.074119790020

DIPOLE MOMENT
-------------

Method             : SCF
Type of density    : Electron Density
Multiplicity       :   1
Irrep              :   0
Energy             :  -687.0884241396108791 Eh
Relativity type    :
Basis              : AO
                                X                 Y                 Z
Electronic contribution:      2.381904337      -0.761999287       0.550304117
Nuclear contribution   :     -3.124955698       1.527592653      -0.396849509
                        -----------------------------------------
Total Dipole Moment    :     -0.743051361       0.765593365       0.153454608
                        -----------------------------------------
Magnitude (a.u.)       :      1.077871441
Magnitude (Debye)      :      2.739731472

Rotational constants in cm-1:             0.041327             0.031807             0.027601
Rotational constants in MHz :          1238.952861           953.553378           827.451869

                             ****ORCA TERMINATED NORMALLY****
TOTAL RUN TIME: 0 days 0 hours 0 minutes 41 seconds 137 msec
