                         Program Version 6.0.1  -  RELEASE   -
|  1> ! pbe def2-sv(p) def2/J RI DEFGRID1 loosescf d4 GCP(DFT/SV(P)) printgap
|  2> %output
|  3>     printlevel normal
|  4> end
|  5> * xyz 0 1
|  6> C -4.3239724836 -1.3979156013 -0.3183678355
|  7> N -3.3110433155 -0.7160932564 0.4461960453
|  8> C -2.1755569378 -0.247818891 -0.1155369271
|  9> O -1.8458738944 -0.3956340208 -1.2622992287
| 10> O -1.4522387951 0.4229045077 0.825671435
| 11> C -0.2009411136 0.9017414611 0.4390092005
| 12> C -0.0307631291 2.2528859355 0.3012045838
| 13> C 1.2232803475 2.7719976888 -0.0490106805
| 14> C 2.2796690751 1.9347484747 -0.2689465742
| 15> C 2.1335610721 0.5384892108 -0.1337945699
| 16> C 0.8723040474 -0.0003329134 0.2356946358
| 17> C 0.7419403816 -1.3953262532 0.3923000664
| 18> C 1.8071871155 -2.2229776071 0.173319513
| 19> C 3.0503825791 -1.695448486 -0.2060872012
| 20> C 3.210226059 -0.346251459 -0.3518730182
| 21> H -5.2476587305 -0.8161990963 -0.3539747213
| 22> H -4.5340032179 -2.378152535 0.1131840669
| 23> H -3.938693756 -1.5224394804 -1.3288876852
| 24> H -3.4920374099 -0.4867843956 1.4099836409
| 25> H -0.8697872412 2.9125604775 0.4618432572
| 26> H 1.3378743546 3.8405715786 -0.1526449048
| 27> H 3.2450740859 2.3296078411 -0.5506126481
| 28> H -0.2123113801 -1.8052171849 0.6886934399
| 29> H 1.6978307521 -3.2909115641 0.2921430869
| 30> H 3.8801387018 -2.365345007 -0.3783881262
| 31> H 4.1672576642 0.0663470271 -0.6378537055
| 32> *
| 33>
| 34>                          ****END OF INPUT****

CARTESIAN COORDINATES (ANGSTROEM)
---------------------------------
  C     -4.323972   -1.397916   -0.318368
  N     -3.311043   -0.716093    0.446196
  C     -2.175557   -0.247819   -0.115537
  O     -1.845874   -0.395634   -1.262299
  O     -1.452239    0.422905    0.825671
  C     -0.200941    0.901741    0.439009
  C     -0.030763    2.252886    0.301205
  C      1.223280    2.771998   -0.049011
  C      2.279669    1.934748   -0.268947
  C      2.133561    0.538489   -0.133795
  C      0.872304   -0.000333    0.235695
  C      0.741940   -1.395326    0.392300
  C      1.807187   -2.222978    0.173320
  C      3.050383   -1.695448   -0.206087
  C      3.210226   -0.346251   -0.351873
  H     -5.247659   -0.816199   -0.353975
  H     -4.534003   -2.378153    0.113184
  H     -3.938694   -1.522439   -1.328888
  H     -3.492037   -0.486784    1.409984
  H     -0.869787    2.912560    0.461843
  H      1.337874    3.840572   -0.152645
  H      3.245074    2.329608   -0.550613
  H     -0.212311   -1.805217    0.688693
  H      1.697831   -3.290912    0.292143
  H      3.880139   -2.365345   -0.378388
  H      4.167258    0.066347   -0.637854

 Total Charge           Charge          ....    0
 Multiplicity           Mult            ....    1
 Number of Electrons    NEL             ....  106
 Basis Dimension        Dim             ....  232

ORBITAL ENERGIES
----------------

  NO   OCC          E(Eh)            E(eV)
   0   2.0000     -18.802576      -511.6441
   1   2.0000     -18.720113      -509.4002
   2   2.0000     -14.022475      -381.5709
   3   2.0000     -10.023352      -272.7493
   4   2.0000      -9.952693      -270.8266
   5   2.0000      -9.922537      -270.0059
   6   2.0000      -9.904093      -269.5041
   7   2.0000      -9.903092      -269.4768
   8   2.0000      -9.895888      -269.2808
   9   2.0000      -9.894120      -269.2327
  10   2.0000      -9.893607      -269.2187
  11   2.0000      -9.893194      -269.2075
  12   2.0000      -9.893028      -269.2030
  13   2.0000      -9.892969      -269.2014
  14   2.0000      -9.892807      -269.1970
  15   2.0000      -1.011182       -27.5157
  16   2.0000      -0.918401       -24.9910
  17   2.0000      -0.846013       -23.0212
  18   2.0000      -0.794017       -21.6063
  19   2.0000      -0.746001       -20.2997
  20   2.0000      -0.699438       -19.0327
  21   2.0000      -0.669617       -18.2212
  22   2.0000      -0.663055       -18.0426
  23   2.0000      -0.633925       -17.2500
  24   2.0000      -0.572406       -15.5759
  25   2.0000      -0.557510       -15.1706
  26   2.0000      -0.552954       -15.0466
  27   2.0000      -0.530005       -14.4222
  28   2.0000      -0.504241       -13.7211
  29   2.0000      -0.464242       -12.6327
  30   2.0000      -0.450495       -12.2586
  31   2.0000      -0.441554       -12.0153
  32   2.0000      -0.434178       -11.8146
  33   2.0000      -0.421974       -11.4825
  34   2.0000      -0.401734       -10.9317
  35   2.0000      -0.394840       -10.7441
  36   2.0000      -0.382404       -10.4057
  37   2.0000      -0.379774       -10.3342
  38   2.0000      -0.370670       -10.0864
  39   2.0000      -0.364788        -9.9264
  40   2.0000      -0.353740        -9.6258
  41   2.0000      -0.351543        -9.5660
  42   2.0000      -0.340288        -9.2597
  43   2.0000      -0.332709        -9.0535
  44   2.0000      -0.304597        -8.2885
  45   2.0000      -0.298236        -8.1154
  46   2.0000      -0.294092        -8.0026
  47   2.0000      -0.265999        -7.2382
  48   2.0000      -0.247047        -6.7225
  49   2.0000      -0.229384        -6.2418
  50   2.0000      -0.224101        -6.0981
  51   2.0000      -0.219470        -5.9721
  52   2.0000      -0.193667        -5.2699
  53   0.0000      -0.068497        -1.8639
  54   0.0000      -0.039794        -1.0828
  55   0.0000      -0.002708        -0.0737
  56   0.0000       0.025331         0.6893
  57   0.0000       0.032941         0.8964

MULLIKEN ATOMIC CHARGES
-----------------------
   0 C :   -0.178150
   1 N :   -0.296272
   2 C :    0.189809
   3 O :   -0.209293
   4 O :   -0.260649
   5 C :    0.180792
   6 C :   -0.122076
   7 C :   -0.040502
   8 C :   -0.111726
   9 C :    0.131675
  10 C :    0.124445
  11 C :   -0.124277
  12 C :   -0.042932
  13 C :   -0.036144
  14 C :   -0.132236
  15 H :    0.113964
  16 H :    0.114040
  17 H :    0.140457
  18 H :    0.231072
  19 H :    0.038337
  20 H :    0.054826
  21 H :    0.038060
  22 H :    0.051909
  23 H :    0.051769
  24 H :    0.053038
  25 H :    0.040066
Sum of atomic charges:    0.0000000

LOEWDIN ATOMIC CHARGES
----------------------
   0 C :   -0.258428
   1 N :   -0.179122
   2 C :    0.024710
   3 O :   -0.185697
   4 O :   -0.066571
   5 C :    0.051021
   6 C :   -0.133314
   7 C :   -0.120067
   8 C :   -0.115734
   9 C :   -0.020499
  10 C :   -0.029145
  11 C :   -0.104154
  12 C :   -0.120928
  13 C :   -0.122707
  14 C :   -0.109817
  15 H :    0.116177
  16 H :    0.117007
  17 H :    0.138899
  18 H :    0.236462
  19 H :    0.130622
  20 H :    0.126299
  21 H :    0.124433
  22 H :    0.126983
  23 H :    0.124650
  24 H :    0.124545
  25 H :    0.124374

  Mayer bond orders larger than 0.100000
B(  0-C ,  1-N ) :   1.0257 B(  0-C , 15-H ) :   0.9580 B(  0-C , 16-H ) :   0.9587
B(  0-C , 17-H ) :   0.9367 B(  1-N ,  2-C ) :   1.2134 B(  1-N , 18-H ) :   0.8598
B(  2-C ,  3-O ) :   2.0488 B(  2-C ,  4-O ) :   1.0554 B(  4-O ,  5-C ) :   1.0045
B(  5-C ,  6-C ) :   1.5000 B(  5-C , 10-C ) :   1.2343 B(  6-C ,  7-C ) :   1.2153
B(  6-C , 19-H ) :   0.9631 B(  7-C ,  8-C ) :   1.4454 B(  7-C , 20-H ) :   0.9613
B(  8-C ,  9-C ) :   1.2354 B(  8-C , 21-H ) :   0.9672 B(  9-C , 10-C ) :   1.2545
B(  9-C , 14-C ) :   1.2388 B( 10-C , 11-C ) :   1.2577 B( 11-C , 12-C ) :   1.4589
B( 11-C , 22-H ) :   0.9481 B( 12-C , 13-C ) :   1.2571 B( 12-C , 23-H ) :   0.9616
B( 13-C , 14-C ) :   1.4629 B( 13-C , 24-H ) :   0.9622 B( 14-C , 25-H ) :   0.9650

Dispersion correction           -0.032713512
FINAL SINGLE POINT ENERGY      -667.735741284724

DIPOLE MOMENT
-------------

Method             : SCF
Type of density    : Electron Density
Multiplicity       :   1
Irrep              :   0
Energy             :  -667.8113164906784505 Eh
Relativity type    :
Basis              : AO
                                X                 Y                 Z
Electronic contribution:      3.201333490       3.175354564       1.135652532
Nuclear contribution   :     -3.788110198      -3.302103204      -0.413541422
                        -----------------------------------------
Total Dipole Moment    :     -0.586776708      -0.126748640       0.722111110
                        -----------------------------------------
Magnitude (a.u.)       :      0.939050892
Magnitude (Debye)      :      2.386877680

Rotational constants in cm-1:             0.036285             0.014723             0.011240
Rotational constants in MHz :          1087.787539           441.397511           336.959041

                             ****ORCA TERMINATED NORMALLY****
TOTAL RUN TIME: 0 days 0 hours 0 minutes 17 seconds 72 msec
