                         Program Version 6.0.1  -  RELEASE   -
|  1> ! pbe def2-sv(p) def2/J RI DEFGRID1 loosescf d4 GCP(DFT/SV(P)) printgap
|  2> %output
|  3>     printlevel normal
|  4> end
|  5> * xyz 0 1
|  6> C -2.5650130307 -0.5845054786 -0.271694968
|  7> C -1.3766757494 0.2742758283 0.1169701364
|  8> O -0.1792050288 -0.44674032 -0.1828355157
|  9> C 0.9743838333 0.1761289598 0.073316955
| 10> O 1.0440966301 1.2888302822 0.5241811182
| 11> C 2.15117273 -0.7028007285 -0.2616951364
| 12> H -3.4865492531 -0.0540848638 -0.050480932
| 13> H -2.5312291133 -0.8117363618 -1.3337598442
| 14> H -2.5494257102 -1.5183158082 0.2837407776
| 15> H -1.3869996314 0.5106732503 1.1869474849
| 16> H -1.3666558185 1.2190673572 -0.4379805662
| 17> H 2.5152951 -1.1593273603 0.6567795413
| 18> H 2.9494900491 -0.0972653864 -0.6809380801
| 19> H 1.8525198281 -1.4831086523 -0.9541174338
| 20> *
| 21>
| 22>                          ****END OF INPUT****

CARTESIAN COORDINATES (ANGSTROEM)
---------------------------------
  C     -2.565013   -0.584505   -0.271695
  C     -1.376676    0.274276    0.116970
  O     -0.179205   -0.446740   -0.182836
  C      0.974384    0.176129    0.073317
  O      1.044097    1.288830    0.524181
  C      2.151173   -0.702801   -0.261695
  H     -3.486549   -0.054085   -0.050481
  H     -2.531229   -0.811736   -1.333760
  H     -2.549426   -1.518316    0.283741
  H     -1.387000    0.510673    1.186947
  H     -1.366656    1.219067   -0.437981
  H      2.515295   -1.159327    0.656780
  H      2.949490   -0.097265   -0.680938
  H      1.852520   -1.483109   -0.954117

 Total Charge           Charge          ....    0
 Multiplicity           Mult            ....    1
 Number of Electrons    NEL             ....   48
 Basis Dimension        Dim             ....  100

ORBITAL ENERGIES
----------------

  NO   OCC          E(Eh)            E(eV)
   0   2.0000     -18.796028      -511.4659
   1   2.0000     -18.731513      -509.7104
   2   2.0000     -10.006485      -272.2903
   3   2.0000      -9.944950      -270.6158
   4   2.0000      -9.892632      -269.1922
   5   2.0000      -9.888331      -269.0752
   6   2.0000      -1.004332       -27.3293
   7   2.0000      -0.912652       -24.8345
   8   2.0000      -0.711791       -19.3688
   9   2.0000      -0.662701       -18.0330
  10   2.0000      -0.576790       -15.6953
  11   2.0000      -0.508195       -13.8287
  12   2.0000      -0.447145       -12.1674
  13   2.0000      -0.432887       -11.7795
  14   2.0000      -0.408326       -11.1111
  15   2.0000      -0.399810       -10.8794
  16   2.0000      -0.366880        -9.9833
  17   2.0000      -0.353060        -9.6072
  18   2.0000      -0.347505        -9.4561
  19   2.0000      -0.344675        -9.3791
  20   2.0000      -0.311386        -8.4732
  21   2.0000      -0.299280        -8.1438
  22   2.0000      -0.256355        -6.9758
  23   2.0000      -0.218189        -5.9372
  24   0.0000      -0.017065        -0.4643
  25   0.0000       0.042416         1.1542
  26   0.0000       0.058904         1.6029
  27   0.0000       0.087025         2.3681
  28   0.0000       0.091330         2.4852

MULLIKEN ATOMIC CHARGES
-----------------------
   0 C :   -0.272947
   1 C :   -0.031590
   2 O :   -0.245887
   3 C :    0.080944
   4 O :   -0.202578
   5 C :   -0.252421
   6 H :    0.110209
   7 H :    0.113532
   8 H :    0.113288
   9 H :    0.102272
  10 H :    0.103944
  11 H :    0.135235
  12 H :    0.127913
  13 H :    0.118087
Sum of atomic charges:    0.0000000

LOEWDIN ATOMIC CHARGES
----------------------
   0 C :   -0.350878
   1 C :   -0.112386
   2 O :   -0.078479
   3 C :    0.026754
   4 O :   -0.159537
   5 C :   -0.361485
   6 H :    0.129616
   7 H :    0.125666
   8 H :    0.125577
   9 H :    0.114172
  10 H :    0.114925
  11 H :    0.148796
  12 H :    0.142521
  13 H :    0.134737

  Mayer bond orders larger than 0.100000
B(  0-C ,  1-C ) :   1.1489 B(  0-C ,  6-H ) :   0.9451 B(  0-C ,  7-H ) :   0.9503
B(  0-C ,  8-H ) :   0.9499 B(  1-C ,  2-O ) :   0.9218 B(  1-C ,  9-H ) :   0.9320
B(  1-C , 10-H ) :   0.9311 B(  2-O ,  3-C ) :   1.1951 B(  3-C ,  4-O ) :   2.0647
B(  3-C ,  5-C ) :   1.0860 B(  5-C , 11-H ) :   0.9269 B(  5-C , 12-H ) :   0.9373
B(  5-C , 13-H ) :   0.9385

Dispersion correction           -0.008737800
FINAL SINGLE POINT ENERGY      -307.031771578010

DIPOLE MOMENT
-------------

Method             : SCF
Type of density    : Electron Density
Multiplicity       :   1
Irrep              :   0
Energy             :  -307.0861770222909399 Eh
Relativity type    :
Basis              : AO
                                X                 Y                 Z
Electronic contribution:      3.390405883       2.568987161       1.038726383
Nuclear contribution   :     -3.743185494      -3.171750781      -1.242524180
                        -----------------------------------------
Total Dipole Moment    :     -0.352779611      -0.602763620      -0.203797796
                        -----------------------------------------
Magnitude (a.u.)       :      0.727537613
Magnitude (Debye)      :      1.849253648

Rotational constants in cm-1:             0.284244             0.069825             0.057872
Rotational constants in MHz :          8521.413905          2093.306304          1734.972829

                             ****ORCA TERMINATED NORMALLY****
TOTAL RUN TIME: 0 days 0 hours 0 minutes 12 seconds 804 msec
