                         Program Version 6.0.1  -  RELEASE   -
|  1> ! pbe def2-sv(p) def2/J RI DEFGRID1 loosescf d4 GCP(DFT/SV(P)) printgap
|  2> %output
|  3>     printlevel normal
|  4> end
|  5> * xyz 0 1
|  6> C -2.0055260496 0.6818801487 0.4232053459
|  7> O -1.108646324 -0.4122690513 0.432048832
|  8> S 0.3645083938 -0.0050318904 -0.1069600505
|  9> O 0.9449613042 0.9408102571 0.793173062
| 10> O 0.2714979392 0.3629096746 -1.4845573381
| 11> C 1.1313383983 -1.6149012012 0.0741988942
| 12> H -2.1150035999 1.0599652104 -0.5957666536
| 13> H -1.6215266353 1.4777899301 1.0653145311
| 14> H -2.959510273 0.3158887426 0.7986342673
| 15> H 2.1615255308 -1.539016939 -0.2475378233
| 16> H 1.0678440322 -1.8832045303 1.1188259363
| 17> H 0.5782760184 -2.3035733705 -0.5480143661
| 18> *
| 19>
| 20>                          ****END OF INPUT****

CARTESIAN COORDINATES (ANGSTROEM)
---------------------------------
  C     -2.005526    0.681880    0.423205
  O     -1.108646   -0.412269    0.432049
  S      0.364508   -0.005032   -0.106960
  O      0.944961    0.940810    0.793173
  O      0.271498    0.362910   -1.484557
  C      1.131338   -1.614901    0.074199
  H     -2.115004    1.059965   -0.595767
  H     -1.621527    1.477790    1.065315
  H     -2.959510    0.315889    0.798634
  H      2.161526   -1.539017   -0.247538
  H      1.067844   -1.883205    1.118826
  H      0.578276   -2.303573   -0.548014

 Total Charge           Charge          ....    0
 Multiplicity           Mult            ....    1
 Number of Electrons    NEL             ....   58
 Basis Dimension        Dim             ....  100

ORBITAL ENERGIES
----------------

  NO   OCC          E(Eh)            E(eV)
   0   2.0000     -88.252130     -2401.4626
   1   2.0000     -18.802955      -511.6544
   2   2.0000     -18.745509      -510.0912
   3   2.0000     -18.745387      -510.0879
   4   2.0000      -9.947996      -270.6987
   5   2.0000      -9.929681      -270.2003
   6   2.0000      -7.867120      -214.0752
   7   2.0000      -5.895514      -160.4251
   8   2.0000      -5.892368      -160.3395
   9   2.0000      -5.891358      -160.3120
  10   2.0000      -1.058516       -28.8037
  11   2.0000      -0.952218       -25.9112
  12   2.0000      -0.917221       -24.9589
  13   2.0000      -0.721027       -19.6201
  14   2.0000      -0.649146       -17.6642
  15   2.0000      -0.541811       -14.7434
  16   2.0000      -0.488774       -13.3002
  17   2.0000      -0.452193       -12.3048
  18   2.0000      -0.438223       -11.9247
  19   2.0000      -0.417028       -11.3479
  20   2.0000      -0.409812       -11.1516
  21   2.0000      -0.393117       -10.6973
  22   2.0000      -0.380350       -10.3498
  23   2.0000      -0.352382        -9.5888
  24   2.0000      -0.292688        -7.9644
  25   2.0000      -0.291564        -7.9339
  26   2.0000      -0.278026        -7.5655
  27   2.0000      -0.269551        -7.3349
  28   2.0000      -0.239594        -6.5197
  29   0.0000       0.023907         0.6505
  30   0.0000       0.034702         0.9443
  31   0.0000       0.051621         1.4047
  32   0.0000       0.056470         1.5366
  33   0.0000       0.071135         1.9357

MULLIKEN ATOMIC CHARGES
-----------------------
   0 C :   -0.130213
   1 O :   -0.396768
   2 S :    0.766572
   3 O :   -0.396635
   4 O :   -0.396588
   5 C :   -0.318357
   6 H :    0.126241
   7 H :    0.126316
   8 H :    0.135680
   9 H :    0.168441
  10 H :    0.157648
  11 H :    0.157664
Sum of atomic charges:   -0.0000000

LOEWDIN ATOMIC CHARGES
----------------------
   0 C :   -0.235986
   1 O :   -0.298596
   2 S :    1.111818
   3 O :   -0.457584
   4 O :   -0.457616
   5 C :   -0.464971
   6 H :    0.115309
   7 H :    0.115321
   8 H :    0.127574
   9 H :    0.150787
  10 H :    0.146960
  11 H :    0.146985

  Mayer bond orders larger than 0.100000
B(  0-C ,  1-O ) :   0.9315 B(  0-C ,  6-H ) :   0.9458 B(  0-C ,  7-H ) :   0.9458
B(  0-C ,  8-H ) :   0.9576 B(  1-O ,  2-S ) :   0.9445 B(  2-S ,  3-O ) :   1.7714
B(  2-S ,  4-O ) :   1.7717 B(  2-S ,  5-C ) :   0.9092 B(  5-C ,  9-H ) :   0.9330
B(  5-C , 10-H ) :   0.9279 B(  5-C , 11-H ) :   0.9279

Dispersion correction           -0.010088382
FINAL SINGLE POINT ENERGY      -702.678113993241

DIPOLE MOMENT
-------------

Method             : SCF
Type of density    : Electron Density
Multiplicity       :   1
Irrep              :   0
Energy             :  -702.7284996057416038 Eh
Relativity type    :
Basis              : AO
                                X                 Y                 Z
Electronic contribution:      2.331136640       1.763482654      -1.143213500
Nuclear contribution   :     -2.718764759      -2.681221692       1.492313937
                        -----------------------------------------
Total Dipole Moment    :     -0.387628120      -0.917739039       0.349100437
                        -----------------------------------------
Magnitude (a.u.)       :      1.055638014
Magnitude (Debye)      :      2.683218593

Rotational constants in cm-1:             0.151814             0.088474             0.084477
Rotational constants in MHz :          4551.255789          2652.385201          2532.554080

                             ****ORCA TERMINATED NORMALLY****
TOTAL RUN TIME: 0 days 0 hours 0 minutes 4 seconds 26 msec
