                         Program Version 6.0.1  -  RELEASE   -
|  1> ! pbe def2-sv(p) def2/J RI DEFGRID1 loosescf d4 GCP(DFT/SV(P)) printgap
|  2> %output
|  3>     printlevel normal
|  4> end
|  5> * xyz 0 1
|  6> C -0.7119776509 -0.6171592002 0.2984289964
|  7> C 0.715645683 -0.6251758654 -0.2719954605
|  8> O 1.438352555 0.5286981945 0.093541462
|  9> O -1.4414236172 0.5158643966 -0.1157720953
| 10> H -0.6690425313 -0.666722517 1.3936366095
| 11> H -1.2563304422 -1.4855121033 -0.0764184601
| 12> H 0.6731024499 -0.721456215 -1.3640795313
| 13> H 1.2650588929 -1.4736024726 0.1393176775
| 14> H 1.0681413296 1.2808769495 -0.382974475
| 15> H -1.0758910842 1.2897636674 0.3284024871
| 16> *
| 17>
| 18>                          ****END OF INPUT****

CARTESIAN COORDINATES (ANGSTROEM)
---------------------------------
  C     -0.711978   -0.617159    0.298429
  C      0.715646   -0.625176   -0.271995
  O      1.438353    0.528698    0.093541
  O     -1.441424    0.515864   -0.115772
  H     -0.669043   -0.666723    1.393637
  H     -1.256330   -1.485512   -0.076418
  H      0.673102   -0.721456   -1.364080
  H      1.265059   -1.473602    0.139318
  H      1.068141    1.280877   -0.382974
  H     -1.075891    1.289764    0.328402

 Total Charge           Charge          ....    0
 Multiplicity           Mult            ....    1
 Number of Electrons    NEL             ....   34
 Basis Dimension        Dim             ....   68

ORBITAL ENERGIES
----------------

  NO   OCC          E(Eh)            E(eV)
   0   2.0000     -18.752153      -510.2720
   1   2.0000     -18.752095      -510.2705
   2   2.0000      -9.930785      -270.2304
   3   2.0000      -9.930703      -270.2282
   4   2.0000      -0.939789       -25.5729
   5   2.0000      -0.916148       -24.9296
   6   2.0000      -0.660417       -17.9709
   7   2.0000      -0.561502       -15.2793
   8   2.0000      -0.465951       -12.6792
   9   2.0000      -0.463653       -12.6167
  10   2.0000      -0.411681       -11.2024
  11   2.0000      -0.368933       -10.0392
  12   2.0000      -0.362207        -9.8561
  13   2.0000      -0.300931        -8.1887
  14   2.0000      -0.272943        -7.4271
  15   2.0000      -0.244789        -6.6610
  16   2.0000      -0.209279        -5.6948
  17   0.0000       0.006745         0.1835
  18   0.0000       0.060862         1.6561
  19   0.0000       0.065292         1.7767
  20   0.0000       0.103551         2.8178
  21   0.0000       0.113161         3.0793

MULLIKEN ATOMIC CHARGES
-----------------------
   0 C :   -0.012789
   1 C :   -0.012767
   2 O :   -0.440220
   3 O :   -0.440233
   4 H :    0.080560
   5 H :    0.087990
   6 H :    0.080556
   7 H :    0.087982
   8 H :    0.284453
   9 H :    0.284469
Sum of atomic charges:   -0.0000000

LOEWDIN ATOMIC CHARGES
----------------------
   0 C :   -0.148311
   1 C :   -0.148320
   2 O :   -0.340957
   3 O :   -0.340962
   4 H :    0.100041
   5 H :    0.115007
   6 H :    0.100038
   7 H :    0.115006
   8 H :    0.274223
   9 H :    0.274234

  Mayer bond orders larger than 0.100000
B(  0-C ,  1-C ) :   1.0694 B(  0-C ,  3-O ) :   1.0594 B(  0-C ,  4-H ) :   0.9224
B(  0-C ,  5-H ) :   0.9217 B(  1-C ,  2-O ) :   1.0594 B(  1-C ,  6-H ) :   0.9224
B(  1-C ,  7-H ) :   0.9217 B(  2-O ,  8-H ) :   0.8476 B(  3-O ,  9-H ) :   0.8476

Dispersion correction           -0.004880562
FINAL SINGLE POINT ENERGY      -229.724847522151

DIPOLE MOMENT
-------------

Method             : SCF
Type of density    : Electron Density
Multiplicity       :   1
Irrep              :   0
Energy             :  -229.7763045515830527 Eh
Relativity type    :
Basis              : AO
                                X                 Y                 Z
Electronic contribution:     -0.005204743       1.783991018      -0.037893134
Nuclear contribution   :      0.004681533      -1.651311018       0.035212233
                        -----------------------------------------
Total Dipole Moment    :     -0.000523210       0.132680000      -0.002680902
                        -----------------------------------------
Magnitude (a.u.)       :      0.132708114
Magnitude (Debye)      :      0.337317219

Rotational constants in cm-1:             0.509781             0.184380             0.150771
Rotational constants in MHz :         15282.850212          5527.576549          4520.011405

                             ****ORCA TERMINATED NORMALLY****
TOTAL RUN TIME: 0 days 0 hours 0 minutes 6 seconds 100 msec
