                         Program Version 6.0.1  -  RELEASE   -
|  1> ! r2scan-3c def2/J RI DEFGRID2 scfconv6 printgap
|  2> %output
|  3>     printlevel normal
|  4> end
|  5> * xyz 0 1
|  6> C 2.7580835027 0.3561655074 0.644665241
|  7> C 1.9333812853 -0.2693569992 -0.4953308515
|  8> C 0.4570756851 -0.120446201 -0.2643726547
|  9> C -0.1495742433 1.134622335 -0.2580139849
| 10> C -1.5093250662 1.218911381 -0.0218832616
| 11> C -2.223016282 0.0503003236 0.2005242102
| 12> C -1.5300394949 -1.1484560208 0.1704506742
| 13> N -0.2305272102 -1.2341370007 -0.0551293576
| 14> H 2.1056148818 0.790719756 1.3987691128
| 15> H 3.412839015 1.1407420206 0.2743825978
| 16> H 3.3735745965 -0.3944428486 1.1319792224
| 17> H 2.149815053 -1.3332951212 -0.5832146668
| 18> H 2.1890830961 0.2083554718 -1.4433055016
| 19> H 0.4394310409 2.0217204156 -0.4373386163
| 20> H -2.0072485742 2.1784444795 -0.0125886393
| 21> H -3.285166546 0.0712367488 0.3890522127
| 22> H -2.0352514286 -2.0920892451 0.3339276064
| 23> *
| 24>
| 25>                          ****END OF INPUT****

CARTESIAN COORDINATES (ANGSTROEM)
---------------------------------
  C      2.758084    0.356166    0.644665
  C      1.933381   -0.269357   -0.495331
  C      0.457076   -0.120446   -0.264373
  C     -0.149574    1.134622   -0.258014
  C     -1.509325    1.218911   -0.021883
  C     -2.223016    0.050300    0.200524
  C     -1.530039   -1.148456    0.170451
  N     -0.230527   -1.234137   -0.055129
  H      2.105615    0.790720    1.398769
  H      3.412839    1.140742    0.274383
  H      3.373575   -0.394443    1.131979
  H      2.149815   -1.333295   -0.583215
  H      2.189083    0.208355   -1.443306
  H      0.439431    2.021720   -0.437339
  H     -2.007249    2.178444   -0.012589
  H     -3.285167    0.071237    0.389052
  H     -2.035251   -2.092089    0.333928

 Total Charge           Charge          ....    0
 Multiplicity           Mult            ....    1
 Number of Electrons    NEL             ....   58
 Basis Dimension        Dim             ....  202

ORBITAL ENERGIES
----------------

  NO   OCC          E(Eh)            E(eV)
   0   2.0000     -14.148324      -384.9955
   1   2.0000     -10.070645      -274.0362
   2   2.0000     -10.063319      -273.8368
   3   2.0000     -10.051924      -273.5268
   4   2.0000     -10.040373      -273.2124
   5   2.0000     -10.040193      -273.2075
   6   2.0000     -10.029463      -272.9156
   7   2.0000     -10.022373      -272.7226
   8   2.0000      -0.914424       -24.8827
   9   2.0000      -0.772584       -21.0231
  10   2.0000      -0.763384       -20.7727
  11   2.0000      -0.702021       -19.1030
  12   2.0000      -0.617173       -16.7941
  13   2.0000      -0.598754       -16.2929
  14   2.0000      -0.560218       -15.2443
  15   2.0000      -0.484552       -13.1853
  16   2.0000      -0.460160       -12.5216
  17   2.0000      -0.433314       -11.7911
  18   2.0000      -0.410884       -11.1807
  19   2.0000      -0.401084       -10.9140
  20   2.0000      -0.380558       -10.3555
  21   2.0000      -0.370903       -10.0928
  22   2.0000      -0.354292        -9.6408
  23   2.0000      -0.336521        -9.1572
  24   2.0000      -0.313086        -8.5195
  25   2.0000      -0.310380        -8.4459
  26   2.0000      -0.269681        -7.3384
  27   2.0000      -0.236630        -6.4390
  28   2.0000      -0.219624        -5.9763
  29   0.0000      -0.049331        -1.3424
  30   0.0000      -0.038506        -1.0478
  31   0.0000       0.077692         2.1141
  32   0.0000       0.098821         2.6890
  33   0.0000       0.102732         2.7955

MULLIKEN ATOMIC CHARGES
-----------------------
   0 C :   -0.489501
   1 C :   -0.361398
   2 C :    0.254556
   3 C :   -0.208478
   4 C :   -0.169363
   5 C :   -0.103583
   6 C :   -0.115635
   7 N :   -0.196209
   8 H :    0.162806
   9 H :    0.147301
  10 H :    0.157267
  11 H :    0.177673
  12 H :    0.156938
  13 H :    0.155999
  14 H :    0.148671
  15 H :    0.149488
  16 H :    0.133467
Sum of atomic charges:   -0.0000000

LOEWDIN ATOMIC CHARGES
----------------------
   0 C :   -0.411351
   1 C :   -0.263295
   2 C :    0.131081
   3 C :   -0.143489
   4 C :   -0.123026
   5 C :   -0.158671
   6 C :    0.083525
   7 N :   -0.619565
   8 H :    0.159134
   9 H :    0.151994
  10 H :    0.156310
  11 H :    0.177651
  12 H :    0.165454
  13 H :    0.172393
  14 H :    0.168810
  15 H :    0.169293
  16 H :    0.183750

  Mayer bond orders larger than 0.100000
B(  0-C ,  1-C ) :   0.8237 B(  0-C ,  8-H ) :   0.9873 B(  0-C ,  9-H ) :   0.9764
B(  0-C , 10-H ) :   0.9770 B(  1-C ,  2-C ) :   0.8316 B(  1-C , 11-H ) :   1.0045
B(  1-C , 12-H ) :   1.0013 B(  2-C ,  3-C ) :   1.3917 B(  2-C ,  7-N ) :   1.3092
B(  3-C ,  4-C ) :   1.4654 B(  3-C , 13-H ) :   0.9067 B(  4-C ,  5-C ) :   1.3916
B(  4-C , 14-H ) :   0.9502 B(  5-C ,  6-C ) :   1.3721 B(  5-C , 15-H ) :   0.9358
B(  6-C ,  7-N ) :   1.4705 B(  6-C , 16-H ) :   0.9817

Dispersion correction           -0.005217915
FINAL SINGLE POINT ENERGY      -326.813563789457

DIPOLE MOMENT
-------------

Method             : SCF
Type of density    : Electron Density
Multiplicity       :   1
Irrep              :   0
Energy             :  -326.8156860673330470 Eh
Relativity type    :
Basis              : AO
                                X                 Y                 Z
Electronic contribution:     -6.096016897      -1.733286815      -0.984206193
Nuclear contribution   :      5.949249247       2.424395353       0.986335166
                        -----------------------------------------
Total Dipole Moment    :     -0.146767650       0.691108537       0.002128973
                        -----------------------------------------
Magnitude (a.u.)       :      0.706524087
Magnitude (Debye)      :      1.795841512

Rotational constants in cm-1:             0.157831             0.051394             0.041991
Rotational constants in MHz :          4731.660834          1540.738955          1258.848460

                             ****ORCA TERMINATED NORMALLY****
TOTAL RUN TIME: 0 days 0 hours 0 minutes 16 seconds 657 msec
