                         Program Version 6.0.1  -  RELEASE   -
|  1> ! pbe def2-sv(p) def2/J RI DEFGRID1 loosescf d4 GCP(DFT/SV(P)) printgap
|  2> %output
|  3>     printlevel normal
|  4> end
|  5> * xyz 0 1
|  6> C 1.8572800121 0.1685590533 0.1926034557
|  7> C 0.7100165521 -0.1171743961 -0.3926345009
|  8> C -0.560866842 -0.4268492278 0.3424032861
|  9> O -1.669770584 0.2851847545 -0.16542497
| 10> H 2.7489928639 0.3807324573 -0.3719933067
| 11> H 1.955936446 0.1863874403 1.2660403755
| 12> H 0.6195631987 -0.1292290797 -1.47072469
| 13> H -0.4347844856 -0.2354968162 1.4179609655
| 14> H -0.8162641189 -1.4832838105 0.2067218609
| 15> H -1.4778490168 1.2282258511 -0.1186795968
| 16> *
| 17>
| 18>                          ****END OF INPUT****

CARTESIAN COORDINATES (ANGSTROEM)
---------------------------------
  C      1.857280    0.168559    0.192603
  C      0.710017   -0.117174   -0.392635
  C     -0.560867   -0.426849    0.342403
  O     -1.669771    0.285185   -0.165425
  H      2.748993    0.380732   -0.371993
  H      1.955936    0.186387    1.266040
  H      0.619563   -0.129229   -1.470725
  H     -0.434784   -0.235497    1.417961
  H     -0.816264   -1.483284    0.206722
  H     -1.477849    1.228226   -0.118680

 Total Charge           Charge          ....    0
 Multiplicity           Mult            ....    1
 Number of Electrons    NEL             ....   32
 Basis Dimension        Dim             ....   68

ORBITAL ENERGIES
----------------

  NO   OCC          E(Eh)            E(eV)
   0   2.0000     -18.745842      -510.1003
   1   2.0000      -9.933323      -270.2995
   2   2.0000      -9.894020      -269.2300
   3   2.0000      -9.887261      -269.0460
   4   2.0000      -0.922010       -25.0892
   5   2.0000      -0.705575       -19.1997
   6   2.0000      -0.606252       -16.4970
   7   2.0000      -0.509602       -13.8670
   8   2.0000      -0.465150       -12.6574
   9   2.0000      -0.397461       -10.8155
  10   2.0000      -0.396285       -10.7835
  11   2.0000      -0.381481       -10.3806
  12   2.0000      -0.321284        -8.7426
  13   2.0000      -0.276940        -7.5359
  14   2.0000      -0.246267        -6.7013
  15   2.0000      -0.216900        -5.9022
  16   0.0000      -0.029531        -0.8036
  17   0.0000       0.045637         1.2418
  18   0.0000       0.067772         1.8442
  19   0.0000       0.071258         1.9390
  20   0.0000       0.091900         2.5007

MULLIKEN ATOMIC CHARGES
-----------------------
   0 C :   -0.194291
   1 C :   -0.184613
   2 C :    0.072278
   3 O :   -0.442564
   4 H :    0.103335
   5 H :    0.096689
   6 H :    0.083022
   7 H :    0.073326
   8 H :    0.099913
   9 H :    0.292904
Sum of atomic charges:    0.0000000

LOEWDIN ATOMIC CHARGES
----------------------
   0 C :   -0.247363
   1 C :   -0.165225
   2 C :   -0.118920
   3 O :   -0.339508
   4 H :    0.123595
   5 H :    0.120011
   6 H :    0.123811
   7 H :    0.099112
   8 H :    0.122657
   9 H :    0.281829

  Mayer bond orders larger than 0.100000
B(  0-C ,  1-C ) :   2.0335 B(  0-C ,  4-H ) :   0.9239 B(  0-C ,  5-H ) :   0.9196
B(  1-C ,  2-C ) :   1.0758 B(  1-C ,  6-H ) :   0.9318 B(  2-C ,  3-O ) :   1.0350
B(  2-C ,  7-H ) :   0.9233 B(  2-C ,  8-H ) :   0.9104 B(  3-O ,  9-H ) :   0.8572

Dispersion correction           -0.005246098
FINAL SINGLE POINT ENERGY      -192.663591299637

DIPOLE MOMENT
-------------

Method             : SCF
Type of density    : Electron Density
Multiplicity       :   1
Irrep              :   0
Energy             :  -192.7030444632759441 Eh
Relativity type    :
Basis              : AO
                                X                 Y                 Z
Electronic contribution:     -1.979002678       0.341974434      -0.701547241
Nuclear contribution   :      2.410341050      -0.045178804       0.869409389
                        -----------------------------------------
Total Dipole Moment    :      0.431338372       0.296795629       0.167862148
                        -----------------------------------------
Magnitude (a.u.)       :      0.549834646
Magnitude (Debye)      :      1.397568602

Rotational constants in cm-1:             0.934069             0.143310             0.137932
Rotational constants in MHz :         28002.669987          4296.324284          4135.108088

                             ****ORCA TERMINATED NORMALLY****
TOTAL RUN TIME: 0 days 0 hours 2 minutes 33 seconds 693 msec
