                         Program Version 6.0.1  -  RELEASE   -
|  1> ! r2scan-3c def2/J RI DEFGRID2 scfconv6 printgap
|  2> %output
|  3>     printlevel normal
|  4> end
|  5> * xyz 0 1
|  6> C -1.3756184047 -0.5894333181 7.0025e-06
|  7> S 1.10209e-05 0.5938677798 -1.4159e-06
|  8> C 1.3755916786 -0.58945197 3.4442e-06
|  9> H -1.3247396496 -1.2056098698 0.8936283506
| 10> H -1.3246644902 -1.2054922818 -0.8937020567
| 11> H -2.2922698722 -0.0096475572 -6.731e-06
| 12> H 1.3246259251 -1.2055881704 0.8936086356
| 13> H 2.2922586414 -0.0096818444 0.0001329134
| 14> H 1.3247573759 -1.2055417644 -0.893740565
| 15> *
| 16>
| 17>                          ****END OF INPUT****

CARTESIAN COORDINATES (ANGSTROEM)
---------------------------------
  C     -1.375618   -0.589433    0.000007
  S      0.000011    0.593868   -0.000001
  C      1.375592   -0.589452    0.000003
  H     -1.324740   -1.205610    0.893628
  H     -1.324664   -1.205492   -0.893702
  H     -2.292270   -0.009648   -0.000007
  H      1.324626   -1.205588    0.893609
  H      2.292259   -0.009682    0.000133
  H      1.324757   -1.205542   -0.893741

 Total Charge           Charge          ....    0
 Multiplicity           Mult            ....    1
 Number of Electrons    NEL             ....   34
 Basis Dimension        Dim             ....   95

ORBITAL ENERGIES
----------------

  NO   OCC          E(Eh)            E(eV)
   0   2.0000     -88.546947     -2409.4849
   1   2.0000     -10.054341      -273.5925
   2   2.0000     -10.054336      -273.5924
   3   2.0000      -7.840702      -213.3563
   4   2.0000      -5.788443      -157.5115
   5   2.0000      -5.784329      -157.3996
   6   2.0000      -5.777186      -157.2052
   7   2.0000      -0.762302       -20.7433
   8   2.0000      -0.674013       -18.3408
   9   2.0000      -0.561685       -15.2842
  10   2.0000      -0.414453       -11.2779
  11   2.0000      -0.411045       -11.1851
  12   2.0000      -0.395855       -10.7718
  13   2.0000      -0.379224       -10.3192
  14   2.0000      -0.336828        -9.1656
  15   2.0000      -0.286008        -7.7827
  16   2.0000      -0.190210        -5.1759
  17   0.0000       0.021668         0.5896
  18   0.0000       0.056958         1.5499
  19   0.0000       0.091047         2.4775
  20   0.0000       0.139362         3.7922
  21   0.0000       0.156657         4.2629

MULLIKEN ATOMIC CHARGES
-----------------------
   0 C :   -0.405457
   1 S :   -0.115331
   2 C :   -0.405465
   3 H :    0.153804
   4 H :    0.153804
   5 H :    0.155519
   6 H :    0.153806
   7 H :    0.155518
   8 H :    0.153802
Sum of atomic charges:   -0.0000000

LOEWDIN ATOMIC CHARGES
----------------------
   0 C :   -0.463074
   1 S :   -0.018211
   2 C :   -0.463082
   3 H :    0.153072
   4 H :    0.153077
   5 H :    0.166034
   6 H :    0.153071
   7 H :    0.166035
   8 H :    0.153078

  Mayer bond orders larger than 0.100000
B(  0-C ,  1-S ) :   0.9855 B(  0-C ,  3-H ) :   0.9545 B(  0-C ,  4-H ) :   0.9545
B(  0-C ,  5-H ) :   0.9519 B(  1-S ,  2-C ) :   0.9855 B(  2-C ,  6-H ) :   0.9545
B(  2-C ,  7-H ) :   0.9519 B(  2-C ,  8-H ) :   0.9545

Dispersion correction           -0.001599330
FINAL SINGLE POINT ENERGY      -477.953870179099

DIPOLE MOMENT
-------------

Method             : SCF
Type of density    : Electron Density
Multiplicity       :   1
Irrep              :   0
Energy             :  -477.9609677482575307 Eh
Relativity type    :
Basis              : AO
                                X                 Y                 Z
Electronic contribution:      0.000025116       3.884068251       0.000082630
Nuclear contribution   :     -0.000030406      -4.559387202      -0.000074499
                        -----------------------------------------
Total Dipole Moment    :     -0.000005290      -0.675318951       0.000008130
                        -----------------------------------------
Magnitude (a.u.)       :      0.675318951
Magnitude (Debye)      :      1.716524360

Rotational constants in cm-1:             0.586690             0.254090             0.190185
Rotational constants in MHz :         17588.528901          7617.426164          5701.588392

                             ****ORCA TERMINATED NORMALLY****
TOTAL RUN TIME: 0 days 0 hours 0 minutes 10 seconds 726 msec
