                         Program Version 6.0.1  -  RELEASE   -
|  1> ! pbe def2-sv(p) def2/J RI DEFGRID1 loosescf d4 GCP(DFT/SV(P)) printgap
|  2> %output
|  3>     printlevel normal
|  4> end
|  5> * xyz 0 1
|  6> C 0.3984993583 -1.7052078296 0.1562614338
|  7> C 0.4527194641 -0.271921303 -0.3356553152
|  8> H 0.3121102611 -0.2251290311 -1.4185487953
|  9> C -0.5433336934 0.6368402004 0.3638718127
| 10> Cl -2.2062674163 0.1647687827 -0.0708368888
| 11> Cl 2.0853038674 0.4078345004 -0.0175945933
| 12> H -0.5906643985 -2.1147829738 -0.0361571086
| 13> H 1.1366767203 -2.3117693747 -0.3614912631
| 14> H 0.5967329318 -1.748648943 1.2248009201
| 15> H -0.4540907422 0.5563594975 1.4473696835
| 16> H -0.4148808407 1.6746149031 0.0562171578
| 17> *
| 18>
| 19>                          ****END OF INPUT****

CARTESIAN COORDINATES (ANGSTROEM)
---------------------------------
  C      0.398499   -1.705208    0.156261
  C      0.452719   -0.271921   -0.335655
  H      0.312110   -0.225129   -1.418549
  C     -0.543334    0.636840    0.363872
  Cl    -2.206267    0.164769   -0.070837
  Cl     2.085304    0.407835   -0.017595
  H     -0.590664   -2.114783   -0.036157
  H      1.136677   -2.311769   -0.361491
  H      0.596733   -1.748649    1.224801
  H     -0.454091    0.556359    1.447370
  H     -0.414881    1.674615    0.056217

 Total Charge           Charge          ....    0
 Multiplicity           Mult            ....    1
 Number of Electrons    NEL             ....   58
 Basis Dimension        Dim             ....   90

ORBITAL ENERGIES
----------------

  NO   OCC          E(Eh)            E(eV)
   0   2.0000    -100.632548     -2738.3508
   1   2.0000    -100.629415     -2738.2656
   2   2.0000      -9.963903      -271.1316
   3   2.0000      -9.953003      -270.8350
   4   2.0000      -9.893425      -269.2138
   5   2.0000      -9.168401      -249.4849
   6   2.0000      -9.165358      -249.4021
   7   2.0000      -6.999975      -190.4790
   8   2.0000      -6.996756      -190.3914
   9   2.0000      -6.988195      -190.1585
  10   2.0000      -6.987799      -190.1477
  11   2.0000      -6.985199      -190.0769
  12   2.0000      -6.984925      -190.0695
  13   2.0000      -0.812118       -22.0989
  14   2.0000      -0.769084       -20.9278
  15   2.0000      -0.674852       -18.3637
  16   2.0000      -0.619948       -16.8696
  17   2.0000      -0.533698       -14.5227
  18   2.0000      -0.447154       -12.1677
  19   2.0000      -0.427418       -11.6306
  20   2.0000      -0.407881       -11.0990
  21   2.0000      -0.377937       -10.2842
  22   2.0000      -0.350939        -9.5495
  23   2.0000      -0.340616        -9.2686
  24   2.0000      -0.332138        -9.0379
  25   2.0000      -0.270982        -7.3738
  26   2.0000      -0.257922        -7.0184
  27   2.0000      -0.256741        -6.9863
  28   2.0000      -0.252369        -6.8673
  29   0.0000      -0.012662        -0.3445
  30   0.0000       0.014326         0.3898
  31   0.0000       0.059350         1.6150
  32   0.0000       0.064450         1.7538
  33   0.0000       0.080241         2.1835

MULLIKEN ATOMIC CHARGES
-----------------------
   0 C :   -0.220042
   1 C :   -0.183700
   2 H :    0.136040
   3 C :   -0.115877
   4 Cl:   -0.135309
   5 Cl:   -0.121894
   6 H :    0.119699
   7 H :    0.121805
   8 H :    0.109622
   9 H :    0.140733
  10 H :    0.148924
Sum of atomic charges:   -0.0000000

LOEWDIN ATOMIC CHARGES
----------------------
   0 C :   -0.354075
   1 C :   -0.216043
   2 H :    0.128153
   3 C :   -0.292870
   4 Cl:    0.046598
   5 Cl:    0.049970
   6 H :    0.127177
   7 H :    0.128483
   8 H :    0.125110
   9 H :    0.128677
  10 H :    0.128820

  Mayer bond orders larger than 0.100000
B(  0-C ,  1-C ) :   1.0956 B(  0-C ,  6-H ) :   0.9273 B(  0-C ,  7-H ) :   0.9463
B(  0-C ,  8-H ) :   0.9436 B(  1-C ,  2-H ) :   0.9062 B(  1-C ,  3-C ) :   1.0359
B(  1-C ,  5-Cl) :   1.0175 B(  3-C ,  4-Cl) :   1.0314 B(  3-C ,  9-H ) :   0.9174
B(  3-C , 10-H ) :   0.9242

Dispersion correction           -0.009562032
FINAL SINGLE POINT ENERGY     -1037.366113933727

DIPOLE MOMENT
-------------

Method             : SCF
Type of density    : Electron Density
Multiplicity       :   1
Irrep              :   0
Energy             : -1037.4018469845270829 Eh
Relativity type    :
Basis              : AO
                                X                 Y                 Z
Electronic contribution:     -0.711722029       4.537892616      -0.940564790
Nuclear contribution   :      0.712019137      -4.680132922       0.974486719
                        -----------------------------------------
Total Dipole Moment    :      0.000297108      -0.142240306       0.033921929
                        -----------------------------------------
Magnitude (a.u.)       :      0.146229580
Magnitude (Debye)      :      0.371686054

Rotational constants in cm-1:             0.231165             0.048671             0.042054
Rotational constants in MHz :          6930.148497          1459.115708          1260.748147

                             ****ORCA TERMINATED NORMALLY****
TOTAL RUN TIME: 0 days 0 hours 0 minutes 4 seconds 238 msec
