                         Program Version 6.0.1  -  RELEASE   -
|  1> ! pbe def2-sv(p) def2/J RI DEFGRID1 loosescf d4 GCP(DFT/SV(P)) printgap
|  2> %output
|  3>     printlevel normal
|  4> end
|  5> * xyz 0 1
|  6> C -2.2004594304 -0.9028540229 -0.1476982216
|  7> C -1.1313952943 -0.3256363946 0.8040248877
|  8> H -1.5911440068 -0.313113441 1.8013818617
|  9> C -0.7353614468 1.1360535621 0.4955606121
| 10> H -1.6014112611 1.6517070229 0.0634585082
| 11> C 0.4446345812 1.2443642763 -0.4879250969
| 12> H 0.785750986 2.2912807545 -0.4783503373
| 13> C 1.6022538653 0.3427367179 0.0016363579
| 14> H 2.4029978302 0.349756973 -0.7537156996
| 15> C 1.0883886527 -1.0996238785 0.1217307898
| 16> H 1.8379851399 -1.7216366389 0.6278353771
| 17> O -0.0244526953 -1.2086892258 0.9618978634
| 18> O 0.8741610062 -1.6445507714 -1.152639414
| 19> O 2.0944892652 0.7435755024 1.2580905936
| 20> O 0.1089877874 0.9243553598 -1.8168632006
| 21> O -0.4404877929 1.8243630986 1.6829268292
| 22> O -1.792246514 -0.9969913247 -1.4904970246
| 23> H -3.0753997392 -0.2490411239 -0.1340758941
| 24> H -2.488328666 -1.8902685541 0.2302551929
| 25> H 0.8051856067 -0.9178664202 -1.7978291449
| 26> H 2.5051092012 1.6123348894 1.1723736925
| 27> H -0.7416178567 0.4345061623 -1.8361942647
| 28> H 0.3193451482 1.383982547 2.0962349566
| 29> H -1.0765242113 -1.6573843561 -1.5307106643
| 30> *
| 31>
| 32>                          ****END OF INPUT****

CARTESIAN COORDINATES (ANGSTROEM)
---------------------------------
  C     -2.200459   -0.902854   -0.147698
  C     -1.131395   -0.325636    0.804025
  H     -1.591144   -0.313113    1.801382
  C     -0.735361    1.136054    0.495561
  H     -1.601411    1.651707    0.063459
  C      0.444635    1.244364   -0.487925
  H      0.785751    2.291281   -0.478350
  C      1.602254    0.342737    0.001636
  H      2.402998    0.349757   -0.753716
  C      1.088389   -1.099624    0.121731
  H      1.837985   -1.721637    0.627835
  O     -0.024453   -1.208689    0.961898
  O      0.874161   -1.644551   -1.152639
  O      2.094489    0.743576    1.258091
  O      0.108988    0.924355   -1.816863
  O     -0.440488    1.824363    1.682927
  O     -1.792247   -0.996991   -1.490497
  H     -3.075400   -0.249041   -0.134076
  H     -2.488329   -1.890269    0.230255
  H      0.805186   -0.917866   -1.797829
  H      2.505109    1.612335    1.172374
  H     -0.741618    0.434506   -1.836194
  H      0.319345    1.383983    2.096235
  H     -1.076524   -1.657384   -1.530711

 Total Charge           Charge          ....    0
 Multiplicity           Mult            ....    1
 Number of Electrons    NEL             ....   96
 Basis Dimension        Dim             ....  192

ORBITAL ENERGIES
----------------

  NO   OCC          E(Eh)            E(eV)
   0   2.0000     -18.785070      -511.1677
   1   2.0000     -18.775915      -510.9186
   2   2.0000     -18.772769      -510.8330
   3   2.0000     -18.771779      -510.8061
   4   2.0000     -18.764915      -510.6193
   5   2.0000     -18.747691      -510.1506
   6   2.0000      -9.995169      -271.9824
   7   2.0000      -9.959398      -271.0090
   8   2.0000      -9.954170      -270.8667
   9   2.0000      -9.953469      -270.8477
  10   2.0000      -9.951127      -270.7839
  11   2.0000      -9.946047      -270.6457
  12   2.0000      -0.992686       -27.0123
  13   2.0000      -0.959531       -26.1102
  14   2.0000      -0.949181       -25.8285
  15   2.0000      -0.938185       -25.5293
  16   2.0000      -0.933177       -25.3930
  17   2.0000      -0.917181       -24.9578
  18   2.0000      -0.708209       -19.2713
  19   2.0000      -0.701031       -19.0760
  20   2.0000      -0.630771       -17.1642
  21   2.0000      -0.604613       -16.4524
  22   2.0000      -0.587634       -15.9903
  23   2.0000      -0.531872       -14.4730
  24   2.0000      -0.506327       -13.7779
  25   2.0000      -0.494070       -13.4443
  26   2.0000      -0.483017       -13.1435
  27   2.0000      -0.474912       -12.9230
  28   2.0000      -0.454004       -12.3541
  29   2.0000      -0.446409       -12.1474
  30   2.0000      -0.440435       -11.9848
  31   2.0000      -0.407117       -11.0782
  32   2.0000      -0.405628       -11.0377
  33   2.0000      -0.381037       -10.3686
  34   2.0000      -0.369516       -10.0550
  35   2.0000      -0.355620        -9.6769
  36   2.0000      -0.342076        -9.3083
  37   2.0000      -0.332080        -9.0363
  38   2.0000      -0.317345        -8.6354
  39   2.0000      -0.311093        -8.4653
  40   2.0000      -0.299600        -8.1525
  41   2.0000      -0.280484        -7.6324
  42   2.0000      -0.269337        -7.3290
  43   2.0000      -0.268267        -7.2999
  44   2.0000      -0.252872        -6.8810
  45   2.0000      -0.234330        -6.3764
  46   2.0000      -0.220027        -5.9872
  47   2.0000      -0.209159        -5.6915
  48   0.0000       0.002023         0.0551
  49   0.0000       0.023830         0.6485
  50   0.0000       0.046155         1.2559
  51   0.0000       0.058216         1.5841
  52   0.0000       0.061450         1.6721

MULLIKEN ATOMIC CHARGES
-----------------------
   0 C :    0.039505
   1 C :    0.017785
   2 H :    0.084737
   3 C :    0.048023
   4 H :    0.082067
   5 C :    0.030820
   6 H :    0.070945
   7 C :   -0.038416
   8 H :    0.094664
   9 C :    0.230384
  10 H :    0.081340
  11 O :   -0.306571
  12 O :   -0.421881
  13 O :   -0.408474
  14 O :   -0.432812
  15 O :   -0.431118
  16 O :   -0.449859
  17 H :    0.096097
  18 H :    0.097096
  19 H :    0.295366
  20 H :    0.313817
  21 H :    0.303541
  22 H :    0.296950
  23 H :    0.305995
Sum of atomic charges:   -0.0000000

LOEWDIN ATOMIC CHARGES
----------------------
   0 C :   -0.133579
   1 C :   -0.081219
   2 H :    0.127814
   3 C :   -0.072545
   4 H :    0.120048
   5 C :   -0.080811
   6 H :    0.107779
   7 C :   -0.099134
   8 H :    0.112949
   9 C :    0.004096
  10 H :    0.113274
  11 O :   -0.138931
  12 O :   -0.314628
  13 O :   -0.300678
  14 O :   -0.326698
  15 O :   -0.319561
  16 O :   -0.326759
  17 H :    0.119565
  18 H :    0.112646
  19 H :    0.268651
  20 H :    0.294510
  21 H :    0.267944
  22 H :    0.270038
  23 H :    0.275228

  Mayer bond orders larger than 0.100000
B(  0-C ,  1-C ) :   1.0336 B(  0-C , 16-O ) :   1.0439 B(  0-C , 17-H ) :   0.9199
B(  0-C , 18-H ) :   0.9144 B(  1-C ,  2-H ) :   0.8800 B(  1-C ,  3-C ) :   0.9794
B(  1-C , 11-O ) :   0.9881 B(  3-C ,  4-H ) :   0.8943 B(  3-C ,  5-C ) :   0.9918
B(  3-C , 15-O ) :   1.0447 B(  5-C ,  6-H ) :   0.9015 B(  5-C ,  7-C ) :   0.9530
B(  5-C , 14-O ) :   1.0641 B(  7-C ,  8-H ) :   0.9015 B(  7-C ,  9-C ) :   1.0034
B(  7-C , 13-O ) :   1.0387 B(  9-C , 10-H ) :   0.9047 B(  9-C , 11-O ) :   1.0773
B(  9-C , 12-O ) :   1.0699 B( 12-O , 19-H ) :   0.7761 B( 12-O , 23-H ) :   0.1218
B( 13-O , 20-H ) :   0.8368 B( 13-O , 22-H ) :   0.1019 B( 14-O , 19-H ) :   0.1372
B( 14-O , 21-H ) :   0.7514 B( 15-O , 22-H ) :   0.8135 B( 16-O , 21-H ) :   0.1708
B( 16-O , 23-H ) :   0.7810

Dispersion correction           -0.026960136
FINAL SINGLE POINT ENERGY      -685.705370180808

DIPOLE MOMENT
-------------

Method             : SCF
Type of density    : Electron Density
Multiplicity       :   1
Irrep              :   0
Energy             :  -685.8442181941044282 Eh
Relativity type    :
Basis              : AO
                                X                 Y                 Z
Electronic contribution:      2.119378965      -0.605043056       0.602958200
Nuclear contribution   :     -1.787304346       0.908716909      -0.514242230
                        -----------------------------------------
Total Dipole Moment    :      0.332074619       0.303673853       0.088715970
                        -----------------------------------------
Magnitude (a.u.)       :      0.458652248
Magnitude (Debye)      :      1.165801368

Rotational constants in cm-1:             0.041450             0.031818             0.027455
Rotational constants in MHz :          1242.626508           953.873863           823.075073

                             ****ORCA TERMINATED NORMALLY****
TOTAL RUN TIME: 0 days 0 hours 0 minutes 12 seconds 638 msec
