                         Program Version 6.0.1  -  RELEASE   -
|  1> ! pbe def2-sv(p) def2/J RI DEFGRID1 loosescf d4 GCP(DFT/SV(P)) printgap
|  2> %output
|  3>     printlevel normal
|  4> end
|  5> * xyz 0 1
|  6> C -2.2727531793 -0.9422017211 0.1831436068
|  7> O -1.0152086082 -0.6621652666 -0.421474396
|  8> C -0.4574503712 0.5052442418 -0.1126592341
|  9> O -0.9458623451 1.3348554826 0.600244933
| 10> C 0.9051755763 0.6383284492 -0.7899769034
| 11> C 1.8650874287 -0.1321980933 -0.0397406171
| 12> N 2.6154016322 -0.7468701236 0.5630031442
| 13> H -2.9936049025 -0.1610090411 -0.0652647812
| 14> H -2.1655354269 -0.9931562198 1.2679978314
| 15> H -2.5920875432 -1.9014572443 -0.2147743252
| 16> H 1.2061163876 1.6878043733 -0.7952576079
| 17> H 0.8517475197 0.2444036029 -1.8068375711
| 18> *
| 19>
| 20>                          ****END OF INPUT****

CARTESIAN COORDINATES (ANGSTROEM)
---------------------------------
  C     -2.272753   -0.942202    0.183144
  O     -1.015209   -0.662165   -0.421474
  C     -0.457450    0.505244   -0.112659
  O     -0.945862    1.334855    0.600245
  C      0.905176    0.638328   -0.789977
  C      1.865087   -0.132198   -0.039741
  N      2.615402   -0.746870    0.563003
  H     -2.993605   -0.161009   -0.065265
  H     -2.165535   -0.993156    1.267998
  H     -2.592088   -1.901457   -0.214774
  H      1.206116    1.687804   -0.795258
  H      0.851748    0.244404   -1.806838

 Total Charge           Charge          ....    0
 Multiplicity           Mult            ....    1
 Number of Electrons    NEL             ....   52
 Basis Dimension        Dim             ....  108

ORBITAL ENERGIES
----------------

  NO   OCC          E(Eh)            E(eV)
   0   2.0000     -18.827068      -512.3106
   1   2.0000     -18.765844      -510.6446
   2   2.0000     -13.989806      -380.6820
   3   2.0000     -10.037077      -273.1228
   4   2.0000      -9.956699      -270.9356
   5   2.0000      -9.953871      -270.8586
   6   2.0000      -9.937470      -270.4123
   7   2.0000      -1.034699       -28.1556
   8   2.0000      -0.945380       -25.7251
   9   2.0000      -0.826354       -22.4862
  10   2.0000      -0.743220       -20.2240
  11   2.0000      -0.670752       -18.2521
  12   2.0000      -0.537928       -14.6378
  13   2.0000      -0.500246       -13.6124
  14   2.0000      -0.479442       -13.0463
  15   2.0000      -0.452231       -12.3058
  16   2.0000      -0.439068       -11.9476
  17   2.0000      -0.413032       -11.2392
  18   2.0000      -0.393211       -10.6998
  19   2.0000      -0.365182        -9.9371
  20   2.0000      -0.331883        -9.0310
  21   2.0000      -0.307140        -8.3577
  22   2.0000      -0.305214        -8.3053
  23   2.0000      -0.302017        -8.2183
  24   2.0000      -0.283335        -7.7099
  25   2.0000      -0.248377        -6.7587
  26   0.0000      -0.052549        -1.4299
  27   0.0000      -0.002116        -0.0576
  28   0.0000       0.007815         0.2127
  29   0.0000       0.034222         0.9312
  30   0.0000       0.051181         1.3927

MULLIKEN ATOMIC CHARGES
-----------------------
   0 C :   -0.115357
   1 O :   -0.236838
   2 C :    0.094157
   3 O :   -0.169831
   4 C :   -0.045260
   5 C :   -0.273712
   6 N :    0.065802
   7 H :    0.125422
   8 H :    0.129387
   9 H :    0.130975
  10 H :    0.146600
  11 H :    0.148657
Sum of atomic charges:    0.0000000

LOEWDIN ATOMIC CHARGES
----------------------
   0 C :   -0.202514
   1 O :   -0.065282
   2 C :    0.041314
   3 O :   -0.130312
   4 C :   -0.250556
   5 C :   -0.052393
   6 N :   -0.052489
   7 H :    0.122382
   8 H :    0.125009
   9 H :    0.125765
  10 H :    0.169469
  11 H :    0.169608

  Mayer bond orders larger than 0.100000
B(  0-C ,  1-O ) :   0.9346 B(  0-C ,  7-H ) :   0.9500 B(  0-C ,  8-H ) :   0.9515
B(  0-C ,  9-H ) :   0.9577 B(  1-O ,  2-C ) :   1.2161 B(  2-C ,  3-O ) :   2.1030
B(  2-C ,  4-C ) :   0.9630 B(  4-C ,  5-C ) :   1.1666 B(  4-C , 10-H ) :   0.8689
B(  4-C , 11-H ) :   0.8691 B(  5-C ,  6-N ) :   3.0630

Dispersion correction           -0.008754135
FINAL SINGLE POINT ENERGY      -359.878784908077

DIPOLE MOMENT
-------------

Method             : SCF
Type of density    : Electron Density
Multiplicity       :   1
Irrep              :   0
Energy             :  -359.9215094384977647 Eh
Relativity type    :
Basis              : AO
                                X                 Y                 Z
Electronic contribution:      4.253316044       1.090094783       0.583979394
Nuclear contribution   :     -5.356028234      -1.048096278      -1.508597546
                        -----------------------------------------
Total Dipole Moment    :     -1.102712191       0.041998505      -0.924618152
                        -----------------------------------------
Magnitude (a.u.)       :      1.439672455
Magnitude (Debye)      :      3.659356566

Rotational constants in cm-1:             0.174725             0.057684             0.050278
Rotational constants in MHz :          5238.120474          1729.335296          1507.297770

                             ****ORCA TERMINATED NORMALLY****
TOTAL RUN TIME: 0 days 0 hours 1 minutes 9 seconds 648 msec
