                         Program Version 6.0.1  -  RELEASE   -
|  1> ! pbe def2-sv(p) def2/J RI DEFGRID1 loosescf d4 GCP(DFT/SV(P)) printgap
|  2> %output
|  3>     printlevel normal
|  4> end
|  5> * xyz 0 1
|  6> C 2.873598878 -0.744214901 -0.1106410839
|  7> C 1.9947167367 0.4814351743 0.1001874596
|  8> C 0.5125471503 0.2307627131 0.0447614607
|  9> C -0.362873052 1.2977810907 0.2414884763
| 10> C -1.726567199 1.0743175289 0.1911302764
| 11> N -2.262571547 -0.1140210033 -0.0369039078
| 12> C -1.437224648 -1.1275125115 -0.2240875496
| 13> C -0.055020634 -1.0143001868 -0.1944777115
| 14> H 2.6800577591 -1.4961175358 0.6511764773
| 15> H 3.9214929797 -0.459280399 -0.0473111317
| 16> H 2.7002346792 -1.182234187 -1.0910596475
| 17> H 2.2381618342 1.2335016038 -0.6569380234
| 18> H 2.2254424203 0.9267195742 1.0730304347
| 19> H 0.0219052772 2.289099712 0.4318236043
| 20> H -2.4303563043 1.8830891857 0.3405368743
| 21> H -1.9088897955 -2.0845174296 -0.4081154776
| 22> H 0.5541767203 -1.8884625915 -0.3566076856
| 23> *
| 24>
| 25>                          ****END OF INPUT****

CARTESIAN COORDINATES (ANGSTROEM)
---------------------------------
  C      2.873599   -0.744215   -0.110641
  C      1.994717    0.481435    0.100187
  C      0.512547    0.230763    0.044761
  C     -0.362873    1.297781    0.241488
  C     -1.726567    1.074318    0.191130
  N     -2.262572   -0.114021   -0.036904
  C     -1.437225   -1.127513   -0.224088
  C     -0.055021   -1.014300   -0.194478
  H      2.680058   -1.496118    0.651176
  H      3.921493   -0.459280   -0.047311
  H      2.700235   -1.182234   -1.091060
  H      2.238162    1.233502   -0.656938
  H      2.225442    0.926720    1.073030
  H      0.021905    2.289100    0.431824
  H     -2.430356    1.883089    0.340537
  H     -1.908890   -2.084517   -0.408115
  H      0.554177   -1.888463   -0.356608

 Total Charge           Charge          ....    0
 Multiplicity           Mult            ....    1
 Number of Electrons    NEL             ....   58
 Basis Dimension        Dim             ....  130

ORBITAL ENERGIES
----------------

  NO   OCC          E(Eh)            E(eV)
   0   2.0000     -13.972576      -380.2131
   1   2.0000      -9.919421      -269.9212
   2   2.0000      -9.917237      -269.8617
   3   2.0000      -9.916473      -269.8409
   4   2.0000      -9.904415      -269.5128
   5   2.0000      -9.897925      -269.3362
   6   2.0000      -9.896494      -269.2973
   7   2.0000      -9.888370      -269.0762
   8   2.0000      -0.854120       -23.2418
   9   2.0000      -0.749768       -20.4022
  10   2.0000      -0.683230       -18.5916
  11   2.0000      -0.679191       -18.4817
  12   2.0000      -0.589972       -16.0540
  13   2.0000      -0.563590       -15.3361
  14   2.0000      -0.527302       -14.3486
  15   2.0000      -0.460834       -12.5399
  16   2.0000      -0.436510       -11.8781
  17   2.0000      -0.419554       -11.4167
  18   2.0000      -0.412305       -11.2194
  19   2.0000      -0.383255       -10.4289
  20   2.0000      -0.372237       -10.1291
  21   2.0000      -0.357729        -9.7343
  22   2.0000      -0.342949        -9.3321
  23   2.0000      -0.323936        -8.8147
  24   2.0000      -0.317775        -8.6471
  25   2.0000      -0.306063        -8.3284
  26   2.0000      -0.248275        -6.7559
  27   2.0000      -0.237536        -6.4637
  28   2.0000      -0.198699        -5.4069
  29   0.0000      -0.050718        -1.3801
  30   0.0000      -0.041109        -1.1186
  31   0.0000       0.037984         1.0336
  32   0.0000       0.061808         1.6819
  33   0.0000       0.064662         1.7595

MULLIKEN ATOMIC CHARGES
-----------------------
   0 C :   -0.269873
   1 C :   -0.154540
   2 C :    0.067950
   3 C :   -0.119782
   4 C :   -0.050701
   5 N :   -0.057937
   6 C :   -0.049848
   7 C :   -0.139860
   8 H :    0.111748
   9 H :    0.108847
  10 H :    0.111726
  11 H :    0.107125
  12 H :    0.106658
  13 H :    0.047590
  14 H :    0.065240
  15 H :    0.064026
  16 H :    0.051631
Sum of atomic charges:   -0.0000000

LOEWDIN ATOMIC CHARGES
----------------------
   0 C :   -0.341064
   1 C :   -0.222735
   2 C :   -0.020452
   3 C :   -0.141248
   4 C :   -0.080797
   5 N :   -0.081677
   6 C :   -0.079044
   7 C :   -0.149785
   8 H :    0.122464
   9 H :    0.124965
  10 H :    0.122364
  11 H :    0.134253
  12 H :    0.133972
  13 H :    0.124837
  14 H :    0.113358
  15 H :    0.113275
  16 H :    0.127315

  Mayer bond orders larger than 0.100000
B(  0-C ,  1-C ) :   1.2014 B(  0-C ,  8-H ) :   0.9442 B(  0-C ,  9-H ) :   0.9460
B(  0-C , 10-H ) :   0.9436 B(  1-C ,  2-C ) :   1.0590 B(  1-C , 11-H ) :   0.9017
B(  1-C , 12-H ) :   0.9024 B(  2-C ,  3-C ) :   1.4001 B(  2-C ,  7-C ) :   1.4427
B(  3-C ,  4-C ) :   1.3927 B(  3-C , 13-H ) :   0.9479 B(  4-C ,  5-N ) :   1.5355
B(  4-C , 14-H ) :   0.9518 B(  5-N ,  6-C ) :   1.5656 B(  6-C ,  7-C ) :   1.3538
B(  6-C , 15-H ) :   0.9496 B(  7-C , 16-H ) :   0.9333

Dispersion correction           -0.016238240
FINAL SINGLE POINT ENERGY      -326.177097746878

DIPOLE MOMENT
-------------

Method             : SCF
Type of density    : Electron Density
Multiplicity       :   1
Irrep              :   0
Energy             :  -326.2267008291636898 Eh
Relativity type    :
Basis              : AO
                                X                 Y                 Z
Electronic contribution:     -8.321643064       0.871848260       0.091877448
Nuclear contribution   :      9.371367598      -0.730709868      -0.059742811
                        -----------------------------------------
Total Dipole Moment    :      1.049724534       0.141138393       0.032134637
                        -----------------------------------------
Magnitude (a.u.)       :      1.059657623
Magnitude (Debye)      :      2.693435627

Rotational constants in cm-1:             0.169865             0.049662             0.038985
Rotational constants in MHz :          5092.438608          1488.820834          1168.734180

                             ****ORCA TERMINATED NORMALLY****
TOTAL RUN TIME: 0 days 0 hours 0 minutes 12 seconds 436 msec
