                         Program Version 6.0.1  -  RELEASE   -
|  1> ! pbe def2-sv(p) def2/J RI DEFGRID1 loosescf d4 GCP(DFT/SV(P)) printgap
|  2> %output
|  3>     printlevel normal
|  4> end
|  5> * xyz 0 1
|  6> C -2.2777002165 -1.0919730662 -0.2146241284
|  7> C -0.8984339393 -0.5851046052 0.2051231784
|  8> H -0.8067403082 -0.7007169539 1.2976420323
|  9> C -0.7386881807 0.9149104556 -0.1335759513
| 10> H -1.3211288378 1.1476214821 -1.0401831521
| 11> C 0.7443445606 1.2460779935 -0.4056611606
| 12> H 0.9037261189 2.2976687862 -0.1188651863
| 13> C 1.6149600856 0.3457067078 0.4742324038
| 14> H 2.675883281 0.5594031327 0.290013882
| 15> C 1.3917875926 -1.1341283093 0.0466947085
| 16> H 1.5791720947 -1.7818708745 0.9168335164
| 17> O 0.0763540145 -1.3557009805 -0.4447981091
| 18> O 2.2733804381 -1.5122383773 -0.9396263561
| 19> O 1.3639276911 0.5594351068 1.8381737295
| 20> O 1.115313743 1.0291845961 -1.744642511
| 21> O -1.1686414448 1.7163666272 0.9422063289
| 22> O -3.2410009197 -0.263616109 0.4071921381
| 23> H -2.3847409384 -2.1360705518 0.0985375099
| 24> H -2.360890522 -1.043078202 -1.3078082989
| 25> H 2.0932318171 -0.9556506133 -1.7121270461
| 26> H 0.5379627156 1.0559730104 1.9358965516
| 27> H 0.5756330904 1.584781842 -2.3179861256
| 28> H -2.0789054239 1.4579511412 1.1439769733
| 29> H -4.1185533717 -0.6102410422 0.2167768469
| 30> *
| 31>
| 32>                          ****END OF INPUT****

CARTESIAN COORDINATES (ANGSTROEM)
---------------------------------
  C     -2.277700   -1.091973   -0.214624
  C     -0.898434   -0.585105    0.205123
  H     -0.806740   -0.700717    1.297642
  C     -0.738688    0.914910   -0.133576
  H     -1.321129    1.147621   -1.040183
  C      0.744345    1.246078   -0.405661
  H      0.903726    2.297669   -0.118865
  C      1.614960    0.345707    0.474232
  H      2.675883    0.559403    0.290014
  C      1.391788   -1.134128    0.046695
  H      1.579172   -1.781871    0.916834
  O      0.076354   -1.355701   -0.444798
  O      2.273380   -1.512238   -0.939626
  O      1.363928    0.559435    1.838174
  O      1.115314    1.029185   -1.744643
  O     -1.168641    1.716367    0.942206
  O     -3.241001   -0.263616    0.407192
  H     -2.384741   -2.136071    0.098538
  H     -2.360891   -1.043078   -1.307808
  H      2.093232   -0.955651   -1.712127
  H      0.537963    1.055973    1.935897
  H      0.575633    1.584782   -2.317986
  H     -2.078905    1.457951    1.143977
  H     -4.118553   -0.610241    0.216777

 Total Charge           Charge          ....    0
 Multiplicity           Mult            ....    1
 Number of Electrons    NEL             ....   96
 Basis Dimension        Dim             ....  192

ORBITAL ENERGIES
----------------

  NO   OCC          E(Eh)            E(eV)
   0   2.0000     -18.779633      -511.0198
   1   2.0000     -18.772640      -510.8295
   2   2.0000     -18.767441      -510.6880
   3   2.0000     -18.761151      -510.5169
   4   2.0000     -18.741155      -509.9728
   5   2.0000     -18.738542      -509.9016
   6   2.0000      -9.970934      -271.3229
   7   2.0000      -9.951434      -270.7923
   8   2.0000      -9.950243      -270.7599
   9   2.0000      -9.947710      -270.6910
  10   2.0000      -9.946615      -270.6611
  11   2.0000      -9.933519      -270.3048
  12   2.0000      -0.977342       -26.5948
  13   2.0000      -0.953501       -25.9461
  14   2.0000      -0.948818       -25.8186
  15   2.0000      -0.939616       -25.5682
  16   2.0000      -0.918627       -24.9971
  17   2.0000      -0.904405       -24.6101
  18   2.0000      -0.703856       -19.1529
  19   2.0000      -0.687415       -18.7055
  20   2.0000      -0.624955       -17.0059
  21   2.0000      -0.582790       -15.8585
  22   2.0000      -0.566093       -15.4042
  23   2.0000      -0.522561       -14.2196
  24   2.0000      -0.506637       -13.7863
  25   2.0000      -0.497272       -13.5315
  26   2.0000      -0.481521       -13.1028
  27   2.0000      -0.458993       -12.4898
  28   2.0000      -0.450403       -12.2561
  29   2.0000      -0.439487       -11.9590
  30   2.0000      -0.415749       -11.3131
  31   2.0000      -0.412556       -11.2262
  32   2.0000      -0.383131       -10.4255
  33   2.0000      -0.379933       -10.3385
  34   2.0000      -0.356614        -9.7040
  35   2.0000      -0.352378        -9.5887
  36   2.0000      -0.337836        -9.1930
  37   2.0000      -0.324693        -8.8354
  38   2.0000      -0.315665        -8.5897
  39   2.0000      -0.296267        -8.0618
  40   2.0000      -0.286461        -7.7950
  41   2.0000      -0.264113        -7.1869
  42   2.0000      -0.251157        -6.8343
  43   2.0000      -0.244792        -6.6611
  44   2.0000      -0.239819        -6.5258
  45   2.0000      -0.237048        -6.4504
  46   2.0000      -0.215261        -5.8576
  47   2.0000      -0.191654        -5.2152
  48   0.0000       0.000060         0.0016
  49   0.0000       0.010151         0.2762
  50   0.0000       0.044802         1.2191
  51   0.0000       0.053328         1.4511
  52   0.0000       0.062438         1.6990

MULLIKEN ATOMIC CHARGES
-----------------------
   0 C :    0.061790
   1 C :    0.014459
   2 H :    0.059172
   3 C :    0.000578
   4 H :    0.045064
   5 C :    0.053871
   6 H :    0.084138
   7 C :   -0.015620
   8 H :    0.084641
   9 C :    0.227016
  10 H :    0.068057
  11 O :   -0.298565
  12 O :   -0.391171
  13 O :   -0.418293
  14 O :   -0.417618
  15 O :   -0.419944
  16 O :   -0.450883
  17 H :    0.092358
  18 H :    0.079748
  19 H :    0.300276
  20 H :    0.305500
  21 H :    0.306608
  22 H :    0.313951
  23 H :    0.314866
Sum of atomic charges:    0.0000000

LOEWDIN ATOMIC CHARGES
----------------------
   0 C :   -0.119468
   1 C :   -0.078066
   2 H :    0.104577
   3 C :   -0.080568
   4 H :    0.098785
   5 C :   -0.071375
   6 H :    0.109168
   7 C :   -0.086324
   8 H :    0.117461
   9 C :    0.005799
  10 H :    0.101732
  11 O :   -0.151134
  12 O :   -0.292034
  13 O :   -0.317166
  14 O :   -0.310607
  15 O :   -0.314044
  16 O :   -0.342907
  17 H :    0.107118
  18 H :    0.100465
  19 H :    0.276478
  20 H :    0.273877
  21 H :    0.288855
  22 H :    0.283688
  23 H :    0.295689

  Mayer bond orders larger than 0.100000
B(  0-C ,  1-C ) :   1.0616 B(  0-C , 16-O ) :   1.0531 B(  0-C , 17-H ) :   0.9188
B(  0-C , 18-H ) :   0.9078 B(  1-C ,  2-H ) :   0.8629 B(  1-C ,  3-C ) :   0.9902
B(  1-C , 11-O ) :   1.0693 B(  3-C ,  4-H ) :   0.8814 B(  3-C ,  5-C ) :   0.9806
B(  3-C , 15-O ) :   1.0511 B(  5-C ,  6-H ) :   0.8957 B(  5-C ,  7-C ) :   1.0416
B(  5-C , 14-O ) :   1.0395 B(  7-C ,  8-H ) :   0.8983 B(  7-C ,  9-C ) :   0.9336
B(  7-C , 13-O ) :   1.0778 B(  9-C , 10-H ) :   0.9036 B(  9-C , 11-O ) :   0.9887
B(  9-C , 12-O ) :   1.1503 B( 12-O , 19-H ) :   0.8279 B( 13-O , 20-H ) :   0.8090
B( 14-O , 21-H ) :   0.8417 B( 15-O , 22-H ) :   0.8166 B( 16-O , 23-H ) :   0.8450

Dispersion correction           -0.025224851
FINAL SINGLE POINT ENERGY      -685.694665821135

DIPOLE MOMENT
-------------

Method             : SCF
Type of density    : Electron Density
Multiplicity       :   1
Irrep              :   0
Energy             :  -685.8281638395468462 Eh
Relativity type    :
Basis              : AO
                                X                 Y                 Z
Electronic contribution:      2.436426776      -0.287278337      -0.174906300
Nuclear contribution   :     -4.408206819       0.824191620      -0.559495247
                        -----------------------------------------
Total Dipole Moment    :     -1.971780042       0.536913283      -0.734401547
                        -----------------------------------------
Magnitude (a.u.)       :      2.171528964
Magnitude (Debye)      :      5.519587977

Rotational constants in cm-1:             0.044821             0.025526             0.022167
Rotational constants in MHz :          1343.708673           765.239006           664.560098

                             ****ORCA TERMINATED NORMALLY****
TOTAL RUN TIME: 0 days 0 hours 0 minutes 7 seconds 873 msec
