                         Program Version 6.0.1  -  RELEASE   -
|  1> ! r2scan-3c def2/J RI DEFGRID2 scfconv6 printgap
|  2> %output
|  3>     printlevel normal
|  4> end
|  5> * xyz 0 1
|  6> C 2.4730452995 1.1632886632 -0.3340876078
|  7> C 1.6997559295 -0.0803311953 0.0281812913
|  8> O 2.2515857952 -1.1161272809 0.3190264374
|  9> C 0.2161737441 0.0230024267 0.0046312826
| 10> C -0.4846149059 1.2165238087 -0.1640214099
| 11> C -1.8683184741 1.1838540428 -0.1687423287
| 12> C -2.5038656556 -0.0389862283 -0.0036113104
| 13> N -1.8527313328 -1.1791852338 0.1560247922
| 14> C -0.5359306004 -1.1462235213 0.159784919
| 15> H 2.29511988 1.9383750369 0.4088916482
| 16> H 2.1604931525 1.5341045808 -1.3076165813
| 17> H 3.5345664593 0.9310316734 -0.3565145448
| 18> H 0.0321303342 2.157228997 -0.2817476231
| 19> H -2.4430283469 2.0884822529 -0.2944977546
| 20> H -3.5834660117 -0.1123815633 0.0033400981
| 21> H -0.0286287981 -2.0929554094 0.2903081125
| 22> *
| 23>
| 24>                          ****END OF INPUT****

CARTESIAN COORDINATES (ANGSTROEM)
---------------------------------
  C      2.473045    1.163289   -0.334088
  C      1.699756   -0.080331    0.028181
  O      2.251586   -1.116127    0.319026
  C      0.216174    0.023002    0.004631
  C     -0.484615    1.216524   -0.164021
  C     -1.868318    1.183854   -0.168742
  C     -2.503866   -0.038986   -0.003611
  N     -1.852731   -1.179185    0.156025
  C     -0.535931   -1.146224    0.159785
  H      2.295120    1.938375    0.408892
  H      2.160493    1.534105   -1.307617
  H      3.534566    0.931032   -0.356515
  H      0.032130    2.157229   -0.281748
  H     -2.443028    2.088482   -0.294498
  H     -3.583466   -0.112382    0.003340
  H     -0.028629   -2.092955    0.290308

 Total Charge           Charge          ....    0
 Multiplicity           Mult            ....    1
 Number of Electrons    NEL             ....   64
 Basis Dimension        Dim             ....  216

ORBITAL ENERGIES
----------------

  NO   OCC          E(Eh)            E(eV)
   0   2.0000     -18.945900      -515.5441
   1   2.0000     -14.167240      -385.5102
   2   2.0000     -10.131634      -275.6958
   3   2.0000     -10.084083      -274.4019
   4   2.0000     -10.079942      -274.2892
   5   2.0000     -10.073947      -274.1260
   6   2.0000     -10.062939      -273.8265
   7   2.0000     -10.060574      -273.7621
   8   2.0000     -10.043192      -273.2892
   9   2.0000      -1.018219       -27.7071
  10   2.0000      -0.930762       -25.3273
  11   2.0000      -0.799944       -21.7676
  12   2.0000      -0.755702       -20.5637
  13   2.0000      -0.719424       -19.5765
  14   2.0000      -0.631813       -17.1925
  15   2.0000      -0.613138       -16.6843
  16   2.0000      -0.540006       -14.6943
  17   2.0000      -0.501951       -13.6588
  18   2.0000      -0.473608       -12.8875
  19   2.0000      -0.445383       -12.1195
  20   2.0000      -0.431639       -11.7455
  21   2.0000      -0.423908       -11.5351
  22   2.0000      -0.401804       -10.9336
  23   2.0000      -0.391350       -10.6492
  24   2.0000      -0.387570       -10.5463
  25   2.0000      -0.373478       -10.1629
  26   2.0000      -0.349891        -9.5210
  27   2.0000      -0.346876        -9.4390
  28   2.0000      -0.288940        -7.8625
  29   2.0000      -0.261322        -7.1109
  30   2.0000      -0.243414        -6.6236
  31   2.0000      -0.220801        -6.0083
  32   0.0000      -0.099351        -2.7035
  33   0.0000      -0.064670        -1.7598
  34   0.0000      -0.006127        -0.1667
  35   0.0000       0.065246         1.7754
  36   0.0000       0.098520         2.6809

MULLIKEN ATOMIC CHARGES
-----------------------
   0 C :   -0.554764
   1 C :    0.242976
   2 O :   -0.338820
   3 C :    0.205578
   4 C :   -0.166294
   5 C :   -0.121073
   6 C :   -0.064985
   7 N :   -0.173091
   8 C :   -0.163228
   9 H :    0.166297
  10 H :    0.173238
  11 H :    0.184267
  12 H :    0.152404
  13 H :    0.151531
  14 H :    0.137087
  15 H :    0.168877
Sum of atomic charges:    0.0000000

LOEWDIN ATOMIC CHARGES
----------------------
   0 C :   -0.384021
   1 C :    0.237782
   2 O :   -0.454889
   3 C :   -0.060950
   4 C :   -0.100934
   5 C :   -0.143330
   6 C :    0.099092
   7 N :   -0.601430
   8 C :    0.140988
   9 H :    0.174643
  10 H :    0.172780
  11 H :    0.177850
  12 H :    0.175604
  13 H :    0.172292
  14 H :    0.187239
  15 H :    0.207284

  Mayer bond orders larger than 0.100000
B(  0-C ,  1-C ) :   0.8764 B(  0-C ,  9-H ) :   0.9461 B(  0-C , 10-H ) :   0.9683
B(  0-C , 11-H ) :   0.9763 B(  1-C ,  2-O ) :   1.9402 B(  1-C ,  3-C ) :   0.8986
B(  2-O ,  3-C ) :  -0.1056 B(  3-C ,  4-C ) :   1.3474 B(  3-C ,  8-C ) :   1.2525
B(  4-C ,  5-C ) :   1.4124 B(  4-C , 12-H ) :   0.9226 B(  5-C ,  6-C ) :   1.3508
B(  5-C , 13-H ) :   0.9413 B(  6-C ,  7-N ) :   1.4434 B(  6-C , 14-H ) :   0.9841
B(  7-N ,  8-C ) :   1.4785 B(  8-C , 15-H ) :   1.0002

Dispersion correction           -0.005275430
FINAL SINGLE POINT ENERGY      -400.831696138727

DIPOLE MOMENT
-------------

Method             : SCF
Type of density    : Electron Density
Multiplicity       :   1
Irrep              :   0
Energy             :  -400.8338193515381818 Eh
Relativity type    :
Basis              : AO
                                X                 Y                 Z
Electronic contribution:     -2.173317211      -4.405090611       1.083847839
Nuclear contribution   :      1.868733668       6.022461284      -1.437171964
                        -----------------------------------------
Total Dipole Moment    :     -0.304583544       1.617370673      -0.353324125
                        -----------------------------------------
Magnitude (a.u.)       :      1.683299429
Magnitude (Debye)      :      4.278607121

Rotational constants in cm-1:             0.126578             0.041599             0.031565
Rotational constants in MHz :          3794.716603          1247.097318           946.288580

                             ****ORCA TERMINATED NORMALLY****
TOTAL RUN TIME: 0 days 0 hours 0 minutes 29 seconds 304 msec
