                         Program Version 6.0.1  -  RELEASE   -
|  1> ! pbe def2-sv(p) def2/J RI DEFGRID1 loosescf d4 GCP(DFT/SV(P)) printgap
|  2> %output
|  3>     printlevel normal
|  4> end
|  5> * xyz 0 1
|  6> C -2.3981043124 -0.7167801784 -0.0185761862
|  7> C -0.9778270517 -0.2762132746 0.3513880515
|  8> H -0.9509522228 -0.0065065869 1.4177650038
|  9> C -0.5235406754 0.9297099291 -0.4857047502
| 10> H -0.54988227 0.6561690514 -1.5473012752
| 11> C 0.9240303729 1.3374776073 -0.1132248853
| 12> H 0.8880735509 2.1481143923 0.6237288247
| 13> C 1.6818800631 0.1597871971 0.5356645629
| 14> H 2.7520912969 0.286285522 0.3140231898
| 15> C 1.2085918283 -1.1511216681 -0.1081313413
| 16> H 1.7594504407 -2.0131178731 0.311801538
| 17> O -0.135151899 -1.4161071094 0.1485431341
| 18> O 1.467341085 -1.0473822795 -1.484077666
| 19> O 1.4445749568 0.1762680042 1.918860704
| 20> O 1.627997001 1.8444333359 -1.2078915564
| 21> O -1.424265867 1.995471056 -0.3648323296
| 22> O -2.8869941399 -1.6912113339 0.8610343795
| 23> H -2.3922348442 -1.0900052911 -1.0528149026
| 24> H -3.0733610385 0.1378407526 0.0458835605
| 25> H 1.0683705075 -1.8048180545 -1.9294614037
| 26> H 1.9197210543 -0.5500539914 2.3383383075
| 27> H 1.7359738819 1.1305962555 -1.8512142442
| 28> H -1.3960536252 2.3323533849 0.5389320312
| 29> H -2.2328607087 -2.3986570417 0.9043935307
| 30> *
| 31>
| 32>                          ****END OF INPUT****

CARTESIAN COORDINATES (ANGSTROEM)
---------------------------------
  C     -2.398104   -0.716780   -0.018576
  C     -0.977827   -0.276213    0.351388
  H     -0.950952   -0.006507    1.417765
  C     -0.523541    0.929710   -0.485705
  H     -0.549882    0.656169   -1.547301
  C      0.924030    1.337478   -0.113225
  H      0.888074    2.148114    0.623729
  C      1.681880    0.159787    0.535665
  H      2.752091    0.286286    0.314023
  C      1.208592   -1.151122   -0.108131
  H      1.759450   -2.013118    0.311802
  O     -0.135152   -1.416107    0.148543
  O      1.467341   -1.047382   -1.484078
  O      1.444575    0.176268    1.918861
  O      1.627997    1.844433   -1.207892
  O     -1.424266    1.995471   -0.364832
  O     -2.886994   -1.691211    0.861034
  H     -2.392235   -1.090005   -1.052815
  H     -3.073361    0.137841    0.045884
  H      1.068371   -1.804818   -1.929461
  H      1.919721   -0.550054    2.338338
  H      1.735974    1.130596   -1.851214
  H     -1.396054    2.332353    0.538932
  H     -2.232861   -2.398657    0.904394

 Total Charge           Charge          ....    0
 Multiplicity           Mult            ....    1
 Number of Electrons    NEL             ....   96
 Basis Dimension        Dim             ....  192

ORBITAL ENERGIES
----------------

  NO   OCC          E(Eh)            E(eV)
   0   2.0000     -18.784359      -511.1484
   1   2.0000     -18.783417      -511.1228
   2   2.0000     -18.771473      -510.7977
   3   2.0000     -18.753376      -510.3053
   4   2.0000     -18.741101      -509.9713
   5   2.0000     -18.739674      -509.9325
   6   2.0000     -10.001274      -272.1485
   7   2.0000      -9.951703      -270.7996
   8   2.0000      -9.943428      -270.5744
   9   2.0000      -9.941742      -270.5286
  10   2.0000      -9.939870      -270.4776
  11   2.0000      -9.925219      -270.0789
  12   2.0000      -0.998208       -27.1626
  13   2.0000      -0.948983       -25.8232
  14   2.0000      -0.938966       -25.5506
  15   2.0000      -0.933571       -25.4038
  16   2.0000      -0.919513       -25.0212
  17   2.0000      -0.914197       -24.8766
  18   2.0000      -0.703166       -19.1341
  19   2.0000      -0.696620       -18.9560
  20   2.0000      -0.620166       -16.8756
  21   2.0000      -0.596750       -16.2384
  22   2.0000      -0.568673       -15.4744
  23   2.0000      -0.532393       -14.4872
  24   2.0000      -0.511227       -13.9112
  25   2.0000      -0.498727       -13.5711
  26   2.0000      -0.474999       -12.9254
  27   2.0000      -0.461126       -12.5479
  28   2.0000      -0.447215       -12.1693
  29   2.0000      -0.432296       -11.7634
  30   2.0000      -0.419171       -11.4062
  31   2.0000      -0.400954       -10.9105
  32   2.0000      -0.386606       -10.5201
  33   2.0000      -0.376706       -10.2507
  34   2.0000      -0.363316        -9.8863
  35   2.0000      -0.357479        -9.7275
  36   2.0000      -0.347720        -9.4619
  37   2.0000      -0.317627        -8.6431
  38   2.0000      -0.311089        -8.4652
  39   2.0000      -0.290015        -7.8917
  40   2.0000      -0.286798        -7.8042
  41   2.0000      -0.273617        -7.4455
  42   2.0000      -0.262916        -7.1543
  43   2.0000      -0.254364        -6.9216
  44   2.0000      -0.232288        -6.3209
  45   2.0000      -0.227186        -6.1820
  46   2.0000      -0.214153        -5.8274
  47   2.0000      -0.200434        -5.4541
  48   0.0000       0.006148         0.1673
  49   0.0000       0.013997         0.3809
  50   0.0000       0.030176         0.8211
  51   0.0000       0.045516         1.2386
  52   0.0000       0.056880         1.5478

MULLIKEN ATOMIC CHARGES
-----------------------
   0 C :    0.109081
   1 C :   -0.012284
   2 H :    0.061421
   3 C :    0.062563
   4 H :    0.044737
   5 C :    0.122609
   6 H :    0.058998
   7 C :    0.001426
   8 H :    0.080601
   9 C :    0.157969
  10 H :    0.055363
  11 O :   -0.321733
  12 O :   -0.404371
  13 O :   -0.405973
  14 O :   -0.421853
  15 O :   -0.407904
  16 O :   -0.431687
  17 H :    0.053932
  18 H :    0.087437
  19 H :    0.306605
  20 H :    0.304820
  21 H :    0.302823
  22 H :    0.299577
  23 H :    0.295842
Sum of atomic charges:   -0.0000000

LOEWDIN ATOMIC CHARGES
----------------------
   0 C :   -0.126670
   1 C :   -0.085600
   2 H :    0.108271
   3 C :   -0.077592
   4 H :    0.114096
   5 C :   -0.063224
   6 H :    0.119126
   7 C :   -0.090397
   8 H :    0.111478
   9 C :   -0.011007
  10 H :    0.089988
  11 O :   -0.148888
  12 O :   -0.316873
  13 O :   -0.306790
  14 O :   -0.308816
  15 O :   -0.300237
  16 O :   -0.335669
  17 H :    0.093869
  18 H :    0.117698
  19 H :    0.288206
  20 H :    0.289955
  21 H :    0.275625
  22 H :    0.283956
  23 H :    0.279497

  Mayer bond orders larger than 0.100000
B(  0-C ,  1-C ) :   1.0487 B(  0-C , 16-O ) :   1.0745 B(  0-C , 17-H ) :   0.9030
B(  0-C , 18-H ) :   0.9096 B(  1-C ,  2-H ) :   0.8593 B(  1-C ,  3-C ) :   1.0314
B(  1-C , 11-O ) :   0.9346 B(  3-C ,  4-H ) :   0.8443 B(  3-C ,  5-C ) :   1.0011
B(  3-C , 15-O ) :   1.0247 B(  5-C ,  6-H ) :   0.8596 B(  5-C ,  7-C ) :   0.9918
B(  5-C , 14-O ) :   1.0580 B(  7-C ,  8-H ) :   0.8841 B(  7-C ,  9-C ) :   1.0189
B(  7-C , 13-O ) :   1.0298 B(  9-C , 10-H ) :   0.8948 B(  9-C , 11-O ) :   1.0940
B(  9-C , 12-O ) :   1.0953 B( 12-O , 19-H ) :   0.8369 B( 13-O , 20-H ) :   0.8447
B( 14-O , 21-H ) :   0.8329 B( 15-O , 22-H ) :   0.8481 B( 16-O , 23-H ) :   0.8486

Dispersion correction           -0.024803613
FINAL SINGLE POINT ENERGY      -685.691298722000

DIPOLE MOMENT
-------------

Method             : SCF
Type of density    : Electron Density
Multiplicity       :   1
Irrep              :   0
Energy             :  -685.8227410589531701 Eh
Relativity type    :
Basis              : AO
                                X                 Y                 Z
Electronic contribution:      1.386568704      -0.070791866       0.080648543
Nuclear contribution   :     -0.441115877      -1.101399483       0.105119331
                        -----------------------------------------
Total Dipole Moment    :      0.945452827      -1.172191349       0.185767874
                        -----------------------------------------
Magnitude (a.u.)       :      1.517373820
Magnitude (Debye)      :      3.856857742

Rotational constants in cm-1:             0.041142             0.025791             0.021671
Rotational constants in MHz :          1233.392814           773.205513           649.693930

                             ****ORCA TERMINATED NORMALLY****
TOTAL RUN TIME: 0 days 0 hours 0 minutes 9 seconds 495 msec
