                         Program Version 6.0.1  -  RELEASE   -
|  1> ! pbe def2-sv(p) def2/J RI DEFGRID1 loosescf d4 GCP(DFT/SV(P)) printgap
|  2> %output
|  3>     printlevel normal
|  4> end
|  5> * xyz 0 1
|  6> C -2.9668795413 -0.0438851884 -0.5746730512
|  7> C -2.0644309735 0.5559982961 0.5014303075
|  8> H -2.7033662302 1.0405368003 1.2495586206
|  9> C -1.0974587476 1.6007813368 -0.0525403913
| 10> C -0.1412891582 1.0042019072 -1.0811640743
| 11> C 0.5821927938 -0.2715728661 -0.6299589637
| 12> H 0.7721646226 -0.8840808611 -1.520423768
| 13> C -0.2192999301 -1.171207337 0.2952295198
| 14> O 0.0096149047 -2.3571425466 0.3388055002
| 15> C -1.2564091879 -0.5414966436 1.1921215831
| 16> C 1.9871639144 -0.0541188282 -0.0029736877
| 17> C 3.0010476694 0.3287043062 -1.0807713845
| 18> C 2.0179491961 0.9745592526 1.1225169372
| 19> H -3.7252565574 -0.6757251513 -0.1176662842
| 20> H -3.4691167105 0.7418665691 -1.1349113263
| 21> H -2.3942015385 -0.656838519 -1.2659725882
| 22> H -1.6606580349 2.4089908244 -0.5253436596
| 23> H -0.5393863912 2.0335505191 0.7787351854
| 24> H -0.7120536615 0.7719999722 -1.982441992
| 25> H 0.5957198145 1.7577295863 -1.3633303216
| 26> H -1.9079183324 -1.3326072347 1.5697219499
| 27> H -0.7239683057 -0.1175528442 2.0484374408
| 28> H 2.2902551392 -1.0236169209 0.4096559044
| 29> H 3.9926755312 0.4170256227 -0.6428071675
| 30> H 2.7482429313 1.283012273 -1.537336523
| 31> H 3.0399444231 -0.4269577799 -1.8616439494
| 32> H 3.0181259834 1.013101307 1.5498444605
| 33> H 1.326842979 0.7140022 1.919483851
| 34> H 1.7752070688 1.9673068919 0.7518021625
| 35> *
| 36>
| 37>                          ****END OF INPUT****

CARTESIAN COORDINATES (ANGSTROEM)
---------------------------------
  C     -2.966880   -0.043885   -0.574673
  C     -2.064431    0.555998    0.501430
  H     -2.703366    1.040537    1.249559
  C     -1.097459    1.600781   -0.052540
  C     -0.141289    1.004202   -1.081164
  C      0.582193   -0.271573   -0.629959
  H      0.772165   -0.884081   -1.520424
  C     -0.219300   -1.171207    0.295230
  O      0.009615   -2.357143    0.338806
  C     -1.256409   -0.541497    1.192122
  C      1.987164   -0.054119   -0.002974
  C      3.001048    0.328704   -1.080771
  C      2.017949    0.974559    1.122517
  H     -3.725257   -0.675725   -0.117666
  H     -3.469117    0.741867   -1.134911
  H     -2.394202   -0.656839   -1.265973
  H     -1.660658    2.408991   -0.525344
  H     -0.539386    2.033551    0.778735
  H     -0.712054    0.772000   -1.982442
  H      0.595720    1.757730   -1.363330
  H     -1.907918   -1.332607    1.569722
  H     -0.723968   -0.117553    2.048437
  H      2.290255   -1.023617    0.409656
  H      3.992676    0.417026   -0.642807
  H      2.748243    1.283012   -1.537337
  H      3.039944   -0.426958   -1.861644
  H      3.018126    1.013101    1.549844
  H      1.326843    0.714002    1.919484
  H      1.775207    1.967307    0.751802

 Total Charge           Charge          ....    0
 Multiplicity           Mult            ....    1
 Number of Electrons    NEL             ....   86
 Basis Dimension        Dim             ....  190

ORBITAL ENERGIES
----------------

  NO   OCC          E(Eh)            E(eV)
   0   2.0000     -18.730059      -509.6708
   1   2.0000      -9.965992      -271.1884
   2   2.0000      -9.903878      -269.4982
   3   2.0000      -9.903477      -269.4873
   4   2.0000      -9.896305      -269.2922
   5   2.0000      -9.891075      -269.1498
   6   2.0000      -9.888533      -269.0807
   7   2.0000      -9.888259      -269.0732
   8   2.0000      -9.879865      -268.8448
   9   2.0000      -9.879180      -268.8262
  10   2.0000      -9.876642      -268.7571
  11   2.0000      -0.933039       -25.3893
  12   2.0000      -0.766084       -20.8462
  13   2.0000      -0.731146       -19.8955
  14   2.0000      -0.674962       -18.3666
  15   2.0000      -0.649525       -17.6745
  16   2.0000      -0.623520       -16.9668
  17   2.0000      -0.613665       -16.6987
  18   2.0000      -0.563315       -15.3286
  19   2.0000      -0.514088       -13.9890
  20   2.0000      -0.505012       -13.7421
  21   2.0000      -0.457315       -12.4442
  22   2.0000      -0.433534       -11.7970
  23   2.0000      -0.418153       -11.3785
  24   2.0000      -0.417409       -11.3583
  25   2.0000      -0.406278       -11.0554
  26   2.0000      -0.394191       -10.7265
  27   2.0000      -0.379582       -10.3290
  28   2.0000      -0.371078       -10.0976
  29   2.0000      -0.356871        -9.7109
  30   2.0000      -0.350536        -9.5386
  31   2.0000      -0.344181        -9.3656
  32   2.0000      -0.341305        -9.2874
  33   2.0000      -0.337077        -9.1723
  34   2.0000      -0.320779        -8.7288
  35   2.0000      -0.315343        -8.5809
  36   2.0000      -0.300058        -8.1650
  37   2.0000      -0.295814        -8.0495
  38   2.0000      -0.290093        -7.8938
  39   2.0000      -0.278226        -7.5709
  40   2.0000      -0.272759        -7.4221
  41   2.0000      -0.267793        -7.2870
  42   2.0000      -0.186042        -5.0625
  43   0.0000      -0.049220        -1.3393
  44   0.0000       0.019880         0.5410
  45   0.0000       0.045904         1.2491
  46   0.0000       0.049270         1.3407
  47   0.0000       0.058116         1.5814

MULLIKEN ATOMIC CHARGES
-----------------------
   0 C :   -0.256860
   1 C :   -0.175051
   2 H :    0.069958
   3 C :   -0.125556
   4 C :   -0.137971
   5 C :   -0.077204
   6 H :    0.070028
   7 C :   -0.030224
   8 O :   -0.154607
   9 C :   -0.078572
  10 C :   -0.187061
  11 C :   -0.233800
  12 C :   -0.254321
  13 H :    0.105200
  14 H :    0.102747
  15 H :    0.117439
  16 H :    0.084836
  17 H :    0.082429
  18 H :    0.088409
  19 H :    0.087057
  20 H :    0.085250
  21 H :    0.111415
  22 H :    0.085702
  23 H :    0.101578
  24 H :    0.098418
  25 H :    0.104229
  26 H :    0.103186
  27 H :    0.106049
  28 H :    0.107300
Sum of atomic charges:    0.0000000

LOEWDIN ATOMIC CHARGES
----------------------
   0 C :   -0.331540
   1 C :   -0.149351
   2 H :    0.117610
   3 C :   -0.219444
   4 C :   -0.220834
   5 C :   -0.158358
   6 H :    0.133548
   7 C :    0.050070
   8 O :   -0.124643
   9 C :   -0.237532
  10 C :   -0.137691
  11 C :   -0.328585
  12 C :   -0.333109
  13 H :    0.123645
  14 H :    0.120105
  15 H :    0.120080
  16 H :    0.118792
  17 H :    0.114962
  18 H :    0.121647
  19 H :    0.118098
  20 H :    0.129053
  21 H :    0.138035
  22 H :    0.122807
  23 H :    0.120535
  24 H :    0.115715
  25 H :    0.120073
  26 H :    0.122970
  27 H :    0.114865
  28 H :    0.118478

  Mayer bond orders larger than 0.100000
B(  0-C ,  1-C ) :   1.1029 B(  0-C , 13-H ) :   0.9469 B(  0-C , 14-H ) :   0.9500
B(  0-C , 15-H ) :   0.9391 B(  1-C ,  2-H ) :   0.8937 B(  1-C ,  3-C ) :   1.0806
B(  1-C ,  9-C ) :   1.0545 B(  3-C ,  4-C ) :   1.1287 B(  3-C , 16-H ) :   0.9104
B(  3-C , 17-H ) :   0.9113 B(  4-C ,  5-C ) :   1.0389 B(  4-C , 18-H ) :   0.9071
B(  4-C , 19-H ) :   0.9042 B(  5-C ,  6-H ) :   0.8585 B(  5-C ,  7-C ) :   0.9491
B(  5-C , 10-C ) :   1.0414 B(  7-C ,  8-O ) :   2.1873 B(  7-C ,  9-C ) :   1.0381
B(  9-C , 20-H ) :   0.8874 B(  9-C , 21-H ) :   0.8771 B( 10-C , 11-C ) :   1.1128
B( 10-C , 12-C ) :   1.1228 B( 10-C , 22-H ) :   0.8912 B( 11-C , 23-H ) :   0.9470
B( 11-C , 24-H ) :   0.9404 B( 11-C , 25-H ) :   0.9471 B( 12-C , 26-H ) :   0.9416
B( 12-C , 27-H ) :   0.9380 B( 12-C , 28-H ) :   0.9336

Dispersion correction           -0.031316741
FINAL SINGLE POINT ENERGY      -466.030529579449

DIPOLE MOMENT
-------------

Method             : SCF
Type of density    : Electron Density
Multiplicity       :   1
Irrep              :   0
Energy             :  -466.1259627301329829 Eh
Relativity type    :
Basis              : AO
                                X                 Y                 Z
Electronic contribution:     -1.724255066      -7.413233149       1.531014493
Nuclear contribution   :      1.616838808       8.438305762      -1.566061987
                        -----------------------------------------
Total Dipole Moment    :     -0.107416257       1.025072613      -0.035047494
                        -----------------------------------------
Magnitude (a.u.)       :      1.031280971
Magnitude (Debye)      :      2.621307909

Rotational constants in cm-1:             0.055784             0.027941             0.023924
Rotational constants in MHz :          1672.365259           837.636411           717.230403

                             ****ORCA TERMINATED NORMALLY****
TOTAL RUN TIME: 0 days 0 hours 0 minutes 18 seconds 283 msec
