                         Program Version 6.0.1  -  RELEASE   -
|  1> ! r2scan-3c def2/J RI DEFGRID2 scfconv6 printgap
|  2> %output
|  3>     printlevel normal
|  4> end
|  5> * xyz 0 1
|  6> C -1.9553131937 0.1467791149 -0.0032799504
|  7> C -0.5905640242 -0.5280449966 0.0203099054
|  8> C 0.5440339626 0.4959470048 -0.0282063496
|  9> O 1.8193726753 -0.0957554316 0.0532968739
| 10> H -2.0717456702 0.7412813688 -0.9069707095
| 11> H -2.7474382219 -0.5972988213 0.0236193798
| 12> H -2.0701737786 0.8038407117 0.8555075422
| 13> H -0.5002613421 -1.2031152387 -0.8362035675
| 14> H -0.485455159 -1.1248757534 0.9285481544
| 15> H 0.4587504873 1.0993218776 -0.9449326118
| 16> H 0.4812955025 1.1680179441 0.8308945296
| 17> H 1.9099941092 -0.7337893302 -0.6633095553
| 18> *
| 19>
| 20>                          ****END OF INPUT****

CARTESIAN COORDINATES (ANGSTROEM)
---------------------------------
  C     -1.955313    0.146779   -0.003280
  C     -0.590564   -0.528045    0.020310
  C      0.544034    0.495947   -0.028206
  O      1.819373   -0.095755    0.053297
  H     -2.071746    0.741281   -0.906971
  H     -2.747438   -0.597299    0.023619
  H     -2.070174    0.803841    0.855508
  H     -0.500261   -1.203115   -0.836204
  H     -0.485455   -1.124876    0.928548
  H      0.458750    1.099322   -0.944933
  H      0.481296    1.168018    0.830895
  H      1.909994   -0.733789   -0.663310

 Total Charge           Charge          ....    0
 Multiplicity           Mult            ....    1
 Number of Electrons    NEL             ....   34
 Basis Dimension        Dim             ....  121

ORBITAL ENERGIES
----------------

  NO   OCC          E(Eh)            E(eV)
   0   2.0000     -18.945058      -515.5212
   1   2.0000     -10.072643      -274.0905
   2   2.0000     -10.029086      -272.9053
   3   2.0000     -10.023199      -272.7451
   4   2.0000      -0.984229       -26.7822
   5   2.0000      -0.747629       -20.3440
   6   2.0000      -0.640266       -17.4225
   7   2.0000      -0.566843       -15.4246
   8   2.0000      -0.474084       -12.9005
   9   2.0000      -0.435464       -11.8496
  10   2.0000      -0.393001       -10.6941
  11   2.0000      -0.386258       -10.5106
  12   2.0000      -0.357403        -9.7254
  13   2.0000      -0.325500        -8.8573
  14   2.0000      -0.313978        -8.5438
  15   2.0000      -0.287513        -7.8236
  16   2.0000      -0.233677        -6.3587
  17   0.0000       0.063887         1.7385
  18   0.0000       0.096255         2.6192
  19   0.0000       0.131456         3.5771
  20   0.0000       0.139280         3.7900
  21   0.0000       0.142524         3.8783

MULLIKEN ATOMIC CHARGES
-----------------------
   0 C :   -0.466713
   1 C :   -0.210609
   2 C :   -0.153776
   3 O :   -0.414217
   4 H :    0.140751
   5 H :    0.148034
   6 H :    0.143003
   7 H :    0.119968
   8 H :    0.148186
   9 H :    0.121817
  10 H :    0.133067
  11 H :    0.290489
Sum of atomic charges:    0.0000000

LOEWDIN ATOMIC CHARGES
----------------------
   0 C :   -0.423209
   1 C :   -0.307177
   2 C :   -0.002122
   3 O :   -0.617533
   4 H :    0.150351
   5 H :    0.152832
   6 H :    0.151567
   7 H :    0.148272
   8 H :    0.157945
   9 H :    0.152718
  10 H :    0.174256
  11 H :    0.262100

  Mayer bond orders larger than 0.100000
B(  0-C ,  1-C ) :   0.9056 B(  0-C ,  4-H ) :   0.9781 B(  0-C ,  5-H ) :   0.9683
B(  0-C ,  6-H ) :   0.9797 B(  1-C ,  2-C ) :   0.9240 B(  1-C ,  7-H ) :   0.9589
B(  1-C ,  8-H ) :   0.9639 B(  2-C ,  3-O ) :   0.9405 B(  2-C ,  9-H ) :   0.9774
B(  2-C , 10-H ) :   0.9745 B(  3-O , 11-H ) :   0.8981

Dispersion correction           -0.002070009
FINAL SINGLE POINT ENERGY      -194.298782574595

DIPOLE MOMENT
-------------

Method             : SCF
Type of density    : Electron Density
Multiplicity       :   1
Irrep              :   0
Energy             :  -194.3036774082220290 Eh
Relativity type    :
Basis              : AO
                                X                 Y                 Z
Electronic contribution:      4.202069353      -0.321853439       0.261495987
Nuclear contribution   :     -4.687307264       0.142477219      -0.667976281
                        -----------------------------------------
Total Dipole Moment    :     -0.485237911      -0.179376220      -0.406480294
                        -----------------------------------------
Magnitude (a.u.)       :      0.657919363
Magnitude (Debye)      :      1.672298121

Rotational constants in cm-1:             0.869614             0.127005             0.119021
Rotational constants in MHz :         26070.357033          3807.506250          3568.163972

                             ****ORCA TERMINATED NORMALLY****
TOTAL RUN TIME: 0 days 0 hours 0 minutes 7 seconds 34 msec
