                         Program Version 6.0.1  -  RELEASE   -
|  1> ! pbe def2-sv(p) def2/J RI DEFGRID1 loosescf d4 GCP(DFT/SV(P)) printgap
|  2> %output
|  3>     printlevel normal
|  4> end
|  5> * xyz 0 1
|  6> C -2.5407769761 -0.4908891478 -0.4423427423
|  7> C -1.3845227567 0.1886465264 0.2678079267
|  8> O -0.1759065807 -0.4972668612 -0.0671755801
|  9> C 0.970013801 0.1714778004 0.0901372807
| 10> O 1.0369805996 1.297912527 0.5052946944
| 11> C 2.1442091702 -0.6687176194 -0.3400938963
| 12> H -2.4006040301 -0.4442576088 -1.5189911317
| 13> H -2.6004187074 -1.5343109796 -0.1448666353
| 14> H -3.4706191292 0.0069699845 -0.1833944458
| 15> H -1.5140619184 0.151890641 1.3554664015
| 16> H -1.2889717644 1.2382770054 -0.0306497357
| 17> H 2.2369952224 -0.6081843699 -1.4227340034
| 18> H 1.9816390993 -1.7063941127 -0.0651900155
| 19> H 3.0528418264 -0.2861184238 0.114262356
| 20> *
| 21>
| 22>                          ****END OF INPUT****

CARTESIAN COORDINATES (ANGSTROEM)
---------------------------------
  C     -2.540777   -0.490889   -0.442343
  C     -1.384523    0.188647    0.267808
  O     -0.175907   -0.497267   -0.067176
  C      0.970014    0.171478    0.090137
  O      1.036981    1.297913    0.505295
  C      2.144209   -0.668718   -0.340094
  H     -2.400604   -0.444258   -1.518991
  H     -2.600419   -1.534311   -0.144867
  H     -3.470619    0.006970   -0.183394
  H     -1.514062    0.151891    1.355466
  H     -1.288972    1.238277   -0.030650
  H      2.236995   -0.608184   -1.422734
  H      1.981639   -1.706394   -0.065190
  H      3.052842   -0.286118    0.114262

 Total Charge           Charge          ....    0
 Multiplicity           Mult            ....    1
 Number of Electrons    NEL             ....   48
 Basis Dimension        Dim             ....  100

ORBITAL ENERGIES
----------------

  NO   OCC          E(Eh)            E(eV)
   0   2.0000     -18.795347      -511.4474
   1   2.0000     -18.732218      -509.7296
   2   2.0000     -10.007050      -272.3057
   3   2.0000      -9.944380      -270.6003
   4   2.0000      -9.892743      -269.1952
   5   2.0000      -9.888254      -269.0731
   6   2.0000      -1.003804       -27.3149
   7   2.0000      -0.913225       -24.8501
   8   2.0000      -0.711819       -19.3696
   9   2.0000      -0.662574       -18.0296
  10   2.0000      -0.577568       -15.7164
  11   2.0000      -0.507122       -13.7995
  12   2.0000      -0.447752       -12.1839
  13   2.0000      -0.432778       -11.7765
  14   2.0000      -0.407855       -11.0983
  15   2.0000      -0.399147       -10.8614
  16   2.0000      -0.367618       -10.0034
  17   2.0000      -0.353493        -9.6190
  18   2.0000      -0.351387        -9.5617
  19   2.0000      -0.340715        -9.2713
  20   2.0000      -0.314873        -8.5681
  21   2.0000      -0.295983        -8.0541
  22   2.0000      -0.255851        -6.9621
  23   2.0000      -0.218631        -5.9493
  24   0.0000      -0.016908        -0.4601
  25   0.0000       0.042569         1.1583
  26   0.0000       0.059420         1.6169
  27   0.0000       0.085746         2.3333
  28   0.0000       0.092059         2.5051

MULLIKEN ATOMIC CHARGES
-----------------------
   0 C :   -0.277334
   1 C :   -0.030830
   2 O :   -0.249305
   3 C :    0.080580
   4 O :   -0.197816
   5 C :   -0.251234
   6 H :    0.112508
   7 H :    0.113069
   8 H :    0.110299
   9 H :    0.101693
  10 H :    0.108601
  11 H :    0.133306
  12 H :    0.122066
  13 H :    0.124396
Sum of atomic charges:    0.0000000

LOEWDIN ATOMIC CHARGES
----------------------
   0 C :   -0.350968
   1 C :   -0.113620
   2 O :   -0.080461
   3 C :    0.027258
   4 O :   -0.157290
   5 C :   -0.360680
   6 H :    0.125156
   7 H :    0.125208
   8 H :    0.129386
   9 H :    0.114086
  10 H :    0.116252
  11 H :    0.148034
  12 H :    0.138135
  13 H :    0.139505

  Mayer bond orders larger than 0.100000
B(  0-C ,  1-C ) :   1.1526 B(  0-C ,  6-H ) :   0.9522 B(  0-C ,  7-H ) :   0.9488
B(  0-C ,  8-H ) :   0.9453 B(  1-C ,  2-O ) :   0.9245 B(  1-C ,  9-H ) :   0.9361
B(  1-C , 10-H ) :   0.9216 B(  2-O ,  3-C ) :   1.1816 B(  3-C ,  4-O ) :   2.0780
B(  3-C ,  5-C ) :   1.0816 B(  5-C , 11-H ) :   0.9260 B(  5-C , 12-H ) :   0.9362
B(  5-C , 13-H ) :   0.9420

Dispersion correction           -0.008743824
FINAL SINGLE POINT ENERGY      -307.031485231911

DIPOLE MOMENT
-------------

Method             : SCF
Type of density    : Electron Density
Multiplicity       :   1
Irrep              :   0
Energy             :  -307.0859052130170994 Eh
Relativity type    :
Basis              : AO
                                X                 Y                 Z
Electronic contribution:      3.375059794       2.376243861       1.510001513
Nuclear contribution   :     -3.742908896      -2.973501725      -1.772363008
                        -----------------------------------------
Total Dipole Moment    :     -0.367849102      -0.597257864      -0.262361495
                        -----------------------------------------
Magnitude (a.u.)       :      0.748908186
Magnitude (Debye)      :      1.903573330

Rotational constants in cm-1:             0.278790             0.070148             0.058463
Rotational constants in MHz :          8357.921029          2102.975023          1752.673362

                             ****ORCA TERMINATED NORMALLY****
TOTAL RUN TIME: 0 days 0 hours 0 minutes 12 seconds 803 msec
