                         Program Version 6.0.0  -   RELEASE  -
|  1> ! r2SCAN-3c DEF2-TZVP FREQ
|  2> * xyzfile 0 1 censo.xyz
|  3>
|  4>                          ****END OF INPUT****

CARTESIAN COORDINATES (ANGSTROEM)
---------------------------------
  C      2.147304    0.069427   -0.252415
  C      0.761783    0.088659    0.354467
  H      0.836662    0.108955    1.452662
  C     -0.141250    1.222892   -0.118184
  C     -1.535111    0.623018    0.065145
  C     -1.307922   -0.813763   -0.387261
  O      0.057311   -1.135687   -0.017853
  H      2.690273    0.976873    0.032063
  H      2.720734   -0.792777    0.101679
  H      2.086202    0.028097   -1.345035
  H      0.018683    2.138896    0.456118
  H      0.049774    1.433618   -1.177587
  H     -1.826030    0.651440    1.120826
  H     -2.306663    1.125163   -0.523998
  H     -1.978206   -1.534723    0.092345
  H     -1.412911   -0.905854   -1.477407

 Total Charge           Charge          ....    0
 Multiplicity           Mult            ....    1
 Number of Electrons    NEL             ....   48
 Basis Dimension        Dim             ....  246

ORBITAL ENERGIES
----------------

  NO   OCC          E(Eh)            E(eV)
   0   2.0000     -18.939974      -515.3829
   1   2.0000     -10.077596      -274.2253
   2   2.0000     -10.071118      -274.0491
   3   2.0000     -10.034436      -273.0509
   4   2.0000     -10.032883      -273.0086
   5   2.0000     -10.019708      -272.6501
   6   2.0000      -0.976969       -26.5847
   7   2.0000      -0.753967       -20.5165
   8   2.0000      -0.729143       -19.8410
   9   2.0000      -0.639529       -17.4025
  10   2.0000      -0.561386       -15.2761
  11   2.0000      -0.534228       -14.5371
  12   2.0000      -0.468807       -12.7569
  13   2.0000      -0.447525       -12.1778
  14   2.0000      -0.407129       -11.0786
  15   2.0000      -0.395737       -10.7685
  16   2.0000      -0.377126       -10.2621
  17   2.0000      -0.352926        -9.6036
  18   2.0000      -0.338388        -9.2080
  19   2.0000      -0.321846        -8.7579
  20   2.0000      -0.307287        -8.3617
  21   2.0000      -0.304222        -8.2783
  22   2.0000      -0.280663        -7.6372
  23   2.0000      -0.210206        -5.7200
  24   0.0000       0.041873         1.1394
  25   0.0000       0.066761         1.8167
  26   0.0000       0.068504         1.8641
  27   0.0000       0.089623         2.4388
  28   0.0000       0.099629         2.7110

MULLIKEN ATOMIC CHARGES
-----------------------
   0 C :   -0.308631
   1 C :    0.113631
   2 H :    0.045355
   3 C :   -0.172612
   4 C :   -0.166479
   5 C :    0.016716
   6 O :   -0.340622
   7 H :    0.095477
   8 H :    0.115131
   9 H :    0.096953
  10 H :    0.094792
  11 H :    0.083372
  12 H :    0.087041
  13 H :    0.094233
  14 H :    0.080885
  15 H :    0.064758
Sum of atomic charges:   -0.0000000

LOEWDIN ATOMIC CHARGES
----------------------
   0 C :   -0.286094
   1 C :   -0.325630
   2 H :    0.132079
   3 C :   -0.240402
   4 C :   -0.263255
   5 C :   -0.289913
   6 O :    0.129512
   7 H :    0.123510
   8 H :    0.123833
   9 H :    0.121359
  10 H :    0.134949
  11 H :    0.137913
  12 H :    0.135256
  13 H :    0.133359
  14 H :    0.118378
  15 H :    0.115145

  Mayer bond orders larger than 0.100000
B(  0-C ,  1-C ) :   0.9580 B(  0-C ,  7-H ) :   0.9679 B(  0-C ,  8-H ) :   0.9758
B(  0-C ,  9-H ) :   0.9702 B(  1-C ,  2-H ) :   0.9620 B(  1-C ,  3-C ) :   0.9836
B(  1-C ,  6-O ) :   0.9780 B(  3-C ,  4-C ) :   0.9764 B(  3-C , 10-H ) :   0.9557
B(  3-C , 11-H ) :   0.9620 B(  4-C ,  5-C ) :   1.0171 B(  4-C , 12-H ) :   0.9604
B(  4-C , 13-H ) :   0.9586 B(  5-C ,  6-O ) :   0.9927 B(  5-C , 14-H ) :   0.9574
B(  5-C , 15-H ) :   0.9581

Dispersion correction           -0.003834303
FINAL SINGLE POINT ENERGY      -271.710427195192

DIPOLE MOMENT
-------------

Method             : SCF
Type of density    : Electron Density
Multiplicity       :   1
Irrep              :   0
Energy             :  -271.7153077881956733 Eh
Relativity type    :
Basis              : AO
                                X                 Y                 Z
Electronic contribution:     -0.964064704      -2.442263161       0.584836962
Nuclear contribution   :      0.726946328       3.080687218      -0.576342511
                        -----------------------------------------
Total Dipole Moment    :     -0.237118376       0.638424057       0.008494450
                        -----------------------------------------
Magnitude (a.u.)       :      0.681089243
Magnitude (Debye)      :      1.731191275

VIBRATIONAL FREQUENCIES
-----------------------

Scaling factor for frequencies =  1.000000000  (already applied!)

     0:       0.00 cm**-1
     1:       0.00 cm**-1
     2:       0.00 cm**-1
     3:       0.00 cm**-1
     4:       0.00 cm**-1
     5:       0.00 cm**-1
     6:     100.34 cm**-1
     7:     232.99 cm**-1
     8:     255.24 cm**-1
     9:     328.83 cm**-1
    10:     468.05 cm**-1
    11:     562.67 cm**-1
    12:     643.88 cm**-1
    13:     796.74 cm**-1
    14:     853.70 cm**-1
    15:     878.57 cm**-1
    16:     898.74 cm**-1
    17:     932.08 cm**-1
    18:     983.68 cm**-1
    19:     987.31 cm**-1
    20:    1021.96 cm**-1
    21:    1069.56 cm**-1
    22:    1142.84 cm**-1
    23:    1167.53 cm**-1
    24:    1188.95 cm**-1
    25:    1211.79 cm**-1
    26:    1257.00 cm**-1
    27:    1300.05 cm**-1
    28:    1332.22 cm**-1
    29:    1337.51 cm**-1
    30:    1371.81 cm**-1
    31:    1383.17 cm**-1
    32:    1401.50 cm**-1
    33:    1473.66 cm**-1
    34:    1477.67 cm**-1
    35:    1486.45 cm**-1
    36:    1490.20 cm**-1
    37:    1517.82 cm**-1
    38:    2966.28 cm**-1
    39:    2984.58 cm**-1
    40:    3006.41 cm**-1
    41:    3017.97 cm**-1
    42:    3028.06 cm**-1
    43:    3055.25 cm**-1
    44:    3085.23 cm**-1
    45:    3089.04 cm**-1
    46:    3092.65 cm**-1
    47:    3097.22 cm**-1

IR SPECTRUM
-----------

 Mode   freq       eps      Int      T**2         TX        TY        TZ
       cm**-1   L/(mol*cm) km/mol    a.u.
----------------------------------------------------------------------------
  6:    100.34   0.000573    2.90  0.001782  (-0.009653 -0.005144  0.040773)
  7:    232.99   0.000060    0.31  0.000081  ( 0.002731  0.002678 -0.008148)
  8:    255.24   0.000044    0.22  0.000053  ( 0.000823  0.005529  0.004700)
  9:    328.83   0.000432    2.18  0.000410  ( 0.009585  0.016196 -0.007441)
 10:    468.05   0.000304    1.54  0.000203  ( 0.010167  0.005592 -0.008240)
 11:    562.67   0.000189    0.96  0.000105  ( 0.005024  0.007078  0.005434)
 12:    643.88   0.000255    1.29  0.000124  (-0.008271  0.006899 -0.002747)
 13:    796.74   0.004078   20.61  0.001597  (-0.004660 -0.039052 -0.007111)
 14:    853.70   0.002890   14.61  0.001057  ( 0.023252  0.022347  0.004058)
 15:    878.57   0.002604   13.16  0.000925  (-0.028366  0.001076 -0.010916)
 16:    898.74   0.002606   13.17  0.000905  (-0.029352  0.003596 -0.005501)
 17:    932.08   0.001223    6.18  0.000409  ( 0.009728  0.015483  0.008667)
 18:    983.68   0.007294   36.86  0.002314  (-0.046812  0.000639 -0.011057)
 19:    987.31   0.002243   11.33  0.000709  ( 0.021941  0.002065  0.014937)
 20:   1021.96   0.001580    7.99  0.000483  (-0.020425  0.003232 -0.007416)
 21:   1069.56   0.013722   69.34  0.004004  ( 0.051458  0.033042  0.016242)
 22:   1142.84   0.000832    4.21  0.000227  (-0.001756  0.012651  0.008005)
 23:   1167.53   0.000138    0.70  0.000037  (-0.006007  0.000345 -0.000826)
 24:   1188.95   0.001675    8.46  0.000440  (-0.012053  0.017037 -0.002027)
 25:   1211.79   0.000265    1.34  0.000068  ( 0.002998  0.002722  0.007206)
 26:   1257.00   0.000567    2.87  0.000141  ( 0.010854  0.000053  0.004801)
 27:   1300.05   0.000449    2.27  0.000108  ( 0.008360  0.004931  0.003680)
 28:   1332.22   0.000490    2.48  0.000115  ( 0.004985  0.009098 -0.002690)
 29:   1337.51   0.000170    0.86  0.000040  ( 0.004739  0.004004  0.001073)
 30:   1371.81   0.000407    2.06  0.000093  (-0.001947  0.009126 -0.002364)
 31:   1383.17   0.001075    5.43  0.000243  (-0.013289  0.007271 -0.003624)
 32:   1401.50   0.003500   17.69  0.000779  ( 0.026762 -0.000796 -0.007899)
 33:   1473.66   0.000209    1.06  0.000044  (-0.005603 -0.002063  0.002927)
 34:   1477.67   0.001277    6.45  0.000270  ( 0.000927  0.011001 -0.012159)
 35:   1486.45   0.001538    7.77  0.000323  (-0.010360  0.012596  0.007539)
 36:   1490.20   0.000932    4.71  0.000195  (-0.006047 -0.003135 -0.012201)
 37:   1517.82   0.000070    0.36  0.000014  ( 0.001096  0.002063 -0.003001)
 38:   2966.28   0.012142   61.36  0.001277  ( 0.010580  0.007215  0.033368)
 39:   2984.58   0.012743   64.40  0.001332  (-0.022106 -0.015652 -0.024470)
 40:   3006.41   0.003697   18.68  0.000384  (-0.018724  0.000288  0.005750)
 41:   3017.97   0.005269   26.63  0.000545  ( 0.006116  0.016625 -0.015199)
 42:   3028.06   0.004372   22.09  0.000451  ( 0.013427 -0.007905 -0.014413)
 43:   3055.25   0.010982   55.50  0.001122  ( 0.025705  0.014836 -0.015519)
 44:   3085.23   0.001845    9.33  0.000187  ( 0.009204  0.001410  0.009998)
 45:   3089.04   0.007827   39.56  0.000791  ( 0.004559 -0.027230 -0.005338)
 46:   3092.65   0.000946    4.78  0.000095  ( 0.003125 -0.008049  0.004567)
 47:   3097.22   0.013273   67.07  0.001337  ( 0.012009 -0.000233  0.034540)

--------------------------
THERMOCHEMISTRY AT 298.15K
--------------------------

Temperature         ...   298.15 K
Pressure            ...     1.00 atm
Total Mass          ...    86.13 AMU
Quasi RRHO          ...     True
Cut-Off Frequency   ...     1.00 cm^-1

Throughout the following assumptions are being made:
  (1) The electronic state is orbitally nondegenerate
  (2) There are no thermally accessible electronically excited states
  (3) Hindered rotations indicated by low frequency modes are not
      treated as such but are treated as vibrations and this may
      cause some error
  (4) All equations used are the standard statistical mechanics
      equations for an ideal gas
  (5) All vibrations are strictly harmonic

freq.     100.34  E(vib)   ...       0.46
freq.     232.99  E(vib)   ...       0.32
freq.     255.24  E(vib)   ...       0.30
freq.     328.83  E(vib)   ...       0.24
freq.     468.05  E(vib)   ...       0.16
freq.     562.67  E(vib)   ...       0.11
freq.     643.88  E(vib)   ...       0.09
freq.     796.74  E(vib)   ...       0.05
freq.     853.70  E(vib)   ...       0.04
freq.     878.57  E(vib)   ...       0.04
freq.     898.74  E(vib)   ...       0.03
freq.     932.08  E(vib)   ...       0.03
freq.     983.68  E(vib)   ...       0.02
freq.     987.31  E(vib)   ...       0.02
freq.    1021.96  E(vib)   ...       0.02
freq.    1069.56  E(vib)   ...       0.02
freq.    1142.84  E(vib)   ...       0.01
freq.    1167.53  E(vib)   ...       0.01
freq.    1188.95  E(vib)   ...       0.01
freq.    1211.79  E(vib)   ...       0.01
freq.    1257.00  E(vib)   ...       0.01
freq.    1300.05  E(vib)   ...       0.01
freq.    1332.22  E(vib)   ...       0.01
freq.    1337.51  E(vib)   ...       0.01
freq.    1371.81  E(vib)   ...       0.01
freq.    1383.17  E(vib)   ...       0.00
freq.    1401.50  E(vib)   ...       0.00
freq.    1473.66  E(vib)   ...       0.00
freq.    1477.67  E(vib)   ...       0.00
freq.    1486.45  E(vib)   ...       0.00
freq.    1490.20  E(vib)   ...       0.00
freq.    1517.82  E(vib)   ...       0.00
freq.    2966.28  E(vib)   ...       0.00
freq.    2984.58  E(vib)   ...       0.00
freq.    3006.41  E(vib)   ...       0.00
freq.    3017.97  E(vib)   ...       0.00
freq.    3028.06  E(vib)   ...       0.00
freq.    3055.25  E(vib)   ...       0.00
freq.    3085.23  E(vib)   ...       0.00
freq.    3089.04  E(vib)   ...       0.00
freq.    3092.65  E(vib)   ...       0.00
freq.    3097.22  E(vib)   ...       0.00

------------
INNER ENERGY
------------

The inner energy is: U= E(el) + E(ZPE) + E(vib) + E(rot) + E(trans)
    E(el)   - is the total energy from the electronic structure calculation
              = E(kin-el) + E(nuc-el) + E(el-el) + E(nuc-nuc)
    E(ZPE)  - the the zero temperature vibrational energy from the frequency calculation
    E(vib)  - the the finite temperature correction to E(ZPE) due to population
              of excited vibrational states
    E(rot)  - is the rotational thermal energy
    E(trans)- is the translational thermal energy

Summary of contributions to the inner energy U:
Electronic energy                ...   -271.71042720 Eh
Zero point energy                ...      0.14347262 Eh      90.03 kcal/mol
Thermal vibrational correction   ...      0.00328853 Eh       2.06 kcal/mol
Thermal rotational correction    ...      0.00141627 Eh       0.89 kcal/mol
Thermal translational correction ...      0.00141627 Eh       0.89 kcal/mol
-----------------------------------------------------------------------
Total thermal energy                   -271.56083350 Eh

Summary of corrections to the electronic energy:
(perhaps to be used in another calculation)
Total thermal correction                  0.00612107 Eh       3.84 kcal/mol
Non-thermal (ZPE) correction              0.14347262 Eh      90.03 kcal/mol
-----------------------------------------------------------------------
Total correction                          0.14959369 Eh      93.87 kcal/mol

--------
ENTHALPY
--------

The enthalpy is H = U + kB*T
                kB is Boltzmann's constant
Total thermal energy              ...   -271.56083350 Eh
Thermal Enthalpy correction       ...      0.00094421 Eh       0.59 kcal/mol
-----------------------------------------------------------------------
Total Enthalpy                    ...   -271.55988930 Eh

Note: Only C1 symmetry has been detected, increase convergence thresholds
      if your molecule has a higher symmetry. Symmetry factor of 1.0 is
      used for the rotational entropy correction.

Note: Rotational entropy computed according to Herzberg
Infrared and Raman Spectra, Chapter V,1, Van Nostrand Reinhold, 1945
Point Group:  C1, Symmetry Number:   1
Rotational constants in cm-1:     0.216857     0.105978     0.079948

Vibrational entropy computed according to the QRRHO of S. Grimme
Chem.Eur.J. 2012 18 9955 using a reference frequency of 100.0 cm-1

-------
ENTROPY
-------

The entropy contributions are T*S = T*(S(el)+S(vib)+S(rot)+S(trans))
     S(el)   - electronic entropy
     S(vib)  - vibrational entropy
     S(rot)  - rotational entropy
     S(trans)- translational entropy
The entropies will be listed as multiplied by the temperature to get
units of energy

Electronic entropy                ...      0.00000000 Eh      0.00 kcal/mol
Vibrational entropy               ...      0.00531292 Eh      3.33 kcal/mol
Rotational entropy                ...      0.01248471 Eh      7.83 kcal/mol
Translational entropy             ...      0.01865984 Eh     11.71 kcal/mol
-----------------------------------------------------------------------
Final entropy term                ...      0.03645747 Eh     22.88 kcal/mol

In case the symmetry of your molecule has not been determined correctly
or in case you have a reason to use a different symmetry number we print
out the resulting rotational entropy values for sn=1,12:

 non-linear molecules -----------------------------------
|  sn= 1 | S(rot)=       0.01248471 Eh      7.83 kcal/mol|
|  sn= 2 | S(rot)=       0.01183025 Eh      7.42 kcal/mol|
|  sn= 3 | S(rot)=       0.01144742 Eh      7.18 kcal/mol|
|  sn= 4 | S(rot)=       0.01117580 Eh      7.01 kcal/mol|
|  sn= 5 | S(rot)=       0.01096511 Eh      6.88 kcal/mol|
|  sn= 6 | S(rot)=       0.01079296 Eh      6.77 kcal/mol|
|  sn= 7 | S(rot)=       0.01064742 Eh      6.68 kcal/mol|
|  sn= 8 | S(rot)=       0.01052134 Eh      6.60 kcal/mol|
|  sn= 9 | S(rot)=       0.01041013 Eh      6.53 kcal/mol|
|  sn=10 | S(rot)=       0.01031065 Eh      6.47 kcal/mol|
|  sn=11 | S(rot)=       0.01022066 Eh      6.41 kcal/mol|
|  sn=12 | S(rot)=       0.01013851 Eh      6.36 kcal/mol|
 linear molecules ---------------------------------------
|  Dinfh | S(rot)=       0.00771117 Eh      4.84 kcal/mol|
|  Cinfv | S(rot)=       0.00836562 Eh      5.25 kcal/mol|
 --------------------------------------------------------

                             ****ORCA TERMINATED NORMALLY****
TOTAL RUN TIME: 0 days 0 hours 9 minutes 46 seconds 478 msec
