                         Program Version 6.0.0  -   RELEASE  -
|  1> ! r2SCAN-3c DEF2-TZVP FREQ
|  2> * xyzfile 0 1 vacuum_censo.xyz
|  3>
|  4>                          ****END OF INPUT****

CARTESIAN COORDINATES (ANGSTROEM)
---------------------------------
  C      2.147798    0.088394   -0.261742
  C      0.757984    0.086786    0.340076
  H      0.832625    0.096081    1.440967
  C     -0.152583    1.227590   -0.115561
  C     -1.540600    0.607195    0.048451
  C     -1.283605   -0.826638   -0.412928
  O      0.074712   -1.124362   -0.052776
  H      2.086462    0.081984   -1.354366
  H      2.700386    0.978662    0.056668
  H      2.705732   -0.795945    0.057720
  H     -0.007120    2.138762    0.470993
  H      0.041837    1.458807   -1.170259
  H     -1.841080    0.623284    1.101873
  H     -2.315770    1.106975   -0.538615
  H     -1.943725   -1.560384    0.063342
  H     -1.396073   -0.914062   -1.504338

 Total Charge           Charge          ....    0
 Multiplicity           Mult            ....    1
 Number of Electrons    NEL             ....   48
 Basis Dimension        Dim             ....  246

ORBITAL ENERGIES
----------------

  NO   OCC          E(Eh)            E(eV)
   0   2.0000     -18.941339      -515.4200
   1   2.0000     -10.077745      -274.2294
   2   2.0000     -10.071411      -274.0570
   3   2.0000     -10.034396      -273.0498
   4   2.0000     -10.032702      -273.0037
   5   2.0000     -10.019052      -272.6323
   6   2.0000      -0.985064       -26.8050
   7   2.0000      -0.753130       -20.4937
   8   2.0000      -0.729486       -19.8503
   9   2.0000      -0.639217       -17.3940
  10   2.0000      -0.562747       -15.3131
  11   2.0000      -0.533718       -14.5232
  12   2.0000      -0.469877       -12.7860
  13   2.0000      -0.449022       -12.2185
  14   2.0000      -0.406835       -11.0705
  15   2.0000      -0.396941       -10.8013
  16   2.0000      -0.377642       -10.2762
  17   2.0000      -0.353551        -9.6206
  18   2.0000      -0.339164        -9.2291
  19   2.0000      -0.322077        -8.7642
  20   2.0000      -0.306656        -8.3445
  21   2.0000      -0.303369        -8.2551
  22   2.0000      -0.281208        -7.6521
  23   2.0000      -0.210664        -5.7325
  24   0.0000       0.041896         1.1400
  25   0.0000       0.067373         1.8333
  26   0.0000       0.068805         1.8723
  27   0.0000       0.093544         2.5455
  28   0.0000       0.099164         2.6984

MULLIKEN ATOMIC CHARGES
-----------------------
   0 C :   -0.307487
   1 C :    0.117277
   2 H :    0.042722
   3 C :   -0.174493
   4 C :   -0.170587
   5 C :    0.021956
   6 O :   -0.337592
   7 H :    0.095527
   8 H :    0.095441
   9 H :    0.114635
  10 H :    0.095485
  11 H :    0.082823
  12 H :    0.087054
  13 H :    0.095085
  14 H :    0.079015
  15 H :    0.063140
Sum of atomic charges:   -0.0000000

LOEWDIN ATOMIC CHARGES
----------------------
   0 C :   -0.285726
   1 C :   -0.334093
   2 H :    0.131587
   3 C :   -0.239665
   4 C :   -0.262282
   5 C :   -0.296923
   6 O :    0.147373
   7 H :    0.120764
   8 H :    0.122715
   9 H :    0.123825
  10 H :    0.134369
  11 H :    0.137341
  12 H :    0.134764
  13 H :    0.132806
  14 H :    0.118149
  15 H :    0.114996

  Mayer bond orders larger than 0.100000
B(  0-C ,  1-C ) :   0.9588 B(  0-C ,  7-H ) :   0.9701 B(  0-C ,  8-H ) :   0.9682
B(  0-C ,  9-H ) :   0.9759 B(  1-C ,  2-H ) :   0.9613 B(  1-C ,  3-C ) :   0.9823
B(  1-C ,  6-O ) :   0.9797 B(  3-C ,  4-C ) :   0.9765 B(  3-C , 10-H ) :   0.9564
B(  3-C , 11-H ) :   0.9617 B(  4-C ,  5-C ) :   1.0155 B(  4-C , 12-H ) :   0.9610
B(  4-C , 13-H ) :   0.9590 B(  5-C ,  6-O ) :   0.9930 B(  5-C , 14-H ) :   0.9576
B(  5-C , 15-H ) :   0.9577

Dispersion correction           -0.003835888
FINAL SINGLE POINT ENERGY      -271.710829164543

DIPOLE MOMENT
-------------

Method             : SCF
Type of density    : Electron Density
Multiplicity       :   1
Irrep              :   0
Energy             :  -271.7157450748447900 Eh
Relativity type    :
Basis              : AO
                                X                 Y                 Z
Electronic contribution:     -0.922093739      -2.445155049       0.540449562
Nuclear contribution   :      0.678719708       3.057281273      -0.521941598
                        -----------------------------------------
Total Dipole Moment    :     -0.243374031       0.612126223       0.018507964
                        -----------------------------------------
Magnitude (a.u.)       :      0.658993154
Magnitude (Debye)      :      1.675027480

VIBRATIONAL FREQUENCIES
-----------------------

Scaling factor for frequencies =  1.000000000  (already applied!)

     0:       0.00 cm**-1
     1:       0.00 cm**-1
     2:       0.00 cm**-1
     3:       0.00 cm**-1
     4:       0.00 cm**-1
     5:       0.00 cm**-1
     6:      68.20 cm**-1
     7:     229.06 cm**-1
     8:     250.85 cm**-1
     9:     329.09 cm**-1
    10:     467.95 cm**-1
    11:     564.74 cm**-1
    12:     649.55 cm**-1
    13:     810.52 cm**-1
    14:     860.15 cm**-1
    15:     880.62 cm**-1
    16:     904.23 cm**-1
    17:     928.61 cm**-1
    18:     985.82 cm**-1
    19:    1000.18 cm**-1
    20:    1022.52 cm**-1
    21:    1087.28 cm**-1
    22:    1144.26 cm**-1
    23:    1170.49 cm**-1
    24:    1189.66 cm**-1
    25:    1212.85 cm**-1
    26:    1258.94 cm**-1
    27:    1300.35 cm**-1
    28:    1332.33 cm**-1
    29:    1344.50 cm**-1
    30:    1379.34 cm**-1
    31:    1383.11 cm**-1
    32:    1399.38 cm**-1
    33:    1474.24 cm**-1
    34:    1477.96 cm**-1
    35:    1487.97 cm**-1
    36:    1490.36 cm**-1
    37:    1521.48 cm**-1
    38:    2941.51 cm**-1
    39:    2969.68 cm**-1
    40:    3010.16 cm**-1
    41:    3016.13 cm**-1
    42:    3025.63 cm**-1
    43:    3044.94 cm**-1
    44:    3083.99 cm**-1
    45:    3090.49 cm**-1
    46:    3093.39 cm**-1
    47:    3100.30 cm**-1

IR SPECTRUM
-----------

 Mode   freq       eps      Int      T**2         TX        TY        TZ
       cm**-1   L/(mol*cm) km/mol    a.u.
----------------------------------------------------------------------------
  6:     68.20   0.000572    2.89  0.002620  (-0.011456 -0.008202  0.049204)
  7:    229.06   0.000042    0.21  0.000057  ( 0.002326  0.002814 -0.006576)
  8:    250.85   0.000040    0.20  0.000050  ( 0.001140  0.004816  0.005010)
  9:    329.09   0.000412    2.08  0.000390  ( 0.009295  0.016221 -0.006388)
 10:    467.95   0.000273    1.38  0.000182  ( 0.009502  0.005311 -0.007977)
 11:    564.74   0.000163    0.82  0.000090  ( 0.003842  0.006746  0.005440)
 12:    649.55   0.000271    1.37  0.000130  (-0.007522  0.008247 -0.002361)
 13:    810.52   0.002349   11.87  0.000904  ( 0.000921 -0.029368 -0.006409)
 14:    860.15   0.003035   15.34  0.001101  ( 0.015042  0.029395  0.003284)
 15:    880.62   0.001117    5.64  0.000396  (-0.017916 -0.002625 -0.008237)
 16:    904.23   0.001957    9.89  0.000675  (-0.025008  0.006127 -0.003507)
 17:    928.61   0.001044    5.28  0.000351  (-0.006356 -0.015836 -0.007727)
 18:    985.82   0.000480    2.43  0.000152  ( 0.005707  0.001836  0.010777)
 19:   1000.18   0.006007   30.36  0.001874  ( 0.041638 -0.001676  0.011737)
 20:   1022.52   0.003780   19.10  0.001154  (-0.031534  0.006808 -0.010631)
 21:   1087.28   0.019229   97.18  0.005519  ( 0.062703  0.034211  0.020421)
 22:   1144.26   0.001429    7.22  0.000390  ( 0.001537  0.017245  0.009484)
 23:   1170.49   0.000076    0.39  0.000020  (-0.003885 -0.002275 -0.000262)
 24:   1189.66   0.001625    8.21  0.000426  (-0.013704  0.015218 -0.002603)
 25:   1212.85   0.000496    2.51  0.000128  ( 0.006678  0.002794  0.008676)
 26:   1258.94   0.000680    3.44  0.000169  ( 0.011852  0.001219  0.005153)
 27:   1300.35   0.000305    1.54  0.000073  ( 0.006895  0.003890  0.003244)
 28:   1332.33   0.000233    1.18  0.000055  ( 0.001648  0.006590 -0.002919)
 29:   1344.50   0.000365    1.84  0.000085  ( 0.004398  0.008080 -0.000075)
 30:   1379.34   0.000633    3.20  0.000143  (-0.002961  0.011405 -0.002110)
 31:   1383.11   0.000903    4.56  0.000204  (-0.012879  0.005017 -0.003569)
 32:   1399.38   0.003729   18.85  0.000832  ( 0.027756 -0.000947 -0.007766)
 33:   1474.24   0.000128    0.65  0.000027  (-0.004777  0.001285 -0.001639)
 34:   1477.96   0.001371    6.93  0.000289  ( 0.002751  0.011146 -0.012555)
 35:   1487.97   0.001607    8.12  0.000337  (-0.008548  0.012347  0.010559)
 36:   1490.36   0.000797    4.03  0.000167  (-0.008505  0.001214 -0.009643)
 37:   1521.48   0.000064    0.32  0.000013  ( 0.001854  0.001569 -0.002683)
 38:   2941.51   0.013356   67.50  0.001417  ( 0.010316  0.006435  0.035625)
 39:   2969.68   0.013796   69.72  0.001450  (-0.021789 -0.015529 -0.027088)
 40:   3010.16   0.003261   16.48  0.000338  (-0.018014  0.001313  0.003437)
 41:   3016.13   0.005960   30.12  0.000617  ( 0.009058  0.017641 -0.014948)
 42:   3025.63   0.003279   16.57  0.000338  ( 0.009986 -0.009541 -0.012142)
 43:   3044.94   0.012904   65.21  0.001322  (-0.028195 -0.015299  0.017129)
 44:   3083.99   0.003097   15.65  0.000313  (-0.008895  0.015274 -0.000967)
 45:   3090.49   0.002273   11.49  0.000229  ( 0.000754 -0.015058 -0.001473)
 46:   3093.39   0.011384   57.53  0.001148  (-0.008831 -0.012330 -0.030304)
 47:   3100.30   0.006637   33.54  0.000668  ( 0.010056 -0.012943  0.019986)

--------------------------
THERMOCHEMISTRY AT 298.15K
--------------------------

Temperature         ...   298.15 K
Pressure            ...     1.00 atm
Total Mass          ...    86.13 AMU
Quasi RRHO          ...     True
Cut-Off Frequency   ...     1.00 cm^-1

Throughout the following assumptions are being made:
  (1) The electronic state is orbitally nondegenerate
  (2) There are no thermally accessible electronically excited states
  (3) Hindered rotations indicated by low frequency modes are not
      treated as such but are treated as vibrations and this may
      cause some error
  (4) All equations used are the standard statistical mechanics
      equations for an ideal gas
  (5) All vibrations are strictly harmonic

freq.      68.20  E(vib)   ...       0.50
freq.     229.06  E(vib)   ...       0.32
freq.     250.85  E(vib)   ...       0.30
freq.     329.09  E(vib)   ...       0.24
freq.     467.95  E(vib)   ...       0.16
freq.     564.74  E(vib)   ...       0.11
freq.     649.55  E(vib)   ...       0.08
freq.     810.52  E(vib)   ...       0.05
freq.     860.15  E(vib)   ...       0.04
freq.     880.62  E(vib)   ...       0.04
freq.     904.23  E(vib)   ...       0.03
freq.     928.61  E(vib)   ...       0.03
freq.     985.82  E(vib)   ...       0.02
freq.    1000.18  E(vib)   ...       0.02
freq.    1022.52  E(vib)   ...       0.02
freq.    1087.28  E(vib)   ...       0.02
freq.    1144.26  E(vib)   ...       0.01
freq.    1170.49  E(vib)   ...       0.01
freq.    1189.66  E(vib)   ...       0.01
freq.    1212.85  E(vib)   ...       0.01
freq.    1258.94  E(vib)   ...       0.01
freq.    1300.35  E(vib)   ...       0.01
freq.    1332.33  E(vib)   ...       0.01
freq.    1344.50  E(vib)   ...       0.01
freq.    1379.34  E(vib)   ...       0.01
freq.    1383.11  E(vib)   ...       0.01
freq.    1399.38  E(vib)   ...       0.00
freq.    1474.24  E(vib)   ...       0.00
freq.    1477.96  E(vib)   ...       0.00
freq.    1487.97  E(vib)   ...       0.00
freq.    1490.36  E(vib)   ...       0.00
freq.    1521.48  E(vib)   ...       0.00
freq.    2941.51  E(vib)   ...       0.00
freq.    2969.68  E(vib)   ...       0.00
freq.    3010.16  E(vib)   ...       0.00
freq.    3016.13  E(vib)   ...       0.00
freq.    3025.63  E(vib)   ...       0.00
freq.    3044.94  E(vib)   ...       0.00
freq.    3083.99  E(vib)   ...       0.00
freq.    3090.49  E(vib)   ...       0.00
freq.    3093.39  E(vib)   ...       0.00
freq.    3100.30  E(vib)   ...       0.00

------------
INNER ENERGY
------------

The inner energy is: U= E(el) + E(ZPE) + E(vib) + E(rot) + E(trans)
    E(el)   - is the total energy from the electronic structure calculation
              = E(kin-el) + E(nuc-el) + E(el-el) + E(nuc-nuc)
    E(ZPE)  - the the zero temperature vibrational energy from the frequency calculation
    E(vib)  - the the finite temperature correction to E(ZPE) due to population
              of excited vibrational states
    E(rot)  - is the rotational thermal energy
    E(trans)- is the translational thermal energy

Summary of contributions to the inner energy U:
Electronic energy                ...   -271.71082916 Eh
Zero point energy                ...      0.14348541 Eh      90.04 kcal/mol
Thermal vibrational correction   ...      0.00334788 Eh       2.10 kcal/mol
Thermal rotational correction    ...      0.00141627 Eh       0.89 kcal/mol
Thermal translational correction ...      0.00141627 Eh       0.89 kcal/mol
-----------------------------------------------------------------------
Total thermal energy                   -271.56116333 Eh

Summary of corrections to the electronic energy:
(perhaps to be used in another calculation)
Total thermal correction                  0.00618042 Eh       3.88 kcal/mol
Non-thermal (ZPE) correction              0.14348541 Eh      90.04 kcal/mol
-----------------------------------------------------------------------
Total correction                          0.14966583 Eh      93.92 kcal/mol

--------
ENTHALPY
--------

The enthalpy is H = U + kB*T
                kB is Boltzmann's constant
Total thermal energy              ...   -271.56116333 Eh
Thermal Enthalpy correction       ...      0.00094421 Eh       0.59 kcal/mol
-----------------------------------------------------------------------
Total Enthalpy                    ...   -271.56021912 Eh

Note: Only C1 symmetry has been detected, increase convergence thresholds
      if your molecule has a higher symmetry. Symmetry factor of 1.0 is
      used for the rotational entropy correction.

Note: Rotational entropy computed according to Herzberg
Infrared and Raman Spectra, Chapter V,1, Van Nostrand Reinhold, 1945
Point Group:  C1, Symmetry Number:   1
Rotational constants in cm-1:     0.217209     0.106466     0.080192

Vibrational entropy computed according to the QRRHO of S. Grimme
Chem.Eur.J. 2012 18 9955 using a reference frequency of 100.0 cm-1

-------
ENTROPY
-------

The entropy contributions are T*S = T*(S(el)+S(vib)+S(rot)+S(trans))
     S(el)   - electronic entropy
     S(vib)  - vibrational entropy
     S(rot)  - rotational entropy
     S(trans)- translational entropy
The entropies will be listed as multiplied by the temperature to get
units of energy

Electronic entropy                ...      0.00000000 Eh      0.00 kcal/mol
Vibrational entropy               ...      0.00544180 Eh      3.41 kcal/mol
Rotational entropy                ...      0.01248033 Eh      7.83 kcal/mol
Translational entropy             ...      0.01865984 Eh     11.71 kcal/mol
-----------------------------------------------------------------------
Final entropy term                ...      0.03658197 Eh     22.96 kcal/mol

In case the symmetry of your molecule has not been determined correctly
or in case you have a reason to use a different symmetry number we print
out the resulting rotational entropy values for sn=1,12:

 non-linear molecules -----------------------------------
|  sn= 1 | S(rot)=       0.01248033 Eh      7.83 kcal/mol|
|  sn= 2 | S(rot)=       0.01182588 Eh      7.42 kcal/mol|
|  sn= 3 | S(rot)=       0.01144304 Eh      7.18 kcal/mol|
|  sn= 4 | S(rot)=       0.01117142 Eh      7.01 kcal/mol|
|  sn= 5 | S(rot)=       0.01096073 Eh      6.88 kcal/mol|
|  sn= 6 | S(rot)=       0.01078859 Eh      6.77 kcal/mol|
|  sn= 7 | S(rot)=       0.01064304 Eh      6.68 kcal/mol|
|  sn= 8 | S(rot)=       0.01051696 Eh      6.60 kcal/mol|
|  sn= 9 | S(rot)=       0.01040576 Eh      6.53 kcal/mol|
|  sn=10 | S(rot)=       0.01030628 Eh      6.47 kcal/mol|
|  sn=11 | S(rot)=       0.01021629 Eh      6.41 kcal/mol|
|  sn=12 | S(rot)=       0.01013413 Eh      6.36 kcal/mol|
 linear molecules ---------------------------------------
|  Dinfh | S(rot)=       0.00770829 Eh      4.84 kcal/mol|
|  Cinfv | S(rot)=       0.00836275 Eh      5.25 kcal/mol|
 --------------------------------------------------------

                             ****ORCA TERMINATED NORMALLY****
TOTAL RUN TIME: 0 days 0 hours 9 minutes 49 seconds 151 msec
