                         Program Version 6.0.1  -  RELEASE   -
|  1> ! pbe def2-sv(p) def2/J RI DEFGRID1 loosescf d4 GCP(DFT/SV(P)) printgap
|  2> %output
|  3>     printlevel normal
|  4> end
|  5> * xyz 0 1
|  6> C -2.1509953876 -0.9316290078 -0.2430179259
|  7> C -1.1533161183 -0.3558848375 0.7869261432
|  8> H -1.6787496804 -0.3931686807 1.7531291684
|  9> C -0.7584374059 1.1143752992 0.5371342938
| 10> H -1.6320437168 1.6442778905 0.1268736332
| 11> C 0.4119260054 1.2821654944 -0.4512636947
| 12> H 0.7931434329 2.3050355985 -0.3278105831
| 13> C 1.5630401237 0.3310597603 -0.0535467129
| 14> H 2.3009160624 0.3213737834 -0.8661593069
| 15> C 1.0647698314 -1.114698193 0.1688634364
| 16> H 1.851443287 -1.6684441953 0.7058277436
| 17> O -0.0337790988 -1.20472597 1.0135944554
| 18> O 0.7851059717 -1.7743111632 -1.0565875462
| 19> O 2.2359875811 0.7867971864 1.086125064
| 20> O 0.0341956981 1.1596832382 -1.7877299342
| 21> O -0.3379116136 1.7237778659 1.7435313702
| 22> O -1.7034985158 -0.9396703549 -1.5707268377
| 23> H -3.0582452404 -0.3220397053 -0.2258965413
| 24> H -2.4015464403 -1.9498109325 0.0799177769
| 25> H 1.4833683941 -1.5783759565 -1.6901737359
| 26> H 1.5727445753 1.0850016908 1.7272226729
| 27> H -0.6418482682 0.4568110763 -1.8804182132
| 28> H -1.0448588353 1.6782402831 2.3969990151
| 29> H -0.9113279774 -1.5126277782 -1.6020622278
| 30> *
| 31>
| 32>                          ****END OF INPUT****

CARTESIAN COORDINATES (ANGSTROEM)
---------------------------------
  C     -2.150995   -0.931629   -0.243018
  C     -1.153316   -0.355885    0.786926
  H     -1.678750   -0.393169    1.753129
  C     -0.758437    1.114375    0.537134
  H     -1.632044    1.644278    0.126874
  C      0.411926    1.282165   -0.451264
  H      0.793143    2.305036   -0.327811
  C      1.563040    0.331060   -0.053547
  H      2.300916    0.321374   -0.866159
  C      1.064770   -1.114698    0.168863
  H      1.851443   -1.668444    0.705828
  O     -0.033779   -1.204726    1.013594
  O      0.785106   -1.774311   -1.056588
  O      2.235988    0.786797    1.086125
  O      0.034196    1.159683   -1.787730
  O     -0.337912    1.723778    1.743531
  O     -1.703499   -0.939670   -1.570727
  H     -3.058245   -0.322040   -0.225897
  H     -2.401546   -1.949811    0.079918
  H      1.483368   -1.578376   -1.690174
  H      1.572745    1.085002    1.727223
  H     -0.641848    0.456811   -1.880418
  H     -1.044859    1.678240    2.396999
  H     -0.911328   -1.512628   -1.602062

 Total Charge           Charge          ....    0
 Multiplicity           Mult            ....    1
 Number of Electrons    NEL             ....   96
 Basis Dimension        Dim             ....  192

ORBITAL ENERGIES
----------------

  NO   OCC          E(Eh)            E(eV)
   0   2.0000     -18.785732      -511.1858
   1   2.0000     -18.781239      -511.0635
   2   2.0000     -18.780656      -511.0476
   3   2.0000     -18.767060      -510.6777
   4   2.0000     -18.740000      -509.9413
   5   2.0000     -18.734951      -509.8039
   6   2.0000      -9.993323      -271.9321
   7   2.0000      -9.961390      -271.0632
   8   2.0000      -9.959857      -271.0215
   9   2.0000      -9.948274      -270.7063
  10   2.0000      -9.942131      -270.5391
  11   2.0000      -9.939178      -270.4588
  12   2.0000      -0.995846       -27.0984
  13   2.0000      -0.957977       -26.0679
  14   2.0000      -0.943958       -25.6864
  15   2.0000      -0.931822       -25.3562
  16   2.0000      -0.923744       -25.1364
  17   2.0000      -0.912174       -24.8215
  18   2.0000      -0.716192       -19.4886
  19   2.0000      -0.685681       -18.6583
  20   2.0000      -0.632612       -17.2143
  21   2.0000      -0.601123       -16.3574
  22   2.0000      -0.580470       -15.7954
  23   2.0000      -0.529262       -14.4019
  24   2.0000      -0.503100       -13.6900
  25   2.0000      -0.496500       -13.5105
  26   2.0000      -0.482800       -13.1377
  27   2.0000      -0.476078       -12.9547
  28   2.0000      -0.450993       -12.2722
  29   2.0000      -0.438492       -11.9320
  30   2.0000      -0.424652       -11.5554
  31   2.0000      -0.416908       -11.3447
  32   2.0000      -0.397488       -10.8162
  33   2.0000      -0.382772       -10.4158
  34   2.0000      -0.366715        -9.9788
  35   2.0000      -0.352283        -9.5861
  36   2.0000      -0.350340        -9.5332
  37   2.0000      -0.333333        -9.0704
  38   2.0000      -0.316844        -8.6218
  39   2.0000      -0.300214        -8.1692
  40   2.0000      -0.285471        -7.7680
  41   2.0000      -0.279328        -7.6009
  42   2.0000      -0.262711        -7.1487
  43   2.0000      -0.251518        -6.8441
  44   2.0000      -0.246137        -6.6977
  45   2.0000      -0.233376        -6.3505
  46   2.0000      -0.221949        -6.0395
  47   2.0000      -0.195595        -5.3224
  48   0.0000       0.001660         0.0452
  49   0.0000       0.012789         0.3480
  50   0.0000       0.033960         0.9241
  51   0.0000       0.056743         1.5441
  52   0.0000       0.066565         1.8113

MULLIKEN ATOMIC CHARGES
-----------------------
   0 C :    0.043882
   1 C :    0.022955
   2 H :    0.060033
   3 C :    0.007351
   4 H :    0.080247
   5 C :    0.064623
   6 H :    0.086487
   7 C :    0.015883
   8 H :    0.065951
   9 C :    0.216181
  10 H :    0.077301
  11 O :   -0.299549
  12 O :   -0.435287
  13 O :   -0.424955
  14 O :   -0.425047
  15 O :   -0.419925
  16 O :   -0.439573
  17 H :    0.089966
  18 H :    0.095636
  19 H :    0.316868
  20 H :    0.302406
  21 H :    0.278099
  22 H :    0.307985
  23 H :    0.312479
Sum of atomic charges:    0.0000000

LOEWDIN ATOMIC CHARGES
----------------------
   0 C :   -0.133357
   1 C :   -0.080510
   2 H :    0.116728
   3 C :   -0.074124
   4 H :    0.110875
   5 C :   -0.070465
   6 H :    0.120339
   7 C :   -0.095768
   8 H :    0.111473
   9 C :    0.000771
  10 H :    0.105861
  11 O :   -0.123379
  12 O :   -0.323102
  13 O :   -0.317191
  14 O :   -0.330947
  15 O :   -0.308787
  16 O :   -0.328706
  17 H :    0.117967
  18 H :    0.111761
  19 H :    0.295598
  20 H :    0.272924
  21 H :    0.259771
  22 H :    0.288820
  23 H :    0.273445

  Mayer bond orders larger than 0.100000
B(  0-C ,  1-C ) :   1.0306 B(  0-C , 16-O ) :   1.0688 B(  0-C , 17-H ) :   0.9174
B(  0-C , 18-H ) :   0.9124 B(  1-C ,  2-H ) :   0.8819 B(  1-C ,  3-C ) :   0.9728
B(  1-C , 11-O ) :   0.9957 B(  3-C ,  4-H ) :   0.8977 B(  3-C ,  5-C ) :   1.0022
B(  3-C , 15-O ) :   0.9993 B(  5-C ,  6-H ) :   0.8973 B(  5-C ,  7-C ) :   0.9517
B(  5-C , 14-O ) :   1.1126 B(  7-C ,  8-H ) :   0.8919 B(  7-C ,  9-C ) :   0.9805
B(  7-C , 13-O ) :   1.0631 B(  9-C , 10-H ) :   0.9022 B(  9-C , 11-O ) :   1.0947
B(  9-C , 12-O ) :   0.9526 B( 12-O , 19-H ) :   0.8264 B( 12-O , 23-H ) :   0.1349
B( 13-O , 20-H ) :   0.8128 B( 14-O , 21-H ) :   0.7681 B( 15-O , 22-H ) :   0.8405
B( 16-O , 21-H ) :   0.1755 B( 16-O , 23-H ) :   0.7633

Dispersion correction           -0.026716902
FINAL SINGLE POINT ENERGY      -685.704292550942

DIPOLE MOMENT
-------------

Method             : SCF
Type of density    : Electron Density
Multiplicity       :   1
Irrep              :   0
Energy             :  -685.8407714876037744 Eh
Relativity type    :
Basis              : AO
                                X                 Y                 Z
Electronic contribution:      2.383662862      -0.371674794       0.407359059
Nuclear contribution   :     -3.144303239       0.058494769       0.176770300
                        -----------------------------------------
Total Dipole Moment    :     -0.760640376      -0.313180025       0.584129359
                        -----------------------------------------
Magnitude (a.u.)       :      1.008891777
Magnitude (Debye)      :      2.564399102

Rotational constants in cm-1:             0.040465             0.031341             0.027681
Rotational constants in MHz :          1213.110786           939.579068           829.868477

                             ****ORCA TERMINATED NORMALLY****
TOTAL RUN TIME: 0 days 0 hours 0 minutes 9 seconds 874 msec
