                         Program Version 6.0.1  -  RELEASE   -
|  1> ! pbe def2-sv(p) def2/J RI DEFGRID1 loosescf d4 GCP(DFT/SV(P)) printgap
|  2> %output
|  3>     printlevel normal
|  4> end
|  5> * xyz 0 1
|  6> C 1.4550566392 -0.7081397888 -1.0547943133
|  7> C 0.6554713272 -0.4649527448 0.2215518699
|  8> C 1.3671604365 0.5537712186 1.1190558796
|  9> C -0.7380198537 0.0533527069 -0.110182054
| 10> O -1.0336019361 0.4685700875 -1.2011101666
| 11> C -1.7210885766 0.0375768305 1.0359894537
| 12> H 1.5504617762 0.217916056 -1.6158145731
| 13> H 2.4480461903 -1.0816506251 -0.8169120216
| 14> H 0.948347872 -1.4341159701 -1.6859266596
| 15> H 0.5508937097 -1.4056189114 0.7727892563
| 16> H 2.3875086037 0.2277547993 1.3076531462
| 17> H 0.8606661257 0.6616306295 2.0747080698
| 18> H 1.4026589186 1.5243485207 0.6290582919
| 19> H -2.7321095375 0.1564452221 0.655204044
| 20> H -1.5039851763 0.8740407796 1.6978807225
| 21> H -1.6433677715 -0.8820607677 1.6090649911
| 22> *
| 23>
| 24>                          ****END OF INPUT****

CARTESIAN COORDINATES (ANGSTROEM)
---------------------------------
  C      1.455057   -0.708140   -1.054794
  C      0.655471   -0.464953    0.221552
  C      1.367160    0.553771    1.119056
  C     -0.738020    0.053353   -0.110182
  O     -1.033602    0.468570   -1.201110
  C     -1.721089    0.037577    1.035989
  H      1.550462    0.217916   -1.615815
  H      2.448046   -1.081651   -0.816912
  H      0.948348   -1.434116   -1.685927
  H      0.550894   -1.405619    0.772789
  H      2.387509    0.227755    1.307653
  H      0.860666    0.661631    2.074708
  H      1.402659    1.524349    0.629058
  H     -2.732110    0.156445    0.655204
  H     -1.503985    0.874041    1.697881
  H     -1.643368   -0.882061    1.609065

 Total Charge           Charge          ....    0
 Multiplicity           Mult            ....    1
 Number of Electrons    NEL             ....   48
 Basis Dimension        Dim             ....  104

ORBITAL ENERGIES
----------------

  NO   OCC          E(Eh)            E(eV)
   0   2.0000     -18.739064      -509.9159
   1   2.0000      -9.970185      -271.3025
   2   2.0000      -9.903251      -269.4812
   3   2.0000      -9.889491      -269.1067
   4   2.0000      -9.885128      -268.9880
   5   2.0000      -9.872820      -268.6531
   6   2.0000      -0.941061       -25.6076
   7   2.0000      -0.729627       -19.8542
   8   2.0000      -0.664695       -18.0873
   9   2.0000      -0.616314       -16.7708
  10   2.0000      -0.553572       -15.0635
  11   2.0000      -0.460733       -12.5372
  12   2.0000      -0.428668       -11.6647
  13   2.0000      -0.411452       -11.1962
  14   2.0000      -0.400706       -10.9038
  15   2.0000      -0.377679       -10.2772
  16   2.0000      -0.361037        -9.8243
  17   2.0000      -0.353095        -9.6082
  18   2.0000      -0.344138        -9.3645
  19   2.0000      -0.317973        -8.6525
  20   2.0000      -0.312973        -8.5164
  21   2.0000      -0.299729        -8.1561
  22   2.0000      -0.298908        -8.1337
  23   2.0000      -0.195110        -5.3092
  24   0.0000      -0.047142        -1.2828
  25   0.0000       0.027829         0.7573
  26   0.0000       0.066026         1.7967
  27   0.0000       0.070833         1.9275
  28   0.0000       0.095266         2.5923

MULLIKEN ATOMIC CHARGES
-----------------------
   0 C :   -0.224374
   1 C :   -0.195425
   2 C :   -0.265397
   3 C :    0.005893
   4 O :   -0.157177
   5 C :   -0.250333
   6 H :    0.106992
   7 H :    0.094252
   8 H :    0.104699
   9 H :    0.085782
  10 H :    0.113423
  11 H :    0.107070
  12 H :    0.111175
  13 H :    0.118060
  14 H :    0.131848
  15 H :    0.113512
Sum of atomic charges:    0.0000000

LOEWDIN ATOMIC CHARGES
----------------------
   0 C :   -0.328027
   1 C :   -0.185783
   2 C :   -0.321082
   3 C :    0.047322
   4 O :   -0.118562
   5 C :   -0.364913
   6 H :    0.124561
   7 H :    0.116825
   8 H :    0.122710
   9 H :    0.125060
  10 H :    0.124821
  11 H :    0.118039
  12 H :    0.124599
  13 H :    0.135632
  14 H :    0.145655
  15 H :    0.133144

  Mayer bond orders larger than 0.100000
B(  0-C ,  1-C ) :   1.1186 B(  0-C ,  6-H ) :   0.9443 B(  0-C ,  7-H ) :   0.9476
B(  0-C ,  8-H ) :   0.9514 B(  1-C ,  2-C ) :   1.0843 B(  1-C ,  3-C ) :   0.9252
B(  1-C ,  9-H ) :   0.8875 B(  2-C , 10-H ) :   0.9493 B(  2-C , 11-H ) :   0.9481
B(  2-C , 12-H ) :   0.9482 B(  3-C ,  4-O ) :   2.2054 B(  3-C ,  5-C ) :   1.0719
B(  5-C , 13-H ) :   0.9330 B(  5-C , 14-H ) :   0.9208 B(  5-C , 15-H ) :   0.9335

Dispersion correction           -0.011838780
FINAL SINGLE POINT ENERGY      -271.143249742457

DIPOLE MOMENT
-------------

Method             : SCF
Type of density    : Electron Density
Multiplicity       :   1
Irrep              :   0
Energy             :  -271.1972807399026237 Eh
Relativity type    :
Basis              : AO
                                X                 Y                 Z
Electronic contribution:     -3.709680419       0.789263157      -3.411092594
Nuclear contribution   :      3.989810447      -1.063787656       4.323737470
                        -----------------------------------------
Total Dipole Moment    :      0.280130028      -0.274524499       0.912644876
                        -----------------------------------------
Magnitude (a.u.)       :      0.993356534
Magnitude (Debye)      :      2.524911651

Rotational constants in cm-1:             0.158377             0.100526             0.072831
Rotational constants in MHz :          4748.033072          3013.687207          2183.421578

                             ****ORCA TERMINATED NORMALLY****
TOTAL RUN TIME: 0 days 0 hours 0 minutes 4 seconds 810 msec
