                         Program Version 6.0.1  -  RELEASE   -
|  1> ! pbe def2-sv(p) def2/J RI DEFGRID1 loosescf d4 GCP(DFT/SV(P)) printgap
|  2> %output
|  3>     printlevel normal
|  4> end
|  5> * xyz 0 1
|  6> C -2.7295980316 -0.3894206307 -0.6242383963
|  7> C -1.4633867477 -0.0275160808 0.1160785484
|  8> O -1.3731246578 -0.1367459207 1.3122743677
|  9> C -0.3470123013 0.4745963597 -0.784739401
| 10> C 0.4919867405 -0.7220777451 -1.2686099008
| 11> C 1.3299545402 -1.3121924298 -0.1399874934
| 12> C 2.259924963 -0.2495532388 0.4350652121
| 13> C 1.4386784429 0.912330398 0.9818258606
| 14> C 0.5572535996 1.513440574 -0.1094757965
| 15> H -3.2360477605 0.5306642217 -0.9126905951
| 16> H -2.5053555295 -0.9491603662 -1.5284470257
| 17> H -3.3902465725 -0.9653700417 0.0185031898
| 18> H -0.8160466304 0.9363153257 -1.6613258852
| 19> H -0.1614261385 -1.4890194153 -1.6913828082
| 20> H 1.1561617948 -0.3738734498 -2.0638273969
| 21> H 0.6737452217 -1.6809169924 0.6503659568
| 22> H 1.9090598058 -2.1565729987 -0.5205870851
| 23> H 2.8705874071 -0.679720365 1.2309393791
| 24> H 2.9327752271 0.1090888562 -0.3488469354
| 25> H 0.8081122006 0.5566216805 1.7960188955
| 26> H 2.0998345032 1.6869528232 1.3765952824
| 27> H -0.0624147732 2.3060598019 0.3159417581
| 28> H 1.1924789928 1.9609445387 -0.8792259929
| 29> *
| 30>
| 31>                          ****END OF INPUT****

CARTESIAN COORDINATES (ANGSTROEM)
---------------------------------
  C     -2.729598   -0.389421   -0.624238
  C     -1.463387   -0.027516    0.116079
  O     -1.373125   -0.136746    1.312274
  C     -0.347012    0.474596   -0.784739
  C      0.491987   -0.722078   -1.268610
  C      1.329955   -1.312192   -0.139987
  C      2.259925   -0.249553    0.435065
  C      1.438678    0.912330    0.981826
  C      0.557254    1.513441   -0.109476
  H     -3.236048    0.530664   -0.912691
  H     -2.505356   -0.949160   -1.528447
  H     -3.390247   -0.965370    0.018503
  H     -0.816047    0.936315   -1.661326
  H     -0.161426   -1.489019   -1.691383
  H      1.156162   -0.373873   -2.063827
  H      0.673745   -1.680917    0.650366
  H      1.909060   -2.156573   -0.520587
  H      2.870587   -0.679720    1.230939
  H      2.932775    0.109089   -0.348847
  H      0.808112    0.556622    1.796019
  H      2.099835    1.686953    1.376595
  H     -0.062415    2.306060    0.315942
  H      1.192479    1.960945   -0.879226

 Total Charge           Charge          ....    0
 Multiplicity           Mult            ....    1
 Number of Electrons    NEL             ....   70
 Basis Dimension        Dim             ....  154

ORBITAL ENERGIES
----------------

  NO   OCC          E(Eh)            E(eV)
   0   2.0000     -18.744165      -510.0547
   1   2.0000      -9.973509      -271.3930
   2   2.0000      -9.899963      -269.3917
   3   2.0000      -9.894549      -269.2444
   4   2.0000      -9.888103      -269.0690
   5   2.0000      -9.884156      -268.9616
   6   2.0000      -9.880315      -268.8570
   7   2.0000      -9.877195      -268.7721
   8   2.0000      -9.870728      -268.5962
   9   2.0000      -0.944983       -25.7143
  10   2.0000      -0.758579       -20.6420
  11   2.0000      -0.692449       -18.8425
  12   2.0000      -0.666328       -18.1317
  13   2.0000      -0.653553       -17.7841
  14   2.0000      -0.557602       -15.1731
  15   2.0000      -0.541267       -14.7286
  16   2.0000      -0.507334       -13.8053
  17   2.0000      -0.453036       -12.3277
  18   2.0000      -0.437013       -11.8917
  19   2.0000      -0.415152       -11.2969
  20   2.0000      -0.413084       -11.2406
  21   2.0000      -0.393293       -10.7020
  22   2.0000      -0.380393       -10.3510
  23   2.0000      -0.375335       -10.2134
  24   2.0000      -0.359075        -9.7709
  25   2.0000      -0.341357        -9.2888
  26   2.0000      -0.333823        -9.0838
  27   2.0000      -0.329037        -8.9536
  28   2.0000      -0.317197        -8.6314
  29   2.0000      -0.315015        -8.5720
  30   2.0000      -0.299679        -8.1547
  31   2.0000      -0.281272        -7.6538
  32   2.0000      -0.260355        -7.0846
  33   2.0000      -0.259002        -7.0478
  34   2.0000      -0.193967        -5.2781
  35   0.0000      -0.049672        -1.3516
  36   0.0000       0.023718         0.6454
  37   0.0000       0.052246         1.4217
  38   0.0000       0.064191         1.7467
  39   0.0000       0.073483         1.9996

MULLIKEN ATOMIC CHARGES
-----------------------
   0 C :   -0.251893
   1 C :    0.011492
   2 O :   -0.156900
   3 C :   -0.169998
   4 C :   -0.135387
   5 C :   -0.155133
   6 C :   -0.156578
   7 C :   -0.154847
   8 C :   -0.109475
   9 H :    0.127776
  10 H :    0.120217
  11 H :    0.116200
  12 H :    0.069752
  13 H :    0.085183
  14 H :    0.084820
  15 H :    0.095743
  16 H :    0.084826
  17 H :    0.084848
  18 H :    0.067603
  19 H :    0.104995
  20 H :    0.078531
  21 H :    0.084563
  22 H :    0.073663
Sum of atomic charges:   -0.0000000

LOEWDIN ATOMIC CHARGES
----------------------
   0 C :   -0.362420
   1 C :    0.052531
   2 O :   -0.118505
   3 C :   -0.170360
   4 C :   -0.205566
   5 C :   -0.230086
   6 C :   -0.224573
   7 C :   -0.235499
   8 C :   -0.209355
   9 H :    0.145940
  10 H :    0.134440
  11 H :    0.132322
  12 H :    0.122405
  13 H :    0.113861
  14 H :    0.119051
  15 H :    0.121241
  16 H :    0.116727
  17 H :    0.116602
  18 H :    0.109038
  19 H :    0.124717
  20 H :    0.113946
  21 H :    0.118422
  22 H :    0.115123

  Mayer bond orders larger than 0.100000
B(  0-C ,  1-C ) :   1.0801 B(  0-C ,  9-H ) :   0.9199 B(  0-C , 10-H ) :   0.9269
B(  0-C , 11-H ) :   0.9355 B(  1-C ,  2-O ) :   2.1681 B(  1-C ,  3-C ) :   0.9136
B(  3-C ,  4-C ) :   1.0623 B(  3-C ,  8-C ) :   1.0757 B(  3-C , 12-H ) :   0.8828
B(  4-C ,  5-C ) :   1.1321 B(  4-C , 13-H ) :   0.9141 B(  4-C , 14-H ) :   0.9097
B(  5-C ,  6-C ) :   1.1315 B(  5-C , 15-H ) :   0.9068 B(  5-C , 16-H ) :   0.9175
B(  6-C ,  7-C ) :   1.1336 B(  6-C , 17-H ) :   0.9193 B(  6-C , 18-H ) :   0.9173
B(  7-C ,  8-C ) :   1.1319 B(  7-C , 19-H ) :   0.9008 B(  7-C , 20-H ) :   0.9155
B(  8-C , 21-H ) :   0.9194 B(  8-C , 22-H ) :   0.9130

Dispersion correction           -0.022804053
FINAL SINGLE POINT ENERGY      -387.608304697787

DIPOLE MOMENT
-------------

Method             : SCF
Type of density    : Electron Density
Multiplicity       :   1
Irrep              :   0
Energy             :  -387.6860676263523828 Eh
Relativity type    :
Basis              : AO
                                X                 Y                 Z
Electronic contribution:     -3.295096106       0.254523499       3.035497698
Nuclear contribution   :      3.236213681      -0.197153826      -3.937693029
                        -----------------------------------------
Total Dipole Moment    :     -0.058882425       0.057369673      -0.902195331
                        -----------------------------------------
Magnitude (a.u.)       :      0.905933130
Magnitude (Debye)      :      2.302699017

Rotational constants in cm-1:             0.089746             0.042503             0.038736
Rotational constants in MHz :          2690.515913          1274.218519          1161.278889

                             ****ORCA TERMINATED NORMALLY****
TOTAL RUN TIME: 0 days 0 hours 0 minutes 11 seconds 983 msec
