                         Program Version 6.0.1  -  RELEASE   -
|  1> ! r2scan-3c def2/J RI DEFGRID2 scfconv6 printgap
|  2> %output
|  3>     printlevel normal
|  4> end
|  5> * xyz 0 1
|  6> C 1.8578368722 0.1991687632 0.2080146891
|  7> C 0.7172370745 -0.1164098696 -0.3742090979
|  8> C -0.5595482351 -0.4108362893 0.3561741427
|  9> O -1.6635032246 0.3083845697 -0.1474657255
| 10> H 2.7537577827 0.3885384746 -0.3583328096
| 11> H 1.9436477198 0.2734600664 1.2792879747
| 12> H 0.6504843368 -0.1815783882 -1.4542527786
| 13> H -0.4770863612 -0.1303369458 1.4080119711
| 14> H -0.7604914695 -1.495098403 0.3002120418
| 15> H -1.7226007571 0.159371299 -1.0980174351
| 16> *
| 17>
| 18>                          ****END OF INPUT****

CARTESIAN COORDINATES (ANGSTROEM)
---------------------------------
  C      1.857837    0.199169    0.208015
  C      0.717237   -0.116410   -0.374209
  C     -0.559548   -0.410836    0.356174
  O     -1.663503    0.308385   -0.147466
  H      2.753758    0.388538   -0.358333
  H      1.943648    0.273460    1.279288
  H      0.650484   -0.181578   -1.454253
  H     -0.477086   -0.130337    1.408012
  H     -0.760491   -1.495098    0.300212
  H     -1.722601    0.159371   -1.098017

 Total Charge           Charge          ....    0
 Multiplicity           Mult            ....    1
 Number of Electrons    NEL             ....   32
 Basis Dimension        Dim             ....  111

ORBITAL ENERGIES
----------------

  NO   OCC          E(Eh)            E(eV)
   0   2.0000     -18.952297      -515.7182
   1   2.0000     -10.082922      -274.3703
   2   2.0000     -10.041056      -273.2310
   3   2.0000     -10.030398      -272.9410
   4   2.0000      -0.991308       -26.9749
   5   2.0000      -0.756453       -20.5841
   6   2.0000      -0.646372       -17.5887
   7   2.0000      -0.548031       -14.9127
   8   2.0000      -0.472481       -12.8569
   9   2.0000      -0.447241       -12.1700
  10   2.0000      -0.414262       -11.2726
  11   2.0000      -0.376358       -10.2412
  12   2.0000      -0.346570        -9.4307
  13   2.0000      -0.310062        -8.4372
  14   2.0000      -0.249902        -6.8002
  15   2.0000      -0.240626        -6.5478
  16   0.0000      -0.025113        -0.6834
  17   0.0000       0.065341         1.7780
  18   0.0000       0.104644         2.8475
  19   0.0000       0.122470         3.3326
  20   0.0000       0.146304         3.9811

MULLIKEN ATOMIC CHARGES
-----------------------
   0 C :   -0.349668
   1 C :   -0.080584
   2 C :   -0.155080
   3 O :   -0.408709
   4 H :    0.142210
   5 H :    0.141859
   6 H :    0.143615
   7 H :    0.142725
   8 H :    0.132174
   9 H :    0.291459
Sum of atomic charges:   -0.0000000

LOEWDIN ATOMIC CHARGES
----------------------
   0 C :   -0.298468
   1 C :   -0.185393
   2 C :    0.008668
   3 O :   -0.606049
   4 H :    0.158362
   5 H :    0.157560
   6 H :    0.159295
   7 H :    0.180391
   8 H :    0.162385
   9 H :    0.263250

  Mayer bond orders larger than 0.100000
B(  0-C ,  1-C ) :   1.9412 B(  0-C ,  4-H ) :   0.9526 B(  0-C ,  5-H ) :   0.9866
B(  1-C ,  2-C ) :   0.9497 B(  1-C ,  6-H ) :   0.9165 B(  2-C ,  3-O ) :   0.9113
B(  2-C ,  7-H ) :   0.9967 B(  2-C ,  8-H ) :   0.9551 B(  3-O ,  9-H ) :   0.8990

Dispersion correction           -0.001710135
FINAL SINGLE POINT ENERGY      -193.065477075457

DIPOLE MOMENT
-------------

Method             : SCF
Type of density    : Electron Density
Multiplicity       :   1
Irrep              :   0
Energy             :  -193.0686817983357741 Eh
Relativity type    :
Basis              : AO
                                X                 Y                 Z
Electronic contribution:     -1.872944024       0.570719520      -0.427000324
Nuclear contribution   :      2.215404479      -0.920125503       0.069966783
                        -----------------------------------------
Total Dipole Moment    :      0.342460455      -0.349405983      -0.357033541
                        -----------------------------------------
Magnitude (a.u.)       :      0.605670417
Magnitude (Debye)      :      1.539491854

Rotational constants in cm-1:             0.945480             0.143300             0.136720
Rotational constants in MHz :         28344.765885          4296.039349          4098.759063

                             ****ORCA TERMINATED NORMALLY****
TOTAL RUN TIME: 0 days 0 hours 0 minutes 23 seconds 384 msec
