                         Program Version 6.0.1  -  RELEASE   -
|  1> ! r2scan-3c def2/J RI DEFGRID2 scfconv6 printgap
|  2> %output
|  3>     printlevel normal
|  4> end
|  5> * xyz 0 1
|  6> C 3.6884700988 -0.2853734159 0.1422908423
|  7> C 2.2058160619 -0.1840169939 0.0037055188
|  8> C 1.5651199475 0.9887122515 -0.035725498
|  9> C 0.1193957005 1.1310352776 -0.2162950436
| 10> O -0.4146941787 2.2203663456 -0.2468489733
| 11> C -0.649668112 -0.1682261815 -0.4259669682
| 12> H -0.5355566891 -0.3960649567 -1.4961937715
| 13> C 0.0100016964 -1.2949875856 0.3675110283
| 14> C 1.4526837535 -1.4752726212 -0.092215448
| 15> C -2.1513112601 0.0287202157 -0.1521053048
| 16> C -2.9874369168 -1.0956421231 -0.757897946
| 17> C -2.4505641259 0.1763571403 1.3379096607
| 18> H 3.9422502924 -0.7604759778 1.0900878877
| 19> H 4.1579883446 0.6936832171 0.1056604978
| 20> H 4.0971826333 -0.9065399471 -0.6541251954
| 21> H 2.108848214 1.9198698564 0.0484730296
| 22> H 0.0063112078 -1.0466859002 1.4302275081
| 23> H -0.542331257 -2.2256905373 0.2303928901
| 24> H 1.9525742712 -2.2425667435 0.5035693019
| 25> H 1.4677579193 -1.8127892017 -1.1350025894
| 26> H -2.4290155282 0.9682356997 -0.6424728967
| 27> H -4.0459927497 -0.8853631276 -0.6244515983
| 28> H -2.7712301376 -2.0470226738 -0.2763302058
| 29> H -2.7919679444 -1.1949104602 -1.8236447116
| 30> H -1.8258424702 0.951492555 1.7747049021
| 31> H -2.2805146454 -0.758124474 1.8681459383
| 32> H -3.4909671261 0.4600523411 1.4791434004
| 33> *
| 34>
| 35>                          ****END OF INPUT****

CARTESIAN COORDINATES (ANGSTROEM)
---------------------------------
  C      3.688470   -0.285373    0.142291
  C      2.205816   -0.184017    0.003706
  C      1.565120    0.988712   -0.035725
  C      0.119396    1.131035   -0.216295
  O     -0.414694    2.220366   -0.246849
  C     -0.649668   -0.168226   -0.425967
  H     -0.535557   -0.396065   -1.496194
  C      0.010002   -1.294988    0.367511
  C      1.452684   -1.475273   -0.092215
  C     -2.151311    0.028720   -0.152105
  C     -2.987437   -1.095642   -0.757898
  C     -2.450564    0.176357    1.337910
  H      3.942250   -0.760476    1.090088
  H      4.157988    0.693683    0.105660
  H      4.097183   -0.906540   -0.654125
  H      2.108848    1.919870    0.048473
  H      0.006311   -1.046686    1.430228
  H     -0.542331   -2.225691    0.230393
  H      1.952574   -2.242567    0.503569
  H      1.467758   -1.812789   -1.135003
  H     -2.429016    0.968236   -0.642473
  H     -4.045993   -0.885363   -0.624452
  H     -2.771230   -2.047023   -0.276330
  H     -2.791968   -1.194910   -1.823645
  H     -1.825842    0.951493    1.774705
  H     -2.280515   -0.758124    1.868146
  H     -3.490967    0.460052    1.479143

 Total Charge           Charge          ....    0
 Multiplicity           Mult            ....    1
 Number of Electrons    NEL             ....   84
 Basis Dimension        Dim             ....  294

ORBITAL ENERGIES
----------------

  NO   OCC          E(Eh)            E(eV)
   0   2.0000     -18.924628      -514.9653
   1   2.0000     -10.104530      -274.9582
   2   2.0000     -10.068195      -273.9695
   3   2.0000     -10.048556      -273.4351
   4   2.0000     -10.042361      -273.2665
   5   2.0000     -10.039108      -273.1780
   6   2.0000     -10.037673      -273.1390
   7   2.0000     -10.029541      -272.9177
   8   2.0000     -10.029386      -272.9135
   9   2.0000     -10.014431      -272.5065
  10   2.0000     -10.010083      -272.3882
  11   2.0000      -0.994869       -27.0718
  12   2.0000      -0.824828       -22.4447
  13   2.0000      -0.777937       -21.1687
  14   2.0000      -0.727847       -19.8057
  15   2.0000      -0.699084       -19.0230
  16   2.0000      -0.662127       -18.0174
  17   2.0000      -0.647549       -17.6207
  18   2.0000      -0.595658       -16.2087
  19   2.0000      -0.552879       -15.0446
  20   2.0000      -0.519911       -14.1475
  21   2.0000      -0.486317       -13.2333
  22   2.0000      -0.450257       -12.2521
  23   2.0000      -0.441610       -12.0168
  24   2.0000      -0.421685       -11.4746
  25   2.0000      -0.416509       -11.3338
  26   2.0000      -0.403976       -10.9927
  27   2.0000      -0.393737       -10.7141
  28   2.0000      -0.390462       -10.6250
  29   2.0000      -0.380192       -10.3456
  30   2.0000      -0.365213        -9.9379
  31   2.0000      -0.358480        -9.7547
  32   2.0000      -0.353536        -9.6202
  33   2.0000      -0.341130        -9.2826
  34   2.0000      -0.334562        -9.1039
  35   2.0000      -0.323823        -8.8117
  36   2.0000      -0.313299        -8.5253
  37   2.0000      -0.295054        -8.0288
  38   2.0000      -0.288471        -7.8497
  39   2.0000      -0.278386        -7.5753
  40   2.0000      -0.243202        -6.6179
  41   2.0000      -0.203817        -5.5461
  42   0.0000      -0.074060        -2.0153
  43   0.0000       0.029170         0.7938
  44   0.0000       0.074466         2.0263
  45   0.0000       0.087221         2.3734
  46   0.0000       0.101881         2.7723

MULLIKEN ATOMIC CHARGES
-----------------------
   0 C :   -0.512671
   1 C :    0.197580
   2 C :   -0.296254
   3 C :    0.155450
   4 O :   -0.351475
   5 C :   -0.045453
   6 H :    0.170658
   7 C :   -0.368328
   8 C :   -0.330536
   9 C :    0.007991
  10 C :   -0.496463
  11 C :   -0.568423
  12 H :    0.166943
  13 H :    0.160126
  14 H :    0.158316
  15 H :    0.165358
  16 H :    0.178511
  17 H :    0.161832
  18 H :    0.159796
  19 H :    0.183171
  20 H :    0.185477
  21 H :    0.151118
  22 H :    0.148777
  23 H :    0.145649
  24 H :    0.172157
  25 H :    0.148749
  26 H :    0.151945
Sum of atomic charges:    0.0000000

LOEWDIN ATOMIC CHARGES
----------------------
   0 C :   -0.386281
   1 C :   -0.065931
   2 C :   -0.167274
   3 C :    0.230519
   4 O :   -0.477162
   5 C :   -0.190570
   6 H :    0.185304
   7 C :   -0.270621
   8 C :   -0.276575
   9 C :   -0.223214
  10 C :   -0.413007
  11 C :   -0.406846
  12 H :    0.168683
  13 H :    0.163098
  14 H :    0.167756
  15 H :    0.181590
  16 H :    0.168493
  17 H :    0.161526
  18 H :    0.165863
  19 H :    0.176306
  20 H :    0.180748
  21 H :    0.155244
  22 H :    0.149512
  23 H :    0.152730
  24 H :    0.164131
  25 H :    0.150228
  26 H :    0.155752

  Mayer bond orders larger than 0.100000
B(  0-C ,  1-C ) :   0.8378 B(  0-C , 12-H ) :   0.9669 B(  0-C , 13-H ) :   0.9932
B(  0-C , 14-H ) :   0.9620 B(  1-C ,  2-C ) :   1.6785 B(  1-C ,  8-C ) :   0.8607
B(  2-C ,  3-C ) :   1.1102 B(  2-C , 15-H ) :   0.9472 B(  3-C ,  4-O ) :   1.9400
B(  3-C ,  5-C ) :   0.9325 B(  5-C ,  6-H ) :   0.9411 B(  5-C ,  7-C ) :   0.8141
B(  5-C ,  9-C ) :   0.8629 B(  7-C ,  8-C ) :   0.9085 B(  7-C , 16-H ) :   0.9870
B(  7-C , 17-H ) :   0.9781 B(  8-C , 18-H ) :   0.9731 B(  8-C , 19-H ) :   0.9860
B(  9-C , 10-C ) :   0.8776 B(  9-C , 11-C ) :   0.8655 B(  9-C , 20-H ) :   0.9777
B( 10-C , 21-H ) :   0.9751 B( 10-C , 22-H ) :   0.9838 B( 10-C , 23-H ) :   0.9850
B( 11-C , 24-H ) :   0.9762 B( 11-C , 25-H ) :   0.9781 B( 11-C , 26-H ) :   0.9712

Dispersion correction           -0.009541245
FINAL SINGLE POINT ENERGY      -465.795123189056

DIPOLE MOMENT
-------------

Method             : SCF
Type of density    : Electron Density
Multiplicity       :   1
Irrep              :   0
Energy             :  -465.7970573705888455 Eh
Relativity type    :
Basis              : AO
                                X                 Y                 Z
Electronic contribution:      3.656942848       7.330218839      -1.737970194
Nuclear contribution   :     -2.802360114      -8.675981226       1.758389292
                        -----------------------------------------
Total Dipole Moment    :      0.854582734      -1.345762387       0.020419098
                        -----------------------------------------
Magnitude (a.u.)       :      1.594303921
Magnitude (Debye)      :      4.052398517

Rotational constants in cm-1:             0.066572             0.024268             0.020124
Rotational constants in MHz :          1995.764199           727.545498           603.294327

                             ****ORCA TERMINATED NORMALLY****
TOTAL RUN TIME: 0 days 0 hours 1 minutes 7 seconds 515 msec
