                         Program Version 6.0.1  -  RELEASE   -
|  1> ! pbe def2-sv(p) def2/J RI DEFGRID1 loosescf d4 GCP(DFT/SV(P)) printgap
|  2> %output
|  3>     printlevel normal
|  4> end
|  5> * xyz 0 1
|  6> C -2.3587819749 -0.5099299179 -1.1201433579
|  7> C -1.7032635815 0.0779891488 0.1047687257
|  8> O -2.3168624301 0.5392314049 1.0321396113
|  9> C -0.2074483557 0.0298848468 0.0541953822
| 10> C 0.5059421896 1.0817317711 -0.5063879288
| 11> C 1.8878296721 1.0313806828 -0.5596732664
| 12> C 2.5633940097 -0.0669029389 -0.0552444207
| 13> C 1.8549961906 -1.1146901623 0.5080962758
| 14> C 0.4730718164 -1.0686119138 0.5639566663
| 15> H -2.0174063506 0.0260632894 -2.0037288398
| 16> H -3.4408855706 -0.4460266821 -1.0418670537
| 17> H -2.0551963073 -1.5499175968 -1.2250623014
| 18> H -0.0233984276 1.9404952466 -0.8932853045
| 19> H 2.4375930828 1.8524810998 -0.9954158426
| 20> H 3.6417289059 -0.1049057107 -0.0983470392
| 21> H 2.3791210154 -1.9709772073 0.9060494663
| 22> H -0.0818341246 -1.8820140115 1.0086500106
| 23> *
| 24>
| 25>                          ****END OF INPUT****

CARTESIAN COORDINATES (ANGSTROEM)
---------------------------------
  C     -2.358782   -0.509930   -1.120143
  C     -1.703264    0.077989    0.104769
  O     -2.316862    0.539231    1.032140
  C     -0.207448    0.029885    0.054195
  C      0.505942    1.081732   -0.506388
  C      1.887830    1.031381   -0.559673
  C      2.563394   -0.066903   -0.055244
  C      1.854996   -1.114690    0.508096
  C      0.473072   -1.068612    0.563957
  H     -2.017406    0.026063   -2.003729
  H     -3.440886   -0.446027   -1.041867
  H     -2.055196   -1.549918   -1.225062
  H     -0.023398    1.940495   -0.893285
  H      2.437593    1.852481   -0.995416
  H      3.641729   -0.104906   -0.098347
  H      2.379121   -1.970977    0.906049
  H     -0.081834   -1.882014    1.008650

 Total Charge           Charge          ....    0
 Multiplicity           Mult            ....    1
 Number of Electrons    NEL             ....   64
 Basis Dimension        Dim             ....  142

ORBITAL ENERGIES
----------------

  NO   OCC          E(Eh)            E(eV)
   0   2.0000     -18.745570      -510.0929
   1   2.0000      -9.979608      -271.5589
   2   2.0000      -9.906100      -269.5587
   3   2.0000      -9.903796      -269.4960
   4   2.0000      -9.903773      -269.4954
   5   2.0000      -9.902815      -269.4693
   6   2.0000      -9.902744      -269.4674
   7   2.0000      -9.902090      -269.4496
   8   2.0000      -9.891203      -269.1533
   9   2.0000      -0.946923       -25.7671
  10   2.0000      -0.787815       -21.4375
  11   2.0000      -0.703643       -19.1471
  12   2.0000      -0.680853       -18.5269
  13   2.0000      -0.660973       -17.9860
  14   2.0000      -0.566102       -15.4044
  15   2.0000      -0.554070       -15.0770
  16   2.0000      -0.502768       -13.6810
  17   2.0000      -0.454115       -12.3571
  18   2.0000      -0.426403       -11.6030
  19   2.0000      -0.419049       -11.4029
  20   2.0000      -0.397780       -10.8241
  21   2.0000      -0.390190       -10.6176
  22   2.0000      -0.387834       -10.5535
  23   2.0000      -0.383305       -10.4303
  24   2.0000      -0.353872        -9.6293
  25   2.0000      -0.337047        -9.1715
  26   2.0000      -0.326246        -8.8776
  27   2.0000      -0.319517        -8.6945
  28   2.0000      -0.308086        -8.3834
  29   2.0000      -0.239863        -6.5270
  30   2.0000      -0.236607        -6.4384
  31   2.0000      -0.200251        -5.4491
  32   0.0000      -0.054386        -1.4799
  33   0.0000      -0.044579        -1.2131
  34   0.0000      -0.044358        -1.2070
  35   0.0000       0.033399         0.9088
  36   0.0000       0.055468         1.5093

MULLIKEN ATOMIC CHARGES
-----------------------
   0 C :   -0.245927
   1 C :    0.005191
   2 O :   -0.146431
   3 C :    0.057473
   4 C :   -0.087315
   5 C :   -0.050202
   6 C :   -0.043854
   7 C :   -0.050240
   8 C :   -0.087183
   9 H :    0.124135
  10 H :    0.119308
  11 H :    0.124310
  12 H :    0.052541
  13 H :    0.058467
  14 H :    0.058616
  15 H :    0.058515
  16 H :    0.052595
Sum of atomic charges:    0.0000000

LOEWDIN ATOMIC CHARGES
----------------------
   0 C :   -0.359396
   1 C :    0.051214
   2 O :   -0.103480
   3 C :   -0.059898
   4 C :   -0.112812
   5 C :   -0.116616
   6 C :   -0.121869
   7 C :   -0.116622
   8 C :   -0.112659
   9 H :    0.143923
  10 H :    0.132558
  11 H :    0.144347
  12 H :    0.126083
  13 H :    0.126569
  14 H :    0.125924
  15 H :    0.126580
  16 H :    0.126154

  Mayer bond orders larger than 0.100000
B(  0-C ,  1-C ) :   1.0631 B(  0-C ,  9-H ) :   0.9261 B(  0-C , 10-H ) :   0.9328
B(  0-C , 11-H ) :   0.9256 B(  1-C ,  2-O ) :   2.2255 B(  1-C ,  3-C ) :   0.8665
B(  3-C ,  4-C ) :   1.3994 B(  3-C ,  8-C ) :   1.3996 B(  4-C ,  5-C ) :   1.3765
B(  4-C , 12-H ) :   0.9638 B(  5-C ,  6-C ) :   1.3835 B(  5-C , 13-H ) :   0.9632
B(  6-C ,  7-C ) :   1.3835 B(  6-C , 14-H ) :   0.9650 B(  7-C ,  8-C ) :   1.3763
B(  7-C , 15-H ) :   0.9632 B(  8-C , 16-H ) :   0.9640

Dispersion correction           -0.017487167
FINAL SINGLE POINT ENERGY      -384.055019023006

DIPOLE MOMENT
-------------

Method             : SCF
Type of density    : Electron Density
Multiplicity       :   1
Irrep              :   0
Energy             :  -384.1003872710326732 Eh
Relativity type    :
Basis              : AO
                                X                 Y                 Z
Electronic contribution:     -0.177707392       1.611609278       3.295188092
Nuclear contribution   :      0.753479557      -1.994818773      -4.059189010
                        -----------------------------------------
Total Dipole Moment    :      0.575772166      -0.383209495      -0.764000919
                        -----------------------------------------
Magnitude (a.u.)       :      1.030563199
Magnitude (Debye)      :      2.619483479

Rotational constants in cm-1:             0.123014             0.037436             0.034299
Rotational constants in MHz :          3687.864826          1122.308546          1028.255188

                             ****ORCA TERMINATED NORMALLY****
TOTAL RUN TIME: 0 days 0 hours 0 minutes 13 seconds 266 msec
