                         Program Version 6.0.1  -  RELEASE   -
|  1> ! pbe def2-sv(p) def2/J RI DEFGRID1 loosescf d4 GCP(DFT/SV(P)) printgap
|  2> %output
|  3>     printlevel normal
|  4> end
|  5> * xyz 0 1
|  6> C -2.2109928692 -1.0276088144 -0.4000235114
|  7> C -1.1787760799 -0.2146005782 0.3955610313
|  8> H -1.6739358679 0.1846742733 1.2931021336
|  9> C -0.6012321375 0.9450805304 -0.4204738901
| 10> H -0.4505110899 0.6419437683 -1.462646046
| 11> C 0.7552903847 1.3334085766 0.1828254684
| 12> H 0.6407146209 1.4837849163 1.2711272357
| 13> C 1.7340642377 0.1764629504 -0.05013199
| 14> H 2.0607049491 0.2117314955 -1.1003872803
| 15> C 1.0234204588 -1.1726497396 0.1660946267
| 16> H 1.6756299455 -1.7980825293 0.7926912467
| 17> O -0.1613656162 -1.0738356619 0.9109055695
| 18> O 0.809030368 -1.7428281206 -1.089464803
| 19> O 2.8340377543 0.2391091457 0.8155244577
| 20> O 1.2610343275 2.5061774723 -0.4031220773
| 21> O -1.464022714 2.0525587956 -0.4784802426
| 22> O -2.7896937802 -2.0261172956 0.3971544601
| 23> H -1.7238868222 -1.4643178456 -1.2835163367
| 24> H -3.0182422696 -0.3704607071 -0.7304994522
| 25> H 0.4787248114 -2.6435670702 -0.9823831557
| 26> H 3.2297680998 1.1143803329 0.7193107653
| 27> H 0.5092556378 2.9984382781 -0.7629714312
| 28> H -1.7126025683 2.3108281633 0.4185647665
| 29> H -2.0793752437 -2.4338261924 0.9098384223
| 30> *
| 31>
| 32>                          ****END OF INPUT****

CARTESIAN COORDINATES (ANGSTROEM)
---------------------------------
  C     -2.210993   -1.027609   -0.400024
  C     -1.178776   -0.214601    0.395561
  H     -1.673936    0.184674    1.293102
  C     -0.601232    0.945081   -0.420474
  H     -0.450511    0.641944   -1.462646
  C      0.755290    1.333409    0.182825
  H      0.640715    1.483785    1.271127
  C      1.734064    0.176463   -0.050132
  H      2.060705    0.211731   -1.100387
  C      1.023420   -1.172650    0.166095
  H      1.675630   -1.798083    0.792691
  O     -0.161366   -1.073836    0.910906
  O      0.809030   -1.742828   -1.089465
  O      2.834038    0.239109    0.815524
  O      1.261034    2.506177   -0.403122
  O     -1.464023    2.052559   -0.478480
  O     -2.789694   -2.026117    0.397154
  H     -1.723887   -1.464318   -1.283516
  H     -3.018242   -0.370461   -0.730499
  H      0.478725   -2.643567   -0.982383
  H      3.229768    1.114380    0.719311
  H      0.509256    2.998438   -0.762971
  H     -1.712603    2.310828    0.418565
  H     -2.079375   -2.433826    0.909838

 Total Charge           Charge          ....    0
 Multiplicity           Mult            ....    1
 Number of Electrons    NEL             ....   96
 Basis Dimension        Dim             ....  192

ORBITAL ENERGIES
----------------

  NO   OCC          E(Eh)            E(eV)
   0   2.0000     -18.783061      -511.1131
   1   2.0000     -18.779322      -511.0113
   2   2.0000     -18.773768      -510.8602
   3   2.0000     -18.753309      -510.3035
   4   2.0000     -18.752792      -510.2894
   5   2.0000     -18.744259      -510.0572
   6   2.0000      -9.993563      -271.9387
   7   2.0000      -9.955386      -270.8998
   8   2.0000      -9.954499      -270.8757
   9   2.0000      -9.944039      -270.5911
  10   2.0000      -9.942982      -270.5623
  11   2.0000      -9.931454      -270.2486
  12   2.0000      -0.993657       -27.0388
  13   2.0000      -0.962810       -26.1994
  14   2.0000      -0.938884       -25.5483
  15   2.0000      -0.930683       -25.3252
  16   2.0000      -0.920718       -25.0540
  17   2.0000      -0.916194       -24.9309
  18   2.0000      -0.713960       -19.4279
  19   2.0000      -0.698660       -19.0115
  20   2.0000      -0.623740       -16.9728
  21   2.0000      -0.596363       -16.2279
  22   2.0000      -0.572634       -15.5822
  23   2.0000      -0.528846       -14.3906
  24   2.0000      -0.518660       -14.1135
  25   2.0000      -0.496074       -13.4989
  26   2.0000      -0.485547       -13.2124
  27   2.0000      -0.460053       -12.5187
  28   2.0000      -0.441499       -12.0138
  29   2.0000      -0.429977       -11.7003
  30   2.0000      -0.414987       -11.2924
  31   2.0000      -0.407172       -11.0797
  32   2.0000      -0.394246       -10.7280
  33   2.0000      -0.388415       -10.5693
  34   2.0000      -0.365911        -9.9570
  35   2.0000      -0.361717        -9.8428
  36   2.0000      -0.344480        -9.3738
  37   2.0000      -0.320269        -8.7150
  38   2.0000      -0.309577        -8.4240
  39   2.0000      -0.304441        -8.2842
  40   2.0000      -0.293443        -7.9850
  41   2.0000      -0.266413        -7.2495
  42   2.0000      -0.264980        -7.2105
  43   2.0000      -0.251130        -6.8336
  44   2.0000      -0.246693        -6.7129
  45   2.0000      -0.223489        -6.0814
  46   2.0000      -0.219593        -5.9754
  47   2.0000      -0.208044        -5.6612
  48   0.0000       0.005047         0.1373
  49   0.0000       0.013896         0.3781
  50   0.0000       0.035089         0.9548
  51   0.0000       0.042026         1.1436
  52   0.0000       0.063403         1.7253

MULLIKEN ATOMIC CHARGES
-----------------------
   0 C :    0.080265
   1 C :    0.021705
   2 H :    0.058868
   3 C :   -0.011644
   4 H :    0.085373
   5 C :    0.030752
   6 H :    0.044485
   7 C :    0.097956
   8 H :    0.074509
   9 C :    0.163563
  10 H :    0.079389
  11 O :   -0.326486
  12 O :   -0.394639
  13 O :   -0.412247
  14 O :   -0.419244
  15 O :   -0.410007
  16 O :   -0.433247
  17 H :    0.068473
  18 H :    0.086323
  19 H :    0.306700
  20 H :    0.311097
  21 H :    0.301955
  22 H :    0.303592
  23 H :    0.292507
Sum of atomic charges:   -0.0000000

LOEWDIN ATOMIC CHARGES
----------------------
   0 C :   -0.135663
   1 C :   -0.076215
   2 H :    0.111379
   3 C :   -0.084557
   4 H :    0.124286
   5 C :   -0.086336
   6 H :    0.099970
   7 C :   -0.073302
   8 H :    0.113555
   9 C :    0.002279
  10 H :    0.107864
  11 O :   -0.147406
  12 O :   -0.305671
  13 O :   -0.314736
  14 O :   -0.329225
  15 O :   -0.301203
  16 O :   -0.338759
  17 H :    0.095687
  18 H :    0.116715
  19 H :    0.287028
  20 H :    0.292214
  21 H :    0.280142
  22 H :    0.287587
  23 H :    0.274367

  Mayer bond orders larger than 0.100000
B(  0-C ,  1-C ) :   1.0743 B(  0-C , 16-O ) :   1.0754 B(  0-C , 17-H ) :   0.8961
B(  0-C , 18-H ) :   0.9122 B(  1-C ,  2-H ) :   0.8755 B(  1-C ,  3-C ) :   0.9745
B(  1-C , 11-O ) :   0.9599 B(  3-C ,  4-H ) :   0.8723 B(  3-C ,  5-C ) :   1.0280
B(  3-C , 15-O ) :   1.0089 B(  5-C ,  6-H ) :   0.8513 B(  5-C ,  7-C ) :   1.0344
B(  5-C , 14-O ) :   1.1100 B(  7-C ,  8-H ) :   0.8805 B(  7-C ,  9-C ) :   0.9875
B(  7-C , 13-O ) :   1.0914 B(  9-C , 10-H ) :   0.8911 B(  9-C , 11-O ) :   1.0611
B(  9-C , 12-O ) :   1.1016 B( 12-O , 19-H ) :   0.8347 B( 13-O , 20-H ) :   0.8451
B( 14-O , 21-H ) :   0.8214 B( 15-O , 22-H ) :   0.8439 B( 16-O , 23-H ) :   0.8402

Dispersion correction           -0.024531674
FINAL SINGLE POINT ENERGY      -685.694181936704

DIPOLE MOMENT
-------------

Method             : SCF
Type of density    : Electron Density
Multiplicity       :   1
Irrep              :   0
Energy             :  -685.8257378930038612 Eh
Relativity type    :
Basis              : AO
                                X                 Y                 Z
Electronic contribution:      1.927987528      -0.014233955       1.043775431
Nuclear contribution   :     -1.928909432       0.220298585      -0.858764108
                        -----------------------------------------
Total Dipole Moment    :     -0.000921904       0.206064629       0.185011324
                        -----------------------------------------
Magnitude (a.u.)       :      0.276934417
Magnitude (Debye)      :      0.703911347

Rotational constants in cm-1:             0.042586             0.026218             0.018636
Rotational constants in MHz :          1276.689629           785.983399           558.699588

                             ****ORCA TERMINATED NORMALLY****
TOTAL RUN TIME: 0 days 0 hours 25 minutes 36 seconds 172 msec
