                         Program Version 6.0.1  -  RELEASE   -
|  1> ! pbe def2-sv(p) def2/J RI DEFGRID1 loosescf d4 GCP(DFT/SV(P)) printgap
|  2> %output
|  3>     printlevel normal
|  4> end
|  5> * xyz 0 1
|  6> C -1.7351622432 0.6105789278 -0.5072034623
|  7> C -0.8180907099 0.2269177886 0.6473541643
|  8> N 0.4965323439 -0.1723885984 0.1049987376
|  9> O 0.8233040641 -1.3264116664 0.2322764188
| 10> O 1.1473900821 0.6852760522 -0.4387341836
| 11> H -2.6852512011 0.9673403524 -0.12020809
| 12> H -1.2773475931 1.4010939434 -1.0974029676
| 13> H -1.9214435832 -0.2468801567 -1.1499030392
| 14> H -1.2150057629 -0.6158815644 1.2146981542
| 15> H -0.6572593147 1.0870523633 1.3008112416
| 16> *
| 17>
| 18>                          ****END OF INPUT****

CARTESIAN COORDINATES (ANGSTROEM)
---------------------------------
  C     -1.735162    0.610579   -0.507203
  C     -0.818091    0.226918    0.647354
  N      0.496532   -0.172389    0.104999
  O      0.823304   -1.326412    0.232276
  O      1.147390    0.685276   -0.438734
  H     -2.685251    0.967340   -0.120208
  H     -1.277348    1.401094   -1.097403
  H     -1.921444   -0.246880   -1.149903
  H     -1.215006   -0.615882    1.214698
  H     -0.657259    1.087052    1.300811

 Total Charge           Charge          ....    0
 Multiplicity           Mult            ....    1
 Number of Electrons    NEL             ....   40
 Basis Dimension        Dim             ....   80

ORBITAL ENERGIES
----------------

  NO   OCC          E(Eh)            E(eV)
   0   2.0000     -18.783076      -511.1135
   1   2.0000     -18.782358      -511.0939
   2   2.0000     -14.207841      -386.6150
   3   2.0000      -9.949272      -270.7335
   4   2.0000      -9.907967      -269.6095
   5   2.0000      -1.139497       -31.0073
   6   2.0000      -0.971461       -26.4348
   7   2.0000      -0.760338       -20.6899
   8   2.0000      -0.638377       -17.3711
   9   2.0000      -0.533834       -14.5264
  10   2.0000      -0.496999       -13.5240
  11   2.0000      -0.476618       -12.9694
  12   2.0000      -0.457870       -12.4593
  13   2.0000      -0.423899       -11.5349
  14   2.0000      -0.377850       -10.2818
  15   2.0000      -0.359122        -9.7722
  16   2.0000      -0.341705        -9.2983
  17   2.0000      -0.276785        -7.5317
  18   2.0000      -0.253074        -6.8865
  19   2.0000      -0.237135        -6.4528
  20   0.0000      -0.093104        -2.5335
  21   0.0000       0.035294         0.9604
  22   0.0000       0.070449         1.9170
  23   0.0000       0.074297         2.0217
  24   0.0000       0.097670         2.6577

MULLIKEN ATOMIC CHARGES
-----------------------
   0 C :   -0.310114
   1 C :   -0.065902
   2 N :    0.174590
   3 O :   -0.214200
   4 O :   -0.214992
   5 H :    0.126595
   6 H :    0.135025
   7 H :    0.126096
   8 H :    0.115072
   9 H :    0.127831
Sum of atomic charges:    0.0000000

LOEWDIN ATOMIC CHARGES
----------------------
   0 C :   -0.344790
   1 C :   -0.187990
   2 N :    0.234481
   3 O :   -0.182010
   4 O :   -0.186706
   5 H :    0.134314
   6 H :    0.133364
   7 H :    0.130687
   8 H :    0.130601
   9 H :    0.138051

  Mayer bond orders larger than 0.100000
B(  0-C ,  1-C ) :   1.1541 B(  0-C ,  5-H ) :   0.9469 B(  0-C ,  6-H ) :   0.9419
B(  0-C ,  7-H ) :   0.9484 B(  1-C ,  2-N ) :   0.8935 B(  1-C ,  8-H ) :   0.9201
B(  1-C ,  9-H ) :   0.9156 B(  2-N ,  3-O ) :   1.5685 B(  2-N ,  4-O ) :   1.5474
B(  3-O ,  4-O ) :   0.3096

Dispersion correction           -0.005821140
FINAL SINGLE POINT ENERGY      -283.756504821716

DIPOLE MOMENT
-------------

Method             : SCF
Type of density    : Electron Density
Multiplicity       :   1
Irrep              :   0
Energy             :  -283.7965542140553907 Eh
Relativity type    :
Basis              : AO
                                X                 Y                 Z
Electronic contribution:      6.054753309      -2.034943241       0.242233249
Nuclear contribution   :     -7.244816237       2.421972949       0.136362412
                        -----------------------------------------
Total Dipole Moment    :     -1.190062929       0.387029708       0.378595661
                        -----------------------------------------
Magnitude (a.u.)       :      1.307431238
Magnitude (Debye)      :      3.323226107

Rotational constants in cm-1:             0.320085             0.143620             0.115774
Rotational constants in MHz :          9595.902777          4305.626660          3470.821826

                             ****ORCA TERMINATED NORMALLY****
TOTAL RUN TIME: 0 days 0 hours 0 minutes 8 seconds 790 msec
