                         Program Version 6.0.1  -  RELEASE   -
|  1> ! pbe def2-sv(p) def2/J RI DEFGRID1 loosescf d4 GCP(DFT/SV(P)) printgap
|  2> %output
|  3>     printlevel normal
|  4> end
|  5> * xyz 0 1
|  6> C -2.3618247892 -1.1551610385 -0.3995567085
|  7> C -1.0705885954 -0.6275666523 0.2345149732
|  8> H -1.1667937119 -0.6571547208 1.3319563262
|  9> C -0.804679175 0.8405910544 -0.1670711199
| 10> H -0.945933327 0.955971826 -1.2539434367
| 11> C 0.6331790346 1.2709868352 0.1580667399
| 12> H 0.7015109658 1.4446619012 1.2427760681
| 13> C 1.6467223674 0.185828776 -0.2271982783
| 14> H 1.6854108896 0.1140863558 -1.3283275017
| 15> C 1.2094304361 -1.1785919214 0.3287725115
| 16> H 1.1945110166 -1.1362159198 1.4310540615
| 17> O -0.0536270624 -1.5141702088 -0.1832498497
| 18> O 2.1101160524 -2.1747982375 -0.0197142959
| 19> O 2.9063680069 0.5519756264 0.2810963955
| 20> O 0.9019132435 2.4527481366 -0.5465302365
| 21> O -1.6628887343 1.6899661078 0.5412908045
| 22> O -3.455056879 -0.3827707394 0.0448967702
| 23> H -2.476248904 -2.207472636 -0.1125159372
| 24> H -2.2610326367 -1.1007445145 -1.4917584806
| 25> H 1.8927231289 -2.4690212385 -0.9131798688
| 26> H 3.4585978773 -0.2405451683 0.3024153219
| 27> H 1.8056552119 2.7157738432 -0.3339770095
| 28> H -2.5653953806 1.3554639133 0.4369447938
| 29> H -4.2671383905 -0.7517644411 -0.3175986808
| 30> *
| 31>
| 32>                          ****END OF INPUT****

CARTESIAN COORDINATES (ANGSTROEM)
---------------------------------
  C     -2.361825   -1.155161   -0.399557
  C     -1.070589   -0.627567    0.234515
  H     -1.166794   -0.657155    1.331956
  C     -0.804679    0.840591   -0.167071
  H     -0.945933    0.955972   -1.253943
  C      0.633179    1.270987    0.158067
  H      0.701511    1.444662    1.242776
  C      1.646722    0.185829   -0.227198
  H      1.685411    0.114086   -1.328328
  C      1.209430   -1.178592    0.328773
  H      1.194511   -1.136216    1.431054
  O     -0.053627   -1.514170   -0.183250
  O      2.110116   -2.174798   -0.019714
  O      2.906368    0.551976    0.281096
  O      0.901913    2.452748   -0.546530
  O     -1.662889    1.689966    0.541291
  O     -3.455057   -0.382771    0.044897
  H     -2.476249   -2.207473   -0.112516
  H     -2.261033   -1.100745   -1.491758
  H      1.892723   -2.469021   -0.913180
  H      3.458598   -0.240545    0.302415
  H      1.805655    2.715774   -0.333977
  H     -2.565395    1.355464    0.436945
  H     -4.267138   -0.751764   -0.317599

 Total Charge           Charge          ....    0
 Multiplicity           Mult            ....    1
 Number of Electrons    NEL             ....   96
 Basis Dimension        Dim             ....  192

ORBITAL ENERGIES
----------------

  NO   OCC          E(Eh)            E(eV)
   0   2.0000     -18.782501      -511.0978
   1   2.0000     -18.781049      -511.0583
   2   2.0000     -18.771271      -510.7923
   3   2.0000     -18.752681      -510.2864
   4   2.0000     -18.736988      -509.8594
   5   2.0000     -18.731479      -509.7095
   6   2.0000      -9.990978      -271.8683
   7   2.0000      -9.950938      -270.7788
   8   2.0000      -9.950070      -270.7552
   9   2.0000      -9.935748      -270.3654
  10   2.0000      -9.934100      -270.3206
  11   2.0000      -9.933186      -270.2957
  12   2.0000      -0.994951       -27.0740
  13   2.0000      -0.955324       -25.9957
  14   2.0000      -0.937289       -25.5049
  15   2.0000      -0.930982       -25.3333
  16   2.0000      -0.916371       -24.9357
  17   2.0000      -0.905545       -24.6411
  18   2.0000      -0.703048       -19.1309
  19   2.0000      -0.692629       -18.8474
  20   2.0000      -0.622009       -16.9257
  21   2.0000      -0.582174       -15.8418
  22   2.0000      -0.561287       -15.2734
  23   2.0000      -0.528627       -14.3847
  24   2.0000      -0.511351       -13.9146
  25   2.0000      -0.484178       -13.1752
  26   2.0000      -0.481567       -13.1041
  27   2.0000      -0.465135       -12.6570
  28   2.0000      -0.452198       -12.3049
  29   2.0000      -0.440109       -11.9760
  30   2.0000      -0.419975       -11.4281
  31   2.0000      -0.404067       -10.9952
  32   2.0000      -0.391504       -10.6534
  33   2.0000      -0.360342        -9.8054
  34   2.0000      -0.353409        -9.6168
  35   2.0000      -0.347472        -9.4552
  36   2.0000      -0.337326        -9.1791
  37   2.0000      -0.328472        -8.9382
  38   2.0000      -0.318961        -8.6794
  39   2.0000      -0.300044        -8.1646
  40   2.0000      -0.286582        -7.7983
  41   2.0000      -0.267050        -7.2668
  42   2.0000      -0.255442        -6.9509
  43   2.0000      -0.241381        -6.5683
  44   2.0000      -0.241239        -6.5644
  45   2.0000      -0.216422        -5.8891
  46   2.0000      -0.212430        -5.7805
  47   2.0000      -0.196881        -5.3574
  48   0.0000       0.002767         0.0753
  49   0.0000       0.022822         0.6210
  50   0.0000       0.040107         1.0914
  51   0.0000       0.047661         1.2969
  52   0.0000       0.064086         1.7439

MULLIKEN ATOMIC CHARGES
-----------------------
   0 C :    0.065563
   1 C :   -0.015627
   2 H :    0.069051
   3 C :    0.058866
   4 H :    0.050220
   5 C :    0.101279
   6 H :    0.056588
   7 C :    0.036045
   8 H :    0.037912
   9 C :    0.166957
  10 H :    0.056958
  11 O :   -0.307879
  12 O :   -0.387545
  13 O :   -0.423393
  14 O :   -0.406386
  15 O :   -0.414556
  16 O :   -0.442148
  17 H :    0.091196
  18 H :    0.076659
  19 H :    0.304310
  20 H :    0.303194
  21 H :    0.305266
  22 H :    0.300922
  23 H :    0.316549
Sum of atomic charges:    0.0000000

LOEWDIN ATOMIC CHARGES
----------------------
   0 C :   -0.120829
   1 C :   -0.068155
   2 H :    0.109222
   3 C :   -0.062819
   4 H :    0.103673
   5 C :   -0.063003
   6 H :    0.108401
   7 C :   -0.101649
   8 H :    0.097385
   9 C :   -0.005237
  10 H :    0.098568
  11 O :   -0.147067
  12 O :   -0.297088
  13 O :   -0.326710
  14 O :   -0.313486
  15 O :   -0.317717
  16 O :   -0.331771
  17 H :    0.105799
  18 H :    0.101349
  19 H :    0.289806
  20 H :    0.283943
  21 H :    0.288056
  22 H :    0.272510
  23 H :    0.296819

  Mayer bond orders larger than 0.100000
B(  0-C ,  1-C ) :   1.0655 B(  0-C , 16-O ) :   1.0555 B(  0-C , 17-H ) :   0.9197
B(  0-C , 18-H ) :   0.9077 B(  1-C ,  2-H ) :   0.8744 B(  1-C ,  3-C ) :   1.0033
B(  1-C , 11-O ) :   0.9818 B(  3-C ,  4-H ) :   0.8700 B(  3-C ,  5-C ) :   1.0178
B(  3-C , 15-O ) :   1.1036 B(  5-C ,  6-H ) :   0.8726 B(  5-C ,  7-C ) :   1.0018
B(  5-C , 14-O ) :   1.0983 B(  7-C ,  8-H ) :   0.8568 B(  7-C ,  9-C ) :   0.9836
B(  7-C , 13-O ) :   1.0750 B(  9-C , 10-H ) :   0.8797 B(  9-C , 11-O ) :   1.0145
B(  9-C , 12-O ) :   1.1039 B( 12-O , 19-H ) :   0.8434 B( 13-O , 20-H ) :   0.8317
B( 14-O , 21-H ) :   0.8439 B( 15-O , 22-H ) :   0.8133 B( 16-O , 23-H ) :   0.8421

Dispersion correction           -0.023740890
FINAL SINGLE POINT ENERGY      -685.697903208504

DIPOLE MOMENT
-------------

Method             : SCF
Type of density    : Electron Density
Multiplicity       :   1
Irrep              :   0
Energy             :  -685.8294457977154934 Eh
Relativity type    :
Basis              : AO
                                X                 Y                 Z
Electronic contribution:      2.140038366       0.542155390       0.328047137
Nuclear contribution   :     -2.751034022      -1.845496849      -0.942198946
                        -----------------------------------------
Total Dipole Moment    :     -0.610995655      -1.303341459      -0.614151809
                        -----------------------------------------
Magnitude (a.u.)       :      1.564991084
Magnitude (Debye)      :      3.977891208

Rotational constants in cm-1:             0.044012             0.024456             0.016612
Rotational constants in MHz :          1319.441692           733.163240           498.030027

                             ****ORCA TERMINATED NORMALLY****
TOTAL RUN TIME: 0 days 0 hours 0 minutes 8 seconds 153 msec
