                         Program Version 6.0.1  -  RELEASE   -
|  1> ! pbe def2-sv(p) def2/J RI DEFGRID1 loosescf d4 GCP(DFT/SV(P)) printgap
|  2> %output
|  3>     printlevel normal
|  4> end
|  5> * xyz 0 1
|  6> C -2.1251404217 -1.0235894337 -0.1206259549
|  7> C -1.075878334 -0.3817036394 0.8054702852
|  8> H -1.5337161176 -0.3365210133 1.8023899284
|  9> C -0.7456648786 1.0786422912 0.4315810249
| 10> H -1.593471169 1.4880841048 -0.1369147397
| 11> C 0.5115292564 1.2549538843 -0.4459971795
| 12> H 0.8731112044 2.2914593635 -0.2935334828
| 13> C 1.634626141 0.3103294227 0.0174219151
| 14> H 2.4716919565 0.3525339373 -0.6896491416
| 15> C 1.1041253039 -1.1393308578 0.0769453849
| 16> H 1.8809454931 -1.785801606 0.5048863707
| 17> O 0.0520446193 -1.2107151762 1.0122157642
| 18> O 0.8015684084 -1.6474673048 -1.172316892
| 19> O 2.1417624765 0.7124405711 1.2599359403
| 20> O 0.1496472488 1.0748396937 -1.7899510157
| 21> O -0.5939904658 1.7563203872 1.6611984979
| 22> O -1.8029436834 -0.8257984368 -1.4803477854
| 23> H -3.1007633088 -0.5730811803 0.1039522014
| 24> H -2.1609229488 -2.0935240618 0.1205365742
| 25> H -0.0074209275 -1.2071585705 -1.5045720473
| 26> H 1.4415811714 0.5927156743 1.9186588695
| 27> H 0.9443635687 0.9423512776 -2.319207948
| 28> H -0.3606022428 2.6773871056 1.4951195187
| 29> H -2.4310177143 -1.3034130828 -2.0315462176
| 30> *
| 31>
| 32>                          ****END OF INPUT****

CARTESIAN COORDINATES (ANGSTROEM)
---------------------------------
  C     -2.125140   -1.023589   -0.120626
  C     -1.075878   -0.381704    0.805470
  H     -1.533716   -0.336521    1.802390
  C     -0.745665    1.078642    0.431581
  H     -1.593471    1.488084   -0.136915
  C      0.511529    1.254954   -0.445997
  H      0.873111    2.291459   -0.293533
  C      1.634626    0.310329    0.017422
  H      2.471692    0.352534   -0.689649
  C      1.104125   -1.139331    0.076945
  H      1.880945   -1.785802    0.504886
  O      0.052045   -1.210715    1.012216
  O      0.801568   -1.647467   -1.172317
  O      2.141762    0.712441    1.259936
  O      0.149647    1.074840   -1.789951
  O     -0.593990    1.756320    1.661198
  O     -1.802944   -0.825798   -1.480348
  H     -3.100763   -0.573081    0.103952
  H     -2.160923   -2.093524    0.120537
  H     -0.007421   -1.207159   -1.504572
  H      1.441581    0.592716    1.918659
  H      0.944364    0.942351   -2.319208
  H     -0.360602    2.677387    1.495120
  H     -2.431018   -1.303413   -2.031546

 Total Charge           Charge          ....    0
 Multiplicity           Mult            ....    1
 Number of Electrons    NEL             ....   96
 Basis Dimension        Dim             ....  192

ORBITAL ENERGIES
----------------

  NO   OCC          E(Eh)            E(eV)
   0   2.0000     -18.775492      -510.9071
   1   2.0000     -18.764376      -510.6046
   2   2.0000     -18.762443      -510.5520
   3   2.0000     -18.757140      -510.4077
   4   2.0000     -18.739868      -509.9377
   5   2.0000     -18.733378      -509.7611
   6   2.0000      -9.970200      -271.3029
   7   2.0000      -9.951703      -270.7996
   8   2.0000      -9.951634      -270.7977
   9   2.0000      -9.946638      -270.6618
  10   2.0000      -9.945448      -270.6294
  11   2.0000      -9.933403      -270.3016
  12   2.0000      -0.976155       -26.5625
  13   2.0000      -0.947646       -25.7868
  14   2.0000      -0.942799       -25.6549
  15   2.0000      -0.934262       -25.4226
  16   2.0000      -0.916994       -24.9527
  17   2.0000      -0.896001       -24.3814
  18   2.0000      -0.709023       -19.2935
  19   2.0000      -0.680964       -18.5300
  20   2.0000      -0.625261       -17.0142
  21   2.0000      -0.586879       -15.9698
  22   2.0000      -0.578379       -15.7385
  23   2.0000      -0.515676       -14.0323
  24   2.0000      -0.498906       -13.5759
  25   2.0000      -0.488117       -13.2823
  26   2.0000      -0.472968       -12.8701
  27   2.0000      -0.458609       -12.4794
  28   2.0000      -0.448631       -12.2079
  29   2.0000      -0.423970       -11.5368
  30   2.0000      -0.422831       -11.5058
  31   2.0000      -0.417870       -11.3708
  32   2.0000      -0.380877       -10.3642
  33   2.0000      -0.375457       -10.2167
  34   2.0000      -0.365170        -9.9368
  35   2.0000      -0.344106        -9.3636
  36   2.0000      -0.327143        -8.9020
  37   2.0000      -0.313217        -8.5231
  38   2.0000      -0.304610        -8.2889
  39   2.0000      -0.293205        -7.9785
  40   2.0000      -0.286619        -7.7993
  41   2.0000      -0.273131        -7.4323
  42   2.0000      -0.248929        -6.7737
  43   2.0000      -0.244825        -6.6620
  44   2.0000      -0.236434        -6.4337
  45   2.0000      -0.221533        -6.0282
  46   2.0000      -0.220701        -6.0056
  47   2.0000      -0.187603        -5.1049
  48   0.0000       0.008625         0.2347
  49   0.0000       0.019012         0.5173
  50   0.0000       0.027086         0.7371
  51   0.0000       0.056696         1.5428
  52   0.0000       0.067855         1.8464

MULLIKEN ATOMIC CHARGES
-----------------------
   0 C :    0.014157
   1 C :    0.034408
   2 H :    0.091526
   3 C :    0.040514
   4 H :    0.084129
   5 C :    0.022669
   6 H :    0.052319
   7 C :    0.020475
   8 H :    0.068412
   9 C :    0.192051
  10 H :    0.070712
  11 O :   -0.307367
  12 O :   -0.424294
  13 O :   -0.423576
  14 O :   -0.394983
  15 O :   -0.416470
  16 O :   -0.423141
  17 H :    0.083116
  18 H :    0.094889
  19 H :    0.303065
  20 H :    0.297966
  21 H :    0.302856
  22 H :    0.301656
  23 H :    0.314909
Sum of atomic charges:    0.0000000

LOEWDIN ATOMIC CHARGES
----------------------
   0 C :   -0.136342
   1 C :   -0.065645
   2 H :    0.131966
   3 C :   -0.063960
   4 H :    0.111996
   5 C :   -0.083667
   6 H :    0.093462
   7 C :   -0.097583
   8 H :    0.112132
   9 C :   -0.009198
  10 H :    0.108503
  11 O :   -0.142009
  12 O :   -0.323917
  13 O :   -0.314005
  14 O :   -0.305019
  15 O :   -0.311759
  16 O :   -0.317414
  17 H :    0.106958
  18 H :    0.109865
  19 H :    0.260026
  20 H :    0.272048
  21 H :    0.284719
  22 H :    0.283861
  23 H :    0.294981

  Mayer bond orders larger than 0.100000
B(  0-C ,  1-C ) :   1.0768 B(  0-C , 16-O ) :   1.0360 B(  0-C , 17-H ) :   0.9102
B(  0-C , 18-H ) :   0.9114 B(  1-C ,  2-H ) :   0.8875 B(  1-C ,  3-C ) :   0.9852
B(  1-C , 11-O ) :   1.0294 B(  3-C ,  4-H ) :   0.8917 B(  3-C ,  5-C ) :   0.9866
B(  3-C , 15-O ) :   1.0404 B(  5-C ,  6-H ) :   0.8952 B(  5-C ,  7-C ) :   0.9628
B(  5-C , 14-O ) :   1.0788 B(  7-C ,  8-H ) :   0.8918 B(  7-C ,  9-C ) :   0.9760
B(  7-C , 13-O ) :   1.0542 B(  9-C , 10-H ) :   0.9073 B(  9-C , 11-O ) :   1.0134
B(  9-C , 12-O ) :   1.1493 B( 12-O , 19-H ) :   0.7633 B( 13-O , 20-H ) :   0.8231
B( 14-O , 21-H ) :   0.8366 B( 15-O , 22-H ) :   0.8397 B( 16-O , 19-H ) :   0.1294
B( 16-O , 23-H ) :   0.8397

Dispersion correction           -0.026623124
FINAL SINGLE POINT ENERGY      -685.692050226655

DIPOLE MOMENT
-------------

Method             : SCF
Type of density    : Electron Density
Multiplicity       :   1
Irrep              :   0
Energy             :  -685.8263752761711203 Eh
Relativity type    :
Basis              : AO
                                X                 Y                 Z
Electronic contribution:      2.186715521      -0.497550673       0.405999644
Nuclear contribution   :     -3.344021158       0.978338084      -0.973747257
                        -----------------------------------------
Total Dipole Moment    :     -1.157305637       0.480787411      -0.567747613
                        -----------------------------------------
Magnitude (a.u.)       :      1.375808934
Magnitude (Debye)      :      3.497028397

Rotational constants in cm-1:             0.040071             0.031589             0.027897
Rotational constants in MHz :          1201.297200           947.007208           836.337223

                             ****ORCA TERMINATED NORMALLY****
TOTAL RUN TIME: 0 days 0 hours 0 minutes 9 seconds 400 msec
