                         Program Version 6.0.1  -  RELEASE   -
|  1> ! r2scan-3c def2/J RI DEFGRID2 scfconv6 printgap
|  2> %output
|  3>     printlevel normal
|  4> end
|  5> * xyz 0 1
|  6> C -2.1912079379 0.3506103191 0.0676427914
|  7> O -1.0278315819 -0.1419961365 0.6990851556
|  8> S 0.3937326758 0.0467254953 -0.0496970559
|  9> O 1.2281098841 0.8963356192 0.7349920392
| 10> O 0.1491179753 0.4026683674 -1.4144147458
| 11> C 1.0163173199 -1.6435617637 0.0457690487
| 12> H -2.9673321535 -0.4119719475 0.146693869
| 13> H -1.9701084623 0.5586177266 -0.9807954526
| 14> H -2.5195036032 1.2663411392 0.5632360382
| 15> H 0.2190422114 -2.2686597269 0.4209773347
| 16> H 1.3068627604 -1.9411925151 -0.9523015974
| 17> H 1.8615986554 -1.6478325371 0.7193548189
| 18> *
| 19>
| 20>                          ****END OF INPUT****

CARTESIAN COORDINATES (ANGSTROEM)
---------------------------------
  C     -2.191208    0.350610    0.067643
  O     -1.027832   -0.141996    0.699085
  S      0.393733    0.046725   -0.049697
  O      1.228110    0.896336    0.734992
  O      0.149118    0.402668   -1.414415
  C      1.016317   -1.643562    0.045769
  H     -2.967332   -0.411972    0.146694
  H     -1.970108    0.558618   -0.980795
  H     -2.519504    1.266341    0.563236
  H      0.219042   -2.268660    0.420977
  H      1.306863   -1.941193   -0.952302
  H      1.861599   -1.647833    0.719355

 Total Charge           Charge          ....    0
 Multiplicity           Mult            ....    1
 Number of Electrons    NEL             ....   58
 Basis Dimension        Dim             ....  167

ORBITAL ENERGIES
----------------

  NO   OCC          E(Eh)            E(eV)
   0   2.0000     -88.790134     -2416.1024
   1   2.0000     -19.007201      -517.2122
   2   2.0000     -18.954401      -515.7755
   3   2.0000     -18.951142      -515.6868
   4   2.0000     -10.095356      -274.7086
   5   2.0000     -10.077211      -274.2149
   6   2.0000      -8.057900      -219.2666
   7   2.0000      -6.005396      -163.4151
   8   2.0000      -6.001861      -163.3189
   9   2.0000      -6.001232      -163.3018
  10   2.0000      -1.121865       -30.5275
  11   2.0000      -1.020375       -27.7658
  12   2.0000      -0.989673       -26.9304
  13   2.0000      -0.758382       -20.6366
  14   2.0000      -0.694370       -18.8948
  15   2.0000      -0.576430       -15.6855
  16   2.0000      -0.514432       -13.9984
  17   2.0000      -0.479404       -13.0452
  18   2.0000      -0.463856       -12.6222
  19   2.0000      -0.437037       -11.8924
  20   2.0000      -0.433078       -11.7847
  21   2.0000      -0.414370       -11.2756
  22   2.0000      -0.405309       -11.0290
  23   2.0000      -0.360932        -9.8215
  24   2.0000      -0.321541        -8.7496
  25   2.0000      -0.306109        -8.3297
  26   2.0000      -0.298030        -8.1098
  27   2.0000      -0.289047        -7.8654
  28   2.0000      -0.270889        -7.3713
  29   0.0000       0.012284         0.3343
  30   0.0000       0.044333         1.2064
  31   0.0000       0.053623         1.4592
  32   0.0000       0.063210         1.7200
  33   0.0000       0.095205         2.5907

MULLIKEN ATOMIC CHARGES
-----------------------
   0 C :   -0.279657
   1 O :   -0.267374
   2 S :    1.097833
   3 O :   -0.524816
   4 O :   -0.571879
   5 C :   -0.517641
   6 H :    0.146962
   7 H :    0.185381
   8 H :    0.152457
   9 H :    0.190647
  10 H :    0.193138
  11 H :    0.194949
Sum of atomic charges:    0.0000000

LOEWDIN ATOMIC CHARGES
----------------------
   0 C :   -0.049585
   1 O :   -0.626196
   2 S :    0.834077
   3 O :   -0.428336
   4 O :   -0.473713
   5 C :   -0.349089
   6 H :    0.171467
   7 H :    0.195392
   8 H :    0.168999
   9 H :    0.186228
  10 H :    0.185492
  11 H :    0.185264

  Mayer bond orders larger than 0.100000
B(  0-C ,  1-O ) :   0.8177 B(  0-C ,  6-H ) :   0.9664 B(  0-C ,  7-H ) :   0.9587
B(  0-C ,  8-H ) :   0.9656 B(  1-O ,  2-S ) :   0.8971 B(  2-S ,  3-O ) :   1.7616
B(  2-S ,  4-O ) :   1.6705 B(  2-S ,  5-C ) :   0.8636 B(  5-C ,  9-H ) :   0.9372
B(  5-C , 10-H ) :   0.9355 B(  5-C , 11-H ) :   0.9372

Dispersion correction           -0.003050787
FINAL SINGLE POINT ENERGY      -703.547284530074

DIPOLE MOMENT
-------------

Method             : SCF
Type of density    : Electron Density
Multiplicity       :   1
Irrep              :   0
Energy             :  -703.5639569090120631 Eh
Relativity type    :
Basis              : AO
                                X                 Y                 Z
Electronic contribution:      3.152897435       2.949229025       0.143580707
Nuclear contribution   :     -3.824056116      -4.154105544      -0.075983519
                        -----------------------------------------
Total Dipole Moment    :     -0.671158681      -1.204876520       0.067597188
                        -----------------------------------------
Magnitude (a.u.)       :      1.380851470
Magnitude (Debye)      :      3.509845505

Rotational constants in cm-1:             0.151162             0.086101             0.082337
Rotational constants in MHz :          4531.733882          2581.228436          2468.390352

                             ****ORCA TERMINATED NORMALLY****
TOTAL RUN TIME: 0 days 0 hours 0 minutes 10 seconds 974 msec
