                         Program Version 6.0.0  -   RELEASE  -
|  1> ! r2SCAN-3c DEF2-TZVP FREQ
|  2> * xyzfile 0 1 censo.xyz
|  3>
|  4>                          ****END OF INPUT****

CARTESIAN COORDINATES (ANGSTROEM)
---------------------------------
  C      1.428276    0.524834   -0.000139
  O      0.581612   -0.660367   -0.000170
  C     -0.744291   -0.493438    0.000783
  O     -1.338480    0.565256    0.000933
  H      0.827852    1.434169   -0.004335
  H      2.052736    0.471920   -0.893285
  H      2.047018    0.476496    0.897274
  H     -1.234845   -1.476776   -0.000822

 Total Charge           Charge          ....    0
 Multiplicity           Mult            ....    1
 Number of Electrons    NEL             ....   32
 Basis Dimension        Dim             ....  148

ORBITAL ENERGIES
----------------

  NO   OCC          E(Eh)            E(eV)
   0   2.0000     -19.014783      -517.4185
   1   2.0000     -18.946027      -515.5476
   2   2.0000     -10.162599      -276.5384
   3   2.0000     -10.095984      -274.7257
   4   2.0000      -1.073093       -29.2004
   5   2.0000      -0.986363       -26.8403
   6   2.0000      -0.712400       -19.3854
   7   2.0000      -0.569851       -15.5064
   8   2.0000      -0.499442       -13.5905
   9   2.0000      -0.454610       -12.3706
  10   2.0000      -0.443427       -12.0663
  11   2.0000      -0.395936       -10.7740
  12   2.0000      -0.377603       -10.2751
  13   2.0000      -0.332570        -9.0497
  14   2.0000      -0.285050        -7.7566
  15   2.0000      -0.254948        -6.9375
  16   0.0000      -0.032409        -0.8819
  17   0.0000       0.057433         1.5628
  18   0.0000       0.065893         1.7930
  19   0.0000       0.095874         2.6089
  20   0.0000       0.122218         3.3257

MULLIKEN ATOMIC CHARGES
-----------------------
   0 C :   -0.156658
   1 O :   -0.239755
   2 C :    0.262099
   3 O :   -0.350005
   4 H :    0.147487
   5 H :    0.121829
   6 H :    0.121788
   7 H :    0.093215
Sum of atomic charges:   -0.0000000

LOEWDIN ATOMIC CHARGES
----------------------
   0 C :   -0.284502
   1 O :    0.214944
   2 C :   -0.448683
   3 O :    0.063980
   4 H :    0.116340
   5 H :    0.112637
   6 H :    0.112633
   7 H :    0.112650

  Mayer bond orders larger than 0.100000
B(  0-C ,  1-O ) :   0.8625 B(  0-C ,  4-H ) :   0.9602 B(  0-C ,  5-H ) :   0.9707
B(  0-C ,  6-H ) :   0.9707 B(  1-O ,  2-C ) :   1.1817 B(  2-C ,  3-O ) :   1.9901
B(  2-C ,  7-H ) :   0.9493

Dispersion correction           -0.001195913
FINAL SINGLE POINT ENERGY      -229.034736518880

DIPOLE MOMENT
-------------

Method             : SCF
Type of density    : Electron Density
Multiplicity       :   1
Irrep              :   0
Energy             :  -229.0404804528223224 Eh
Relativity type    :
Basis              : AO
                                X                 Y                 Z
Electronic contribution:     -2.667022064      -1.140206292       0.001762169
Nuclear contribution   :      3.464067992       0.862985242      -0.002264397
                        -----------------------------------------
Total Dipole Moment    :      0.797045927      -0.277221050      -0.000502228
                        -----------------------------------------
Magnitude (a.u.)       :      0.843880307
Magnitude (Debye)      :      2.144973277

VIBRATIONAL FREQUENCIES
-----------------------

Scaling factor for frequencies =  1.000000000  (already applied!)

     0:       0.00 cm**-1
     1:       0.00 cm**-1
     2:       0.00 cm**-1
     3:       0.00 cm**-1
     4:       0.00 cm**-1
     5:       0.00 cm**-1
     6:    -116.87 cm**-1 ***imaginary mode***
     7:     334.81 cm**-1
     8:     345.21 cm**-1
     9:     770.92 cm**-1
    10:     883.10 cm**-1
    11:    1008.99 cm**-1
    12:    1150.88 cm**-1
    13:    1170.06 cm**-1
    14:    1229.13 cm**-1
    15:    1378.22 cm**-1
    16:    1437.83 cm**-1
    17:    1485.19 cm**-1
    18:    1491.23 cm**-1
    19:    1719.06 cm**-1
    20:    3039.23 cm**-1
    21:    3045.04 cm**-1
    22:    3134.18 cm**-1
    23:    3154.61 cm**-1

IR SPECTRUM
-----------

 Mode   freq       eps      Int      T**2         TX        TY        TZ
       cm**-1   L/(mol*cm) km/mol    a.u.
----------------------------------------------------------------------------
  7:    334.81   0.003039   15.36  0.002832  (-0.053075 -0.003890 -0.000311)
  8:    345.21   0.004845   24.49  0.004380  ( 0.000335 -0.000037 -0.066182)
  9:    770.92   0.001462    7.39  0.000592  ( 0.007639 -0.023100 -0.000018)
 10:    883.10   0.004087   20.65  0.001444  ( 0.003571  0.037834  0.000015)
 11:   1008.99   0.000038    0.19  0.000012  ( 0.000039  0.000086  0.003416)
 12:   1150.88   0.031355  158.46  0.008502  ( 0.089534  0.022039 -0.000053)
 13:   1170.06   0.000142    0.72  0.000038  ( 0.000358  0.000132  0.006139)
 14:   1229.13   0.029796  150.58  0.007565  (-0.085813 -0.014177 -0.000012)
 15:   1378.22   0.000455    2.30  0.000103  (-0.005841  0.008304  0.000006)
 16:   1437.83   0.003297   16.66  0.000716  (-0.003052  0.026576 -0.000094)
 17:   1485.19   0.001842    9.31  0.000387  (-0.017497  0.008983 -0.000309)
 18:   1491.23   0.001506    7.61  0.000315  (-0.000329  0.000130  0.017752)
 19:   1719.06   0.063033  318.54  0.011443  (-0.090405  0.057179  0.000081)
 20:   3039.23   0.014217   71.85  0.001460  (-0.023739 -0.029938 -0.000036)
 21:   3045.04   0.001904    9.62  0.000195  (-0.008269  0.011260 -0.000044)
 22:   3134.18   0.003108   15.71  0.000309  ( 0.000052  0.000002 -0.017591)
 23:   3154.61   0.000586    2.96  0.000058  ( 0.003051 -0.006975 -0.000009)

--------------------------
THERMOCHEMISTRY AT 298.15K
--------------------------

Temperature         ...   298.15 K
Pressure            ...     1.00 atm
Total Mass          ...    60.05 AMU
Quasi RRHO          ...     True
Cut-Off Frequency   ...     1.00 cm^-1

Throughout the following assumptions are being made:
  (1) The electronic state is orbitally nondegenerate
  (2) There are no thermally accessible electronically excited states
  (3) Hindered rotations indicated by low frequency modes are not
      treated as such but are treated as vibrations and this may
      cause some error
  (4) All equations used are the standard statistical mechanics
      equations for an ideal gas
  (5) All vibrations are strictly harmonic

freq.     334.81  E(vib)   ...       0.24
freq.     345.21  E(vib)   ...       0.23
freq.     770.92  E(vib)   ...       0.05
freq.     883.10  E(vib)   ...       0.04
freq.    1008.99  E(vib)   ...       0.02
freq.    1150.88  E(vib)   ...       0.01
freq.    1170.06  E(vib)   ...       0.01
freq.    1229.13  E(vib)   ...       0.01
freq.    1378.22  E(vib)   ...       0.01
freq.    1437.83  E(vib)   ...       0.00
freq.    1485.19  E(vib)   ...       0.00
freq.    1491.23  E(vib)   ...       0.00
freq.    1719.06  E(vib)   ...       0.00
freq.    3039.23  E(vib)   ...       0.00
freq.    3045.04  E(vib)   ...       0.00
freq.    3134.18  E(vib)   ...       0.00
freq.    3154.61  E(vib)   ...       0.00

------------
INNER ENERGY
------------

The inner energy is: U= E(el) + E(ZPE) + E(vib) + E(rot) + E(trans)
    E(el)   - is the total energy from the electronic structure calculation
              = E(kin-el) + E(nuc-el) + E(el-el) + E(nuc-nuc)
    E(ZPE)  - the the zero temperature vibrational energy from the frequency calculation
    E(vib)  - the the finite temperature correction to E(ZPE) due to population
              of excited vibrational states
    E(rot)  - is the rotational thermal energy
    E(trans)- is the translational thermal energy

Summary of contributions to the inner energy U:
Electronic energy                ...   -229.03473652 Eh
Zero point energy                ...      0.06100410 Eh      38.28 kcal/mol
Thermal vibrational correction   ...      0.00100641 Eh       0.63 kcal/mol
Thermal rotational correction    ...      0.00141627 Eh       0.89 kcal/mol
Thermal translational correction ...      0.00141627 Eh       0.89 kcal/mol
-----------------------------------------------------------------------
Total thermal energy                   -228.96989347 Eh

Summary of corrections to the electronic energy:
(perhaps to be used in another calculation)
Total thermal correction                  0.00383895 Eh       2.41 kcal/mol
Non-thermal (ZPE) correction              0.06100410 Eh      38.28 kcal/mol
-----------------------------------------------------------------------
Total correction                          0.06484305 Eh      40.69 kcal/mol

--------
ENTHALPY
--------

The enthalpy is H = U + kB*T
                kB is Boltzmann's constant
Total thermal energy              ...   -228.96989347 Eh
Thermal Enthalpy correction       ...      0.00094421 Eh       0.59 kcal/mol
-----------------------------------------------------------------------
Total Enthalpy                    ...   -228.96894926 Eh

Note: Only C1 symmetry has been detected, increase convergence thresholds
      if your molecule has a higher symmetry. Symmetry factor of 1.0 is
      used for the rotational entropy correction.

Note: Rotational entropy computed according to Herzberg
Infrared and Raman Spectra, Chapter V,1, Van Nostrand Reinhold, 1945
Point Group:  C1, Symmetry Number:   1
Rotational constants in cm-1:     0.683570     0.217390     0.170322

Vibrational entropy computed according to the QRRHO of S. Grimme
Chem.Eur.J. 2012 18 9955 using a reference frequency of 100.0 cm-1

-------
ENTROPY
-------

The entropy contributions are T*S = T*(S(el)+S(vib)+S(rot)+S(trans))
     S(el)   - electronic entropy
     S(vib)  - vibrational entropy
     S(rot)  - rotational entropy
     S(trans)- translational entropy
The entropies will be listed as multiplied by the temperature to get
units of energy

Electronic entropy                ...      0.00000000 Eh      0.00 kcal/mol
Vibrational entropy               ...      0.00147380 Eh      0.92 kcal/mol
Rotational entropy                ...      0.01124647 Eh      7.06 kcal/mol
Translational entropy             ...      0.01814900 Eh     11.39 kcal/mol
-----------------------------------------------------------------------
Final entropy term                ...      0.03086927 Eh     19.37 kcal/mol

In case the symmetry of your molecule has not been determined correctly
or in case you have a reason to use a different symmetry number we print
out the resulting rotational entropy values for sn=1,12:

 non-linear molecules -----------------------------------
|  sn= 1 | S(rot)=       0.01124647 Eh      7.06 kcal/mol|
|  sn= 2 | S(rot)=       0.01059202 Eh      6.65 kcal/mol|
|  sn= 3 | S(rot)=       0.01020919 Eh      6.41 kcal/mol|
|  sn= 4 | S(rot)=       0.00993756 Eh      6.24 kcal/mol|
|  sn= 5 | S(rot)=       0.00972687 Eh      6.10 kcal/mol|
|  sn= 6 | S(rot)=       0.00955473 Eh      6.00 kcal/mol|
|  sn= 7 | S(rot)=       0.00940918 Eh      5.90 kcal/mol|
|  sn= 8 | S(rot)=       0.00928311 Eh      5.83 kcal/mol|
|  sn= 9 | S(rot)=       0.00917190 Eh      5.76 kcal/mol|
|  sn=10 | S(rot)=       0.00907242 Eh      5.69 kcal/mol|
|  sn=11 | S(rot)=       0.00898243 Eh      5.64 kcal/mol|
|  sn=12 | S(rot)=       0.00890027 Eh      5.58 kcal/mol|
 linear molecules ---------------------------------------
|  Dinfh | S(rot)=       0.00699707 Eh      4.39 kcal/mol|
|  Cinfv | S(rot)=       0.00765152 Eh      4.80 kcal/mol|
 --------------------------------------------------------

-------------------
GIBBS FREE ENERGY
-------------------

The Gibbs free energy is G = H - T*S

Total enthalpy                    ...   -228.96894926 Eh
Total entropy correction          ...     -0.03086927 Eh    -19.37 kcal/mol
-----------------------------------------------------------------------
Final Gibbs free energy         ...   -228.99981853 Eh

For completeness - the Gibbs free energy minus the electronic energy
G-E(el)                           ...      0.03491799 Eh     21.91 kcal/mol

                             ****ORCA TERMINATED NORMALLY****
TOTAL RUN TIME: 0 days 0 hours 1 minutes 41 seconds 65 msec
