                         Program Version 6.0.0  -   RELEASE  -
|  1> ! r2SCAN-3c DEF2-TZVP FREQ
|  2> * xyzfile 0 1 vacuum_censo.xyz
|  3>
|  4>                          ****END OF INPUT****

CARTESIAN COORDINATES (ANGSTROEM)
---------------------------------
  C      1.384019    0.533556    0.000535
  O      0.597961   -0.681786    0.001486
  C     -0.732338   -0.490953   -0.000583
  O     -1.290809    0.574978   -0.003099
  H      1.156863    1.130631    0.887218
  H      1.167547    1.122052   -0.894560
  H      2.423249    0.207364    0.008174
  H     -1.233524   -1.472299    0.000621

 Total Charge           Charge          ....    0
 Multiplicity           Mult            ....    1
 Number of Electrons    NEL             ....   32
 Basis Dimension        Dim             ....  148

ORBITAL ENERGIES
----------------

  NO   OCC          E(Eh)            E(eV)
   0   2.0000     -19.014266      -517.4045
   1   2.0000     -18.949592      -515.6446
   2   2.0000     -10.161639      -276.5123
   3   2.0000     -10.095152      -274.7031
   4   2.0000      -1.076249       -29.2862
   5   2.0000      -0.992033       -26.9946
   6   2.0000      -0.708560       -19.2809
   7   2.0000      -0.569458       -15.4958
   8   2.0000      -0.499699       -13.5975
   9   2.0000      -0.455663       -12.3992
  10   2.0000      -0.445337       -12.1182
  11   2.0000      -0.396327       -10.7846
  12   2.0000      -0.373189       -10.1550
  13   2.0000      -0.338563        -9.2128
  14   2.0000      -0.288767        -7.8577
  15   2.0000      -0.256972        -6.9926
  16   0.0000      -0.033390        -0.9086
  17   0.0000       0.057456         1.5635
  18   0.0000       0.068418         1.8617
  19   0.0000       0.096750         2.6327
  20   0.0000       0.120205         3.2710

MULLIKEN ATOMIC CHARGES
-----------------------
   0 C :   -0.149440
   1 O :   -0.246846
   2 C :    0.258756
   3 O :   -0.333398
   4 H :    0.125868
   5 H :    0.125660
   6 H :    0.124127
   7 H :    0.095273
Sum of atomic charges:    0.0000000

LOEWDIN ATOMIC CHARGES
----------------------
   0 C :   -0.295581
   1 O :    0.210156
   2 C :   -0.451613
   3 O :    0.086562
   4 H :    0.113101
   5 H :    0.113063
   6 H :    0.112271
   7 H :    0.112040

  Mayer bond orders larger than 0.100000
B(  0-C ,  1-O ) :   0.8820 B(  0-C ,  4-H ) :   0.9715 B(  0-C ,  5-H ) :   0.9716
B(  0-C ,  6-H ) :   0.9673 B(  1-O ,  2-C ) :   1.1684 B(  2-C ,  3-O ) :   2.0006
B(  2-C ,  7-H ) :   0.9507

Dispersion correction           -0.001205059
FINAL SINGLE POINT ENERGY      -229.036681948187

DIPOLE MOMENT
-------------

Method             : SCF
Type of density    : Electron Density
Multiplicity       :   1
Irrep              :   0
Energy             :  -229.0423512474193615 Eh
Relativity type    :
Basis              : AO
                                X                 Y                 Z
Electronic contribution:     -2.561035797      -1.209538065      -0.001419145
Nuclear contribution   :      3.268700110       0.937790719       0.002909448
                        -----------------------------------------
Total Dipole Moment    :      0.707664313      -0.271747345       0.001490303
                        -----------------------------------------
Magnitude (a.u.)       :      0.758048560
Magnitude (Debye)      :      1.926806315

VIBRATIONAL FREQUENCIES
-----------------------

Scaling factor for frequencies =  1.000000000  (already applied!)

     0:       0.00 cm**-1
     1:       0.00 cm**-1
     2:       0.00 cm**-1
     3:       0.00 cm**-1
     4:       0.00 cm**-1
     5:       0.00 cm**-1
     6:     159.04 cm**-1
     7:     309.79 cm**-1
     8:     354.16 cm**-1
     9:     772.63 cm**-1
    10:     914.92 cm**-1
    11:    1021.07 cm**-1
    12:    1163.91 cm**-1
    13:    1169.33 cm**-1
    14:    1212.50 cm**-1
    15:    1385.34 cm**-1
    16:    1458.19 cm**-1
    17:    1476.89 cm**-1
    18:    1487.53 cm**-1
    19:    1774.73 cm**-1
    20:    3014.87 cm**-1
    21:    3030.40 cm**-1
    22:    3114.49 cm**-1
    23:    3150.93 cm**-1

IR SPECTRUM
-----------

 Mode   freq       eps      Int      T**2         TX        TY        TZ
       cm**-1   L/(mol*cm) km/mol    a.u.
----------------------------------------------------------------------------
  6:    159.04   0.000035    0.18  0.000069  ( 0.000399  0.000070 -0.008292)
  7:    309.79   0.002679   13.54  0.002698  ( 0.051794  0.003982  0.000073)
  8:    354.16   0.004807   24.29  0.004236  (-0.000123  0.000154 -0.065083)
  9:    772.63   0.001354    6.84  0.000547  (-0.001739  0.023321 -0.000032)
 10:    914.92   0.004653   23.51  0.001587  (-0.004763  0.039552 -0.000084)
 11:   1021.07   0.000009    0.05  0.000003  ( 0.000087 -0.000194  0.001653)
 12:   1163.91   0.039938  201.83  0.010708  (-0.099758 -0.027501 -0.000248)
 13:   1169.33   0.000220    1.11  0.000059  ( 0.002356  0.000718 -0.007263)
 14:   1212.50   0.018661   94.31  0.004803  (-0.068688 -0.009209 -0.000046)
 15:   1385.34   0.000250    1.27  0.000056  ( 0.002803 -0.006967  0.000019)
 16:   1458.19   0.000943    4.77  0.000202  (-0.002963 -0.013895 -0.000217)
 17:   1476.89   0.002069   10.46  0.000437  (-0.000082 -0.000020 -0.020910)
 18:   1487.53   0.001933    9.77  0.000406  (-0.019571  0.004741  0.000082)
 19:   1774.73   0.057456  290.36  0.010103  ( 0.081755 -0.058471  0.000215)
 20:   3014.87   0.013088   66.14  0.001355  (-0.015626 -0.033325  0.000046)
 21:   3030.40   0.002705   13.67  0.000279  (-0.012905 -0.010584  0.000096)
 22:   3114.49   0.003520   17.79  0.000353  ( 0.000027  0.000042  0.018780)
 23:   3150.93   0.002410   12.18  0.000239  (-0.013864  0.006818 -0.000048)

--------------------------
THERMOCHEMISTRY AT 298.15K
--------------------------

Temperature         ...   298.15 K
Pressure            ...     1.00 atm
Total Mass          ...    60.05 AMU
Quasi RRHO          ...     True
Cut-Off Frequency   ...     1.00 cm^-1

Throughout the following assumptions are being made:
  (1) The electronic state is orbitally nondegenerate
  (2) There are no thermally accessible electronically excited states
  (3) Hindered rotations indicated by low frequency modes are not
      treated as such but are treated as vibrations and this may
      cause some error
  (4) All equations used are the standard statistical mechanics
      equations for an ideal gas
  (5) All vibrations are strictly harmonic

freq.     159.04  E(vib)   ...       0.39
freq.     309.79  E(vib)   ...       0.26
freq.     354.16  E(vib)   ...       0.22
freq.     772.63  E(vib)   ...       0.05
freq.     914.92  E(vib)   ...       0.03
freq.    1021.07  E(vib)   ...       0.02
freq.    1163.91  E(vib)   ...       0.01
freq.    1169.33  E(vib)   ...       0.01
freq.    1212.50  E(vib)   ...       0.01
freq.    1385.34  E(vib)   ...       0.00
freq.    1458.19  E(vib)   ...       0.00
freq.    1476.89  E(vib)   ...       0.00
freq.    1487.53  E(vib)   ...       0.00
freq.    1774.73  E(vib)   ...       0.00
freq.    3014.87  E(vib)   ...       0.00
freq.    3030.40  E(vib)   ...       0.00
freq.    3114.49  E(vib)   ...       0.00
freq.    3150.93  E(vib)   ...       0.00

------------
INNER ENERGY
------------

The inner energy is: U= E(el) + E(ZPE) + E(vib) + E(rot) + E(trans)
    E(el)   - is the total energy from the electronic structure calculation
              = E(kin-el) + E(nuc-el) + E(el-el) + E(nuc-nuc)
    E(ZPE)  - the the zero temperature vibrational energy from the frequency calculation
    E(vib)  - the the finite temperature correction to E(ZPE) due to population
              of excited vibrational states
    E(rot)  - is the rotational thermal energy
    E(trans)- is the translational thermal energy

Summary of contributions to the inner energy U:
Electronic energy                ...   -229.03668195 Eh
Zero point energy                ...      0.06144385 Eh      38.56 kcal/mol
Thermal vibrational correction   ...      0.00164439 Eh       1.03 kcal/mol
Thermal rotational correction    ...      0.00141627 Eh       0.89 kcal/mol
Thermal translational correction ...      0.00141627 Eh       0.89 kcal/mol
-----------------------------------------------------------------------
Total thermal energy                   -228.97076117 Eh

Summary of corrections to the electronic energy:
(perhaps to be used in another calculation)
Total thermal correction                  0.00447694 Eh       2.81 kcal/mol
Non-thermal (ZPE) correction              0.06144385 Eh      38.56 kcal/mol
-----------------------------------------------------------------------
Total correction                          0.06592078 Eh      41.37 kcal/mol

--------
ENTHALPY
--------

The enthalpy is H = U + kB*T
                kB is Boltzmann's constant
Total thermal energy              ...   -228.97076117 Eh
Thermal Enthalpy correction       ...      0.00094421 Eh       0.59 kcal/mol
-----------------------------------------------------------------------
Total Enthalpy                    ...   -228.96981696 Eh

Note: Only C1 symmetry has been detected, increase convergence thresholds
      if your molecule has a higher symmetry. Symmetry factor of 1.0 is
      used for the rotational entropy correction.

Note: Rotational entropy computed according to Herzberg
Infrared and Raman Spectra, Chapter V,1, Van Nostrand Reinhold, 1945
Point Group:  C1, Symmetry Number:   1
Rotational constants in cm-1:     0.663037     0.229035     0.175917

Vibrational entropy computed according to the QRRHO of S. Grimme
Chem.Eur.J. 2012 18 9955 using a reference frequency of 100.0 cm-1

-------
ENTROPY
-------

The entropy contributions are T*S = T*(S(el)+S(vib)+S(rot)+S(trans))
     S(el)   - electronic entropy
     S(vib)  - vibrational entropy
     S(rot)  - rotational entropy
     S(trans)- translational entropy
The entropies will be listed as multiplied by the temperature to get
units of energy

Electronic entropy                ...      0.00000000 Eh      0.00 kcal/mol
Vibrational entropy               ...      0.00270889 Eh      1.70 kcal/mol
Rotational entropy                ...      0.01122098 Eh      7.04 kcal/mol
Translational entropy             ...      0.01814900 Eh     11.39 kcal/mol
-----------------------------------------------------------------------
Final entropy term                ...      0.03207888 Eh     20.13 kcal/mol

In case the symmetry of your molecule has not been determined correctly
or in case you have a reason to use a different symmetry number we print
out the resulting rotational entropy values for sn=1,12:

 non-linear molecules -----------------------------------
|  sn= 1 | S(rot)=       0.01122098 Eh      7.04 kcal/mol|
|  sn= 2 | S(rot)=       0.01056652 Eh      6.63 kcal/mol|
|  sn= 3 | S(rot)=       0.01018369 Eh      6.39 kcal/mol|
|  sn= 4 | S(rot)=       0.00991207 Eh      6.22 kcal/mol|
|  sn= 5 | S(rot)=       0.00970138 Eh      6.09 kcal/mol|
|  sn= 6 | S(rot)=       0.00952924 Eh      5.98 kcal/mol|
|  sn= 7 | S(rot)=       0.00938369 Eh      5.89 kcal/mol|
|  sn= 8 | S(rot)=       0.00925761 Eh      5.81 kcal/mol|
|  sn= 9 | S(rot)=       0.00914640 Eh      5.74 kcal/mol|
|  sn=10 | S(rot)=       0.00904692 Eh      5.68 kcal/mol|
|  sn=11 | S(rot)=       0.00895693 Eh      5.62 kcal/mol|
|  sn=12 | S(rot)=       0.00887478 Eh      5.57 kcal/mol|
 linear molecules ---------------------------------------
|  Dinfh | S(rot)=       0.00696655 Eh      4.37 kcal/mol|
|  Cinfv | S(rot)=       0.00762101 Eh      4.78 kcal/mol|
 --------------------------------------------------------

-------------------
GIBBS FREE ENERGY
-------------------

The Gibbs free energy is G = H - T*S

Total enthalpy                    ...   -228.96981696 Eh
Total entropy correction          ...     -0.03207888 Eh    -20.13 kcal/mol
-----------------------------------------------------------------------
Final Gibbs free energy         ...   -229.00189583 Eh

For completeness - the Gibbs free energy minus the electronic energy
G-E(el)                           ...      0.03478611 Eh     21.83 kcal/mol

                             ****ORCA TERMINATED NORMALLY****
TOTAL RUN TIME: 0 days 0 hours 1 minutes 51 seconds 53 msec
