                         Program Version 6.0.1  -  RELEASE   -
|  1> ! pbe def2-sv(p) def2/J RI DEFGRID1 loosescf d4 GCP(DFT/SV(P)) printgap
|  2> %output
|  3>     printlevel normal
|  4> end
|  5> * xyz 0 1
|  6> C -2.4082306067 0.0096408938 2.54335e-05
|  7> C -0.972770978 0.5191853945 -2.69487e-05
|  8> C 0.0299028019 -0.6396579432 -9.3431e-06
|  9> C 1.3955477893 -0.1573003152 -1.32872e-05
| 10> C 2.514667274 0.2659415265 2.02755e-05
| 11> H -2.5994962095 -0.5980118248 0.8825081068
| 12> H -3.1080506861 0.8421132503 -0.000164533
| 13> H -2.5994362311 -0.5983632028 -0.8822289284
| 14> H -0.8017528217 1.140766987 -0.8818632031
| 15> H -0.8017124499 1.1408490118 0.8817451003
| 16> H -0.1262623256 -1.2631184293 -0.8857819088
| 17> H -0.1262780445 -1.2630909705 0.8857787111
| 18> H 3.5000801025 0.6249583808 5.27729e-05
| 19> *
| 20>
| 21>                          ****END OF INPUT****

CARTESIAN COORDINATES (ANGSTROEM)
---------------------------------
  C     -2.408231    0.009641    0.000025
  C     -0.972771    0.519185   -0.000027
  C      0.029903   -0.639658   -0.000009
  C      1.395548   -0.157300   -0.000013
  C      2.514667    0.265942    0.000020
  H     -2.599496   -0.598012    0.882508
  H     -3.108051    0.842113   -0.000165
  H     -2.599436   -0.598363   -0.882229
  H     -0.801753    1.140767   -0.881863
  H     -0.801712    1.140849    0.881745
  H     -0.126262   -1.263118   -0.885782
  H     -0.126278   -1.263091    0.885779
  H      3.500080    0.624958    0.000053

 Total Charge           Charge          ....    0
 Multiplicity           Mult            ....    1
 Number of Electrons    NEL             ....   38
 Basis Dimension        Dim             ....   86

ORBITAL ENERGIES
----------------

  NO   OCC          E(Eh)            E(eV)
   0   2.0000      -9.910896      -269.6892
   1   2.0000      -9.894896      -269.2538
   2   2.0000      -9.887109      -269.0419
   3   2.0000      -9.880948      -268.8743
   4   2.0000      -9.872783      -268.6521
   5   2.0000      -0.733367       -19.9559
   6   2.0000      -0.666767       -18.1436
   7   2.0000      -0.615805       -16.7569
   8   2.0000      -0.536440       -14.5973
   9   2.0000      -0.471477       -12.8295
  10   2.0000      -0.430219       -11.7068
  11   2.0000      -0.419812       -11.4237
  12   2.0000      -0.379179       -10.3180
  13   2.0000      -0.361735        -9.8433
  14   2.0000      -0.324556        -8.8316
  15   2.0000      -0.311899        -8.4872
  16   2.0000      -0.300305        -8.1717
  17   2.0000      -0.231700        -6.3049
  18   2.0000      -0.231221        -6.2919
  19   0.0000       0.018629         0.5069
  20   0.0000       0.024023         0.6537
  21   0.0000       0.043047         1.1714
  22   0.0000       0.079357         2.1594
  23   0.0000       0.079868         2.1733

MULLIKEN ATOMIC CHARGES
-----------------------
   0 C :   -0.251718
   1 C :   -0.223340
   2 C :   -0.134774
   3 C :    0.449408
   4 C :   -0.619415
   5 H :    0.098368
   6 H :    0.109076
   7 H :    0.098365
   8 H :    0.102583
   9 H :    0.102586
  10 H :    0.108439
  11 H :    0.108441
  12 H :    0.051982
Sum of atomic charges:   -0.0000000

LOEWDIN ATOMIC CHARGES
----------------------
   0 C :   -0.341079
   1 C :   -0.223220
   2 C :   -0.226159
   3 C :   -0.029632
   4 C :   -0.205712
   5 H :    0.117996
   6 H :    0.122669
   7 H :    0.117995
   8 H :    0.122290
   9 H :    0.122291
  10 H :    0.139912
  11 H :    0.139912
  12 H :    0.142735

  Mayer bond orders larger than 0.100000
B(  0-C ,  1-C ) :   1.1542 B(  0-C ,  5-H ) :   0.9523 B(  0-C ,  6-H ) :   0.9523
B(  0-C ,  7-H ) :   0.9523 B(  1-C ,  2-C ) :   1.1183 B(  1-C ,  8-H ) :   0.9293
B(  1-C ,  9-H ) :   0.9293 B(  2-C ,  3-C ) :   1.1105 B(  2-C , 10-H ) :   0.8841
B(  2-C , 11-H ) :   0.8841 B(  3-C ,  4-C ) :   2.2076 B(  3-C , 12-H ) :  -0.1279
B(  4-C , 12-H ) :   1.0893

Dispersion correction           -0.008107975
FINAL SINGLE POINT ENERGY      -194.797636939114

DIPOLE MOMENT
-------------

Method             : SCF
Type of density    : Electron Density
Multiplicity       :   1
Irrep              :   0
Energy             :  -194.8374550690284934 Eh
Relativity type    :
Basis              : AO
                                X                 Y                 Z
Electronic contribution:      5.932083511      -0.068759404      -0.000034485
Nuclear contribution   :     -6.250910362       0.024489121       0.000043266
                        -----------------------------------------
Total Dipole Moment    :     -0.318826851      -0.044270283       0.000008781
                        -----------------------------------------
Magnitude (a.u.)       :      0.321885723
Magnitude (Debye)      :      0.818168488

Rotational constants in cm-1:             0.777250             0.075889             0.071923
Rotational constants in MHz :         23301.379371          2275.102448          2156.187316

                             ****ORCA TERMINATED NORMALLY****
TOTAL RUN TIME: 0 days 0 hours 0 minutes 3 seconds 413 msec
