                         Program Version 6.0.1  -  RELEASE   -
|  1> ! r2scan-3c def2/J RI DEFGRID2 scfconv6 printgap
|  2> %output
|  3>     printlevel normal
|  4> end
|  5> * xyz 0 1
|  6> C 4.5360897638 -0.2209771497 0.0403912534
|  7> C 3.9831918493 1.0483800962 0.086512202
|  8> C 2.6130850218 1.2150040769 0.0816089259
|  9> C 1.7644525987 0.1073175563 0.0305775251
| 10> C 2.3219454691 -1.1666637805 -0.0152840322
| 11> C 3.6982507544 -1.3194644766 -0.0102941494
| 12> N 0.3591822046 0.3427382289 0.026403552
| 13> C -0.6101939148 -0.6813573366 -0.0304400807
| 14> O -0.331031516 -1.8644166107 -0.0701834544
| 15> C -1.9672704456 -0.1907422365 -0.0321110828
| 16> C -2.2996710283 1.1402460311 0.0184191034
| 17> C -1.182442194 2.0266113382 0.0801266557
| 18> N 0.0387350133 1.6264507513 0.0820900654
| 19> N -3.5733793974 1.5952765844 -0.0375142041
| 20> Cl -3.2027767113 -1.400187396 -0.0971795697
| 21> H 5.6080260253 -0.3497980875 0.0438280958
| 22> H 4.6226341458 1.9177432834 0.1265057767
| 23> H 2.1867165325 2.2035867872 0.11695306
| 24> H 1.6929006764 -2.0378054375 -0.0552188012
| 25> H 4.1131194241 -2.3155924885 -0.0469706092
| 26> H -1.3244855859 3.0955136587 0.1273279373
| 27> H -3.7689413124 2.5486923478 0.2084504663
| 28> H -4.3082532828 0.9126571816 0.0517926758
| 29> *
| 30>
| 31>                          ****END OF INPUT****

CARTESIAN COORDINATES (ANGSTROEM)
---------------------------------
  C      4.536090   -0.220977    0.040391
  C      3.983192    1.048380    0.086512
  C      2.613085    1.215004    0.081609
  C      1.764453    0.107318    0.030578
  C      2.321945   -1.166664   -0.015284
  C      3.698251   -1.319464   -0.010294
  N      0.359182    0.342738    0.026404
  C     -0.610194   -0.681357   -0.030440
  O     -0.331032   -1.864417   -0.070183
  C     -1.967270   -0.190742   -0.032111
  C     -2.299671    1.140246    0.018419
  C     -1.182442    2.026611    0.080127
  N      0.038735    1.626451    0.082090
  N     -3.573379    1.595277   -0.037514
  Cl    -3.202777   -1.400187   -0.097180
  H      5.608026   -0.349798    0.043828
  H      4.622634    1.917743    0.126506
  H      2.186717    2.203587    0.116953
  H      1.692901   -2.037805   -0.055219
  H      4.113119   -2.315592   -0.046971
  H     -1.324486    3.095514    0.127328
  H     -3.768941    2.548692    0.208450
  H     -4.308253    0.912657    0.051793

 Total Charge           Charge          ....    0
 Multiplicity           Mult            ....    1
 Number of Electrons    NEL             ....  114
 Basis Dimension        Dim             ....  353

ORBITAL ENERGIES
----------------

  NO   OCC          E(Eh)            E(eV)
   0   2.0000    -101.232031     -2754.6636
   1   2.0000     -18.917381      -514.7681
   2   2.0000     -14.267648      -388.2424
   3   2.0000     -14.216259      -386.8441
   4   2.0000     -14.209402      -386.6575
   5   2.0000     -10.145494      -276.0729
   6   2.0000     -10.119117      -275.3552
   7   2.0000     -10.104771      -274.9648
   8   2.0000     -10.094477      -274.6847
   9   2.0000     -10.085618      -274.4436
  10   2.0000     -10.036318      -273.1021
  11   2.0000     -10.034028      -273.0398
  12   2.0000     -10.033834      -273.0345
  13   2.0000     -10.032897      -273.0090
  14   2.0000     -10.030132      -272.9338
  15   2.0000      -9.387302      -255.4415
  16   2.0000      -7.133631      -194.1160
  17   2.0000      -7.123647      -193.8443
  18   2.0000      -7.123031      -193.8275
  19   2.0000      -1.049268       -28.5520
  20   2.0000      -0.992856       -27.0170
  21   2.0000      -0.936580       -25.4856
  22   2.0000      -0.856680       -23.3114
  23   2.0000      -0.842734       -22.9319
  24   2.0000      -0.813608       -22.1394
  25   2.0000      -0.752967       -20.4893
  26   2.0000      -0.721279       -19.6270
  27   2.0000      -0.717518       -19.5247
  28   2.0000      -0.646337       -17.5877
  29   2.0000      -0.641701       -17.4616
  30   2.0000      -0.581232       -15.8161
  31   2.0000      -0.580925       -15.8078
  32   2.0000      -0.553341       -15.0572
  33   2.0000      -0.522262       -14.2115
  34   2.0000      -0.512034       -13.9332
  35   2.0000      -0.482137       -13.1196
  36   2.0000      -0.465690       -12.6721
  37   2.0000      -0.460618       -12.5341
  38   2.0000      -0.442305       -12.0357
  39   2.0000      -0.421544       -11.4708
  40   2.0000      -0.406781       -11.0691
  41   2.0000      -0.401539       -10.9264
  42   2.0000      -0.399515       -10.8714
  43   2.0000      -0.387987       -10.5577
  44   2.0000      -0.382074       -10.3968
  45   2.0000      -0.362602        -9.8669
  46   2.0000      -0.343518        -9.3476
  47   2.0000      -0.334825        -9.1110
  48   2.0000      -0.314516        -8.5584
  49   2.0000      -0.312114        -8.4931
  50   2.0000      -0.297480        -8.0948
  51   2.0000      -0.279809        -7.6140
  52   2.0000      -0.274366        -7.4659
  53   2.0000      -0.237517        -6.4632
  54   2.0000      -0.223686        -6.0868
  55   2.0000      -0.217894        -5.9292
  56   2.0000      -0.210450        -5.7266
  57   0.0000      -0.091033        -2.4771
  58   0.0000      -0.036758        -1.0002
  59   0.0000      -0.027698        -0.7537
  60   0.0000      -0.012004        -0.3266
  61   0.0000       0.001909         0.0519

MULLIKEN ATOMIC CHARGES
-----------------------
   0 C :   -0.140032
   1 C :   -0.140129
   2 C :   -0.202731
   3 C :   -0.059144
   4 C :   -0.176024
   5 C :   -0.180355
   6 N :    0.570876
   7 C :    0.150816
   8 O :   -0.447551
   9 C :   -0.207061
  10 C :    0.631164
  11 C :   -0.403998
  12 N :   -0.290743
  13 N :   -0.495999
  14 Cl:   -0.117255
  15 H :    0.146534
  16 H :    0.147265
  17 H :    0.178433
  18 H :    0.207666
  19 H :    0.148353
  20 H :    0.136189
  21 H :    0.264187
  22 H :    0.279540
Sum of atomic charges:    0.0000000

LOEWDIN ATOMIC CHARGES
----------------------
   0 C :   -0.166072
   1 C :   -0.159592
   2 C :   -0.108199
   3 C :    0.201324
   4 C :   -0.103539
   5 C :   -0.157409
   6 N :   -0.495222
   7 C :    0.377271
   8 O :   -0.489559
   9 C :   -0.111838
  10 C :    0.150873
  11 C :    0.154126
  12 N :   -0.371185
  13 N :   -0.559754
  14 Cl:    0.198418
  15 H :    0.166522
  16 H :    0.168344
  17 H :    0.199089
  18 H :    0.215143
  19 H :    0.169527
  20 H :    0.199012
  21 H :    0.259782
  22 H :    0.262938

  Mayer bond orders larger than 0.100000
B(  0-C ,  1-C ) :   1.3828 B(  0-C ,  5-C ) :   1.4042 B(  0-C , 15-H ) :   0.9469
B(  1-C ,  2-C ) :   1.3572 B(  1-C , 16-H ) :   0.9538 B(  2-C ,  3-C ) :   1.3807
B(  2-C , 17-H ) :   0.9261 B(  3-C ,  4-C ) :   1.4596 B(  3-C ,  6-N ) :   1.0089
B(  4-C ,  5-C ) :   1.3465 B(  4-C , 18-H ) :   0.9185 B(  5-C , 19-H ) :   0.9589
B(  6-N ,  7-C ) :   0.9959 B(  6-N , 11-C ) :   0.1660 B(  6-N , 12-N ) :   1.3517
B(  7-C ,  8-O ) :   1.8378 B(  7-C ,  9-C ) :   0.9664 B(  9-C , 10-C ) :   1.3367
B(  9-C , 13-N ) :   0.1309 B(  9-C , 14-Cl) :   1.1085 B( 10-C , 11-C ) :   0.9221
B( 10-C , 13-N ) :   0.9931 B( 11-C , 12-N ) :   1.5905 B( 11-C , 20-H ) :   0.9948
B( 13-N , 21-H ) :   0.9236 B( 13-N , 22-H ) :   0.9056

Dispersion correction           -0.010466375
FINAL SINGLE POINT ENERGY     -1085.380659985522

DIPOLE MOMENT
-------------

Method             : SCF
Type of density    : Electron Density
Multiplicity       :   1
Irrep              :   0
Energy             : -1085.3873869229223601 Eh
Relativity type    :
Basis              : AO
                                X                 Y                 Z
Electronic contribution:    -13.454724436      -5.715496466      -0.438988728
Nuclear contribution   :     12.552733616       7.476930891       0.667049233
                        -----------------------------------------
Total Dipole Moment    :     -0.901990820       1.761434425       0.228060505
                        -----------------------------------------
Magnitude (a.u.)       :      1.992046753
Magnitude (Debye)      :      5.063380453

Rotational constants in cm-1:             0.044918             0.010691             0.008637
Rotational constants in MHz :          1346.617088           320.518214           258.918492

                             ****ORCA TERMINATED NORMALLY****
TOTAL RUN TIME: 0 days 0 hours 1 minutes 9 seconds 937 msec
