                         Program Version 6.0.1  -  RELEASE   -
|  1> ! pbe def2-sv(p) def2/J RI DEFGRID1 loosescf d4 GCP(DFT/SV(P)) printgap
|  2> %output
|  3>     printlevel normal
|  4> end
|  5> * xyz 0 1
|  6> C -3.4980050781 0.4583887075 -0.3222578531
|  7> O -2.1228323714 0.4427079405 -0.679798062
|  8> C -1.3054539559 -0.2306231493 0.141771208
|  9> O -1.687858372 -0.8126263693 1.1223133147
| 10> C 0.1326476933 -0.1151661977 -0.3149583061
| 11> C 0.9345117968 -1.3639512794 0.0768395072
| 12> C 2.4009006871 -1.0307071855 0.3665344472
| 13> C 2.8748402134 0.0905473593 -0.5513016373
| 14> C 2.1428366247 1.3964900567 -0.2180190633
| 15> C 0.7410127142 1.1313552199 0.342068013
| 16> H -3.882967967 -0.5611368315 -0.2560397756
| 17> H -4.0107133736 1.0117423869 -1.1046723631
| 18> H -3.632367319 0.946988802 0.6449407823
| 19> H 0.1270358305 0.0345232946 -1.3976204583
| 20> H 0.4740439731 -1.8092782683 0.9607506614
| 21> H 0.8739694333 -2.0934285529 -0.7329649306
| 22> H 2.5212622095 -0.7166151373 1.4042932458
| 23> H 3.0121509405 -1.9225690419 0.2207826855
| 24> H 3.9518081522 0.2338709735 -0.4507953648
| 25> H 2.6776890196 -0.1965441275 -1.5859894315
| 26> H 2.712300295 1.9645277596 0.5196664989
| 27> H 2.0697060653 2.0095089642 -1.118014572
| 28> H 0.7844338066 0.9652091314 1.4195171393
| 29> H 0.1008144616 1.9972455558 0.163692505
| 30> *
| 31>
| 32>                          ****END OF INPUT****

CARTESIAN COORDINATES (ANGSTROEM)
---------------------------------
  C     -3.498005    0.458389   -0.322258
  O     -2.122832    0.442708   -0.679798
  C     -1.305454   -0.230623    0.141771
  O     -1.687858   -0.812626    1.122313
  C      0.132648   -0.115166   -0.314958
  C      0.934512   -1.363951    0.076840
  C      2.400901   -1.030707    0.366534
  C      2.874840    0.090547   -0.551302
  C      2.142837    1.396490   -0.218019
  C      0.741013    1.131355    0.342068
  H     -3.882968   -0.561137   -0.256040
  H     -4.010713    1.011742   -1.104672
  H     -3.632367    0.946989    0.644941
  H      0.127036    0.034523   -1.397620
  H      0.474044   -1.809278    0.960751
  H      0.873969   -2.093429   -0.732965
  H      2.521262   -0.716615    1.404293
  H      3.012151   -1.922569    0.220783
  H      3.951808    0.233871   -0.450795
  H      2.677689   -0.196544   -1.585989
  H      2.712300    1.964528    0.519666
  H      2.069706    2.009509   -1.118015
  H      0.784434    0.965209    1.419517
  H      0.100814    1.997246    0.163693

 Total Charge           Charge          ....    0
 Multiplicity           Mult            ....    1
 Number of Electrons    NEL             ....   78
 Basis Dimension        Dim             ....  168

ORBITAL ENERGIES
----------------

  NO   OCC          E(Eh)            E(eV)
   0   2.0000     -18.795453      -511.4503
   1   2.0000     -18.736924      -509.8576
   2   2.0000     -10.001426      -272.1527
   3   2.0000      -9.938206      -270.4323
   4   2.0000      -9.901740      -269.4400
   5   2.0000      -9.890999      -269.1478
   6   2.0000      -9.885760      -269.0052
   7   2.0000      -9.882979      -268.9295
   8   2.0000      -9.881883      -268.8997
   9   2.0000      -9.881060      -268.8773
  10   2.0000      -1.004202       -27.3257
  11   2.0000      -0.914530       -24.8856
  12   2.0000      -0.761871       -20.7316
  13   2.0000      -0.691681       -18.8216
  14   2.0000      -0.665786       -18.1170
  15   2.0000      -0.648002       -17.6330
  16   2.0000      -0.563907       -15.3447
  17   2.0000      -0.548158       -14.9161
  18   2.0000      -0.507153       -13.8003
  19   2.0000      -0.471631       -12.8337
  20   2.0000      -0.460342       -12.5265
  21   2.0000      -0.441951       -12.0261
  22   2.0000      -0.431585       -11.7440
  23   2.0000      -0.409822       -11.1518
  24   2.0000      -0.400488       -10.8978
  25   2.0000      -0.391070       -10.6416
  26   2.0000      -0.362991        -9.8775
  27   2.0000      -0.359407        -9.7800
  28   2.0000      -0.342098        -9.3090
  29   2.0000      -0.332219        -9.0401
  30   2.0000      -0.326172        -8.8756
  31   2.0000      -0.316907        -8.6235
  32   2.0000      -0.311144        -8.4667
  33   2.0000      -0.303738        -8.2651
  34   2.0000      -0.269639        -7.3372
  35   2.0000      -0.264862        -7.2073
  36   2.0000      -0.263455        -7.1690
  37   2.0000      -0.256234        -6.9725
  38   2.0000      -0.220656        -6.0044
  39   0.0000      -0.017759        -0.4832
  40   0.0000       0.029577         0.8048
  41   0.0000       0.048143         1.3100
  42   0.0000       0.057068         1.5529
  43   0.0000       0.072295         1.9673

MULLIKEN ATOMIC CHARGES
-----------------------
   0 C :   -0.108395
   1 O :   -0.244260
   2 C :    0.152457
   3 O :   -0.193055
   4 C :   -0.192691
   5 C :   -0.112556
   6 C :   -0.152755
   7 C :   -0.159939
   8 C :   -0.130537
   9 C :   -0.138478
  10 H :    0.117272
  11 H :    0.119217
  12 H :    0.115330
  13 H :    0.076640
  14 H :    0.100396
  15 H :    0.081339
  16 H :    0.078327
  17 H :    0.085350
  18 H :    0.086033
  19 H :    0.076846
  20 H :    0.083528
  21 H :    0.082508
  22 H :    0.084989
  23 H :    0.092434
Sum of atomic charges:   -0.0000000

LOEWDIN ATOMIC CHARGES
----------------------
   0 C :   -0.207492
   1 O :   -0.078298
   2 C :    0.047355
   3 O :   -0.151849
   4 C :   -0.165618
   5 C :   -0.218690
   6 C :   -0.227606
   7 C :   -0.230609
   8 C :   -0.227125
   9 C :   -0.210699
  10 H :    0.118242
  11 H :    0.118984
  12 H :    0.117177
  13 H :    0.126933
  14 H :    0.126401
  15 H :    0.118312
  16 H :    0.115750
  17 H :    0.118930
  18 H :    0.118046
  19 H :    0.113998
  20 H :    0.118784
  21 H :    0.117307
  22 H :    0.121415
  23 H :    0.120353

  Mayer bond orders larger than 0.100000
B(  0-C ,  1-O ) :   0.9486 B(  0-C , 10-H ) :   0.9507 B(  0-C , 11-H ) :   0.9590
B(  0-C , 12-H ) :   0.9524 B(  1-O ,  2-C ) :   1.2032 B(  2-C ,  3-O ) :   2.0721
B(  2-C ,  4-C ) :   0.9439 B(  4-C ,  5-C ) :   1.0891 B(  4-C ,  9-C ) :   1.1421
B(  4-C , 13-H ) :   0.8714 B(  5-C ,  6-C ) :   1.1567 B(  5-C , 14-H ) :   0.8961
B(  5-C , 15-H ) :   0.9169 B(  6-C ,  7-C ) :   1.1823 B(  6-C , 16-H ) :   0.9063
B(  6-C , 17-H ) :   0.9197 B(  7-C ,  8-C ) :   1.1386 B(  7-C , 18-H ) :   0.9224
B(  7-C , 19-H ) :   0.9118 B(  8-C ,  9-C ) :   1.1528 B(  8-C , 20-H ) :   0.9177
B(  8-C , 21-H ) :   0.9201 B(  9-C , 22-H ) :   0.8955 B(  9-C , 23-H ) :   0.9177

Dispersion correction           -0.022631915
FINAL SINGLE POINT ENERGY      -462.698846512147

DIPOLE MOMENT
-------------

Method             : SCF
Type of density    : Electron Density
Multiplicity       :   1
Irrep              :   0
Energy             :  -462.7868578755338831 Eh
Relativity type    :
Basis              : AO
                                X                 Y                 Z
Electronic contribution:     -7.255287842      -1.324774043       0.742051243
Nuclear contribution   :      7.241659070       1.743301184      -1.224739780
                        -----------------------------------------
Total Dipole Moment    :     -0.013628772       0.418527141      -0.482688537
                        -----------------------------------------
Magnitude (a.u.)       :      0.639014033
Magnitude (Debye)      :      1.624244592

Rotational constants in cm-1:             0.099697             0.025398             0.022443
Rotational constants in MHz :          2988.833960           761.398078           672.819254

                             ****ORCA TERMINATED NORMALLY****
TOTAL RUN TIME: 0 days 0 hours 0 minutes 8 seconds 316 msec
