                         Program Version 6.0.1  -  RELEASE   -
|  1> ! pbe def2-sv(p) def2/J RI DEFGRID1 loosescf d4 GCP(DFT/SV(P)) printgap
|  2> %output
|  3>     printlevel normal
|  4> end
|  5> * xyz 0 1
|  6> C -2.5590516505 -0.625634946 -0.1543075845
|  7> C -1.3771578813 0.3111854539 0.0092837714
|  8> O -0.1772417458 -0.425574197 -0.2370893481
|  9> C 0.9739276877 0.179465993 0.0697670075
| 10> O 1.043030728 1.2908184641 0.5234062786
| 11> C 2.1473060273 -0.7214150262 -0.2149076355
| 12> H -3.4825764029 -0.0812600388 0.0202359216
| 13> H -2.5729737407 -1.0382091909 -1.1596044718
| 14> H -2.4892516254 -1.4449527414 0.5561614323
| 15> H -1.332959021 0.7302451236 1.0206518527
| 16> H -1.4292880683 1.1440120799 -0.7011502037
| 17> H 2.1927908213 -1.491903803 0.5519574436
| 18> H 3.0649552958 -0.1419776935 -0.1968428801
| 19> H 2.0177225177 -1.2052586668 -1.178554641
| 20> *
| 21>
| 22>                          ****END OF INPUT****

CARTESIAN COORDINATES (ANGSTROEM)
---------------------------------
  C     -2.559052   -0.625635   -0.154308
  C     -1.377158    0.311185    0.009284
  O     -0.177242   -0.425574   -0.237089
  C      0.973928    0.179466    0.069767
  O      1.043031    1.290818    0.523406
  C      2.147306   -0.721415   -0.214908
  H     -3.482576   -0.081260    0.020236
  H     -2.572974   -1.038209   -1.159604
  H     -2.489252   -1.444953    0.556161
  H     -1.332959    0.730245    1.020652
  H     -1.429288    1.144012   -0.701150
  H      2.192791   -1.491904    0.551957
  H      3.064955   -0.141978   -0.196843
  H      2.017723   -1.205259   -1.178555

 Total Charge           Charge          ....    0
 Multiplicity           Mult            ....    1
 Number of Electrons    NEL             ....   48
 Basis Dimension        Dim             ....  100

ORBITAL ENERGIES
----------------

  NO   OCC          E(Eh)            E(eV)
   0   2.0000     -18.795167      -511.4425
   1   2.0000     -18.732496      -509.7371
   2   2.0000     -10.006812      -272.2992
   3   2.0000      -9.944824      -270.6124
   4   2.0000      -9.892834      -269.1977
   5   2.0000      -9.888256      -269.0731
   6   2.0000      -1.004038       -27.3213
   7   2.0000      -0.913108       -24.8469
   8   2.0000      -0.711883       -19.3713
   9   2.0000      -0.662699       -18.0329
  10   2.0000      -0.576660       -15.6917
  11   2.0000      -0.507769       -13.8171
  12   2.0000      -0.447467       -12.1762
  13   2.0000      -0.433386       -11.7930
  14   2.0000      -0.407124       -11.0784
  15   2.0000      -0.400022       -10.8852
  16   2.0000      -0.367694       -10.0055
  17   2.0000      -0.353255        -9.6126
  18   2.0000      -0.348795        -9.4912
  19   2.0000      -0.343150        -9.3376
  20   2.0000      -0.313190        -8.5223
  21   2.0000      -0.298224        -8.1151
  22   2.0000      -0.256178        -6.9710
  23   2.0000      -0.218350        -5.9416
  24   0.0000      -0.016868        -0.4590
  25   0.0000       0.041959         1.1418
  26   0.0000       0.059259         1.6125
  27   0.0000       0.087075         2.3694
  28   0.0000       0.090051         2.4504

MULLIKEN ATOMIC CHARGES
-----------------------
   0 C :   -0.273749
   1 C :   -0.030894
   2 O :   -0.249973
   3 C :    0.080349
   4 O :   -0.198922
   5 C :   -0.248230
   6 H :    0.110119
   7 H :    0.113121
   8 H :    0.112793
   9 H :    0.105055
  10 H :    0.101731
  11 H :    0.131808
  12 H :    0.123116
  13 H :    0.123675
Sum of atomic charges:   -0.0000000

LOEWDIN ATOMIC CHARGES
----------------------
   0 C :   -0.350806
   1 C :   -0.112334
   2 O :   -0.081589
   3 C :    0.026952
   4 O :   -0.156393
   5 C :   -0.360574
   6 H :    0.129491
   7 H :    0.125423
   8 H :    0.125320
   9 H :    0.114939
  10 H :    0.113970
  11 H :    0.146964
  12 H :    0.138747
  13 H :    0.139890

  Mayer bond orders larger than 0.100000
B(  0-C ,  1-C ) :   1.1492 B(  0-C ,  6-H ) :   0.9451 B(  0-C ,  7-H ) :   0.9492
B(  0-C ,  8-H ) :   0.9513 B(  1-C ,  2-O ) :   0.9249 B(  1-C ,  9-H ) :   0.9275
B(  1-C , 10-H ) :   0.9350 B(  2-O ,  3-C ) :   1.1787 B(  3-C ,  4-O ) :   2.0757
B(  3-C ,  5-C ) :   1.0850 B(  5-C , 11-H ) :   0.9271 B(  5-C , 12-H ) :   0.9425
B(  5-C , 13-H ) :   0.9345

Dispersion correction           -0.008740628
FINAL SINGLE POINT ENERGY      -307.031747914255

DIPOLE MOMENT
-------------

Method             : SCF
Type of density    : Electron Density
Multiplicity       :   1
Irrep              :   0
Energy             :  -307.0861369061103687 Eh
Relativity type    :
Basis              : AO
                                X                 Y                 Z
Electronic contribution:      3.400619079       2.681969540       0.793403156
Nuclear contribution   :     -3.769464979      -3.298254515      -1.015680794
                        -----------------------------------------
Total Dipole Moment    :     -0.368845900      -0.616284974      -0.222277638
                        -----------------------------------------
Magnitude (a.u.)       :      0.751838956
Magnitude (Debye)      :      1.911022755

Rotational constants in cm-1:             0.282209             0.069985             0.058046
Rotational constants in MHz :          8460.419847          2098.085319          1740.160859

                             ****ORCA TERMINATED NORMALLY****
TOTAL RUN TIME: 0 days 0 hours 0 minutes 12 seconds 804 msec
