                         Program Version 6.0.1  -  RELEASE   -
|  1> ! pbe def2-sv(p) def2/J RI DEFGRID1 loosescf d4 GCP(DFT/SV(P)) printgap
|  2> %output
|  3>     printlevel normal
|  4> end
|  5> * xyz 0 1
|  6> C -2.0129160893 -0.5726487213 -0.6827468853
|  7> C -1.1990397575 -0.0803862907 0.539554232
|  8> H -1.8633719837 -0.0195289162 1.4081201125
|  9> C -0.6290088532 1.3255930121 0.2841935668
| 10> H -1.370621602 1.8998247204 -0.2936039137
| 11> C 0.6904472917 1.2904142463 -0.529742396
| 12> H 1.1442856656 2.2916764229 -0.4731710403
| 13> C 1.6610005259 0.274450245 0.0999554977
| 14> H 2.5419150184 0.167174676 -0.5411419546
| 15> C 0.94963725 -1.090180038 0.203999236
| 16> H 1.5869223004 -1.7851860073 0.7755325194
| 17> O -0.2149715373 -0.9997885069 0.9703680182
| 18> O 0.7117694376 -1.5896457428 -1.0850792214
| 19> O 2.1175191521 0.6891925426 1.3545834034
| 20> O 0.4620068916 1.0263599152 -1.8874225327
| 21> O -0.4289478274 1.9159389029 1.5507762934
| 22> O -2.0249223705 -1.9875307423 -0.694763031
| 23> H -1.5750069258 -0.1918485993 -1.6140051306
| 24> H -3.0298449328 -0.174240911 -0.5909876208
| 25> H -0.0566504119 -2.1828332854 -1.0151473345
| 26> H 1.3477027603 0.7623597088 1.9410407684
| 27> H 0.5636533983 0.0677265254 -2.0190569337
| 28> H -0.0381167389 2.7904664565 1.4364381083
| 29> H -2.6980261864 -2.2886707499 -1.3127656296
| 30> *
| 31>
| 32>                          ****END OF INPUT****

CARTESIAN COORDINATES (ANGSTROEM)
---------------------------------
  C     -2.012916   -0.572649   -0.682747
  C     -1.199040   -0.080386    0.539554
  H     -1.863372   -0.019529    1.408120
  C     -0.629009    1.325593    0.284194
  H     -1.370622    1.899825   -0.293604
  C      0.690447    1.290414   -0.529742
  H      1.144286    2.291676   -0.473171
  C      1.661001    0.274450    0.099955
  H      2.541915    0.167175   -0.541142
  C      0.949637   -1.090180    0.203999
  H      1.586922   -1.785186    0.775533
  O     -0.214972   -0.999789    0.970368
  O      0.711769   -1.589646   -1.085079
  O      2.117519    0.689193    1.354583
  O      0.462007    1.026360   -1.887423
  O     -0.428948    1.915939    1.550776
  O     -2.024922   -1.987531   -0.694763
  H     -1.575007   -0.191849   -1.614005
  H     -3.029845   -0.174241   -0.590988
  H     -0.056650   -2.182833   -1.015147
  H      1.347703    0.762360    1.941041
  H      0.563653    0.067727   -2.019057
  H     -0.038117    2.790466    1.436438
  H     -2.698026   -2.288671   -1.312766

 Total Charge           Charge          ....    0
 Multiplicity           Mult            ....    1
 Number of Electrons    NEL             ....   96
 Basis Dimension        Dim             ....  192

ORBITAL ENERGIES
----------------

  NO   OCC          E(Eh)            E(eV)
   0   2.0000     -18.776489      -510.9342
   1   2.0000     -18.772072      -510.8141
   2   2.0000     -18.769908      -510.7552
   3   2.0000     -18.769861      -510.7539
   4   2.0000     -18.743515      -510.0370
   5   2.0000     -18.742377      -510.0060
   6   2.0000      -9.983831      -271.6738
   7   2.0000      -9.953138      -270.8387
   8   2.0000      -9.950412      -270.7645
   9   2.0000      -9.947223      -270.6777
  10   2.0000      -9.942311      -270.5440
  11   2.0000      -9.938197      -270.4321
  12   2.0000      -0.992886       -27.0178
  13   2.0000      -0.949539       -25.8383
  14   2.0000      -0.946096       -25.7446
  15   2.0000      -0.926742       -25.2179
  16   2.0000      -0.921359       -25.0715
  17   2.0000      -0.912383       -24.8272
  18   2.0000      -0.712223       -19.3806
  19   2.0000      -0.683098       -18.5880
  20   2.0000      -0.627775       -17.0826
  21   2.0000      -0.588849       -16.0234
  22   2.0000      -0.582675       -15.8554
  23   2.0000      -0.520226       -14.1561
  24   2.0000      -0.503571       -13.7029
  25   2.0000      -0.492400       -13.3989
  26   2.0000      -0.478549       -13.0220
  27   2.0000      -0.465299       -12.6614
  28   2.0000      -0.440400       -11.9839
  29   2.0000      -0.438328       -11.9275
  30   2.0000      -0.420688       -11.4475
  31   2.0000      -0.409467       -11.1422
  32   2.0000      -0.385445       -10.4885
  33   2.0000      -0.378511       -10.2998
  34   2.0000      -0.362281        -9.8582
  35   2.0000      -0.357579        -9.7302
  36   2.0000      -0.341397        -9.2899
  37   2.0000      -0.329903        -8.9771
  38   2.0000      -0.315422        -8.5831
  39   2.0000      -0.312953        -8.5159
  40   2.0000      -0.280592        -7.6353
  41   2.0000      -0.266435        -7.2501
  42   2.0000      -0.252616        -6.8740
  43   2.0000      -0.249982        -6.8024
  44   2.0000      -0.247616        -6.7380
  45   2.0000      -0.234834        -6.3902
  46   2.0000      -0.213567        -5.8115
  47   2.0000      -0.198535        -5.4024
  48   0.0000       0.005090         0.1385
  49   0.0000       0.017294         0.4706
  50   0.0000       0.046276         1.2592
  51   0.0000       0.052205         1.4206
  52   0.0000       0.070861         1.9282

MULLIKEN ATOMIC CHARGES
-----------------------
   0 C :   -0.033820
   1 C :    0.082353
   2 H :    0.085392
   3 C :    0.015941
   4 H :    0.077370
   5 C :    0.034214
   6 H :    0.063970
   7 C :    0.034459
   8 H :    0.089630
   9 C :    0.180107
  10 H :    0.075667
  11 O :   -0.300222
  12 O :   -0.433776
  13 O :   -0.425509
  14 O :   -0.418312
  15 O :   -0.414138
  16 O :   -0.431519
  17 H :    0.085220
  18 H :    0.089003
  19 H :    0.313847
  20 H :    0.297765
  21 H :    0.313042
  22 H :    0.306275
  23 H :    0.313042
Sum of atomic charges:   -0.0000000

LOEWDIN ATOMIC CHARGES
----------------------
   0 C :   -0.152334
   1 C :   -0.056339
   2 H :    0.124718
   3 C :   -0.077501
   4 H :    0.107823
   5 C :   -0.077706
   6 H :    0.105634
   7 C :   -0.086529
   8 H :    0.122367
   9 C :   -0.003902
  10 H :    0.102467
  11 O :   -0.126448
  12 O :   -0.322879
  13 O :   -0.313334
  14 O :   -0.321971
  15 O :   -0.308383
  16 O :   -0.328839
  17 H :    0.099171
  18 H :    0.110357
  19 H :    0.278810
  20 H :    0.270042
  21 H :    0.272340
  22 H :    0.288069
  23 H :    0.294369

  Mayer bond orders larger than 0.100000
B(  0-C ,  1-C ) :   1.0410 B(  0-C , 16-O ) :   1.0459 B(  0-C , 17-H ) :   0.9008
B(  0-C , 18-H ) :   0.9122 B(  1-C ,  2-H ) :   0.8955 B(  1-C ,  3-C ) :   0.9977
B(  1-C , 11-O ) :   1.0317 B(  3-C ,  4-H ) :   0.8935 B(  3-C ,  5-C ) :   0.9538
B(  3-C , 15-O ) :   1.0283 B(  5-C ,  6-H ) :   0.9041 B(  5-C ,  7-C ) :   0.9758
B(  5-C , 14-O ) :   1.0857 B(  7-C ,  8-H ) :   0.8945 B(  7-C ,  9-C ) :   0.9840
B(  7-C , 13-O ) :   1.0639 B(  9-C , 10-H ) :   0.9074 B(  9-C , 11-O ) :   1.0619
B(  9-C , 12-O ) :   1.0621 B( 12-O , 19-H ) :   0.7816 B( 12-O , 21-H ) :   0.1180
B( 13-O , 20-H ) :   0.8131 B( 14-O , 21-H ) :   0.7853 B( 15-O , 22-H ) :   0.8386
B( 16-O , 19-H ) :   0.1139 B( 16-O , 23-H ) :   0.8444

Dispersion correction           -0.026632263
FINAL SINGLE POINT ENERGY      -685.699791990676

DIPOLE MOMENT
-------------

Method             : SCF
Type of density    : Electron Density
Multiplicity       :   1
Irrep              :   0
Energy             :  -685.8356934977945230 Eh
Relativity type    :
Basis              : AO
                                X                 Y                 Z
Electronic contribution:      1.962208600      -1.228460912       1.709092150
Nuclear contribution   :     -3.224800829       1.240251722      -2.153528456
                        -----------------------------------------
Total Dipole Moment    :     -1.262592229       0.011790810      -0.444436307
                        -----------------------------------------
Magnitude (a.u.)       :      1.338582007
Magnitude (Debye)      :      3.402405069

Rotational constants in cm-1:             0.043266             0.029349             0.026237
Rotational constants in MHz :          1297.093902           879.850145           786.564405

                             ****ORCA TERMINATED NORMALLY****
TOTAL RUN TIME: 0 days 0 hours 0 minutes 8 seconds 164 msec
