                         Program Version 6.0.1  -  RELEASE   -
|  1> ! r2scan-3c def2/J RI DEFGRID2 scfconv6 printgap
|  2> %output
|  3>     printlevel normal
|  4> end
|  5> * xyz 0 1
|  6> C -2.8069004037 -0.150499144 -0.5664834162
|  7> C -1.4601307029 -0.0332308915 0.1060019365
|  8> O -1.3068430877 -0.287207038 1.2739582739
|  9> C -0.3416636479 0.4069057096 -0.824287187
| 10> C 0.5073314127 -0.8161088733 -1.2152656732
| 11> C 1.3465351512 -1.3205833463 -0.0469718896
| 12> C 2.2586082279 -0.2114330435 0.4657361859
| 13> C 1.4168103959 0.9711049669 0.9313456243
| 14> C 0.5507805539 1.4947436954 -0.2097967531
| 15> H -3.5334360776 -0.5852516954 0.1150566354
| 16> H -3.1435982769 0.8408367205 -0.865046359
| 17> H -2.7259713118 -0.7630639959 -1.4616635337
| 18> H -0.7998397496 0.8090795286 -1.7346853313
| 19> H -0.1441080492 -1.6135472845 -1.5821845063
| 20> H 1.1698101868 -0.522166412 -2.0336906297
| 21> H 0.6897761756 -1.6457451315 0.7612860804
| 22> H 1.9386816041 -2.1798107135 -0.3696415673
| 23> H 2.8675607453 -0.58238794 1.2920524788
| 24> H 2.9336330039 0.1070606908 -0.3336529355
| 25> H 0.7756718958 0.6541001183 1.7536187221
| 26> H 2.0620877366 1.7750186515 1.2922982812
| 27> H -0.0759638798 2.3153518488 0.1477156572
| 28> H 1.1963998058 1.8872033751 -1.0006682766
| 29> *
| 30>
| 31>                          ****END OF INPUT****

CARTESIAN COORDINATES (ANGSTROEM)
---------------------------------
  C     -2.806900   -0.150499   -0.566483
  C     -1.460131   -0.033231    0.106002
  O     -1.306843   -0.287207    1.273958
  C     -0.341664    0.406906   -0.824287
  C      0.507331   -0.816109   -1.215266
  C      1.346535   -1.320583   -0.046972
  C      2.258608   -0.211433    0.465736
  C      1.416810    0.971105    0.931346
  C      0.550781    1.494744   -0.209797
  H     -3.533436   -0.585252    0.115057
  H     -3.143598    0.840837   -0.865046
  H     -2.725971   -0.763064   -1.461664
  H     -0.799840    0.809080   -1.734685
  H     -0.144108   -1.613547   -1.582185
  H      1.169810   -0.522166   -2.033691
  H      0.689776   -1.645745    0.761286
  H      1.938682   -2.179811   -0.369642
  H      2.867561   -0.582388    1.292052
  H      2.933633    0.107061   -0.333653
  H      0.775672    0.654100    1.753619
  H      2.062088    1.775019    1.292298
  H     -0.075964    2.315352    0.147716
  H      1.196400    1.887203   -1.000668

 Total Charge           Charge          ....    0
 Multiplicity           Mult            ....    1
 Number of Electrons    NEL             ....   70
 Basis Dimension        Dim             ....  246

ORBITAL ENERGIES
----------------

  NO   OCC          E(Eh)            E(eV)
   0   2.0000     -18.937977      -515.3286
   1   2.0000     -10.116561      -275.2856
   2   2.0000     -10.041635      -273.2468
   3   2.0000     -10.035402      -273.0772
   4   2.0000     -10.032811      -273.0067
   5   2.0000     -10.028923      -272.9009
   6   2.0000     -10.018990      -272.6306
   7   2.0000     -10.017858      -272.5998
   8   2.0000     -10.013288      -272.4754
   9   2.0000      -1.010560       -27.4987
  10   2.0000      -0.804622       -21.8949
  11   2.0000      -0.736351       -20.0371
  12   2.0000      -0.709279       -19.3005
  13   2.0000      -0.696413       -18.9504
  14   2.0000      -0.592038       -16.1102
  15   2.0000      -0.574659       -15.6373
  16   2.0000      -0.535173       -14.5628
  17   2.0000      -0.480736       -13.0815
  18   2.0000      -0.454982       -12.3807
  19   2.0000      -0.431524       -11.7424
  20   2.0000      -0.429863       -11.6972
  21   2.0000      -0.411826       -11.2064
  22   2.0000      -0.395914       -10.7734
  23   2.0000      -0.393635       -10.7114
  24   2.0000      -0.375366       -10.2142
  25   2.0000      -0.352269        -9.5857
  26   2.0000      -0.346813        -9.4373
  27   2.0000      -0.342489        -9.3196
  28   2.0000      -0.329770        -8.9735
  29   2.0000      -0.325885        -8.8678
  30   2.0000      -0.310381        -8.4459
  31   2.0000      -0.292876        -7.9696
  32   2.0000      -0.268757        -7.3133
  33   2.0000      -0.267879        -7.2894
  34   2.0000      -0.206622        -5.6225
  35   0.0000      -0.043623        -1.1870
  36   0.0000       0.065940         1.7943
  37   0.0000       0.096076         2.6144
  38   0.0000       0.108786         2.9602
  39   0.0000       0.114423         3.1136

MULLIKEN ATOMIC CHARGES
-----------------------
   0 C :   -0.520290
   1 C :    0.252174
   2 O :   -0.355510
   3 C :    0.030164
   4 C :   -0.376579
   5 C :   -0.258734
   6 C :   -0.329920
   7 C :   -0.275977
   8 C :   -0.396105
   9 H :    0.177315
  10 H :    0.168945
  11 H :    0.158645
  12 H :    0.160935
  13 H :    0.144419
  14 H :    0.161401
  15 H :    0.175482
  16 H :    0.147822
  17 H :    0.150214
  18 H :    0.143599
  19 H :    0.193015
  20 H :    0.144306
  21 H :    0.145808
  22 H :    0.158871
Sum of atomic charges:    0.0000000

LOEWDIN ATOMIC CHARGES
----------------------
   0 C :   -0.385342
   1 C :    0.222507
   2 O :   -0.473868
   3 C :   -0.210901
   4 C :   -0.271546
   5 C :   -0.298128
   6 C :   -0.299404
   7 C :   -0.299137
   8 C :   -0.275381
   9 H :    0.171381
  10 H :    0.174817
  11 H :    0.170568
  12 H :    0.167235
  13 H :    0.159297
  14 H :    0.161066
  15 H :    0.172996
  16 H :    0.154202
  17 H :    0.156113
  18 H :    0.151288
  19 H :    0.179069
  20 H :    0.152418
  21 H :    0.161817
  22 H :    0.158935

  Mayer bond orders larger than 0.100000
B(  0-C ,  1-C ) :   0.9111 B(  0-C ,  9-H ) :   0.9970 B(  0-C , 10-H ) :   0.9510
B(  0-C , 11-H ) :   0.9471 B(  1-C ,  2-O ) :   1.9008 B(  1-C ,  3-C ) :   0.8484
B(  3-C ,  4-C ) :   0.8890 B(  3-C ,  8-C ) :   0.9194 B(  3-C , 12-H ) :   0.9286
B(  4-C ,  5-C ) :   0.9219 B(  4-C , 13-H ) :   0.9458 B(  4-C , 14-H ) :   0.9869
B(  5-C ,  6-C ) :   0.9095 B(  5-C , 15-H ) :   0.9715 B(  5-C , 16-H ) :   0.9381
B(  6-C ,  7-C ) :   0.9042 B(  6-C , 17-H ) :   0.9455 B(  6-C , 18-H ) :   1.0141
B(  7-C ,  8-C ) :   0.8993 B(  7-C , 19-H ) :   0.9809 B(  7-C , 20-H ) :   0.9402
B(  8-C , 21-H ) :   0.9538 B(  8-C , 22-H ) :   0.9891

Dispersion correction           -0.007569755
FINAL SINGLE POINT ENERGY      -388.405453514253

DIPOLE MOMENT
-------------

Method             : SCF
Type of density    : Electron Density
Multiplicity       :   1
Irrep              :   0
Energy             :  -388.4078936372561088 Eh
Relativity type    :
Basis              : AO
                                X                 Y                 Z
Electronic contribution:     -3.066680039      -0.277901425       2.783463477
Nuclear contribution   :      2.992791382       0.461706626      -3.751787688
                        -----------------------------------------
Total Dipole Moment    :     -0.073888658       0.183805201      -0.968324211
                        -----------------------------------------
Magnitude (a.u.)       :      0.988380323
Magnitude (Debye)      :      2.512263128

Rotational constants in cm-1:             0.091242             0.041693             0.039149
Rotational constants in MHz :          2735.380605          1249.918164          1173.662831

                             ****ORCA TERMINATED NORMALLY****
TOTAL RUN TIME: 0 days 0 hours 0 minutes 30 seconds 216 msec
