                         Program Version 6.0.1  -  RELEASE   -
|  1> ! pbe def2-sv(p) def2/J RI DEFGRID1 loosescf d4 GCP(DFT/SV(P)) printgap
|  2> %output
|  3>     printlevel normal
|  4> end
|  5> * xyz 0 1
|  6> C -2.2856749561 -1.098681682 -0.1900810499
|  7> C -0.9200446862 -0.5817967094 0.2916288272
|  8> H -0.8228729511 -0.7392525584 1.3804288372
|  9> C -0.7599388938 0.9348591729 0.0224906309
| 10> H -1.4812457701 1.2549408509 -0.7384340728
| 11> C 0.6741839583 1.2338669179 -0.4646584512
| 12> H 0.8683840061 2.3055941799 -0.2799299911
| 13> C 1.653057964 0.3806853497 0.3582119632
| 14> H 2.680551556 0.5778089409 0.0305192145
| 15> C 1.3767976736 -1.1187739038 0.0665732089
| 16> H 1.5701746681 -1.6877746829 0.9906544779
| 17> O 0.0591896807 -1.3359815015 -0.3812972968
| 18> O 2.2288600948 -1.6040157395 -0.8995116381
| 19> O 1.5033222897 0.6284571996 1.7419987032
| 20> O 0.8929358086 0.9222251536 -1.8171059758
| 21> O -1.0615209881 1.6879242472 1.1686627101
| 22> O -3.3337442632 -0.2019714397 0.0546789335
| 23> H -2.4795583828 -2.0761193129 0.2716604544
| 24> H -2.2403951794 -1.2341203932 -1.2730952226
| 25> H 1.9703744408 -1.1920193697 -1.7371580299
| 26> H 2.0059904877 1.41619339 1.9772947592
| 27> H 0.1727854497 1.2854356519 -2.344859615
| 28> H -0.4212975116 1.4381652918 1.8529273818
| 29> H -3.2934766284 0.0944358131 0.9714960348
| 30> *
| 31>
| 32>                          ****END OF INPUT****

CARTESIAN COORDINATES (ANGSTROEM)
---------------------------------
  C     -2.285675   -1.098682   -0.190081
  C     -0.920045   -0.581797    0.291629
  H     -0.822873   -0.739253    1.380429
  C     -0.759939    0.934859    0.022491
  H     -1.481246    1.254941   -0.738434
  C      0.674184    1.233867   -0.464658
  H      0.868384    2.305594   -0.279930
  C      1.653058    0.380685    0.358212
  H      2.680552    0.577809    0.030519
  C      1.376798   -1.118774    0.066573
  H      1.570175   -1.687775    0.990654
  O      0.059190   -1.335982   -0.381297
  O      2.228860   -1.604016   -0.899512
  O      1.503322    0.628457    1.741999
  O      0.892936    0.922225   -1.817106
  O     -1.061521    1.687924    1.168663
  O     -3.333744   -0.201971    0.054679
  H     -2.479558   -2.076119    0.271660
  H     -2.240395   -1.234120   -1.273095
  H      1.970374   -1.192019   -1.737158
  H      2.005990    1.416193    1.977295
  H      0.172785    1.285436   -2.344860
  H     -0.421298    1.438165    1.852927
  H     -3.293477    0.094436    0.971496

 Total Charge           Charge          ....    0
 Multiplicity           Mult            ....    1
 Number of Electrons    NEL             ....   96
 Basis Dimension        Dim             ....  192

ORBITAL ENERGIES
----------------

  NO   OCC          E(Eh)            E(eV)
   0   2.0000     -18.786841      -511.2159
   1   2.0000     -18.771010      -510.7851
   2   2.0000     -18.766042      -510.6500
   3   2.0000     -18.750218      -510.2194
   4   2.0000     -18.749356      -510.1959
   5   2.0000     -18.748229      -510.1652
   6   2.0000      -9.985221      -271.7117
   7   2.0000      -9.952024      -270.8083
   8   2.0000      -9.950184      -270.7583
   9   2.0000      -9.943383      -270.5732
  10   2.0000      -9.942593      -270.5517
  11   2.0000      -9.931400      -270.2471
  12   2.0000      -0.986109       -26.8334
  13   2.0000      -0.958042       -26.0697
  14   2.0000      -0.945738       -25.7348
  15   2.0000      -0.933418       -25.3996
  16   2.0000      -0.923505       -25.1298
  17   2.0000      -0.910600       -24.7787
  18   2.0000      -0.700706       -19.0672
  19   2.0000      -0.689876       -18.7725
  20   2.0000      -0.619901       -16.8684
  21   2.0000      -0.591758       -16.1025
  22   2.0000      -0.570177       -15.5153
  23   2.0000      -0.529716       -14.4143
  24   2.0000      -0.506116       -13.7721
  25   2.0000      -0.499361       -13.5883
  26   2.0000      -0.477262       -12.9869
  27   2.0000      -0.467997       -12.7348
  28   2.0000      -0.444489       -12.0952
  29   2.0000      -0.442771       -12.0484
  30   2.0000      -0.423233       -11.5168
  31   2.0000      -0.396073       -10.7777
  32   2.0000      -0.390066       -10.6142
  33   2.0000      -0.371122       -10.0987
  34   2.0000      -0.356658        -9.7052
  35   2.0000      -0.349500        -9.5104
  36   2.0000      -0.344630        -9.3778
  37   2.0000      -0.329384        -8.9630
  38   2.0000      -0.305992        -8.3265
  39   2.0000      -0.302601        -8.2342
  40   2.0000      -0.284939        -7.7536
  41   2.0000      -0.275079        -7.4853
  42   2.0000      -0.257153        -6.9975
  43   2.0000      -0.249640        -6.7931
  44   2.0000      -0.245180        -6.6717
  45   2.0000      -0.222914        -6.0658
  46   2.0000      -0.215479        -5.8635
  47   2.0000      -0.197692        -5.3795
  48   0.0000      -0.003426        -0.0932
  49   0.0000       0.011898         0.3238
  50   0.0000       0.033286         0.9058
  51   0.0000       0.048608         1.3227
  52   0.0000       0.072516         1.9733

MULLIKEN ATOMIC CHARGES
-----------------------
   0 C :    0.080309
   1 C :   -0.014603
   2 H :    0.052700
   3 C :    0.035646
   4 H :    0.070174
   5 C :    0.062996
   6 H :    0.060432
   7 C :   -0.052866
   8 H :    0.090196
   9 C :    0.239800
  10 H :    0.067492
  11 O :   -0.290474
  12 O :   -0.391834
  13 O :   -0.414976
  14 O :   -0.417238
  15 O :   -0.434791
  16 O :   -0.426474
  17 H :    0.083721
  18 H :    0.086178
  19 H :    0.301728
  20 H :    0.314483
  21 H :    0.308026
  22 H :    0.288981
  23 H :    0.300394
Sum of atomic charges:    0.0000000

LOEWDIN ATOMIC CHARGES
----------------------
   0 C :   -0.122935
   1 C :   -0.080689
   2 H :    0.098354
   3 C :   -0.084232
   4 H :    0.114305
   5 C :   -0.083700
   6 H :    0.096535
   7 C :   -0.091712
   8 H :    0.115878
   9 C :    0.011574
  10 H :    0.100730
  11 O :   -0.144165
  12 O :   -0.290748
  13 O :   -0.309030
  14 O :   -0.315097
  15 O :   -0.318645
  16 O :   -0.326463
  17 H :    0.100547
  18 H :    0.114629
  19 H :    0.280782
  20 H :    0.295914
  21 H :    0.289229
  22 H :    0.264968
  23 H :    0.283973

  Mayer bond orders larger than 0.100000
B(  0-C ,  1-C ) :   1.0469 B(  0-C , 16-O ) :   1.0769 B(  0-C , 17-H ) :   0.9217
B(  0-C , 18-H ) :   0.9132 B(  1-C ,  2-H ) :   0.8767 B(  1-C ,  3-C ) :   0.9669
B(  1-C , 11-O ) :   1.0405 B(  3-C ,  4-H ) :   0.8882 B(  3-C ,  5-C ) :   0.9751
B(  3-C , 15-O ) :   1.0152 B(  5-C ,  6-H ) :   0.8959 B(  5-C ,  7-C ) :   1.0043
B(  5-C , 14-O ) :   1.0459 B(  7-C ,  8-H ) :   0.9047 B(  7-C ,  9-C ) :   0.9480
B(  7-C , 13-O ) :   1.0340 B(  9-C , 10-H ) :   0.8994 B(  9-C , 11-O ) :   1.0241
B(  9-C , 12-O ) :   1.1427 B( 12-O , 19-H ) :   0.8329 B( 13-O , 20-H ) :   0.8394
B( 14-O , 21-H ) :   0.8415 B( 15-O , 22-H ) :   0.8178 B( 16-O , 23-H ) :   0.8409

Dispersion correction           -0.025206588
FINAL SINGLE POINT ENERGY      -685.689888525411

DIPOLE MOMENT
-------------

Method             : SCF
Type of density    : Electron Density
Multiplicity       :   1
Irrep              :   0
Energy             :  -685.8221634826786612 Eh
Relativity type    :
Basis              : AO
                                X                 Y                 Z
Electronic contribution:      1.833820243      -0.441861220      -0.649966499
Nuclear contribution   :     -1.375377648       1.355481128       1.031434327
                        -----------------------------------------
Total Dipole Moment    :      0.458442595       0.913619909       0.381467828
                        -----------------------------------------
Magnitude (a.u.)       :      1.091049337
Magnitude (Debye)      :      2.773227022

Rotational constants in cm-1:             0.043696             0.025933             0.022111
Rotational constants in MHz :          1309.967592           777.464965           662.868116

                             ****ORCA TERMINATED NORMALLY****
TOTAL RUN TIME: 0 days 0 hours 0 minutes 9 seconds 601 msec
