                         Program Version 6.0.1  -  RELEASE   -
|  1> ! pbe def2-sv(p) def2/J RI DEFGRID1 loosescf d4 GCP(DFT/SV(P)) printgap
|  2> %output
|  3>     printlevel normal
|  4> end
|  5> * xyz 0 1
|  6> C -0.5852113157 0.0130247967 0.4888087321
|  7> C 0.5852358437 -0.0115223008 -0.4888964646
|  8> O 1.7801260977 0.0125893905 0.2588090962
|  9> O -1.7801471999 -0.0139001163 -0.2587412001
| 10> H -0.5181075458 0.9226221813 1.10004565
| 11> H -0.5109742239 -0.8577512303 1.1534057699
| 12> H 0.5123685596 0.8605516007 -1.1519413461
| 13> H 0.5167981477 -0.9199166304 -1.1017743602
| 14> H 2.5263251068 -0.0011163069 -0.3490666381
| 15> H -2.5263673645 -0.0014881867 0.3492986378
| 16> *
| 17>
| 18>                          ****END OF INPUT****

CARTESIAN COORDINATES (ANGSTROEM)
---------------------------------
  C     -0.585211    0.013025    0.488809
  C      0.585236   -0.011522   -0.488896
  O      1.780126    0.012589    0.258809
  O     -1.780147   -0.013900   -0.258741
  H     -0.518108    0.922622    1.100046
  H     -0.510974   -0.857751    1.153406
  H      0.512369    0.860552   -1.151941
  H      0.516798   -0.919917   -1.101774
  H      2.526325   -0.001116   -0.349067
  H     -2.526367   -0.001488    0.349299

 Total Charge           Charge          ....    0
 Multiplicity           Mult            ....    1
 Number of Electrons    NEL             ....   34
 Basis Dimension        Dim             ....   68

ORBITAL ENERGIES
----------------

  NO   OCC          E(Eh)            E(eV)
   0   2.0000     -18.743134      -510.0266
   1   2.0000     -18.743056      -510.0245
   2   2.0000      -9.926238      -270.1067
   3   2.0000      -9.926186      -270.1052
   4   2.0000      -0.924892       -25.1676
   5   2.0000      -0.914474       -24.8841
   6   2.0000      -0.658501       -17.9187
   7   2.0000      -0.537097       -14.6151
   8   2.0000      -0.483993       -13.1701
   9   2.0000      -0.427826       -11.6417
  10   2.0000      -0.425955       -11.5908
  11   2.0000      -0.365768        -9.9530
  12   2.0000      -0.343286        -9.3413
  13   2.0000      -0.296105        -8.0574
  14   2.0000      -0.268335        -7.3018
  15   2.0000      -0.214947        -5.8490
  16   2.0000      -0.211208        -5.7473
  17   0.0000       0.021448         0.5836
  18   0.0000       0.038111         1.0370
  19   0.0000       0.089868         2.4454
  20   0.0000       0.094662         2.5759
  21   0.0000       0.105111         2.8602

MULLIKEN ATOMIC CHARGES
-----------------------
   0 C :   -0.016250
   1 C :   -0.016255
   2 O :   -0.439754
   3 O :   -0.439782
   4 H :    0.077480
   5 H :    0.077553
   6 H :    0.077519
   7 H :    0.077514
   8 H :    0.300978
   9 H :    0.300997
Sum of atomic charges:    0.0000000

LOEWDIN ATOMIC CHARGES
----------------------
   0 C :   -0.133147
   1 C :   -0.133143
   2 O :   -0.348102
   3 O :   -0.348107
   4 H :    0.097085
   5 H :    0.097131
   6 H :    0.097123
   7 H :    0.097093
   8 H :    0.287031
   9 H :    0.287037

  Mayer bond orders larger than 0.100000
B(  0-C ,  1-C ) :   1.1162 B(  0-C ,  3-O ) :   1.0823 B(  0-C ,  4-H ) :   0.9212
B(  0-C ,  5-H ) :   0.9213 B(  1-C ,  2-O ) :   1.0823 B(  1-C ,  6-H ) :   0.9213
B(  1-C ,  7-H ) :   0.9213 B(  2-O ,  8-H ) :   0.8544 B(  3-O ,  9-H ) :   0.8544

Dispersion correction           -0.004658795
FINAL SINGLE POINT ENERGY      -229.722386293159

DIPOLE MOMENT
-------------

Method             : SCF
Type of density    : Electron Density
Multiplicity       :   1
Irrep              :   0
Energy             :  -229.7729325680503507 Eh
Relativity type    :
Basis              : AO
                                X                 Y                 Z
Electronic contribution:      0.000008495      -0.002683241       0.000054898
Nuclear contribution   :      0.000039728       0.002702592      -0.000029284
                        -----------------------------------------
Total Dipole Moment    :      0.000048223       0.000019351       0.000025614
                        -----------------------------------------
Magnitude (a.u.)       :      0.000057931
Magnitude (Debye)      :      0.000147249

Rotational constants in cm-1:             1.032315             0.132855             0.123209
Rotational constants in MHz :         30948.011028          3982.892940          3693.716318

                             ****ORCA TERMINATED NORMALLY****
TOTAL RUN TIME: 0 days 0 hours 0 minutes 5 seconds 875 msec
