                         Program Version 6.0.0  -   RELEASE  -
|  1> ! r2SCAN-3c DEF2-TZVP FREQ
|  2> * xyzfile 0 1 censo.xyz
|  3>
|  4>                          ****END OF INPUT****

CARTESIAN COORDINATES (ANGSTROEM)
---------------------------------
  C      2.778048   -1.397057   -0.000108
  C      1.588859   -0.694613   -0.000130
  C      1.588858    0.694613   -0.000082
  C      2.778047    1.397058    0.000018
  C      3.981561    0.697434    0.000048
  C      3.981561   -0.697432   -0.000023
  Cl     5.471269   -1.600275   -0.000005
  Cl     5.471267    1.600279    0.000180
  O      0.412161    1.423855   -0.000139
  C     -0.751216    0.696295   -0.000093
  C     -0.751216   -0.696296   -0.000112
  C     -1.955494   -1.392571   -0.000035
  C     -3.170741   -0.698233    0.000026
  C     -3.170741    0.698231    0.000018
  C     -1.955495    1.392569   -0.000043
  Cl    -1.910579    3.123054   -0.000056
  Cl    -4.662166    1.574923    0.000078
  Cl    -4.662165   -1.574925    0.000120
  Cl    -1.910578   -3.123056   -0.000029
  O      0.412161   -1.423856   -0.000207
  H      2.759956   -2.480454   -0.000159
  H      2.759953    2.480455    0.000068

 Total Charge           Charge          ....    0
 Multiplicity           Mult            ....    1
 Number of Electrons    NEL             ....  192
 Basis Dimension        Dim             ....  668

ORBITAL ENERGIES
----------------

  NO   OCC          E(Eh)            E(eV)
   0   2.0000    -101.219188     -2754.3141
   1   2.0000    -101.219185     -2754.3140
   2   2.0000    -101.217200     -2754.2600
   3   2.0000    -101.217193     -2754.2598
   4   2.0000    -101.211765     -2754.1121
   5   2.0000    -101.211759     -2754.1120
   6   2.0000     -19.050167      -518.3814
   7   2.0000     -19.050153      -518.3810
   8   2.0000     -10.151233      -276.2291
   9   2.0000     -10.150806      -276.2175
  10   2.0000     -10.142310      -275.9863
  11   2.0000     -10.141869      -275.9743
  12   2.0000     -10.139815      -275.9184
  13   2.0000     -10.139414      -275.9075
  14   2.0000     -10.138231      -275.8753
  15   2.0000     -10.138230      -275.8753
  16   2.0000     -10.131376      -275.6888
  17   2.0000     -10.130960      -275.6774
  18   2.0000     -10.081142      -274.3218
  19   2.0000     -10.081128      -274.3214
  20   2.0000      -9.394766      -255.6446
  21   2.0000      -9.394764      -255.6445
  22   2.0000      -9.392840      -255.5922
  23   2.0000      -9.392834      -255.5920
  24   2.0000      -9.387461      -255.4458
  25   2.0000      -9.387456      -255.4457
  26   2.0000      -7.140241      -194.2958
  27   2.0000      -7.140240      -194.2958
  28   2.0000      -7.138254      -194.2418
  29   2.0000      -7.138253      -194.2417
  30   2.0000      -7.132707      -194.0908
  31   2.0000      -7.132705      -194.0908
  32   2.0000      -7.129702      -194.0091
  33   2.0000      -7.129702      -194.0091
  34   2.0000      -7.128757      -193.9833
  35   2.0000      -7.128755      -193.9833
  36   2.0000      -7.127804      -193.9574
  37   2.0000      -7.127803      -193.9574
  38   2.0000      -7.126834      -193.9310
  39   2.0000      -7.126833      -193.9310
  40   2.0000      -7.122372      -193.8096
  41   2.0000      -7.122371      -193.8096
  42   2.0000      -7.121692      -193.7911
  43   2.0000      -7.121692      -193.7911
  44   2.0000      -1.116063       -30.3696
  45   2.0000      -1.082363       -29.4526
  46   2.0000      -0.924438       -25.1552
  47   2.0000      -0.901221       -24.5235
  48   2.0000      -0.878534       -23.9061
  49   2.0000      -0.859542       -23.3893
  50   2.0000      -0.837563       -22.7913
  51   2.0000      -0.832372       -22.6500
  52   2.0000      -0.827154       -22.5080
  53   2.0000      -0.807608       -21.9761
  54   2.0000      -0.763520       -20.7764
  55   2.0000      -0.741435       -20.1755
  56   2.0000      -0.715878       -19.4800
  57   2.0000      -0.707393       -19.2491
  58   2.0000      -0.656387       -17.8612
  59   2.0000      -0.638714       -17.3803
  60   2.0000      -0.605964       -16.4891
  61   2.0000      -0.587200       -15.9785
  62   2.0000      -0.569585       -15.4992
  63   2.0000      -0.539889       -14.6911
  64   2.0000      -0.505717       -13.7613
  65   2.0000      -0.494133       -13.4460
  66   2.0000      -0.487452       -13.2642
  67   2.0000      -0.483437       -13.1550
  68   2.0000      -0.464568       -12.6415
  69   2.0000      -0.454204       -12.3595
  70   2.0000      -0.448933       -12.2161
  71   2.0000      -0.429834       -11.6964
  72   2.0000      -0.428591       -11.6625
  73   2.0000      -0.427254       -11.6262
  74   2.0000      -0.422910       -11.5080
  75   2.0000      -0.417790       -11.3687
  76   2.0000      -0.402074       -10.9410
  77   2.0000      -0.400813       -10.9067
  78   2.0000      -0.399545       -10.8722
  79   2.0000      -0.370787       -10.0896
  80   2.0000      -0.354429        -9.6445
  81   2.0000      -0.347126        -9.4458
  82   2.0000      -0.337678        -9.1887
  83   2.0000      -0.326570        -8.8864
  84   2.0000      -0.326479        -8.8839
  85   2.0000      -0.324040        -8.8176
  86   2.0000      -0.321104        -8.7377
  87   2.0000      -0.315148        -8.5756
  88   2.0000      -0.307966        -8.3802
  89   2.0000      -0.295570        -8.0429
  90   2.0000      -0.291344        -7.9279
  91   2.0000      -0.286506        -7.7962
  92   2.0000      -0.265289        -7.2189
  93   2.0000      -0.255187        -6.9440
  94   2.0000      -0.238779        -6.4975
  95   2.0000      -0.212536        -5.7834
  96   0.0000      -0.082954        -2.2573
  97   0.0000      -0.076503        -2.0817
  98   0.0000      -0.074728        -2.0335
  99   0.0000      -0.074640        -2.0310
 100   0.0000      -0.042538        -1.1575

MULLIKEN ATOMIC CHARGES
-----------------------
   0 C :   -0.342140
   1 C :    0.249947
   2 C :    0.250165
   3 C :   -0.342357
   4 C :    0.159845
   5 C :    0.159681
   6 Cl:   -0.073546
   7 Cl:   -0.073546
   8 O :   -0.228843
   9 C :    0.222132
  10 C :    0.222259
  11 C :   -0.090353
  12 C :    0.053152
  13 C :    0.053047
  14 C :   -0.090150
  15 Cl:   -0.044352
  16 Cl:   -0.041672
  17 Cl:   -0.041673
  18 Cl:   -0.044350
  19 O :   -0.228843
  20 H :    0.135801
  21 H :    0.135796
Sum of atomic charges:    0.0000000

LOEWDIN ATOMIC CHARGES
----------------------
   0 C :   -0.100681
   1 C :   -0.195399
   2 C :   -0.195398
   3 C :   -0.100681
   4 C :   -0.433709
   5 C :   -0.433709
   6 Cl:    0.416197
   7 Cl:    0.416198
   8 O :    0.343903
   9 C :   -0.215799
  10 C :   -0.215799
  11 C :   -0.418839
  12 C :   -0.454701
  13 C :   -0.454701
  14 C :   -0.418838
  15 Cl:    0.450787
  16 Cl:    0.445085
  17 Cl:    0.445085
  18 Cl:    0.450787
  19 O :    0.343903
  20 H :    0.163154
  21 H :    0.163153

  Mayer bond orders larger than 0.100000
B(  0-C ,  1-C ) :   1.3601 B(  0-C ,  5-C ) :   1.3205 B(  0-C , 20-H ) :   0.9823
B(  1-C ,  2-C ) :   1.3782 B(  1-C , 19-O ) :   0.9647 B(  2-C ,  3-C ) :   1.3600
B(  2-C ,  8-O ) :   0.9647 B(  3-C ,  4-C ) :   1.3204 B(  3-C , 21-H ) :   0.9823
B(  4-C ,  5-C ) :   1.2754 B(  4-C ,  7-Cl) :   1.0514 B(  5-C ,  6-Cl) :   1.0514
B(  8-O ,  9-C ) :   1.0790 B(  9-C , 10-C ) :   1.4386 B(  9-C , 14-C ) :   1.2363
B( 10-C , 11-C ) :   1.2362 B( 10-C , 19-O ) :   1.0790 B( 11-C , 12-C ) :   1.2513
B( 11-C , 18-Cl) :   1.2439 B( 12-C , 13-C ) :   1.3028 B( 12-C , 17-Cl) :   1.1827
B( 13-C , 14-C ) :   1.2513 B( 13-C , 16-Cl) :   1.1827 B( 14-C , 15-Cl) :   1.2439

Dispersion correction           -0.014554786
FINAL SINGLE POINT ENERGY     -3369.940164678466

DIPOLE MOMENT
-------------

Method             : SCF
Type of density    : Electron Density
Multiplicity       :   1
Irrep              :   0
Energy             : -3369.9400235444290956 Eh
Relativity type    :
Basis              : AO
                                X                 Y                 Z
Electronic contribution:     -8.056608726      -0.000000201       0.000483018
Nuclear contribution   :      8.147813592       0.000000543      -0.000503047
                        -----------------------------------------
Total Dipole Moment    :      0.091204867       0.000000342      -0.000020029
                        -----------------------------------------
Magnitude (a.u.)       :      0.091204869
Magnitude (Debye)      :      0.231824353

VIBRATIONAL FREQUENCIES
-----------------------

Scaling factor for frequencies =  1.000000000  (already applied!)

     0:       0.00 cm**-1
     1:       0.00 cm**-1
     2:       0.00 cm**-1
     3:       0.00 cm**-1
     4:       0.00 cm**-1
     5:       0.00 cm**-1
     6:      30.43 cm**-1
     7:      50.81 cm**-1
     8:      79.49 cm**-1
     9:      90.57 cm**-1
    10:      99.82 cm**-1
    11:     147.66 cm**-1
    12:     161.48 cm**-1
    13:     178.01 cm**-1
    14:     194.80 cm**-1
    15:     208.61 cm**-1
    16:     211.20 cm**-1
    17:     224.38 cm**-1
    18:     224.69 cm**-1
    19:     264.68 cm**-1
    20:     266.18 cm**-1
    21:     334.87 cm**-1
    22:     346.84 cm**-1
    23:     347.99 cm**-1
    24:     359.43 cm**-1
    25:     365.33 cm**-1
    26:     387.87 cm**-1
    27:     451.59 cm**-1
    28:     452.77 cm**-1
    29:     458.90 cm**-1
    30:     571.24 cm**-1
    31:     586.61 cm**-1
    32:     607.53 cm**-1
    33:     618.14 cm**-1
    34:     618.92 cm**-1
    35:     638.51 cm**-1
    36:     671.75 cm**-1
    37:     674.86 cm**-1
    38:     702.28 cm**-1
    39:     706.55 cm**-1
    40:     744.80 cm**-1
    41:     834.86 cm**-1
    42:     851.78 cm**-1
    43:     852.98 cm**-1
    44:     883.48 cm**-1
    45:     943.46 cm**-1
    46:     967.52 cm**-1
    47:     996.90 cm**-1
    48:    1112.76 cm**-1
    49:    1166.11 cm**-1
    50:    1197.60 cm**-1
    51:    1243.66 cm**-1
    52:    1244.59 cm**-1
    53:    1299.63 cm**-1
    54:    1319.64 cm**-1
    55:    1348.39 cm**-1
    56:    1381.63 cm**-1
    57:    1411.07 cm**-1
    58:    1435.09 cm**-1
    59:    1496.79 cm**-1
    60:    1579.72 cm**-1
    61:    1581.08 cm**-1
    62:    1635.37 cm**-1
    63:    1647.03 cm**-1
    64:    3203.12 cm**-1
    65:    3203.94 cm**-1

IR SPECTRUM
-----------

 Mode   freq       eps      Int      T**2         TX        TY        TZ
       cm**-1   L/(mol*cm) km/mol    a.u.
----------------------------------------------------------------------------
  6:     30.43   0.000009    0.05  0.000097  ( 0.000007  0.000007 -0.009851)
  7:     50.81   0.000000    0.00  0.000000  ( 0.000005  0.000015 -0.000000)
  8:     79.49   0.000005    0.03  0.000021  ( 0.000000  0.000003  0.004566)
  9:     90.57   0.000000    0.00  0.000000  ( 0.000001  0.000007  0.000000)
 10:     99.82   0.000000    0.00  0.000000  ( 0.000000 -0.000279 -0.000000)
 11:    147.66   0.000000    0.00  0.000000  (-0.000004 -0.000015  0.000000)
 12:    161.48   0.000037    0.18  0.000071  (-0.000007  0.000002  0.008399)
 13:    178.01   0.000002    0.01  0.000003  (-0.001793 -0.000000 -0.000001)
 14:    194.80   0.000028    0.14  0.000046  (-0.000007  0.000005  0.006749)
 15:    208.61   0.000050    0.25  0.000075  ( 0.008654 -0.000000 -0.000001)
 16:    211.20   0.000000    0.00  0.000000  (-0.000000 -0.000607  0.000000)
 17:    224.38   0.000087    0.44  0.000122  ( 0.000000  0.011028  0.000001)
 18:    224.69   0.000002    0.01  0.000003  (-0.001616  0.000000  0.000000)
 19:    264.68   0.000007    0.04  0.000009  (-0.002959 -0.000000 -0.000001)
 20:    266.18   0.000000    0.00  0.000000  (-0.000000 -0.000002  0.000000)
 21:    334.87   0.000000    0.00  0.000000  (-0.000574  0.000000  0.000001)
 22:    346.84   0.000000    0.00  0.000000  (-0.000002 -0.000009  0.000001)
 23:    347.99   0.000016    0.08  0.000014  (-0.000000  0.003766  0.000001)
 24:    359.43   0.000115    0.58  0.000100  (-0.000000  0.010011  0.000003)
 25:    365.33   0.000089    0.45  0.000076  ( 0.000006 -0.000007  0.008736)
 26:    387.87   0.000170    0.86  0.000136  ( 0.000006 -0.000006 -0.011683)
 27:    451.59   0.004319   21.83  0.002985  ( 0.054634 -0.000000 -0.000005)
 28:    452.77   0.000849    4.29  0.000585  (-0.000011 -0.000005 -0.024192)
 29:    458.90   0.000135    0.68  0.000092  (-0.000000 -0.009589  0.000000)
 30:    571.24   0.000000    0.00  0.000000  ( 0.000420 -0.000000 -0.000004)
 31:    586.61   0.003586   18.12  0.001908  (-0.000000  0.043678  0.000000)
 32:    607.53   0.000128    0.65  0.000066  ( 0.000006  0.000013  0.008121)
 33:    618.14   0.000000    0.00  0.000000  (-0.000002 -0.000030  0.000000)
 34:    618.92   0.000353    1.78  0.000178  ( 0.000000 -0.013332 -0.000001)
 35:    638.51   0.000000    0.00  0.000000  (-0.000000 -0.000007 -0.000000)
 36:    671.75   0.000000    0.00  0.000000  ( 0.000011 -0.000010 -0.000001)
 37:    674.86   0.001847    9.33  0.000854  ( 0.029224  0.000000  0.000004)
 38:    702.28   0.003591   18.15  0.001595  ( 0.000000 -0.039944  0.000002)
 39:    706.55   0.000000    0.00  0.000000  ( 0.000010  0.000015 -0.000002)
 40:    744.80   0.000811    4.10  0.000340  (-0.018433 -0.000000  0.000003)
 41:    834.86   0.016412   82.94  0.006135  (-0.000000  0.078323  0.000001)
 42:    851.78   0.019986  101.00  0.007322  (-0.085570 -0.000000  0.000001)
 43:    852.98   0.000000    0.00  0.000000  ( 0.000016 -0.000006 -0.000000)
 44:    883.48   0.007030   35.53  0.002483  ( 0.000001 -0.000008 -0.049833)
 45:    943.46   0.000175    0.88  0.000058  (-0.000000  0.007604  0.000002)
 46:    967.52   0.044080  222.76  0.014218  ( 0.119237 -0.000000 -0.000001)
 47:    996.90   0.004604   23.27  0.001441  ( 0.000001  0.037962  0.000002)
 48:   1112.76   0.024640  124.52  0.006910  (-0.083126  0.000000 -0.000002)
 49:   1166.11   0.008041   40.63  0.002152  (-0.000000 -0.046387 -0.000001)
 50:   1197.60   0.000072    0.37  0.000019  (-0.000000 -0.004345  0.000002)
 51:   1243.66   0.010142   51.25  0.002545  (-0.050447 -0.000001 -0.000001)
 52:   1244.59   0.000629    3.18  0.000158  (-0.000002  0.012560  0.000001)
 53:   1299.63   0.021831  110.32  0.005242  ( 0.072401 -0.000000  0.000001)
 54:   1319.64   0.015678   79.23  0.003708  ( 0.060889 -0.000000 -0.000000)
 55:   1348.39   0.000587    2.97  0.000136  (-0.011655 -0.000000 -0.000002)
 56:   1381.63   0.006662   33.67  0.001505  (-0.000000  0.038790 -0.000001)
 57:   1411.07   0.015408   77.87  0.003408  (-0.000000  0.058374  0.000000)
 58:   1435.09   0.193931  980.05  0.042171  (-0.205355 -0.000000  0.000004)
 59:   1496.79   0.088086  445.15  0.018365  ( 0.135517  0.000000  0.000004)
 60:   1579.72   0.012106   61.18  0.002391  ( 0.048903 -0.000000  0.000000)
 61:   1581.08   0.000128    0.65  0.000025  (-0.000001 -0.005027 -0.000002)
 62:   1635.37   0.002217   11.20  0.000423  ( 0.020566  0.000000  0.000000)
 63:   1647.03   0.000265    1.34  0.000050  ( 0.000000 -0.007090 -0.000001)
 64:   3203.12   0.000935    4.72  0.000091  ( 0.000002 -0.009543 -0.000000)
 65:   3203.94   0.000131    0.66  0.000013  (-0.003573 -0.000006 -0.000000)

--------------------------
THERMOCHEMISTRY AT 298.15K
--------------------------

Temperature         ...   298.15 K
Pressure            ...     1.00 atm
Total Mass          ...   390.86 AMU
Quasi RRHO          ...     True
Cut-Off Frequency   ...     1.00 cm^-1

Throughout the following assumptions are being made:
  (1) The electronic state is orbitally nondegenerate
  (2) There are no thermally accessible electronically excited states
  (3) Hindered rotations indicated by low frequency modes are not
      treated as such but are treated as vibrations and this may
      cause some error
  (4) All equations used are the standard statistical mechanics
      equations for an ideal gas
  (5) All vibrations are strictly harmonic

freq.      30.43  E(vib)   ...       0.55
freq.      50.81  E(vib)   ...       0.52
freq.      79.49  E(vib)   ...       0.49
freq.      90.57  E(vib)   ...       0.47
freq.      99.82  E(vib)   ...       0.46
freq.     147.66  E(vib)   ...       0.41
freq.     161.48  E(vib)   ...       0.39
freq.     178.01  E(vib)   ...       0.37
freq.     194.80  E(vib)   ...       0.36
freq.     208.61  E(vib)   ...       0.34
freq.     211.20  E(vib)   ...       0.34
freq.     224.38  E(vib)   ...       0.33
freq.     224.69  E(vib)   ...       0.33
freq.     264.68  E(vib)   ...       0.29
freq.     266.18  E(vib)   ...       0.29
freq.     334.87  E(vib)   ...       0.24
freq.     346.84  E(vib)   ...       0.23
freq.     347.99  E(vib)   ...       0.23
freq.     359.43  E(vib)   ...       0.22
freq.     365.33  E(vib)   ...       0.22
freq.     387.87  E(vib)   ...       0.20
freq.     451.59  E(vib)   ...       0.16
freq.     452.77  E(vib)   ...       0.16
freq.     458.90  E(vib)   ...       0.16
freq.     571.24  E(vib)   ...       0.11
freq.     586.61  E(vib)   ...       0.11
freq.     607.53  E(vib)   ...       0.10
freq.     618.14  E(vib)   ...       0.09
freq.     618.92  E(vib)   ...       0.09
freq.     638.51  E(vib)   ...       0.09
freq.     671.75  E(vib)   ...       0.08
freq.     674.86  E(vib)   ...       0.08
freq.     702.28  E(vib)   ...       0.07
freq.     706.55  E(vib)   ...       0.07
freq.     744.80  E(vib)   ...       0.06
freq.     834.86  E(vib)   ...       0.04
freq.     851.78  E(vib)   ...       0.04
freq.     852.98  E(vib)   ...       0.04
freq.     883.48  E(vib)   ...       0.04
freq.     943.46  E(vib)   ...       0.03
freq.     967.52  E(vib)   ...       0.03
freq.     996.90  E(vib)   ...       0.02
freq.    1112.76  E(vib)   ...       0.01
freq.    1166.11  E(vib)   ...       0.01
freq.    1197.60  E(vib)   ...       0.01
freq.    1243.66  E(vib)   ...       0.01
freq.    1244.59  E(vib)   ...       0.01
freq.    1299.63  E(vib)   ...       0.01
freq.    1319.64  E(vib)   ...       0.01
freq.    1348.39  E(vib)   ...       0.01
freq.    1381.63  E(vib)   ...       0.01
freq.    1411.07  E(vib)   ...       0.00
freq.    1435.09  E(vib)   ...       0.00
freq.    1496.79  E(vib)   ...       0.00
freq.    1579.72  E(vib)   ...       0.00
freq.    1581.08  E(vib)   ...       0.00
freq.    1635.37  E(vib)   ...       0.00
freq.    1647.03  E(vib)   ...       0.00
freq.    3203.12  E(vib)   ...       0.00
freq.    3203.94  E(vib)   ...       0.00

------------
INNER ENERGY
------------

The inner energy is: U= E(el) + E(ZPE) + E(vib) + E(rot) + E(trans)
    E(el)   - is the total energy from the electronic structure calculation
              = E(kin-el) + E(nuc-el) + E(el-el) + E(nuc-nuc)
    E(ZPE)  - the the zero temperature vibrational energy from the frequency calculation
    E(vib)  - the the finite temperature correction to E(ZPE) due to population
              of excited vibrational states
    E(rot)  - is the rotational thermal energy
    E(trans)- is the translational thermal energy

Summary of contributions to the inner energy U:
Electronic energy                ...  -3369.94016468 Eh
Zero point energy                ...      0.10916471 Eh      68.50 kcal/mol
Thermal vibrational correction   ...      0.01442363 Eh       9.05 kcal/mol
Thermal rotational correction    ...      0.00141627 Eh       0.89 kcal/mol
Thermal translational correction ...      0.00141627 Eh       0.89 kcal/mol
-----------------------------------------------------------------------
Total thermal energy                  -3369.81374380 Eh

Summary of corrections to the electronic energy:
(perhaps to be used in another calculation)
Total thermal correction                  0.01725617 Eh      10.83 kcal/mol
Non-thermal (ZPE) correction              0.10916471 Eh      68.50 kcal/mol
-----------------------------------------------------------------------
Total correction                          0.12642088 Eh      79.33 kcal/mol

--------
ENTHALPY
--------

The enthalpy is H = U + kB*T
                kB is Boltzmann's constant
Total thermal energy              ...  -3369.81374380 Eh
Thermal Enthalpy correction       ...      0.00094421 Eh       0.59 kcal/mol
-----------------------------------------------------------------------
Total Enthalpy                    ...  -3369.81279959 Eh

Note: Only C1 symmetry has been detected, increase convergence thresholds
      if your molecule has a higher symmetry. Symmetry factor of 1.0 is
      used for the rotational entropy correction.

Note: Rotational entropy computed according to Herzberg
Infrared and Raman Spectra, Chapter V,1, Van Nostrand Reinhold, 1945
Point Group:  C1, Symmetry Number:   1
Rotational constants in cm-1:     0.013311     0.003428     0.002726

Vibrational entropy computed according to the QRRHO of S. Grimme
Chem.Eur.J. 2012 18 9955 using a reference frequency of 100.0 cm-1

-------
ENTROPY
-------

The entropy contributions are T*S = T*(S(el)+S(vib)+S(rot)+S(trans))
     S(el)   - electronic entropy
     S(vib)  - vibrational entropy
     S(rot)  - rotational entropy
     S(trans)- translational entropy
The entropies will be listed as multiplied by the temperature to get
units of energy

Electronic entropy                ...      0.00000000 Eh      0.00 kcal/mol
Vibrational entropy               ...      0.02519302 Eh     15.81 kcal/mol
Rotational entropy                ...      0.01701689 Eh     10.68 kcal/mol
Translational entropy             ...      0.02080189 Eh     13.05 kcal/mol
-----------------------------------------------------------------------
Final entropy term                ...      0.06301180 Eh     39.54 kcal/mol

In case the symmetry of your molecule has not been determined correctly
or in case you have a reason to use a different symmetry number we print
out the resulting rotational entropy values for sn=1,12:

 non-linear molecules -----------------------------------

                             ****ORCA TERMINATED NORMALLY****
TOTAL RUN TIME: 0 days 0 hours 48 minutes 11 seconds 833 msec
