                         Program Version 6.0.0  -   RELEASE  -
|  1> ! r2SCAN-3c DEF2-TZVP FREQ
|  2> * xyzfile 0 1 vacuum_censo.xyz
|  3>
|  4>                          ****END OF INPUT****

CARTESIAN COORDINATES (ANGSTROEM)
---------------------------------
  C      2.776920   -1.393688   -0.000109
  C      1.584271   -0.695321   -0.000138
  C      1.584271    0.695320   -0.000092
  C      2.776919    1.393688    0.000012
  C      3.984462    0.698342    0.000047
  C      3.984462   -0.698340   -0.000021
  Cl     5.467274   -1.601489    0.000004
  Cl     5.467272    1.601492    0.000177
  O      0.413003    1.421888   -0.000156
  C     -0.749952    0.696714   -0.000102
  C     -0.749952   -0.696715   -0.000123
  C     -1.954246   -1.395982   -0.000040
  C     -3.170229   -0.699523    0.000027
  C     -3.170229    0.699521    0.000021
  C     -1.954246    1.395980   -0.000046
  Cl    -1.907270    3.123183   -0.000058
  Cl    -4.658943    1.573836    0.000091
  Cl    -4.658943   -1.573838    0.000126
  Cl    -1.907270   -3.123185   -0.000037
  O      0.413003   -1.421890   -0.000223
  H      2.761311   -2.476800   -0.000157
  H      2.761308    2.476800    0.000060

 Total Charge           Charge          ....    0
 Multiplicity           Mult            ....    1
 Number of Electrons    NEL             ....  192
 Basis Dimension        Dim             ....  668

ORBITAL ENERGIES
----------------

  NO   OCC          E(Eh)            E(eV)
   0   2.0000    -101.219427     -2754.3206
   1   2.0000    -101.219424     -2754.3206
   2   2.0000    -101.217204     -2754.2601
   3   2.0000    -101.217197     -2754.2600
   4   2.0000    -101.211624     -2754.1083
   5   2.0000    -101.211618     -2754.1081
   6   2.0000     -19.050147      -518.3809
   7   2.0000     -19.050134      -518.3805
   8   2.0000     -10.151309      -276.2312
   9   2.0000     -10.150884      -276.2196
  10   2.0000     -10.141560      -275.9659
  11   2.0000     -10.141126      -275.9541
  12   2.0000     -10.139778      -275.9174
  13   2.0000     -10.139389      -275.9068
  14   2.0000     -10.138330      -275.8780
  15   2.0000     -10.138329      -275.8779
  16   2.0000     -10.130611      -275.6679
  17   2.0000     -10.130201      -275.6568
  18   2.0000     -10.080311      -274.2992
  19   2.0000     -10.080298      -274.2988
  20   2.0000      -9.395057      -255.6525
  21   2.0000      -9.395055      -255.6524
  22   2.0000      -9.392918      -255.5943
  23   2.0000      -9.392912      -255.5941
  24   2.0000      -9.387415      -255.4445
  25   2.0000      -9.387409      -255.4444
  26   2.0000      -7.140516      -194.3033
  27   2.0000      -7.140515      -194.3033
  28   2.0000      -7.138302      -194.2431
  29   2.0000      -7.138301      -194.2430
  30   2.0000      -7.132629      -194.0887
  31   2.0000      -7.132627      -194.0887
  32   2.0000      -7.129997      -194.0171
  33   2.0000      -7.129997      -194.0171
  34   2.0000      -7.129044      -193.9912
  35   2.0000      -7.129043      -193.9911
  36   2.0000      -7.127889      -193.9597
  37   2.0000      -7.127888      -193.9597
  38   2.0000      -7.126915      -193.9332
  39   2.0000      -7.126915      -193.9332
  40   2.0000      -7.122329      -193.8084
  41   2.0000      -7.122329      -193.8084
  42   2.0000      -7.121646      -193.7898
  43   2.0000      -7.121645      -193.7898
  44   2.0000      -1.118186       -30.4274
  45   2.0000      -1.084420       -29.5086
  46   2.0000      -0.924426       -25.1549
  47   2.0000      -0.901024       -24.5181
  48   2.0000      -0.879344       -23.9282
  49   2.0000      -0.860239       -23.4083
  50   2.0000      -0.838481       -22.8162
  51   2.0000      -0.832564       -22.6552
  52   2.0000      -0.828045       -22.5322
  53   2.0000      -0.807272       -21.9670
  54   2.0000      -0.763115       -20.7654
  55   2.0000      -0.741020       -20.1642
  56   2.0000      -0.715451       -19.4684
  57   2.0000      -0.706606       -19.2277
  58   2.0000      -0.656683       -17.8693
  59   2.0000      -0.638185       -17.3659
  60   2.0000      -0.605888       -16.4870
  61   2.0000      -0.587484       -15.9863
  62   2.0000      -0.569164       -15.4877
  63   2.0000      -0.539874       -14.6907
  64   2.0000      -0.506323       -13.7777
  65   2.0000      -0.493722       -13.4348
  66   2.0000      -0.488212       -13.2849
  67   2.0000      -0.483284       -13.1508
  68   2.0000      -0.464750       -12.6465
  69   2.0000      -0.454246       -12.3607
  70   2.0000      -0.448082       -12.1929
  71   2.0000      -0.429623       -11.6906
  72   2.0000      -0.429366       -11.6837
  73   2.0000      -0.427503       -11.6329
  74   2.0000      -0.424008       -11.5378
  75   2.0000      -0.418012       -11.3747
  76   2.0000      -0.402094       -10.9415
  77   2.0000      -0.401406       -10.9228
  78   2.0000      -0.399320       -10.8660
  79   2.0000      -0.371387       -10.1060
  80   2.0000      -0.354724        -9.6525
  81   2.0000      -0.346331        -9.4241
  82   2.0000      -0.338059        -9.1991
  83   2.0000      -0.326955        -8.8969
  84   2.0000      -0.326635        -8.8882
  85   2.0000      -0.323879        -8.8132
  86   2.0000      -0.321169        -8.7395
  87   2.0000      -0.314616        -8.5611
  88   2.0000      -0.308373        -8.3913
  89   2.0000      -0.295846        -8.0504
  90   2.0000      -0.290903        -7.9159
  91   2.0000      -0.286868        -7.8061
  92   2.0000      -0.264362        -7.1937
  93   2.0000      -0.254489        -6.9250
  94   2.0000      -0.238327        -6.4852
  95   2.0000      -0.211632        -5.7588
  96   0.0000      -0.083014        -2.2589
  97   0.0000      -0.076695        -2.0870
  98   0.0000      -0.073895        -2.0108
  99   0.0000      -0.073073        -1.9884
 100   0.0000      -0.042246        -1.1496

MULLIKEN ATOMIC CHARGES
-----------------------
   0 C :   -0.342043
   1 C :    0.250131
   2 C :    0.250174
   3 C :   -0.342086
   4 C :    0.157259
   5 C :    0.157201
   6 Cl:   -0.071554
   7 Cl:   -0.071553
   8 O :   -0.229248
   9 C :    0.223047
  10 C :    0.222877
  11 C :   -0.091367
  12 C :    0.052861
  13 C :    0.053002
  14 C :   -0.091566
  15 Cl:   -0.042651
  16 Cl:   -0.040920
  17 Cl:   -0.040922
  18 Cl:   -0.042649
  19 O :   -0.229245
  20 H :    0.134625
  21 H :    0.134627
Sum of atomic charges:   -0.0000000

LOEWDIN ATOMIC CHARGES
----------------------
   0 C :   -0.101391
   1 C :   -0.199490
   2 C :   -0.199490
   3 C :   -0.101391
   4 C :   -0.439206
   5 C :   -0.439205
   6 Cl:    0.421864
   7 Cl:    0.421865
   8 O :    0.348388
   9 C :   -0.215971
  10 C :   -0.215971
  11 C :   -0.421945
  12 C :   -0.457409
  13 C :   -0.457409
  14 C :   -0.421946
  15 Cl:    0.454157
  16 Cl:    0.448439
  17 Cl:    0.448440
  18 Cl:    0.454157
  19 O :    0.348388
  20 H :    0.162563
  21 H :    0.162563

  Mayer bond orders larger than 0.100000
B(  0-C ,  1-C ) :   1.3615 B(  0-C ,  5-C ) :   1.3200 B(  0-C , 20-H ) :   0.9821
B(  1-C ,  2-C ) :   1.3739 B(  1-C , 19-O ) :   0.9682 B(  2-C ,  3-C ) :   1.3616
B(  2-C ,  8-O ) :   0.9683 B(  3-C ,  4-C ) :   1.3200 B(  3-C , 21-H ) :   0.9820
B(  4-C ,  5-C ) :   1.2745 B(  4-C ,  7-Cl) :   1.0550 B(  5-C ,  6-Cl) :   1.0551
B(  8-O ,  9-C ) :   1.0746 B(  9-C , 10-C ) :   1.4399 B(  9-C , 14-C ) :   1.2353
B( 10-C , 11-C ) :   1.2355 B( 10-C , 19-O ) :   1.0746 B( 11-C , 12-C ) :   1.2510
B( 11-C , 18-Cl) :   1.2468 B( 12-C , 13-C ) :   1.3018 B( 12-C , 17-Cl) :   1.1837
B( 13-C , 14-C ) :   1.2508 B( 13-C , 16-Cl) :   1.1837 B( 14-C , 15-Cl) :   1.2468

Dispersion correction           -0.014561296
FINAL SINGLE POINT ENERGY     -3369.940625706265

DIPOLE MOMENT
-------------

Method             : SCF
Type of density    : Electron Density
Multiplicity       :   1
Irrep              :   0
Energy             : -3369.9405057792209846 Eh
Relativity type    :
Basis              : AO
                                X                 Y                 Z
Electronic contribution:     -8.074661843       0.000000519       0.000518357
Nuclear contribution   :      8.146947234      -0.000000294      -0.000539057
                        -----------------------------------------
Total Dipole Moment    :      0.072285390       0.000000225      -0.000020701
                        -----------------------------------------
Magnitude (a.u.)       :      0.072285393
Magnitude (Debye)      :      0.183734867

VIBRATIONAL FREQUENCIES
-----------------------

Scaling factor for frequencies =  1.000000000  (already applied!)

     0:       0.00 cm**-1
     1:       0.00 cm**-1
     2:       0.00 cm**-1
     3:       0.00 cm**-1
     4:       0.00 cm**-1
     5:       0.00 cm**-1
     6:      29.18 cm**-1
     7:      49.88 cm**-1
     8:      78.77 cm**-1
     9:      89.55 cm**-1
    10:      99.58 cm**-1
    11:     145.93 cm**-1
    12:     157.12 cm**-1
    13:     177.62 cm**-1
    14:     191.12 cm**-1
    15:     207.64 cm**-1
    16:     210.54 cm**-1
    17:     223.83 cm**-1
    18:     224.20 cm**-1
    19:     264.98 cm**-1
    20:     265.16 cm**-1
    21:     335.68 cm**-1
    22:     347.07 cm**-1
    23:     349.11 cm**-1
    24:     360.52 cm**-1
    25:     364.96 cm**-1
    26:     386.04 cm**-1
    27:     451.17 cm**-1
    28:     453.78 cm**-1
    29:     460.99 cm**-1
    30:     571.37 cm**-1
    31:     588.94 cm**-1
    32:     608.65 cm**-1
    33:     619.25 cm**-1
    34:     621.35 cm**-1
    35:     639.63 cm**-1
    36:     673.78 cm**-1
    37:     678.38 cm**-1
    38:     705.69 cm**-1
    39:     708.14 cm**-1
    40:     748.35 cm**-1
    41:     837.80 cm**-1
    42:     852.23 cm**-1
    43:     856.08 cm**-1
    44:     882.28 cm**-1
    45:     950.79 cm**-1
    46:     971.03 cm**-1
    47:    1002.84 cm**-1
    48:    1116.07 cm**-1
    49:    1178.94 cm**-1
    50:    1202.10 cm**-1
    51:    1246.37 cm**-1
    52:    1246.64 cm**-1
    53:    1303.14 cm**-1
    54:    1313.48 cm**-1
    55:    1341.79 cm**-1
    56:    1380.94 cm**-1
    57:    1408.83 cm**-1
    58:    1434.77 cm**-1
    59:    1500.78 cm**-1
    60:    1575.08 cm**-1
    61:    1576.23 cm**-1
    62:    1630.59 cm**-1
    63:    1646.07 cm**-1
    64:    3205.46 cm**-1
    65:    3206.32 cm**-1

IR SPECTRUM
-----------

 Mode   freq       eps      Int      T**2         TX        TY        TZ
       cm**-1   L/(mol*cm) km/mol    a.u.
----------------------------------------------------------------------------
  6:     29.18   0.000009    0.04  0.000095  ( 0.000007  0.000006 -0.009735)
  7:     49.88   0.000000    0.00  0.000000  ( 0.000007  0.000016 -0.000000)
  8:     78.77   0.000005    0.02  0.000019  ( 0.000000  0.000005  0.004320)
  9:     89.55   0.000000    0.00  0.000000  ( 0.000001  0.000009  0.000000)
 10:     99.58   0.000000    0.00  0.000000  ( 0.000000  0.000380  0.000000)
 11:    145.93   0.000000    0.00  0.000000  (-0.000007 -0.000016  0.000000)
 12:    157.12   0.000033    0.17  0.000065  (-0.000008  0.000003  0.008063)
 13:    177.62   0.000001    0.01  0.000002  ( 0.001566  0.000000  0.000001)
 14:    191.12   0.000022    0.11  0.000036  (-0.000009  0.000006  0.005988)
 15:    207.64   0.000050    0.25  0.000075  (-0.008650  0.000000  0.000001)
 16:    210.54   0.000000    0.00  0.000001  (-0.000000 -0.000714  0.000000)
 17:    223.83   0.000084    0.42  0.000117  (-0.000000  0.010807  0.000000)
 18:    224.20   0.000002    0.01  0.000003  ( 0.001653  0.000000 -0.000000)
 19:    264.98   0.000000    0.00  0.000000  ( 0.000008 -0.000003  0.000001)
 20:    265.16   0.000006    0.03  0.000007  (-0.002621 -0.000000 -0.000001)
 21:    335.68   0.000000    0.00  0.000000  (-0.000644  0.000000  0.000001)
 22:    347.07   0.000000    0.00  0.000000  ( 0.000003  0.000007 -0.000001)
 23:    349.11   0.000012    0.06  0.000011  ( 0.000000 -0.003340 -0.000001)
 24:    360.52   0.000100    0.50  0.000086  (-0.000000  0.009299  0.000003)
 25:    364.96   0.000092    0.47  0.000079  ( 0.000008 -0.000007  0.008877)
 26:    386.04   0.000146    0.74  0.000118  (-0.000007  0.000005  0.010852)
 27:    451.17   0.000874    4.42  0.000605  ( 0.000009 -0.000004 -0.024588)
 28:    453.78   0.004134   20.89  0.002843  (-0.053319  0.000000 -0.000004)
 29:    460.99   0.000123    0.62  0.000083  (-0.000001 -0.009115 -0.000000)
 30:    571.37   0.000001    0.00  0.000000  (-0.000647  0.000000  0.000004)
 31:    588.94   0.003399   17.18  0.001801  ( 0.000000 -0.042441 -0.000000)
 32:    608.65   0.000126    0.64  0.000064  ( 0.000007  0.000014  0.008028)
 33:    619.25   0.000000    0.00  0.000000  (-0.000001 -0.000018 -0.000001)
 34:    621.35   0.000404    2.04  0.000203  (-0.000000  0.014246  0.000001)
 35:    639.63   0.000000    0.00  0.000000  (-0.000002 -0.000011  0.000001)
 36:    673.78   0.000000    0.00  0.000000  ( 0.000008 -0.000012  0.000001)
 37:    678.38   0.001658    8.38  0.000763  (-0.027620 -0.000000 -0.000004)
 38:    705.69   0.003481   17.59  0.001539  (-0.000000  0.039236 -0.000001)
 39:    708.14   0.000000    0.00  0.000000  ( 0.000012  0.000006 -0.000000)
 40:    748.35   0.000891    4.51  0.000372  ( 0.019281  0.000000 -0.000004)
 41:    837.80   0.016425   83.00  0.006118  (-0.000001  0.078218  0.000001)
 42:    852.23   0.000000    0.00  0.000000  (-0.000003 -0.000011 -0.000002)
 43:    856.08   0.019094   96.49  0.006960  (-0.083429 -0.000001  0.000001)
 44:    882.28   0.006986   35.31  0.002471  ( 0.000000 -0.000008 -0.049710)
 45:    950.79   0.000204    1.03  0.000067  ( 0.000000 -0.008179 -0.000002)
 46:    971.03   0.041435  209.40  0.013316  (-0.115396  0.000000  0.000001)
 47:   1002.84   0.004790   24.21  0.001491  (-0.000000 -0.038609 -0.000002)
 48:   1116.07   0.024677  124.71  0.006900  ( 0.083067  0.000000  0.000002)
 49:   1178.94   0.007887   39.86  0.002088  (-0.000000 -0.045692 -0.000001)
 50:   1202.10   0.000081    0.41  0.000021  (-0.000000 -0.004597  0.000002)
 51:   1246.37   0.007872   39.78  0.001971  ( 0.044396  0.000003  0.000001)
 52:   1246.64   0.000868    4.39  0.000217  (-0.000009  0.014744  0.000001)
 53:   1303.14   0.005943   30.03  0.001423  (-0.037725 -0.000000 -0.000001)
 54:   1313.48   0.028787  145.48  0.006839  ( 0.082701 -0.000000  0.000001)
 55:   1341.79   0.000468    2.37  0.000109  ( 0.010436  0.000000  0.000002)
 56:   1380.94   0.006458   32.64  0.001459  ( 0.000000 -0.038203  0.000000)
 57:   1408.83   0.015865   80.17  0.003514  ( 0.000000 -0.059280 -0.000000)
 58:   1434.77   0.193212  976.41  0.042024  ( 0.204997  0.000000 -0.000004)
 59:   1500.78   0.099706  503.87  0.020732  (-0.143987 -0.000000 -0.000005)
 60:   1575.08   0.014580   73.68  0.002889  ( 0.053746 -0.000000  0.000000)
 61:   1576.23   0.000134    0.68  0.000027  ( 0.000006  0.005153  0.000002)
 62:   1630.59   0.003191   16.13  0.000611  ( 0.024714  0.000000  0.000000)
 63:   1646.07   0.000235    1.19  0.000044  (-0.000000  0.006669  0.000001)
 64:   3205.46   0.000802    4.05  0.000078  (-0.000001 -0.008836 -0.000000)
 65:   3206.32   0.000136    0.69  0.000013  (-0.003644  0.000002 -0.000000)

--------------------------
THERMOCHEMISTRY AT 298.15K
--------------------------

Temperature         ...   298.15 K
Pressure            ...     1.00 atm
Total Mass          ...   390.86 AMU
Quasi RRHO          ...     True
Cut-Off Frequency   ...     1.00 cm^-1

Throughout the following assumptions are being made:
  (1) The electronic state is orbitally nondegenerate
  (2) There are no thermally accessible electronically excited states
  (3) Hindered rotations indicated by low frequency modes are not
      treated as such but are treated as vibrations and this may
      cause some error
  (4) All equations used are the standard statistical mechanics
      equations for an ideal gas
  (5) All vibrations are strictly harmonic

freq.      29.18  E(vib)   ...       0.55
freq.      49.88  E(vib)   ...       0.52
freq.      78.77  E(vib)   ...       0.49
freq.      89.55  E(vib)   ...       0.47
freq.      99.58  E(vib)   ...       0.46
freq.     145.93  E(vib)   ...       0.41
freq.     157.12  E(vib)   ...       0.40
freq.     177.62  E(vib)   ...       0.37
freq.     191.12  E(vib)   ...       0.36
freq.     207.64  E(vib)   ...       0.34
freq.     210.54  E(vib)   ...       0.34
freq.     223.83  E(vib)   ...       0.33
freq.     224.20  E(vib)   ...       0.33
freq.     264.98  E(vib)   ...       0.29
freq.     265.16  E(vib)   ...       0.29
freq.     335.68  E(vib)   ...       0.24
freq.     347.07  E(vib)   ...       0.23
freq.     349.11  E(vib)   ...       0.23
freq.     360.52  E(vib)   ...       0.22
freq.     364.96  E(vib)   ...       0.22
freq.     386.04  E(vib)   ...       0.20
freq.     451.17  E(vib)   ...       0.16
freq.     453.78  E(vib)   ...       0.16
freq.     460.99  E(vib)   ...       0.16
freq.     571.37  E(vib)   ...       0.11
freq.     588.94  E(vib)   ...       0.10
freq.     608.65  E(vib)   ...       0.10
freq.     619.25  E(vib)   ...       0.09
freq.     621.35  E(vib)   ...       0.09
freq.     639.63  E(vib)   ...       0.09
freq.     673.78  E(vib)   ...       0.08
freq.     678.38  E(vib)   ...       0.08
freq.     705.69  E(vib)   ...       0.07
freq.     708.14  E(vib)   ...       0.07
freq.     748.35  E(vib)   ...       0.06
freq.     837.80  E(vib)   ...       0.04
freq.     852.23  E(vib)   ...       0.04
freq.     856.08  E(vib)   ...       0.04
freq.     882.28  E(vib)   ...       0.04
freq.     950.79  E(vib)   ...       0.03
freq.     971.03  E(vib)   ...       0.03
freq.    1002.84  E(vib)   ...       0.02
freq.    1116.07  E(vib)   ...       0.01
freq.    1178.94  E(vib)   ...       0.01
freq.    1202.10  E(vib)   ...       0.01
freq.    1246.37  E(vib)   ...       0.01
freq.    1246.64  E(vib)   ...       0.01
freq.    1303.14  E(vib)   ...       0.01
freq.    1313.48  E(vib)   ...       0.01
freq.    1341.79  E(vib)   ...       0.01
freq.    1380.94  E(vib)   ...       0.01
freq.    1408.83  E(vib)   ...       0.00
freq.    1434.77  E(vib)   ...       0.00
freq.    1500.78  E(vib)   ...       0.00
freq.    1575.08  E(vib)   ...       0.00
freq.    1576.23  E(vib)   ...       0.00
freq.    1630.59  E(vib)   ...       0.00
freq.    1646.07  E(vib)   ...       0.00
freq.    3205.46  E(vib)   ...       0.00
freq.    3206.32  E(vib)   ...       0.00

------------
INNER ENERGY
------------

The inner energy is: U= E(el) + E(ZPE) + E(vib) + E(rot) + E(trans)
    E(el)   - is the total energy from the electronic structure calculation
              = E(kin-el) + E(nuc-el) + E(el-el) + E(nuc-nuc)
    E(ZPE)  - the the zero temperature vibrational energy from the frequency calculation
    E(vib)  - the the finite temperature correction to E(ZPE) due to population
              of excited vibrational states
    E(rot)  - is the rotational thermal energy
    E(trans)- is the translational thermal energy

Summary of contributions to the inner energy U:
Electronic energy                ...  -3369.94062571 Eh
Zero point energy                ...      0.10924860 Eh      68.55 kcal/mol
Thermal vibrational correction   ...      0.01443525 Eh       9.06 kcal/mol
Thermal rotational correction    ...      0.00141627 Eh       0.89 kcal/mol
Thermal translational correction ...      0.00141627 Eh       0.89 kcal/mol
-----------------------------------------------------------------------
Total thermal energy                  -3369.81410931 Eh

Summary of corrections to the electronic energy:
(perhaps to be used in another calculation)
Total thermal correction                  0.01726780 Eh      10.84 kcal/mol
Non-thermal (ZPE) correction              0.10924860 Eh      68.55 kcal/mol
-----------------------------------------------------------------------
Total correction                          0.12651640 Eh      79.39 kcal/mol

--------
ENTHALPY
--------

The enthalpy is H = U + kB*T
                kB is Boltzmann's constant
Total thermal energy              ...  -3369.81410931 Eh
Thermal Enthalpy correction       ...      0.00094421 Eh       0.59 kcal/mol
-----------------------------------------------------------------------
Total Enthalpy                    ...  -3369.81316510 Eh

Note: Only C1 symmetry has been detected, increase convergence thresholds
      if your molecule has a higher symmetry. Symmetry factor of 1.0 is
      used for the rotational entropy correction.

Note: Rotational entropy computed according to Herzberg
Infrared and Raman Spectra, Chapter V,1, Van Nostrand Reinhold, 1945
Point Group:  C1, Symmetry Number:   1
Rotational constants in cm-1:     0.013311     0.003433     0.002729

Vibrational entropy computed according to the QRRHO of S. Grimme
Chem.Eur.J. 2012 18 9955 using a reference frequency of 100.0 cm-1

-------
ENTROPY
-------

The entropy contributions are T*S = T*(S(el)+S(vib)+S(rot)+S(trans))
     S(el)   - electronic entropy
     S(vib)  - vibrational entropy
     S(rot)  - rotational entropy
     S(trans)- translational entropy
The entropies will be listed as multiplied by the temperature to get
units of energy

Electronic entropy                ...      0.00000000 Eh      0.00 kcal/mol
Vibrational entropy               ...      0.02526017 Eh     15.85 kcal/mol
Rotational entropy                ...      0.01701580 Eh     10.68 kcal/mol
Translational entropy             ...      0.02080189 Eh     13.05 kcal/mol
-----------------------------------------------------------------------
Final entropy term                ...      0.06307787 Eh     39.58 kcal/mol

In case the symmetry of your molecule has not been determined correctly
or in case you have a reason to use a different symmetry number we print
out the resulting rotational entropy values for sn=1,12:

 non-linear molecules -----------------------------------

                             ****ORCA TERMINATED NORMALLY****
TOTAL RUN TIME: 0 days 0 hours 48 minutes 33 seconds 689 msec
