                         Program Version 6.0.1  -  RELEASE   -
|  1> ! r2scan-3c def2/J RI DEFGRID2 scfconv6 printgap
|  2> %output
|  3>     printlevel normal
|  4> end
|  5> * xyz 0 1
|  6> C -2.5639633558 0.9671546648 4.76007e-05
|  7> C -1.2338700961 0.2813220135 -9.63567e-05
|  8> C -1.1498544891 -1.1097279626 -2.01954e-05
|  9> C 0.1002408389 -1.6988427748 0.0001202077
| 10> N 1.2324885413 -1.0145436825 -5.93086e-05
| 11> C 1.1694343392 0.3089432257 -0.0001630549
| 12> C -0.0443670088 0.9928958643 -4.30523e-05
| 13> C 2.4715953107 1.0480549475 4.19487e-05
| 14> H -3.1342625925 0.6808923407 0.8829955335
| 15> H -2.4467387044 2.0478644707 -0.0057877383
| 16> H -3.1394189532 0.6716706788 -0.8764033564
| 17> H -2.0447936324 -1.7135014416 -7.52566e-05
| 18> H 0.2103299403 -2.7759334997 8.96159e-05
| 19> H -0.0518751208 2.073520147 -3.28944e-05
| 20> H 2.5422672813 1.6910664179 -0.8757578861
| 21> H 2.5504100803 1.6748906326 0.8868624475
| 22> H 3.2917133205 0.3366236722 -0.0097208175
| 23> *
| 24>
| 25>                          ****END OF INPUT****

CARTESIAN COORDINATES (ANGSTROEM)
---------------------------------
  C     -2.563963    0.967155    0.000048
  C     -1.233870    0.281322   -0.000096
  C     -1.149854   -1.109728   -0.000020
  C      0.100241   -1.698843    0.000120
  N      1.232489   -1.014544   -0.000059
  C      1.169434    0.308943   -0.000163
  C     -0.044367    0.992896   -0.000043
  C      2.471595    1.048055    0.000042
  H     -3.134263    0.680892    0.882996
  H     -2.446739    2.047864   -0.005788
  H     -3.139419    0.671671   -0.876403
  H     -2.044794   -1.713501   -0.000075
  H      0.210330   -2.775933    0.000090
  H     -0.051875    2.073520   -0.000033
  H      2.542267    1.691066   -0.875758
  H      2.550410    1.674891    0.886862
  H      3.291713    0.336624   -0.009721

 Total Charge           Charge          ....    0
 Multiplicity           Mult            ....    1
 Number of Electrons    NEL             ....   58
 Basis Dimension        Dim             ....  202

ORBITAL ENERGIES
----------------

  NO   OCC          E(Eh)            E(eV)
   0   2.0000     -14.142855      -384.8466
   1   2.0000     -10.069755      -274.0120
   2   2.0000     -10.059695      -273.7382
   3   2.0000     -10.058004      -273.6922
   4   2.0000     -10.037005      -273.1208
   5   2.0000     -10.033988      -273.0387
   6   2.0000     -10.033973      -273.0383
   7   2.0000     -10.021562      -272.7006
   8   2.0000      -0.910337       -24.7715
   9   2.0000      -0.788995       -21.4696
  10   2.0000      -0.748386       -20.3646
  11   2.0000      -0.682736       -18.5782
  12   2.0000      -0.664399       -18.0792
  13   2.0000      -0.592060       -16.1108
  14   2.0000      -0.549704       -14.9582
  15   2.0000      -0.469905       -12.7868
  16   2.0000      -0.463599       -12.6152
  17   2.0000      -0.425124       -11.5682
  18   2.0000      -0.409671       -11.1477
  19   2.0000      -0.393023       -10.6947
  20   2.0000      -0.382844       -10.4177
  21   2.0000      -0.375701       -10.2233
  22   2.0000      -0.362124        -9.8539
  23   2.0000      -0.343880        -9.3574
  24   2.0000      -0.340022        -9.2525
  25   2.0000      -0.318896        -8.6776
  26   2.0000      -0.253841        -6.9074
  27   2.0000      -0.233598        -6.3565
  28   2.0000      -0.217269        -5.9122
  29   0.0000      -0.042078        -1.1450
  30   0.0000      -0.036207        -0.9852
  31   0.0000       0.074635         2.0309
  32   0.0000       0.102289         2.7834
  33   0.0000       0.106281         2.8921

MULLIKEN ATOMIC CHARGES
-----------------------
   0 C :   -0.542923
   1 C :    0.178039
   2 C :   -0.150075
   3 C :   -0.118991
   4 N :   -0.188771
   5 C :    0.280298
   6 C :   -0.257978
   7 C :   -0.603866
   8 H :    0.164866
   9 H :    0.153134
  10 H :    0.164523
  11 H :    0.148928
  12 H :    0.132060
  13 H :    0.151200
  14 H :    0.153980
  15 H :    0.154606
  16 H :    0.180971
Sum of atomic charges:   -0.0000000

LOEWDIN ATOMIC CHARGES
----------------------
   0 C :   -0.387690
   1 C :   -0.060502
   2 C :   -0.157560
   3 C :    0.086127
   4 N :   -0.629439
   5 C :    0.130477
   6 C :   -0.146987
   7 C :   -0.363183
   8 H :    0.168383
   9 H :    0.160150
  10 H :    0.168286
  11 H :    0.170859
  12 H :    0.183298
  13 H :    0.171002
  14 H :    0.165301
  15 H :    0.165567
  16 H :    0.175910

  Mayer bond orders larger than 0.100000
B(  0-C ,  1-C ) :   0.7984 B(  0-C ,  8-H ) :   0.9747 B(  0-C ,  9-H ) :   0.9931
B(  0-C , 10-H ) :   0.9750 B(  1-C ,  2-C ) :   1.3209 B(  1-C ,  4-N ) :   0.1025
B(  1-C ,  6-C ) :   1.4409 B(  2-C ,  3-C ) :   1.3886 B(  2-C , 11-H ) :   0.9385
B(  3-C ,  4-N ) :   1.4513 B(  3-C , 12-H ) :   0.9881 B(  4-N ,  5-C ) :   1.3570
B(  5-C ,  6-C ) :   1.4115 B(  5-C ,  7-C ) :   0.8249 B(  6-C , 13-H ) :   0.9050
B(  7-C , 14-H ) :   0.9690 B(  7-C , 15-H ) :   0.9680 B(  7-C , 16-H ) :   1.0014

Dispersion correction           -0.005202420
FINAL SINGLE POINT ENERGY      -326.824364113500

DIPOLE MOMENT
-------------

Method             : SCF
Type of density    : Electron Density
Multiplicity       :   1
Irrep              :   0
Energy             :  -326.8269155255476335 Eh
Relativity type    :
Basis              : AO
                                X                 Y                 Z
Electronic contribution:      1.341923294      -3.843351384      -0.001143335
Nuclear contribution   :     -2.078198347       4.391720808       0.002035170
                        -----------------------------------------
Total Dipole Moment    :     -0.736275053       0.548369424       0.000891835
                        -----------------------------------------
Magnitude (a.u.)       :      0.918047261
Magnitude (Debye)      :      2.333490693

Rotational constants in cm-1:             0.128292             0.059864             0.041445
Rotational constants in MHz :          3846.103212          1794.679911          1242.491882

                             ****ORCA TERMINATED NORMALLY****
TOTAL RUN TIME: 0 days 0 hours 0 minutes 16 seconds 656 msec
