                         Program Version 6.0.1  -  RELEASE   -
|  1> ! r2scan-3c def2/J RI DEFGRID2 scfconv6 printgap
|  2> %output
|  3>     printlevel normal
|  4> end
|  5> * xyz 0 1
|  6> C -1.7894231112 0.3796398727 0.4923379999
|  7> C -0.7551727315 0.4316074564 -0.6275597603
|  8> N 0.5106498148 -0.1191609568 -0.1071381646
|  9> O 0.6849882448 -1.3068735475 -0.2253852842
| 10> O 1.2683559257 0.6520138465 0.4278631649
| 11> H -2.7345984324 0.780902092 0.1378681099
| 12> H -1.9457284495 -0.6472088421 0.8152192608
| 13> H -1.4561314282 0.9712049854 1.3420827447
| 14> H -0.5739831979 1.4619144082 -0.9369532941
| 15> H -1.0698073414 -0.1831214009 -1.4720415159
| 16> *
| 17>
| 18>                          ****END OF INPUT****

CARTESIAN COORDINATES (ANGSTROEM)
---------------------------------
  C     -1.789423    0.379640    0.492338
  C     -0.755173    0.431607   -0.627560
  N      0.510650   -0.119161   -0.107138
  O      0.684988   -1.306874   -0.225385
  O      1.268356    0.652014    0.427863
  H     -2.734598    0.780902    0.137868
  H     -1.945728   -0.647209    0.815219
  H     -1.456131    0.971205    1.342083
  H     -0.573983    1.461914   -0.936953
  H     -1.069807   -0.183121   -1.472042

 Total Charge           Charge          ....    0
 Multiplicity           Mult            ....    1
 Number of Electrons    NEL             ....   40
 Basis Dimension        Dim             ....  135

ORBITAL ENERGIES
----------------

  NO   OCC          E(Eh)            E(eV)
   0   2.0000     -18.985661      -516.6261
   1   2.0000     -18.985515      -516.6221
   2   2.0000     -14.392191      -391.6314
   3   2.0000     -10.099619      -274.8246
   4   2.0000     -10.055782      -273.6317
   5   2.0000      -1.212432       -32.9919
   6   2.0000      -1.035885       -28.1879
   7   2.0000      -0.808660       -22.0047
   8   2.0000      -0.680818       -18.5260
   9   2.0000      -0.575060       -15.6482
  10   2.0000      -0.524126       -14.2622
  11   2.0000      -0.501756       -13.6535
  12   2.0000      -0.493319       -13.4239
  13   2.0000      -0.446444       -12.1484
  14   2.0000      -0.394310       -10.7297
  15   2.0000      -0.374307       -10.1854
  16   2.0000      -0.358586        -9.7576
  17   2.0000      -0.295396        -8.0381
  18   2.0000      -0.274105        -7.4588
  19   2.0000      -0.260613        -7.0916
  20   0.0000      -0.097919        -2.6645
  21   0.0000       0.077991         2.1222
  22   0.0000       0.087941         2.3930
  23   0.0000       0.104277         2.8375
  24   0.0000       0.132483         3.6050

MULLIKEN ATOMIC CHARGES
-----------------------
   0 C :   -0.462800
   1 C :   -0.219769
   2 N :    0.219725
   3 O :   -0.191377
   4 O :   -0.190723
   5 H :    0.159275
   6 H :    0.167101
   7 H :    0.167471
   8 H :    0.175384
   9 H :    0.175712
Sum of atomic charges:    0.0000000

LOEWDIN ATOMIC CHARGES
----------------------
   0 C :   -0.360964
   1 C :    0.016464
   2 N :   -0.545245
   3 O :    0.003317
   4 O :    0.003565
   5 H :    0.161375
   6 H :    0.165604
   7 H :    0.165796
   8 H :    0.195074
   9 H :    0.195014

  Mayer bond orders larger than 0.100000
B(  0-C ,  1-C ) :   0.9164 B(  0-C ,  5-H ) :   0.9666 B(  0-C ,  6-H ) :   0.9664
B(  0-C ,  7-H ) :   0.9664 B(  1-C ,  2-N ) :   0.8415 B(  1-C ,  8-H ) :   0.9563
B(  1-C ,  9-H ) :   0.9566 B(  2-N ,  3-O ) :   1.8642 B(  2-N ,  4-O ) :   1.8648
B(  3-O ,  4-O ) :   0.2816

Dispersion correction           -0.001897847
FINAL SINGLE POINT ENERGY      -284.281205946712

DIPOLE MOMENT
-------------

Method             : SCF
Type of density    : Electron Density
Multiplicity       :   1
Irrep              :   0
Energy             :  -284.2903778944502164 Eh
Relativity type    :
Basis              : AO
                                X                 Y                 Z
Electronic contribution:      5.985389078      -1.711712199      -0.284403724
Nuclear contribution   :     -7.267456896       2.225952567      -0.104375272
                        -----------------------------------------
Total Dipole Moment    :     -1.282067818       0.514240368      -0.388778996
                        -----------------------------------------
Magnitude (a.u.)       :      1.435022701
Magnitude (Debye)      :      3.647537832

Rotational constants in cm-1:             0.308701             0.144420             0.118542
Rotational constants in MHz :          9254.618360          4329.610281          3553.798459

                             ****ORCA TERMINATED NORMALLY****
TOTAL RUN TIME: 0 days 0 hours 0 minutes 15 seconds 494 msec
