                         Program Version 6.0.0  -   RELEASE  -
|  1> ! r2SCAN-3c DEF2-TZVP FREQ
|  2> * xyzfile 0 1 censo.xyz
|  3>
|  4>                          ****END OF INPUT****

CARTESIAN COORDINATES (ANGSTROEM)
---------------------------------
  C      1.840038   -0.119860    0.000000
  C      0.605142    0.399944   -0.000049
  C     -0.605141   -0.399945    0.000153
  C     -1.840037    0.119859    0.000079
  H      2.721186    0.514247    0.000016
  H      1.996084   -1.196410    0.000124
  H      0.472625    1.482033   -0.000105
  H     -0.472625   -1.482034    0.000178
  H     -2.721185   -0.514249    0.000071
  H     -1.996085    1.196408   -0.000040

 Total Charge           Charge          ....    0
 Multiplicity           Mult            ....    1
 Number of Electrons    NEL             ....   30
 Basis Dimension        Dim             ....  160

ORBITAL ENERGIES
----------------

  NO   OCC          E(Eh)            E(eV)
   0   2.0000     -10.043412      -273.2951
   1   2.0000     -10.043159      -273.2882
   2   2.0000     -10.033651      -273.0295
   3   2.0000     -10.033646      -273.0294
   4   2.0000      -0.775873       -21.1126
   5   2.0000      -0.702738       -19.1225
   6   2.0000      -0.576180       -15.6787
   7   2.0000      -0.522701       -14.2234
   8   2.0000      -0.436572       -11.8797
   9   2.0000      -0.433270       -11.7899
  10   2.0000      -0.363122        -9.8811
  11   2.0000      -0.357237        -9.7209
  12   2.0000      -0.318076        -8.6553
  13   2.0000      -0.306965        -8.3530
  14   2.0000      -0.219603        -5.9757
  15   0.0000      -0.061248        -1.6667
  16   0.0000       0.033316         0.9066
  17   0.0000       0.073031         1.9873
  18   0.0000       0.084236         2.2922
  19   0.0000       0.088911         2.4194

MULLIKEN ATOMIC CHARGES
-----------------------
   0 C :   -0.265150
   1 C :   -0.072851
   2 C :   -0.072852
   3 C :   -0.265149
   4 H :    0.125172
   5 H :    0.115657
   6 H :    0.097172
   7 H :    0.097172
   8 H :    0.125172
   9 H :    0.115657
Sum of atomic charges:   -0.0000000

LOEWDIN ATOMIC CHARGES
----------------------
   0 C :   -0.194781
   1 C :   -0.193110
   2 C :   -0.193110
   3 C :   -0.194781
   4 H :    0.121580
   5 H :    0.122125
   6 H :    0.144186
   7 H :    0.144186
   8 H :    0.121580
   9 H :    0.122125

  Mayer bond orders larger than 0.100000
B(  0-C ,  1-C ) :   1.8213 B(  0-C ,  3-C ) :   0.1346 B(  0-C ,  4-H ) :   0.9639
B(  0-C ,  5-H ) :   0.9624 B(  1-C ,  2-C ) :   1.0468 B(  1-C ,  6-H ) :   0.9600
B(  2-C ,  3-C ) :   1.8213 B(  2-C ,  7-H ) :   0.9600 B(  3-C ,  8-H ) :   0.9639
B(  3-C ,  9-H ) :   0.9624

Dispersion correction           -0.001862720
FINAL SINGLE POINT ENERGY      -155.948647958041

DIPOLE MOMENT
-------------

Method             : SCF
Type of density    : Electron Density
Multiplicity       :   1
Irrep              :   0
Energy             :  -155.9493152566688536 Eh
Relativity type    :
Basis              : AO
                                X                 Y                 Z
Electronic contribution:      0.000000157       0.000000667       0.000020810
Nuclear contribution   :     -0.000000043      -0.000000642      -0.000024295
                        -----------------------------------------
Total Dipole Moment    :      0.000000114       0.000000024      -0.000003486
                        -----------------------------------------
Magnitude (a.u.)       :      0.000003488
Magnitude (Debye)      :      0.000008865

VIBRATIONAL FREQUENCIES
-----------------------

Scaling factor for frequencies =  1.000000000  (already applied!)

     0:       0.00 cm**-1
     1:       0.00 cm**-1
     2:       0.00 cm**-1
     3:       0.00 cm**-1
     4:       0.00 cm**-1
     5:       0.00 cm**-1
     6:     185.95 cm**-1
     7:     311.68 cm**-1
     8:     527.01 cm**-1
     9:     544.70 cm**-1
    10:     789.10 cm**-1
    11:     906.46 cm**-1
    12:     924.07 cm**-1
    13:     925.81 cm**-1
    14:     992.56 cm**-1
    15:    1006.24 cm**-1
    16:    1053.51 cm**-1
    17:    1229.34 cm**-1
    18:    1311.02 cm**-1
    19:    1316.96 cm**-1
    20:    1409.68 cm**-1
    21:    1470.39 cm**-1
    22:    1632.63 cm**-1
    23:    1677.48 cm**-1
    24:    3109.75 cm**-1
    25:    3113.64 cm**-1
    26:    3117.45 cm**-1
    27:    3124.23 cm**-1
    28:    3207.59 cm**-1
    29:    3207.74 cm**-1

IR SPECTRUM
-----------

 Mode   freq       eps      Int      T**2         TX        TY        TZ
       cm**-1   L/(mol*cm) km/mol    a.u.
----------------------------------------------------------------------------
  6:    185.95   0.000148    0.75  0.000248  (-0.000099  0.000018 -0.015734)
  7:    311.68   0.000551    2.79  0.000552  (-0.022886 -0.005326  0.000002)
  8:    527.01   0.000000    0.00  0.000000  (-0.000000 -0.000000  0.000002)
  9:    544.70   0.002483   12.55  0.001423  ( 0.000016  0.000001 -0.037719)
 10:    789.10   0.000000    0.00  0.000000  ( 0.000003 -0.000000  0.000000)
 11:    906.46   0.000000    0.00  0.000000  (-0.000000 -0.000000 -0.000001)
 12:    924.07   0.017442   88.15  0.005890  ( 0.000014  0.000002  0.076749)
 13:    925.81   0.000000    0.00  0.000000  (-0.000001 -0.000000  0.000001)
 14:    992.56   0.000000    0.00  0.000000  (-0.000001 -0.000000  0.000000)
 15:   1006.24   0.000382    1.93  0.000118  (-0.010791 -0.001395 -0.000011)
 16:   1053.51   0.007159   36.18  0.002121  (-0.000042  0.000011 -0.046051)
 17:   1229.34   0.000000    0.00  0.000000  ( 0.000000 -0.000000 -0.000000)
 18:   1311.02   0.000000    0.00  0.000000  ( 0.000000  0.000000 -0.000000)
 19:   1316.96   0.000535    2.70  0.000127  (-0.001324 -0.011184  0.000002)
 20:   1409.68   0.000778    3.93  0.000172  (-0.007738  0.010602 -0.000003)
 21:   1470.39   0.000000    0.00  0.000000  ( 0.000000  0.000000  0.000000)
 22:   1632.63   0.004703   23.76  0.000899  ( 0.029131 -0.007089 -0.000001)
 23:   1677.48   0.000000    0.00  0.000000  (-0.000000  0.000000 -0.000000)
 24:   3109.75   0.000000    0.00  0.000000  (-0.000000  0.000000  0.000000)
 25:   3113.64   0.003023   15.28  0.000303  ( 0.010193 -0.014111  0.000001)
 26:   3117.45   0.000000    0.00  0.000000  ( 0.000000 -0.000000 -0.000000)
 27:   3124.23   0.003236   16.35  0.000323  (-0.002961 -0.017732  0.000003)
 28:   3207.59   0.000000    0.00  0.000000  (-0.000004 -0.000010  0.000000)
 29:   3207.74   0.004155   21.00  0.000404  ( 0.007155  0.018788 -0.000002)

--------------------------
THERMOCHEMISTRY AT 298.15K
--------------------------

Temperature         ...   298.15 K
Pressure            ...     1.00 atm
Total Mass          ...    54.09 AMU
Quasi RRHO          ...     True
Cut-Off Frequency   ...     1.00 cm^-1

Throughout the following assumptions are being made:
  (1) The electronic state is orbitally nondegenerate
  (2) There are no thermally accessible electronically excited states
  (3) Hindered rotations indicated by low frequency modes are not
      treated as such but are treated as vibrations and this may
      cause some error
  (4) All equations used are the standard statistical mechanics
      equations for an ideal gas
  (5) All vibrations are strictly harmonic

freq.     185.95  E(vib)   ...       0.37
freq.     311.68  E(vib)   ...       0.25
freq.     527.01  E(vib)   ...       0.13
freq.     544.70  E(vib)   ...       0.12
freq.     789.10  E(vib)   ...       0.05
freq.     906.46  E(vib)   ...       0.03
freq.     924.07  E(vib)   ...       0.03
freq.     925.81  E(vib)   ...       0.03
freq.     992.56  E(vib)   ...       0.02
freq.    1006.24  E(vib)   ...       0.02
freq.    1053.51  E(vib)   ...       0.02
freq.    1229.34  E(vib)   ...       0.01
freq.    1311.02  E(vib)   ...       0.01
freq.    1316.96  E(vib)   ...       0.01
freq.    1409.68  E(vib)   ...       0.00
freq.    1470.39  E(vib)   ...       0.00
freq.    1632.63  E(vib)   ...       0.00
freq.    1677.48  E(vib)   ...       0.00
freq.    3109.75  E(vib)   ...       0.00
freq.    3113.64  E(vib)   ...       0.00
freq.    3117.45  E(vib)   ...       0.00
freq.    3124.23  E(vib)   ...       0.00
freq.    3207.59  E(vib)   ...       0.00
freq.    3207.74  E(vib)   ...       0.00

------------
INNER ENERGY
------------

The inner energy is: U= E(el) + E(ZPE) + E(vib) + E(rot) + E(trans)
    E(el)   - is the total energy from the electronic structure calculation
              = E(kin-el) + E(nuc-el) + E(el-el) + E(nuc-nuc)
    E(ZPE)  - the the zero temperature vibrational energy from the frequency calculation
    E(vib)  - the the finite temperature correction to E(ZPE) due to population
              of excited vibrational states
    E(rot)  - is the rotational thermal energy
    E(trans)- is the translational thermal energy

Summary of contributions to the inner energy U:
Electronic energy                ...   -155.94864796 Eh
Zero point energy                ...      0.08450858 Eh      53.03 kcal/mol
Thermal vibrational correction   ...      0.00177719 Eh       1.12 kcal/mol
Thermal rotational correction    ...      0.00141627 Eh       0.89 kcal/mol
Thermal translational correction ...      0.00141627 Eh       0.89 kcal/mol
-----------------------------------------------------------------------
Total thermal energy                   -155.85952965 Eh

Summary of corrections to the electronic energy:
(perhaps to be used in another calculation)
Total thermal correction                  0.00460973 Eh       2.89 kcal/mol
Non-thermal (ZPE) correction              0.08450858 Eh      53.03 kcal/mol
-----------------------------------------------------------------------
Total correction                          0.08911831 Eh      55.92 kcal/mol

--------
ENTHALPY
--------

The enthalpy is H = U + kB*T
                kB is Boltzmann's constant
Total thermal energy              ...   -155.85952965 Eh
Thermal Enthalpy correction       ...      0.00094421 Eh       0.59 kcal/mol
-----------------------------------------------------------------------
Total Enthalpy                    ...   -155.85858544 Eh

Note: Rotational entropy computed according to Herzberg
Infrared and Raman Spectra, Chapter V,1, Van Nostrand Reinhold, 1945
Point Group:  Ci, Symmetry Number:   1
Rotational constants in cm-1:     1.400796     0.148473     0.134244

Vibrational entropy computed according to the QRRHO of S. Grimme
Chem.Eur.J. 2012 18 9955 using a reference frequency of 100.0 cm-1

-------
ENTROPY
-------

The entropy contributions are T*S = T*(S(el)+S(vib)+S(rot)+S(trans))
     S(el)   - electronic entropy
     S(vib)  - vibrational entropy
     S(rot)  - rotational entropy
     S(trans)- translational entropy
The entropies will be listed as multiplied by the temperature to get
units of energy

Electronic entropy                ...      0.00000000 Eh      0.00 kcal/mol
Vibrational entropy               ...      0.00274316 Eh      1.72 kcal/mol
Rotational entropy                ...      0.01120014 Eh      7.03 kcal/mol
Translational entropy             ...      0.01800097 Eh     11.30 kcal/mol
-----------------------------------------------------------------------
Final entropy term                ...      0.03194427 Eh     20.05 kcal/mol

In case the symmetry of your molecule has not been determined correctly
or in case you have a reason to use a different symmetry number we print
out the resulting rotational entropy values for sn=1,12:

 non-linear molecules -----------------------------------
|  sn= 1 | S(rot)=       0.01120014 Eh      7.03 kcal/mol|
|  sn= 2 | S(rot)=       0.01054568 Eh      6.62 kcal/mol|
|  sn= 3 | S(rot)=       0.01016285 Eh      6.38 kcal/mol|
|  sn= 4 | S(rot)=       0.00989123 Eh      6.21 kcal/mol|
|  sn= 5 | S(rot)=       0.00968054 Eh      6.07 kcal/mol|
|  sn= 6 | S(rot)=       0.00950840 Eh      5.97 kcal/mol|
|  sn= 7 | S(rot)=       0.00936285 Eh      5.88 kcal/mol|
|  sn= 8 | S(rot)=       0.00923677 Eh      5.80 kcal/mol|
|  sn= 9 | S(rot)=       0.00912556 Eh      5.73 kcal/mol|
|  sn=10 | S(rot)=       0.00902608 Eh      5.66 kcal/mol|
|  sn=11 | S(rot)=       0.00893609 Eh      5.61 kcal/mol|
|  sn=12 | S(rot)=       0.00885394 Eh      5.56 kcal/mol|
 linear molecules ---------------------------------------
|  Dinfh | S(rot)=       0.00722181 Eh      4.53 kcal/mol|
|  Cinfv | S(rot)=       0.00787627 Eh      4.94 kcal/mol|
 --------------------------------------------------------

-------------------
GIBBS FREE ENERGY
-------------------

The Gibbs free energy is G = H - T*S

Total enthalpy                    ...   -155.85858544 Eh
Total entropy correction          ...     -0.03194427 Eh    -20.05 kcal/mol
-----------------------------------------------------------------------
Final Gibbs free energy         ...   -155.89052970 Eh

For completeness - the Gibbs free energy minus the electronic energy
G-E(el)                           ...      0.05811825 Eh     36.47 kcal/mol

                             ****ORCA TERMINATED NORMALLY****
TOTAL RUN TIME: 0 days 0 hours 2 minutes 31 seconds 950 msec
