                         Program Version 6.0.0  -   RELEASE  -
|  1> ! r2SCAN-3c DEF2-TZVP FREQ
|  2> * xyzfile 0 1 vacuum_censo.xyz
|  3>
|  4>                          ****END OF INPUT****

CARTESIAN COORDINATES (ANGSTROEM)
---------------------------------
  C      1.840662   -0.118997    0.000091
  C      0.605907    0.397381    0.000043
  C     -0.605907   -0.397398    0.000007
  C     -1.840661    0.118978    0.000032
  H      2.721819    0.513008    0.000026
  H      1.999409   -1.194206    0.000028
  H      0.475531    1.479291    0.000006
  H     -0.475522   -1.479305   -0.000010
  H     -2.721813   -0.513033    0.000025
  H     -1.999412    1.194186    0.000043

 Total Charge           Charge          ....    0
 Multiplicity           Mult            ....    1
 Number of Electrons    NEL             ....   30
 Basis Dimension        Dim             ....  160

ORBITAL ENERGIES
----------------

  NO   OCC          E(Eh)            E(eV)
   0   2.0000     -10.043102      -273.2867
   1   2.0000     -10.042845      -273.2797
   2   2.0000     -10.033329      -273.0208
   3   2.0000     -10.033323      -273.0206
   4   2.0000      -0.776221       -21.1220
   5   2.0000      -0.703267       -19.1369
   6   2.0000      -0.576793       -15.6953
   7   2.0000      -0.522654       -14.2221
   8   2.0000      -0.437228       -11.8976
   9   2.0000      -0.433428       -11.7942
  10   2.0000      -0.363839        -9.9006
  11   2.0000      -0.356927        -9.7125
  12   2.0000      -0.317638        -8.6434
  13   2.0000      -0.307270        -8.3612
  14   2.0000      -0.219876        -5.9831
  15   0.0000      -0.061251        -1.6667
  16   0.0000       0.034041         0.9263
  17   0.0000       0.073387         1.9970
  18   0.0000       0.084463         2.2984
  19   0.0000       0.089238         2.4283

MULLIKEN ATOMIC CHARGES
-----------------------
   0 C :   -0.264590
   1 C :   -0.072628
   2 C :   -0.072627
   3 C :   -0.264589
   4 H :    0.125390
   5 H :    0.115228
   6 H :    0.096600
   7 H :    0.096599
   8 H :    0.125390
   9 H :    0.115228
Sum of atomic charges:   -0.0000000

LOEWDIN ATOMIC CHARGES
----------------------
   0 C :   -0.194127
   1 C :   -0.193516
   2 C :   -0.193517
   3 C :   -0.194127
   4 H :    0.121409
   5 H :    0.121898
   6 H :    0.144337
   7 H :    0.144337
   8 H :    0.121409
   9 H :    0.121898

  Mayer bond orders larger than 0.100000
B(  0-C ,  1-C ) :   1.8221 B(  0-C ,  3-C ) :   0.1345 B(  0-C ,  4-H ) :   0.9641
B(  0-C ,  5-H ) :   0.9624 B(  1-C ,  2-C ) :   1.0465 B(  1-C ,  6-H ) :   0.9601
B(  2-C ,  3-C ) :   1.8221 B(  2-C ,  7-H ) :   0.9601 B(  3-C ,  8-H ) :   0.9641
B(  3-C ,  9-H ) :   0.9624

Dispersion correction           -0.001862396
FINAL SINGLE POINT ENERGY      -155.948679066098

DIPOLE MOMENT
-------------

Method             : SCF
Type of density    : Electron Density
Multiplicity       :   1
Irrep              :   0
Energy             :  -155.9493541636016403 Eh
Relativity type    :
Basis              : AO
                                X                 Y                 Z
Electronic contribution:     -0.000009157       0.000004411       0.000066310
Nuclear contribution   :      0.000009402      -0.000004387      -0.000115730
                        -----------------------------------------
Total Dipole Moment    :      0.000000245       0.000000024      -0.000049421
                        -----------------------------------------
Magnitude (a.u.)       :      0.000049421
Magnitude (Debye)      :      0.000125619

VIBRATIONAL FREQUENCIES
-----------------------

Scaling factor for frequencies =  1.000000000  (already applied!)

     0:       0.00 cm**-1
     1:       0.00 cm**-1
     2:       0.00 cm**-1
     3:       0.00 cm**-1
     4:       0.00 cm**-1
     5:       0.00 cm**-1
     6:     179.50 cm**-1
     7:     304.73 cm**-1
     8:     524.58 cm**-1
     9:     536.40 cm**-1
    10:     785.80 cm**-1
    11:     904.76 cm**-1
    12:     921.56 cm**-1
    13:     923.44 cm**-1
    14:     991.61 cm**-1
    15:    1003.14 cm**-1
    16:    1052.77 cm**-1
    17:    1231.02 cm**-1
    18:    1312.53 cm**-1
    19:    1318.24 cm**-1
    20:    1410.50 cm**-1
    21:    1470.59 cm**-1
    22:    1637.19 cm**-1
    23:    1683.47 cm**-1
    24:    3114.88 cm**-1
    25:    3123.05 cm**-1
    26:    3125.02 cm**-1
    27:    3127.78 cm**-1
    28:    3217.06 cm**-1
    29:    3217.17 cm**-1

IR SPECTRUM
-----------

 Mode   freq       eps      Int      T**2         TX        TY        TZ
       cm**-1   L/(mol*cm) km/mol    a.u.
----------------------------------------------------------------------------
  6:    179.50   0.000140    0.71  0.000243  (-0.000025  0.000005  0.015597)
  7:    304.73   0.000545    2.76  0.000558  ( 0.023069  0.005109  0.000001)
  8:    524.58   0.000000    0.00  0.000000  (-0.000000 -0.000000 -0.000018)
  9:    536.40   0.002505   12.66  0.001457  (-0.000003  0.000004  0.038174)
 10:    785.80   0.000000    0.00  0.000000  (-0.000004 -0.000002 -0.000000)
 11:    904.76   0.000000    0.00  0.000000  (-0.000000  0.000000 -0.000009)
 12:    921.56   0.017351   87.69  0.005876  ( 0.000003 -0.000001 -0.076653)
 13:    923.44   0.000000    0.00  0.000000  ( 0.000001  0.000001  0.000058)
 14:    991.61   0.000000    0.00  0.000000  ( 0.000004 -0.000004 -0.000001)
 15:   1003.14   0.000378    1.91  0.000118  (-0.010743 -0.001503  0.000004)
 16:   1052.77   0.007172   36.24  0.002126  (-0.000003  0.000000  0.046108)
 17:   1231.02   0.000000    0.00  0.000000  (-0.000000  0.000000  0.000000)
 18:   1312.53   0.000000    0.00  0.000000  ( 0.000000 -0.000001  0.000001)
 19:   1318.24   0.000519    2.62  0.000123  (-0.001144 -0.011021 -0.000000)
 20:   1410.50   0.000816    4.12  0.000180  ( 0.008058 -0.010748 -0.000001)
 21:   1470.59   0.000000    0.00  0.000000  (-0.000000 -0.000000 -0.000001)
 22:   1637.19   0.004644   23.47  0.000885  (-0.028953  0.006851 -0.000000)
 23:   1683.47   0.000000    0.00  0.000000  (-0.000002  0.000000  0.000000)
 24:   3114.88   0.000000    0.00  0.000000  ( 0.000001 -0.000013  0.000001)
 25:   3123.05   0.004014   20.29  0.000401  ( 0.009300 -0.017737  0.000000)
 26:   3125.02   0.000000    0.00  0.000000  (-0.000001  0.000031  0.000001)
 27:   3127.78   0.002554   12.91  0.000255  ( 0.004760  0.015238  0.000001)
 28:   3217.06   0.000003    0.01  0.000000  (-0.000189 -0.000500  0.000000)
 29:   3217.17   0.004078   20.61  0.000396  (-0.007040 -0.018601 -0.000000)

--------------------------
THERMOCHEMISTRY AT 298.15K
--------------------------

Temperature         ...   298.15 K
Pressure            ...     1.00 atm
Total Mass          ...    54.09 AMU
Quasi RRHO          ...     True
Cut-Off Frequency   ...     1.00 cm^-1

Throughout the following assumptions are being made:
  (1) The electronic state is orbitally nondegenerate
  (2) There are no thermally accessible electronically excited states
  (3) Hindered rotations indicated by low frequency modes are not
      treated as such but are treated as vibrations and this may
      cause some error
  (4) All equations used are the standard statistical mechanics
      equations for an ideal gas
  (5) All vibrations are strictly harmonic

freq.     179.50  E(vib)   ...       0.37
freq.     304.73  E(vib)   ...       0.26
freq.     524.58  E(vib)   ...       0.13
freq.     536.40  E(vib)   ...       0.12
freq.     785.80  E(vib)   ...       0.05
freq.     904.76  E(vib)   ...       0.03
freq.     921.56  E(vib)   ...       0.03
freq.     923.44  E(vib)   ...       0.03
freq.     991.61  E(vib)   ...       0.02
freq.    1003.14  E(vib)   ...       0.02
freq.    1052.77  E(vib)   ...       0.02
freq.    1231.02  E(vib)   ...       0.01
freq.    1312.53  E(vib)   ...       0.01
freq.    1318.24  E(vib)   ...       0.01
freq.    1410.50  E(vib)   ...       0.00
freq.    1470.59  E(vib)   ...       0.00
freq.    1637.19  E(vib)   ...       0.00
freq.    1683.47  E(vib)   ...       0.00
freq.    3114.88  E(vib)   ...       0.00
freq.    3123.05  E(vib)   ...       0.00
freq.    3125.02  E(vib)   ...       0.00
freq.    3127.78  E(vib)   ...       0.00
freq.    3217.06  E(vib)   ...       0.00
freq.    3217.17  E(vib)   ...       0.00

------------
INNER ENERGY
------------

The inner energy is: U= E(el) + E(ZPE) + E(vib) + E(rot) + E(trans)
    E(el)   - is the total energy from the electronic structure calculation
              = E(kin-el) + E(nuc-el) + E(el-el) + E(nuc-nuc)
    E(ZPE)  - the the zero temperature vibrational energy from the frequency calculation
    E(vib)  - the the finite temperature correction to E(ZPE) due to population
              of excited vibrational states
    E(rot)  - is the rotational thermal energy
    E(trans)- is the translational thermal energy

Summary of contributions to the inner energy U:
Electronic energy                ...   -155.94867907 Eh
Zero point energy                ...      0.08455826 Eh      53.06 kcal/mol
Thermal vibrational correction   ...      0.00180586 Eh       1.13 kcal/mol
Thermal rotational correction    ...      0.00141627 Eh       0.89 kcal/mol
Thermal translational correction ...      0.00141627 Eh       0.89 kcal/mol
-----------------------------------------------------------------------
Total thermal energy                   -155.85948240 Eh

Summary of corrections to the electronic energy:
(perhaps to be used in another calculation)
Total thermal correction                  0.00463840 Eh       2.91 kcal/mol
Non-thermal (ZPE) correction              0.08455826 Eh      53.06 kcal/mol
-----------------------------------------------------------------------
Total correction                          0.08919666 Eh      55.97 kcal/mol

--------
ENTHALPY
--------

The enthalpy is H = U + kB*T
                kB is Boltzmann's constant
Total thermal energy              ...   -155.85948240 Eh
Thermal Enthalpy correction       ...      0.00094421 Eh       0.59 kcal/mol
-----------------------------------------------------------------------
Total Enthalpy                    ...   -155.85853820 Eh

Note: Rotational entropy computed according to Herzberg
Infrared and Raman Spectra, Chapter V,1, Van Nostrand Reinhold, 1945
Point Group:  C2h, Symmetry Number:   2
Rotational constants in cm-1:     1.410580     0.148321     0.134209

Vibrational entropy computed according to the QRRHO of S. Grimme
Chem.Eur.J. 2012 18 9955 using a reference frequency of 100.0 cm-1

-------
ENTROPY
-------

The entropy contributions are T*S = T*(S(el)+S(vib)+S(rot)+S(trans))
     S(el)   - electronic entropy
     S(vib)  - vibrational entropy
     S(rot)  - rotational entropy
     S(trans)- translational entropy
The entropies will be listed as multiplied by the temperature to get
units of energy

Electronic entropy                ...      0.00000000 Eh      0.00 kcal/mol
Vibrational entropy               ...      0.00280529 Eh      1.76 kcal/mol
Rotational entropy                ...      0.01054301 Eh      6.62 kcal/mol
Translational entropy             ...      0.01800097 Eh     11.30 kcal/mol
-----------------------------------------------------------------------
Final entropy term                ...      0.03134927 Eh     19.67 kcal/mol

In case the symmetry of your molecule has not been determined correctly
or in case you have a reason to use a different symmetry number we print
out the resulting rotational entropy values for sn=1,12:

 non-linear molecules -----------------------------------
|  sn= 1 | S(rot)=       0.01119746 Eh      7.03 kcal/mol|
|  sn= 2 | S(rot)=       0.01054301 Eh      6.62 kcal/mol|
|  sn= 3 | S(rot)=       0.01016018 Eh      6.38 kcal/mol|
|  sn= 4 | S(rot)=       0.00988855 Eh      6.21 kcal/mol|
|  sn= 5 | S(rot)=       0.00967786 Eh      6.07 kcal/mol|
|  sn= 6 | S(rot)=       0.00950572 Eh      5.96 kcal/mol|
|  sn= 7 | S(rot)=       0.00936017 Eh      5.87 kcal/mol|
|  sn= 8 | S(rot)=       0.00923410 Eh      5.79 kcal/mol|
|  sn= 9 | S(rot)=       0.00912289 Eh      5.72 kcal/mol|
|  sn=10 | S(rot)=       0.00902341 Eh      5.66 kcal/mol|
|  sn=11 | S(rot)=       0.00893342 Eh      5.61 kcal/mol|
|  sn=12 | S(rot)=       0.00885126 Eh      5.55 kcal/mol|
 linear molecules ---------------------------------------
|  Dinfh | S(rot)=       0.00722206 Eh      4.53 kcal/mol|
|  Cinfv | S(rot)=       0.00787652 Eh      4.94 kcal/mol|
 --------------------------------------------------------

-------------------
GIBBS FREE ENERGY
-------------------

The Gibbs free energy is G = H - T*S

Total enthalpy                    ...   -155.85853820 Eh
Total entropy correction          ...     -0.03134927 Eh    -19.67 kcal/mol
-----------------------------------------------------------------------
Final Gibbs free energy         ...   -155.88988746 Eh

For completeness - the Gibbs free energy minus the electronic energy
G-E(el)                           ...      0.05879160 Eh     36.89 kcal/mol

                             ****ORCA TERMINATED NORMALLY****
TOTAL RUN TIME: 0 days 0 hours 2 minutes 32 seconds 546 msec
