                         Program Version 6.0.0  -   RELEASE  -
|  1> ! r2SCAN-3c DEF2-TZVP FREQ
|  2> * xyzfile 0 1 censo.xyz
|  3>
|  4>                          ****END OF INPUT****

CARTESIAN COORDINATES (ANGSTROEM)
---------------------------------
  C      0.707502   -0.000203   -1.166057
  C     -0.367352   -0.000083   -0.087828
  Cl    -1.955073    0.000601   -0.947864
  Cl    -0.267558   -1.463980    0.947485
  Cl    -0.266602    1.463344    0.948066
  Cl     2.372098   -0.001096   -0.467839
  H      0.602671    0.896300   -1.779830
  H      0.601953   -0.896264   -1.780353

 Total Charge           Charge          ....    0
 Multiplicity           Mult            ....    1
 Number of Electrons    NEL             ....   82
 Basis Dimension        Dim             ....  222

ORBITAL ENERGIES
----------------

  NO   OCC          E(Eh)            E(eV)
   0   2.0000    -101.219518     -2754.3231
   1   2.0000    -101.215047     -2754.2014
   2   2.0000    -101.215045     -2754.2014
   3   2.0000    -101.199804     -2753.7867
   4   2.0000     -10.242173      -278.7037
   5   2.0000     -10.137208      -275.8475
   6   2.0000      -9.395700      -255.6700
   7   2.0000      -9.391180      -255.5470
   8   2.0000      -9.391178      -255.5470
   9   2.0000      -9.375715      -255.1262
  10   2.0000      -7.141099      -194.3192
  11   2.0000      -7.136703      -194.1996
  12   2.0000      -7.136702      -194.1995
  13   2.0000      -7.130199      -194.0226
  14   2.0000      -7.130183      -194.0221
  15   2.0000      -7.125698      -193.9001
  16   2.0000      -7.125697      -193.9001
  17   2.0000      -7.125511      -193.8950
  18   2.0000      -7.125511      -193.8950
  19   2.0000      -7.121010      -193.7725
  20   2.0000      -7.110349      -193.4824
  21   2.0000      -7.110184      -193.4779
  22   2.0000      -0.922513       -25.1028
  23   2.0000      -0.831556       -22.6278
  24   2.0000      -0.808466       -21.9995
  25   2.0000      -0.806427       -21.9440
  26   2.0000      -0.702138       -19.1062
  27   2.0000      -0.582093       -15.8396
  28   2.0000      -0.490465       -13.3462
  29   2.0000      -0.477132       -12.9834
  30   2.0000      -0.463117       -12.6021
  31   2.0000      -0.419716       -11.4211
  32   2.0000      -0.405138       -11.0244
  33   2.0000      -0.336628        -9.1601
  34   2.0000      -0.334968        -9.1150
  35   2.0000      -0.319017        -8.6809
  36   2.0000      -0.306569        -8.3422
  37   2.0000      -0.301627        -8.2077
  38   2.0000      -0.292355        -7.9554
  39   2.0000      -0.291621        -7.9354
  40   2.0000      -0.285813        -7.7774
  41   0.0000      -0.077799        -2.1170
  42   0.0000      -0.056735        -1.5439
  43   0.0000      -0.031997        -0.8707
  44   0.0000      -0.001310        -0.0357
  45   0.0000       0.055555         1.5117

MULLIKEN ATOMIC CHARGES
-----------------------
   0 C :   -0.127470
   1 C :    0.178506
   2 Cl:   -0.081242
   3 Cl:   -0.068329
   4 Cl:   -0.068336
   5 Cl:   -0.131069
   6 H :    0.148971
   7 H :    0.148969
Sum of atomic charges:   -0.0000000

LOEWDIN ATOMIC CHARGES
----------------------
   0 C :   -0.538440
   1 C :   -1.056433
   2 Cl:    0.342528
   3 Cl:    0.348012
   4 Cl:    0.348005
   5 Cl:    0.284385
   6 H :    0.135972
   7 H :    0.135971

  Mayer bond orders larger than 0.100000
B(  0-C ,  1-C ) :   0.9729 B(  0-C ,  5-Cl) :   1.0491 B(  0-C ,  6-H ) :   0.9442
B(  0-C ,  7-H ) :   0.9442 B(  1-C ,  2-Cl) :   1.0655 B(  1-C ,  3-Cl) :   1.1003
B(  1-C ,  4-Cl) :   1.1002

Dispersion correction           -0.003313143
FINAL SINGLE POINT ENERGY     -1918.119634542102

DIPOLE MOMENT
-------------

Method             : SCF
Type of density    : Electron Density
Multiplicity       :   1
Irrep              :   0
Energy             : -1918.1257546339998044 Eh
Relativity type    :
Basis              : AO
                                X                 Y                 Z
Electronic contribution:     -1.423024211      -0.000439793       3.423365195
Nuclear contribution   :      1.311236619       0.000646887      -4.018197120
                        -----------------------------------------
Total Dipole Moment    :     -0.111787591       0.000207094      -0.594831926
                        -----------------------------------------
Magnitude (a.u.)       :      0.605245015
Magnitude (Debye)      :      1.538410569

VIBRATIONAL FREQUENCIES
-----------------------

Scaling factor for frequencies =  1.000000000  (already applied!)

     0:       0.00 cm**-1
     1:       0.00 cm**-1
     2:       0.00 cm**-1
     3:       0.00 cm**-1
     4:       0.00 cm**-1
     5:       0.00 cm**-1
     6:     122.09 cm**-1
     7:     155.91 cm**-1
     8:     238.45 cm**-1
     9:     242.17 cm**-1
    10:     302.91 cm**-1
    11:     335.67 cm**-1
    12:     367.97 cm**-1
    13:     531.73 cm**-1
    14:     648.87 cm**-1
    15:     691.44 cm**-1
    16:     752.74 cm**-1
    17:     957.14 cm**-1
    18:    1052.64 cm**-1
    19:    1211.22 cm**-1
    20:    1292.29 cm**-1
    21:    1449.03 cm**-1
    22:    3072.66 cm**-1
    23:    3147.10 cm**-1

IR SPECTRUM
-----------

 Mode   freq       eps      Int      T**2         TX        TY        TZ
       cm**-1   L/(mol*cm) km/mol    a.u.
----------------------------------------------------------------------------
  6:    122.09   0.000174    0.88  0.000444  ( 0.000008  0.021075  0.000004)
  7:    155.91   0.000123    0.62  0.000245  (-0.005947 -0.000006  0.014488)
  8:    238.45   0.000002    0.01  0.000003  ( 0.000948  0.000015 -0.001465)
  9:    242.17   0.000070    0.35  0.000090  ( 0.000005  0.009479  0.000001)
 10:    302.91   0.000242    1.22  0.000249  ( 0.015352 -0.000005  0.003642)
 11:    335.67   0.000710    3.59  0.000660  ( 0.000011  0.025690  0.000001)
 12:    367.97   0.000483    2.44  0.000409  ( 0.002618 -0.000003  0.020066)
 13:    531.73   0.005539   27.99  0.003251  ( 0.014701  0.000008 -0.055088)
 14:    648.87   0.024583  124.23  0.011823  (-0.000038 -0.108733 -0.000027)
 15:    691.44   0.032408  163.77  0.014626  (-0.107799  0.000053 -0.054825)
 16:    752.74   0.006823   34.48  0.002829  ( 0.013660 -0.000018  0.051402)
 17:    957.14   0.008307   41.98  0.002708  ( 0.000020  0.052041  0.000018)
 18:   1052.64   0.002966   14.99  0.000879  (-0.006046 -0.000007  0.029028)
 19:   1211.22   0.002151   10.87  0.000554  ( 0.000012  0.023543  0.000007)
 20:   1292.29   0.001844    9.32  0.000445  ( 0.021048 -0.000010  0.001525)
 21:   1449.03   0.001300    6.57  0.000280  ( 0.006223  0.000002 -0.015534)
 22:   3072.66   0.000906    4.58  0.000092  ( 0.009368 -0.000004  0.002063)
 23:   3147.10   0.000026    0.13  0.000003  ( 0.000001  0.001608  0.000000)

--------------------------
THERMOCHEMISTRY AT 298.15K
--------------------------

Temperature         ...   298.15 K
Pressure            ...     1.00 atm
Total Mass          ...   167.85 AMU
Quasi RRHO          ...     True
Cut-Off Frequency   ...     1.00 cm^-1

Throughout the following assumptions are being made:
  (1) The electronic state is orbitally nondegenerate
  (2) There are no thermally accessible electronically excited states
  (3) Hindered rotations indicated by low frequency modes are not
      treated as such but are treated as vibrations and this may
      cause some error
  (4) All equations used are the standard statistical mechanics
      equations for an ideal gas
  (5) All vibrations are strictly harmonic

freq.     122.09  E(vib)   ...       0.44
freq.     155.91  E(vib)   ...       0.40
freq.     238.45  E(vib)   ...       0.32
freq.     242.17  E(vib)   ...       0.31
freq.     302.91  E(vib)   ...       0.26
freq.     335.67  E(vib)   ...       0.24
freq.     367.97  E(vib)   ...       0.21
freq.     531.73  E(vib)   ...       0.13
freq.     648.87  E(vib)   ...       0.08
freq.     691.44  E(vib)   ...       0.07
freq.     752.74  E(vib)   ...       0.06
freq.     957.14  E(vib)   ...       0.03
freq.    1052.64  E(vib)   ...       0.02
freq.    1211.22  E(vib)   ...       0.01
freq.    1292.29  E(vib)   ...       0.01
freq.    1449.03  E(vib)   ...       0.00
freq.    3072.66  E(vib)   ...       0.00
freq.    3147.10  E(vib)   ...       0.00

------------
INNER ENERGY
------------

The inner energy is: U= E(el) + E(ZPE) + E(vib) + E(rot) + E(trans)
    E(el)   - is the total energy from the electronic structure calculation
              = E(kin-el) + E(nuc-el) + E(el-el) + E(nuc-nuc)
    E(ZPE)  - the the zero temperature vibrational energy from the frequency calculation
    E(vib)  - the the finite temperature correction to E(ZPE) due to population
              of excited vibrational states
    E(rot)  - is the rotational thermal energy
    E(trans)- is the translational thermal energy

Summary of contributions to the inner energy U:
Electronic energy                ...  -1918.11963454 Eh
Zero point energy                ...      0.03775383 Eh      23.69 kcal/mol
Thermal vibrational correction   ...      0.00411592 Eh       2.58 kcal/mol
Thermal rotational correction    ...      0.00141627 Eh       0.89 kcal/mol
Thermal translational correction ...      0.00141627 Eh       0.89 kcal/mol
-----------------------------------------------------------------------
Total thermal energy                  -1918.07493224 Eh

Summary of corrections to the electronic energy:
(perhaps to be used in another calculation)
Total thermal correction                  0.00694847 Eh       4.36 kcal/mol
Non-thermal (ZPE) correction              0.03775383 Eh      23.69 kcal/mol
-----------------------------------------------------------------------
Total correction                          0.04470230 Eh      28.05 kcal/mol

--------
ENTHALPY
--------

The enthalpy is H = U + kB*T
                kB is Boltzmann's constant
Total thermal energy              ...  -1918.07493224 Eh
Thermal Enthalpy correction       ...      0.00094421 Eh       0.59 kcal/mol
-----------------------------------------------------------------------
Total Enthalpy                    ...  -1918.07398803 Eh

Note: Only C1 symmetry has been detected, increase convergence thresholds
      if your molecule has a higher symmetry. Symmetry factor of 1.0 is
      used for the rotational entropy correction.

Note: Rotational entropy computed according to Herzberg
Infrared and Raman Spectra, Chapter V,1, Van Nostrand Reinhold, 1945
Point Group:  C1, Symmetry Number:   1
Rotational constants in cm-1:     0.060297     0.035526     0.033582

Vibrational entropy computed according to the QRRHO of S. Grimme
Chem.Eur.J. 2012 18 9955 using a reference frequency of 100.0 cm-1

-------
ENTROPY
-------

The entropy contributions are T*S = T*(S(el)+S(vib)+S(rot)+S(trans))
     S(el)   - electronic entropy
     S(vib)  - vibrational entropy
     S(rot)  - rotational entropy
     S(trans)- translational entropy
The entropies will be listed as multiplied by the temperature to get
units of energy

Electronic entropy                ...      0.00000000 Eh      0.00 kcal/mol
Vibrational entropy               ...      0.00695990 Eh      4.37 kcal/mol
Rotational entropy                ...      0.01401443 Eh      8.79 kcal/mol
Translational entropy             ...      0.01960473 Eh     12.30 kcal/mol
-----------------------------------------------------------------------
Final entropy term                ...      0.04057906 Eh     25.46 kcal/mol

In case the symmetry of your molecule has not been determined correctly
or in case you have a reason to use a different symmetry number we print
out the resulting rotational entropy values for sn=1,12:

 non-linear molecules -----------------------------------
|  sn= 1 | S(rot)=       0.01401443 Eh      8.79 kcal/mol|
|  sn= 2 | S(rot)=       0.01335997 Eh      8.38 kcal/mol|
|  sn= 3 | S(rot)=       0.01297714 Eh      8.14 kcal/mol|
|  sn= 4 | S(rot)=       0.01270551 Eh      7.97 kcal/mol|
|  sn= 5 | S(rot)=       0.01249483 Eh      7.84 kcal/mol|
|  sn= 6 | S(rot)=       0.01232268 Eh      7.73 kcal/mol|
|  sn= 7 | S(rot)=       0.01217713 Eh      7.64 kcal/mol|
|  sn= 8 | S(rot)=       0.01205106 Eh      7.56 kcal/mol|
|  sn= 9 | S(rot)=       0.01193985 Eh      7.49 kcal/mol|
|  sn=10 | S(rot)=       0.01184037 Eh      7.43 kcal/mol|
|  sn=11 | S(rot)=       0.01175038 Eh      7.37 kcal/mol|
|  sn=12 | S(rot)=       0.01166822 Eh      7.32 kcal/mol|
 linear molecules ---------------------------------------
|  Dinfh | S(rot)=       0.00853014 Eh      5.35 kcal/mol|
|  Cinfv | S(rot)=       0.00918459 Eh      5.76 kcal/mol|
 --------------------------------------------------------

-------------------
GIBBS FREE ENERGY
-------------------

The Gibbs free energy is G = H - T*S

Total enthalpy                    ...  -1918.07398803 Eh
Total entropy correction          ...     -0.04057906 Eh    -25.46 kcal/mol
-----------------------------------------------------------------------
Final Gibbs free energy         ...  -1918.11456709 Eh

For completeness - the Gibbs free energy minus the electronic energy
G-E(el)                           ...      0.00506745 Eh      3.18 kcal/mol

                             ****ORCA TERMINATED NORMALLY****
TOTAL RUN TIME: 0 days 0 hours 3 minutes 18 seconds 333 msec
