                         Program Version 6.0.0  -   RELEASE  -
|  1> ! r2SCAN-3c DEF2-TZVP FREQ
|  2> * xyzfile 0 1 vacuum_censo.xyz
|  3>
|  4>                          ****END OF INPUT****

CARTESIAN COORDINATES (ANGSTROEM)
---------------------------------
  C      0.710217   -0.000117   -1.154859
  C     -0.369546   -0.000060   -0.075128
  Cl    -1.950389   -0.000290   -0.955980
  Cl    -0.267978   -1.464363    0.947770
  Cl    -0.268195    1.464545    0.947382
  Cl     2.373883    0.000083   -0.478216
  H      0.591145    0.896633   -1.766113
  H      0.591270   -0.897034   -1.765892

 Total Charge           Charge          ....    0
 Multiplicity           Mult            ....    1
 Number of Electrons    NEL             ....   82
 Basis Dimension        Dim             ....  222

ORBITAL ENERGIES
----------------

  NO   OCC          E(Eh)            E(eV)
   0   2.0000    -101.218820     -2754.3041
   1   2.0000    -101.215759     -2754.2208
   2   2.0000    -101.215757     -2754.2208
   3   2.0000    -101.200132     -2753.7956
   4   2.0000     -10.241518      -278.6859
   5   2.0000     -10.135975      -275.8139
   6   2.0000      -9.394977      -255.6503
   7   2.0000      -9.391960      -255.5682
   8   2.0000      -9.391957      -255.5681
   9   2.0000      -9.376121      -255.1372
  10   2.0000      -7.140369      -194.2993
  11   2.0000      -7.137459      -194.2201
  12   2.0000      -7.137456      -194.2201
  13   2.0000      -7.129485      -194.0031
  14   2.0000      -7.129469      -194.0027
  15   2.0000      -7.126488      -193.9216
  16   2.0000      -7.126486      -193.9215
  17   2.0000      -7.126286      -193.9161
  18   2.0000      -7.126284      -193.9161
  19   2.0000      -7.121389      -193.7828
  20   2.0000      -7.110763      -193.4937
  21   2.0000      -7.110588      -193.4889
  22   2.0000      -0.923235       -25.1225
  23   2.0000      -0.832817       -22.6621
  24   2.0000      -0.808605       -22.0033
  25   2.0000      -0.808173       -21.9915
  26   2.0000      -0.700867       -19.0716
  27   2.0000      -0.581636       -15.8271
  28   2.0000      -0.490735       -13.3536
  29   2.0000      -0.476599       -12.9689
  30   2.0000      -0.462825       -12.5941
  31   2.0000      -0.420405       -11.4398
  32   2.0000      -0.406235       -11.0542
  33   2.0000      -0.336887        -9.1672
  34   2.0000      -0.335141        -9.1197
  35   2.0000      -0.318604        -8.6696
  36   2.0000      -0.306151        -8.3308
  37   2.0000      -0.302385        -8.2283
  38   2.0000      -0.292582        -7.9616
  39   2.0000      -0.292154        -7.9499
  40   2.0000      -0.286360        -7.7923
  41   0.0000      -0.077692        -2.1141
  42   0.0000      -0.054624        -1.4864
  43   0.0000      -0.028874        -0.7857
  44   0.0000       0.000087         0.0024
  45   0.0000       0.055297         1.5047

MULLIKEN ATOMIC CHARGES
-----------------------
   0 C :   -0.126754
   1 C :    0.177142
   2 Cl:   -0.084776
   3 Cl:   -0.065862
   4 Cl:   -0.065871
   5 Cl:   -0.128286
   6 H :    0.147204
   7 H :    0.147204
Sum of atomic charges:   -0.0000000

LOEWDIN ATOMIC CHARGES
----------------------
   0 C :   -0.548458
   1 C :   -1.062958
   2 Cl:    0.338053
   3 Cl:    0.355424
   4 Cl:    0.355409
   5 Cl:    0.291917
   6 H :    0.135307
   7 H :    0.135306

  Mayer bond orders larger than 0.100000
B(  0-C ,  1-C ) :   0.9689 B(  0-C ,  5-Cl) :   1.0540 B(  0-C ,  6-H ) :   0.9450
B(  0-C ,  7-H ) :   0.9450 B(  1-C ,  2-Cl) :   1.0616 B(  1-C ,  3-Cl) :   1.1049
B(  1-C ,  4-Cl) :   1.1049

Dispersion correction           -0.003314397
FINAL SINGLE POINT ENERGY     -1918.119901140424

DIPOLE MOMENT
-------------

Method             : SCF
Type of density    : Electron Density
Multiplicity       :   1
Irrep              :   0
Energy             : -1918.1260891233500843 Eh
Relativity type    :
Basis              : AO
                                X                 Y                 Z
Electronic contribution:     -1.390361135       0.000315924       3.408070004
Nuclear contribution   :      1.287369568      -0.000413776      -3.973777483
                        -----------------------------------------
Total Dipole Moment    :     -0.102991567      -0.000097852      -0.565707479
                        -----------------------------------------
Magnitude (a.u.)       :      0.575006282
Magnitude (Debye)      :      1.461549818

VIBRATIONAL FREQUENCIES
-----------------------

Scaling factor for frequencies =  1.000000000  (already applied!)

     0:       0.00 cm**-1
     1:       0.00 cm**-1
     2:       0.00 cm**-1
     3:       0.00 cm**-1
     4:       0.00 cm**-1
     5:       0.00 cm**-1
     6:     118.61 cm**-1
     7:     154.71 cm**-1
     8:     237.81 cm**-1
     9:     241.76 cm**-1
    10:     303.31 cm**-1
    11:     337.66 cm**-1
    12:     367.69 cm**-1
    13:     536.56 cm**-1
    14:     662.05 cm**-1
    15:     694.57 cm**-1
    16:     760.42 cm**-1
    17:     961.66 cm**-1
    18:    1044.22 cm**-1
    19:    1220.63 cm**-1
    20:    1299.26 cm**-1
    21:    1448.71 cm**-1
    22:    3068.69 cm**-1
    23:    3143.82 cm**-1

IR SPECTRUM
-----------

 Mode   freq       eps      Int      T**2         TX        TY        TZ
       cm**-1   L/(mol*cm) km/mol    a.u.
----------------------------------------------------------------------------
  6:    118.61   0.000181    0.91  0.000476  ( 0.000001 -0.021810  0.000001)
  7:    154.71   0.000130    0.65  0.000261  (-0.005335  0.000001  0.015260)
  8:    237.81   0.000001    0.01  0.000002  ( 0.001066 -0.000001 -0.000882)
  9:    241.76   0.000074    0.37  0.000096  ( 0.000001 -0.009780  0.000001)
 10:    303.31   0.000253    1.28  0.000260  (-0.015783 -0.000003 -0.003350)
 11:    337.66   0.000602    3.04  0.000556  ( 0.000002 -0.023583  0.000002)
 12:    367.69   0.000556    2.81  0.000472  (-0.004236 -0.000001 -0.021302)
 13:    536.56   0.005284   26.70  0.003073  ( 0.014979 -0.000013 -0.053372)
 14:    662.05   0.024676  124.70  0.011631  ( 0.000010  0.107848 -0.000004)
 15:    694.57   0.034199  172.83  0.015365  ( 0.107894 -0.000001  0.061025)
 16:    760.42   0.004965   25.09  0.002038  (-0.000548  0.000001  0.045136)
 17:    961.66   0.008715   44.04  0.002828  ( 0.000004 -0.053180  0.000007)
 18:   1044.22   0.003040   15.36  0.000908  (-0.003213  0.000002  0.029969)
 19:   1220.63   0.002047   10.34  0.000523  (-0.000002  0.022875 -0.000003)
 20:   1299.26   0.002027   10.24  0.000487  ( 0.021999  0.000002  0.001706)
 21:   1448.71   0.001298    6.56  0.000280  ( 0.006477 -0.000001 -0.015415)
 22:   3068.69   0.000972    4.91  0.000099  ( 0.009622  0.000001  0.002502)
 23:   3143.82   0.000012    0.06  0.000001  (-0.000000  0.001104 -0.000000)

--------------------------
THERMOCHEMISTRY AT 298.15K
--------------------------

Temperature         ...   298.15 K
Pressure            ...     1.00 atm
Total Mass          ...   167.85 AMU
Quasi RRHO          ...     True
Cut-Off Frequency   ...     1.00 cm^-1

Throughout the following assumptions are being made:
  (1) The electronic state is orbitally nondegenerate
  (2) There are no thermally accessible electronically excited states
  (3) Hindered rotations indicated by low frequency modes are not
      treated as such but are treated as vibrations and this may
      cause some error
  (4) All equations used are the standard statistical mechanics
      equations for an ideal gas
  (5) All vibrations are strictly harmonic

freq.     118.61  E(vib)   ...       0.44
freq.     154.71  E(vib)   ...       0.40
freq.     237.81  E(vib)   ...       0.32
freq.     241.76  E(vib)   ...       0.31
freq.     303.31  E(vib)   ...       0.26
freq.     337.66  E(vib)   ...       0.24
freq.     367.69  E(vib)   ...       0.21
freq.     536.56  E(vib)   ...       0.12
freq.     662.05  E(vib)   ...       0.08
freq.     694.57  E(vib)   ...       0.07
freq.     760.42  E(vib)   ...       0.06
freq.     961.66  E(vib)   ...       0.03
freq.    1044.22  E(vib)   ...       0.02
freq.    1220.63  E(vib)   ...       0.01
freq.    1299.26  E(vib)   ...       0.01
freq.    1448.71  E(vib)   ...       0.00
freq.    3068.69  E(vib)   ...       0.00
freq.    3143.82  E(vib)   ...       0.00

------------
INNER ENERGY
------------

The inner energy is: U= E(el) + E(ZPE) + E(vib) + E(rot) + E(trans)
    E(el)   - is the total energy from the electronic structure calculation
              = E(kin-el) + E(nuc-el) + E(el-el) + E(nuc-nuc)
    E(ZPE)  - the the zero temperature vibrational energy from the frequency calculation
    E(vib)  - the the finite temperature correction to E(ZPE) due to population
              of excited vibrational states
    E(rot)  - is the rotational thermal energy
    E(trans)- is the translational thermal energy

Summary of contributions to the inner energy U:
Electronic energy                ...  -1918.11990114 Eh
Zero point energy                ...      0.03782247 Eh      23.73 kcal/mol
Thermal vibrational correction   ...      0.00410956 Eh       2.58 kcal/mol
Thermal rotational correction    ...      0.00141627 Eh       0.89 kcal/mol
Thermal translational correction ...      0.00141627 Eh       0.89 kcal/mol
-----------------------------------------------------------------------
Total thermal energy                  -1918.07513656 Eh

Summary of corrections to the electronic energy:
(perhaps to be used in another calculation)
Total thermal correction                  0.00694211 Eh       4.36 kcal/mol
Non-thermal (ZPE) correction              0.03782247 Eh      23.73 kcal/mol
-----------------------------------------------------------------------
Total correction                          0.04476458 Eh      28.09 kcal/mol

--------
ENTHALPY
--------

The enthalpy is H = U + kB*T
                kB is Boltzmann's constant
Total thermal energy              ...  -1918.07513656 Eh
Thermal Enthalpy correction       ...      0.00094421 Eh       0.59 kcal/mol
-----------------------------------------------------------------------
Total Enthalpy                    ...  -1918.07419235 Eh

Note: Rotational entropy computed according to Herzberg
Infrared and Raman Spectra, Chapter V,1, Van Nostrand Reinhold, 1945
Point Group:  Cs, Symmetry Number:   1
Rotational constants in cm-1:     0.060174     0.035515     0.033588

Vibrational entropy computed according to the QRRHO of S. Grimme
Chem.Eur.J. 2012 18 9955 using a reference frequency of 100.0 cm-1

-------
ENTROPY
-------

The entropy contributions are T*S = T*(S(el)+S(vib)+S(rot)+S(trans))
     S(el)   - electronic entropy
     S(vib)  - vibrational entropy
     S(rot)  - rotational entropy
     S(trans)- translational entropy
The entropies will be listed as multiplied by the temperature to get
units of energy

Electronic entropy                ...      0.00000000 Eh      0.00 kcal/mol
Vibrational entropy               ...      0.00696202 Eh      4.37 kcal/mol
Rotational entropy                ...      0.01401546 Eh      8.79 kcal/mol
Translational entropy             ...      0.01960473 Eh     12.30 kcal/mol
-----------------------------------------------------------------------
Final entropy term                ...      0.04058221 Eh     25.47 kcal/mol

In case the symmetry of your molecule has not been determined correctly
or in case you have a reason to use a different symmetry number we print
out the resulting rotational entropy values for sn=1,12:

 non-linear molecules -----------------------------------
|  sn= 1 | S(rot)=       0.01401546 Eh      8.79 kcal/mol|
|  sn= 2 | S(rot)=       0.01336100 Eh      8.38 kcal/mol|
|  sn= 3 | S(rot)=       0.01297817 Eh      8.14 kcal/mol|
|  sn= 4 | S(rot)=       0.01270655 Eh      7.97 kcal/mol|
|  sn= 5 | S(rot)=       0.01249586 Eh      7.84 kcal/mol|
|  sn= 6 | S(rot)=       0.01232371 Eh      7.73 kcal/mol|
|  sn= 7 | S(rot)=       0.01217817 Eh      7.64 kcal/mol|
|  sn= 8 | S(rot)=       0.01205209 Eh      7.56 kcal/mol|
|  sn= 9 | S(rot)=       0.01194088 Eh      7.49 kcal/mol|
|  sn=10 | S(rot)=       0.01184140 Eh      7.43 kcal/mol|
|  sn=11 | S(rot)=       0.01175141 Eh      7.37 kcal/mol|
|  sn=12 | S(rot)=       0.01166926 Eh      7.32 kcal/mol|
 linear molecules ---------------------------------------
|  Dinfh | S(rot)=       0.00852997 Eh      5.35 kcal/mol|
|  Cinfv | S(rot)=       0.00918442 Eh      5.76 kcal/mol|
 --------------------------------------------------------

-------------------
GIBBS FREE ENERGY
-------------------

The Gibbs free energy is G = H - T*S

Total enthalpy                    ...  -1918.07419235 Eh
Total entropy correction          ...     -0.04058221 Eh    -25.47 kcal/mol
-----------------------------------------------------------------------
Final Gibbs free energy         ...  -1918.11477457 Eh

For completeness - the Gibbs free energy minus the electronic energy
G-E(el)                           ...      0.00512657 Eh      3.22 kcal/mol

                             ****ORCA TERMINATED NORMALLY****
TOTAL RUN TIME: 0 days 0 hours 3 minutes 21 seconds 720 msec
