                         Program Version 6.0.0  -   RELEASE  -
|  1> ! r2SCAN-3c DEF2-TZVP FREQ
|  2> * xyzfile 0 1 censo.xyz
|  3>
|  4>                          ****END OF INPUT****

CARTESIAN COORDINATES (ANGSTROEM)
---------------------------------
  C     -0.469826   -0.730593    0.000003
  C     -0.397700    0.772204    0.000032
  C      0.867630   -0.041728   -0.000020
  H     -0.785192   -1.221130   -0.915481
  H     -0.785145   -1.221165    0.915483
  H     -0.664826    1.290629   -0.915418
  H     -0.664774    1.290595    0.915516
  H      1.449880   -0.069353   -0.915643
  H      1.449927   -0.069391    0.915570

 Total Charge           Charge          ....    0
 Multiplicity           Mult            ....    1
 Number of Electrons    NEL             ....   24
 Basis Dimension        Dim             ....  129

ORBITAL ENERGIES
----------------

  NO   OCC          E(Eh)            E(eV)
   0   2.0000     -10.030395      -272.9409
   1   2.0000     -10.030155      -272.9344
   2   2.0000     -10.030149      -272.9342
   3   2.0000      -0.815334       -22.1864
   4   2.0000      -0.562707       -15.3120
   5   2.0000      -0.562686       -15.3115
   6   2.0000      -0.461317       -12.5531
   7   2.0000      -0.432356       -11.7650
   8   2.0000      -0.330339        -8.9890
   9   2.0000      -0.330322        -8.9885
  10   2.0000      -0.267465        -7.2781
  11   2.0000      -0.267419        -7.2768
  12   0.0000       0.061364         1.6698
  13   0.0000       0.073836         2.0092
  14   0.0000       0.095304         2.5933
  15   0.0000       0.095321         2.5938
  16   0.0000       0.115931         3.1546

MULLIKEN ATOMIC CHARGES
-----------------------
   0 C :   -0.206536
   1 C :   -0.206582
   2 C :   -0.206308
   3 H :    0.103237
   4 H :    0.103237
   5 H :    0.103250
   6 H :    0.103250
   7 H :    0.103226
   8 H :    0.103226
Sum of atomic charges:   -0.0000000

LOEWDIN ATOMIC CHARGES
----------------------
   0 C :   -0.249966
   1 C :   -0.249958
   2 C :   -0.249948
   3 H :    0.124980
   4 H :    0.124979
   5 H :    0.124970
   6 H :    0.124970
   7 H :    0.124986
   8 H :    0.124986

  Mayer bond orders larger than 0.100000
B(  0-C ,  1-C ) :   0.9700 B(  0-C ,  2-C ) :   0.9702 B(  0-C ,  3-H ) :   0.9662
B(  0-C ,  4-H ) :   0.9662 B(  1-C ,  2-C ) :   0.9700 B(  1-C ,  5-H ) :   0.9662
B(  1-C ,  6-H ) :   0.9662 B(  2-C ,  7-H ) :   0.9662 B(  2-C ,  8-H ) :   0.9662

Dispersion correction           -0.001275916
FINAL SINGLE POINT ENERGY      -117.860838702819

DIPOLE MOMENT
-------------

Method             : SCF
Type of density    : Electron Density
Multiplicity       :   1
Irrep              :   0
Energy             :  -117.8625740072643282 Eh
Relativity type    :
Basis              : AO
                                X                 Y                 Z
Electronic contribution:      0.000309722      -0.000281176       0.000003125
Nuclear contribution   :     -0.000271930       0.000337649      -0.000002602
                        -----------------------------------------
Total Dipole Moment    :      0.000037792       0.000056473       0.000000523
                        -----------------------------------------
Magnitude (a.u.)       :      0.000067954
Magnitude (Debye)      :      0.000172725

VIBRATIONAL FREQUENCIES
-----------------------

Scaling factor for frequencies =  1.000000000  (already applied!)

     0:       0.00 cm**-1
     1:       0.00 cm**-1
     2:       0.00 cm**-1
     3:       0.00 cm**-1
     4:       0.00 cm**-1
     5:       0.00 cm**-1
     6:     754.26 cm**-1
     7:     756.36 cm**-1
     8:     878.62 cm**-1
     9:     900.75 cm**-1
    10:     902.51 cm**-1
    11:    1046.47 cm**-1
    12:    1046.63 cm**-1
    13:    1078.59 cm**-1
    14:    1160.51 cm**-1
    15:    1212.93 cm**-1
    16:    1219.90 cm**-1
    17:    1220.08 cm**-1
    18:    1474.46 cm**-1
    19:    1474.61 cm**-1
    20:    1514.21 cm**-1
    21:    3106.44 cm**-1
    22:    3106.59 cm**-1
    23:    3111.88 cm**-1
    24:    3188.29 cm**-1
    25:    3188.49 cm**-1
    26:    3210.79 cm**-1

IR SPECTRUM
-----------

 Mode   freq       eps      Int      T**2         TX        TY        TZ
       cm**-1   L/(mol*cm) km/mol    a.u.
----------------------------------------------------------------------------
  6:    754.26   0.000000    0.00  0.000000  ( 0.000000 -0.000000 -0.000237)
  7:    756.36   0.000000    0.00  0.000000  (-0.000000  0.000000  0.000147)
  8:    878.62   0.000089    0.45  0.000032  ( 0.000000 -0.000000  0.005635)
  9:    900.75   0.003755   18.98  0.001301  (-0.035268 -0.007567  0.000001)
 10:    902.51   0.003754   18.97  0.001298  (-0.007499  0.035239  0.000001)
 11:   1046.47   0.002100   10.61  0.000626  ( 0.020634  0.014155 -0.000000)
 12:   1046.63   0.002130   10.76  0.000635  (-0.013881  0.021034  0.000001)
 13:   1078.59   0.000000    0.00  0.000000  (-0.000067 -0.000355 -0.000000)
 14:   1160.51   0.000000    0.00  0.000000  ( 0.000000  0.000000 -0.000121)
 15:   1212.93   0.000000    0.00  0.000000  ( 0.000033 -0.000043 -0.000000)
 16:   1219.90   0.000000    0.00  0.000000  (-0.000000 -0.000000  0.000026)
 17:   1220.08   0.000000    0.00  0.000000  ( 0.000000 -0.000000  0.000211)
 18:   1474.46   0.000218    1.10  0.000046  ( 0.005134  0.004451 -0.000000)
 19:   1474.61   0.000219    1.11  0.000046  ( 0.004406 -0.005193 -0.000000)
 20:   1514.21   0.000000    0.00  0.000000  ( 0.000017  0.000018  0.000000)
 21:   3106.44   0.005902   29.83  0.000593  (-0.011789 -0.021305 -0.000001)
 22:   3106.59   0.005921   29.92  0.000595  (-0.021347  0.011793  0.000002)
 23:   3111.88   0.000001    0.01  0.000000  (-0.000327 -0.000023  0.000002)
 24:   3188.29   0.000000    0.00  0.000000  ( 0.000001  0.000002  0.000037)
 25:   3188.49   0.000000    0.00  0.000000  ( 0.000002  0.000000  0.000137)
 26:   3210.79   0.005831   29.47  0.000567  (-0.000001  0.000001 -0.023805)

--------------------------
THERMOCHEMISTRY AT 298.15K
--------------------------

Temperature         ...   298.15 K
Pressure            ...     1.00 atm
Total Mass          ...    42.08 AMU
Quasi RRHO          ...     True
Cut-Off Frequency   ...     1.00 cm^-1

Throughout the following assumptions are being made:
  (1) The electronic state is orbitally nondegenerate
  (2) There are no thermally accessible electronically excited states
  (3) Hindered rotations indicated by low frequency modes are not
      treated as such but are treated as vibrations and this may
      cause some error
  (4) All equations used are the standard statistical mechanics
      equations for an ideal gas
  (5) All vibrations are strictly harmonic

freq.     754.26  E(vib)   ...       0.06
freq.     756.36  E(vib)   ...       0.06
freq.     878.62  E(vib)   ...       0.04
freq.     900.75  E(vib)   ...       0.03
freq.     902.51  E(vib)   ...       0.03
freq.    1046.47  E(vib)   ...       0.02
freq.    1046.63  E(vib)   ...       0.02
freq.    1078.59  E(vib)   ...       0.02
freq.    1160.51  E(vib)   ...       0.01
freq.    1212.93  E(vib)   ...       0.01
freq.    1219.90  E(vib)   ...       0.01
freq.    1220.08  E(vib)   ...       0.01
freq.    1474.46  E(vib)   ...       0.00
freq.    1474.61  E(vib)   ...       0.00
freq.    1514.21  E(vib)   ...       0.00
freq.    3106.44  E(vib)   ...       0.00
freq.    3106.59  E(vib)   ...       0.00
freq.    3111.88  E(vib)   ...       0.00
freq.    3188.29  E(vib)   ...       0.00
freq.    3188.49  E(vib)   ...       0.00
freq.    3210.79  E(vib)   ...       0.00

------------
INNER ENERGY
------------

The inner energy is: U= E(el) + E(ZPE) + E(vib) + E(rot) + E(trans)
    E(el)   - is the total energy from the electronic structure calculation
              = E(kin-el) + E(nuc-el) + E(el-el) + E(nuc-nuc)
    E(ZPE)  - the the zero temperature vibrational energy from the frequency calculation
    E(vib)  - the the finite temperature correction to E(ZPE) due to population
              of excited vibrational states
    E(rot)  - is the rotational thermal energy
    E(trans)- is the translational thermal energy

Summary of contributions to the inner energy U:
Electronic energy                ...   -117.86083870 Eh
Zero point energy                ...      0.08099653 Eh      50.83 kcal/mol
Thermal vibrational correction   ...      0.00052121 Eh       0.33 kcal/mol
Thermal rotational correction    ...      0.00141627 Eh       0.89 kcal/mol
Thermal translational correction ...      0.00141627 Eh       0.89 kcal/mol
-----------------------------------------------------------------------
Total thermal energy                   -117.77648841 Eh

Summary of corrections to the electronic energy:
(perhaps to be used in another calculation)
Total thermal correction                  0.00335375 Eh       2.10 kcal/mol
Non-thermal (ZPE) correction              0.08099653 Eh      50.83 kcal/mol
-----------------------------------------------------------------------
Total correction                          0.08435029 Eh      52.93 kcal/mol

--------
ENTHALPY
--------

The enthalpy is H = U + kB*T
                kB is Boltzmann's constant
Total thermal energy              ...   -117.77648841 Eh
Thermal Enthalpy correction       ...      0.00094421 Eh       0.59 kcal/mol
-----------------------------------------------------------------------
Total Enthalpy                    ...   -117.77554421 Eh

Note: Rotational entropy computed according to Herzberg
Infrared and Raman Spectra, Chapter V,1, Van Nostrand Reinhold, 1945
Point Group:  Cs, Symmetry Number:   1
Rotational constants in cm-1:     0.673394     0.673299     0.422152

Vibrational entropy computed according to the QRRHO of S. Grimme
Chem.Eur.J. 2012 18 9955 using a reference frequency of 100.0 cm-1

-------
ENTROPY
-------

The entropy contributions are T*S = T*(S(el)+S(vib)+S(rot)+S(trans))
     S(el)   - electronic entropy
     S(vib)  - vibrational entropy
     S(rot)  - rotational entropy
     S(trans)- translational entropy
The entropies will be listed as multiplied by the temperature to get
units of energy

Electronic entropy                ...      0.00000000 Eh      0.00 kcal/mol
Vibrational entropy               ...      0.00064075 Eh      0.40 kcal/mol
Rotational entropy                ...      0.01029136 Eh      6.46 kcal/mol
Translational entropy             ...      0.01764535 Eh     11.07 kcal/mol
-----------------------------------------------------------------------
Final entropy term                ...      0.02857746 Eh     17.93 kcal/mol

In case the symmetry of your molecule has not been determined correctly
or in case you have a reason to use a different symmetry number we print
out the resulting rotational entropy values for sn=1,12:

 non-linear molecules -----------------------------------
|  sn= 1 | S(rot)=       0.01029136 Eh      6.46 kcal/mol|
|  sn= 2 | S(rot)=       0.00963690 Eh      6.05 kcal/mol|
|  sn= 3 | S(rot)=       0.00925407 Eh      5.81 kcal/mol|
|  sn= 4 | S(rot)=       0.00898244 Eh      5.64 kcal/mol|
|  sn= 5 | S(rot)=       0.00877175 Eh      5.50 kcal/mol|
|  sn= 6 | S(rot)=       0.00859961 Eh      5.40 kcal/mol|
|  sn= 7 | S(rot)=       0.00845406 Eh      5.30 kcal/mol|
|  sn= 8 | S(rot)=       0.00832799 Eh      5.23 kcal/mol|
|  sn= 9 | S(rot)=       0.00821678 Eh      5.16 kcal/mol|
|  sn=10 | S(rot)=       0.00811730 Eh      5.09 kcal/mol|
|  sn=11 | S(rot)=       0.00802731 Eh      5.04 kcal/mol|
|  sn=12 | S(rot)=       0.00794515 Eh      4.99 kcal/mol|
 linear molecules ---------------------------------------
|  Dinfh | S(rot)=       0.00614006 Eh      3.85 kcal/mol|
|  Cinfv | S(rot)=       0.00679452 Eh      4.26 kcal/mol|
 --------------------------------------------------------

-------------------
GIBBS FREE ENERGY
-------------------

The Gibbs free energy is G = H - T*S

Total enthalpy                    ...   -117.77554421 Eh
Total entropy correction          ...     -0.02857746 Eh    -17.93 kcal/mol
-----------------------------------------------------------------------
Final Gibbs free energy         ...   -117.80412166 Eh

For completeness - the Gibbs free energy minus the electronic energy
G-E(el)                           ...      0.05671704 Eh     35.59 kcal/mol

                             ****ORCA TERMINATED NORMALLY****
TOTAL RUN TIME: 0 days 0 hours 1 minutes 44 seconds 599 msec
