                         Program Version 6.0.0  -   RELEASE  -
|  1> ! r2SCAN-3c DEF2-TZVP FREQ
|  2> * xyzfile 0 1 vacuum_censo.xyz
|  3>
|  4>                          ****END OF INPUT****

CARTESIAN COORDINATES (ANGSTROEM)
---------------------------------
  C      0.470866    0.729650   -0.000030
  C      0.396467   -0.772558    0.000035
  C     -0.867321    0.042922   -0.000025
  H      0.788842    1.222463   -0.912642
  H      0.788780    1.222537    0.912563
  H      0.664233   -1.294405   -0.912547
  H      0.664221   -1.294361    0.912648
  H     -1.452953    0.071815   -0.912712
  H     -1.452973    0.071918    0.912646

 Total Charge           Charge          ....    0
 Multiplicity           Mult            ....    1
 Number of Electrons    NEL             ....   24
 Basis Dimension        Dim             ....  129

ORBITAL ENERGIES
----------------

  NO   OCC          E(Eh)            E(eV)
   0   2.0000     -10.030321      -272.9389
   1   2.0000     -10.030079      -272.9323
   2   2.0000     -10.030074      -272.9322
   3   2.0000      -0.815380       -22.1876
   4   2.0000      -0.563171       -15.3247
   5   2.0000      -0.563161       -15.3244
   6   2.0000      -0.460680       -12.5357
   7   2.0000      -0.433377       -11.7928
   8   2.0000      -0.329832        -8.9752
   9   2.0000      -0.329816        -8.9748
  10   2.0000      -0.267823        -7.2878
  11   2.0000      -0.267808        -7.2874
  12   0.0000       0.062111         1.6901
  13   0.0000       0.073895         2.0108
  14   0.0000       0.095199         2.5905
  15   0.0000       0.095209         2.5908
  16   0.0000       0.115853         3.1525

MULLIKEN ATOMIC CHARGES
-----------------------
   0 C :   -0.206436
   1 C :   -0.206372
   2 C :   -0.206229
   3 H :    0.103178
   4 H :    0.103176
   5 H :    0.103176
   6 H :    0.103179
   7 H :    0.103164
   8 H :    0.103163
Sum of atomic charges:   -0.0000000

LOEWDIN ATOMIC CHARGES
----------------------
   0 C :   -0.249558
   1 C :   -0.249575
   2 C :   -0.249540
   3 H :    0.124776
   4 H :    0.124777
   5 H :    0.124780
   6 H :    0.124779
   7 H :    0.124780
   8 H :    0.124780

  Mayer bond orders larger than 0.100000
B(  0-C ,  1-C ) :   0.9702 B(  0-C ,  2-C ) :   0.9704 B(  0-C ,  3-H ) :   0.9663
B(  0-C ,  4-H ) :   0.9663 B(  1-C ,  2-C ) :   0.9702 B(  1-C ,  5-H ) :   0.9663
B(  1-C ,  6-H ) :   0.9663 B(  2-C ,  7-H ) :   0.9663 B(  2-C ,  8-H ) :   0.9663

Dispersion correction           -0.001275749
FINAL SINGLE POINT ENERGY      -117.860862499637

DIPOLE MOMENT
-------------

Method             : SCF
Type of density    : Electron Density
Multiplicity       :   1
Irrep              :   0
Energy             :  -117.8626024455576697 Eh
Relativity type    :
Basis              : AO
                                X                 Y                 Z
Electronic contribution:     -0.000100022      -0.000014034       0.000003277
Nuclear contribution   :      0.000100267      -0.000050276      -0.000003480
                        -----------------------------------------
Total Dipole Moment    :      0.000000245      -0.000064310      -0.000000203
                        -----------------------------------------
Magnitude (a.u.)       :      0.000064311
Magnitude (Debye)      :      0.000163465

VIBRATIONAL FREQUENCIES
-----------------------

Scaling factor for frequencies =  1.000000000  (already applied!)

     0:       0.00 cm**-1
     1:       0.00 cm**-1
     2:       0.00 cm**-1
     3:       0.00 cm**-1
     4:       0.00 cm**-1
     5:       0.00 cm**-1
     6:     747.72 cm**-1
     7:     749.71 cm**-1
     8:     872.17 cm**-1
     9:     901.10 cm**-1
    10:     902.61 cm**-1
    11:    1046.72 cm**-1
    12:    1046.73 cm**-1
    13:    1078.17 cm**-1
    14:    1158.41 cm**-1
    15:    1213.19 cm**-1
    16:    1216.97 cm**-1
    17:    1217.13 cm**-1
    18:    1474.85 cm**-1
    19:    1475.02 cm**-1
    20:    1514.30 cm**-1
    21:    3113.09 cm**-1
    22:    3113.19 cm**-1
    23:    3118.50 cm**-1
    24:    3192.60 cm**-1
    25:    3192.73 cm**-1
    26:    3214.92 cm**-1

IR SPECTRUM
-----------

 Mode   freq       eps      Int      T**2         TX        TY        TZ
       cm**-1   L/(mol*cm) km/mol    a.u.
----------------------------------------------------------------------------
  6:    747.72   0.000000    0.00  0.000000  ( 0.000000  0.000001  0.000235)
  7:    749.71   0.000000    0.00  0.000000  ( 0.000001 -0.000000 -0.000153)
  8:    872.17   0.000107    0.54  0.000038  (-0.000001  0.000002 -0.006182)
  9:    901.10   0.003786   19.13  0.001311  ( 0.035574  0.006743  0.000000)
 10:    902.61   0.003777   19.09  0.001306  ( 0.006639 -0.035523  0.000002)
 11:   1046.72   0.002004   10.13  0.000597  ( 0.024439 -0.000233  0.000001)
 12:   1046.73   0.002088   10.55  0.000622  (-0.000201 -0.024948  0.000002)
 13:   1078.17   0.000000    0.00  0.000000  ( 0.000046  0.000349 -0.000000)
 14:   1158.41   0.000000    0.00  0.000000  (-0.000001 -0.000000  0.000135)
 15:   1213.19   0.000000    0.00  0.000000  (-0.000038  0.000047  0.000000)
 16:   1216.97   0.000000    0.00  0.000000  ( 0.000000  0.000000 -0.000006)
 17:   1217.13   0.000000    0.00  0.000000  ( 0.000000 -0.000000  0.000217)
 18:   1474.85   0.000216    1.09  0.000046  (-0.004838 -0.004711 -0.000000)
 19:   1475.02   0.000216    1.09  0.000046  ( 0.004659 -0.004899 -0.000001)
 20:   1514.30   0.000000    0.00  0.000000  ( 0.000020  0.000020  0.000000)
 21:   3113.09   0.005905   29.84  0.000592  (-0.006917 -0.023326  0.000001)
 22:   3113.19   0.005925   29.94  0.000594  (-0.023363  0.006934 -0.000001)
 23:   3118.50   0.000001    0.01  0.000000  ( 0.000330 -0.000186 -0.000000)
 24:   3192.60   0.000000    0.00  0.000000  ( 0.000000 -0.000001 -0.000077)
 25:   3192.73   0.000000    0.00  0.000000  (-0.000000 -0.000000  0.000165)
 26:   3214.92   0.005962   30.13  0.000579  ( 0.000001 -0.000002 -0.024056)

--------------------------
THERMOCHEMISTRY AT 298.15K
--------------------------

Temperature         ...   298.15 K
Pressure            ...     1.00 atm
Total Mass          ...    42.08 AMU
Quasi RRHO          ...     True
Cut-Off Frequency   ...     1.00 cm^-1

Throughout the following assumptions are being made:
  (1) The electronic state is orbitally nondegenerate
  (2) There are no thermally accessible electronically excited states
  (3) Hindered rotations indicated by low frequency modes are not
      treated as such but are treated as vibrations and this may
      cause some error
  (4) All equations used are the standard statistical mechanics
      equations for an ideal gas
  (5) All vibrations are strictly harmonic

freq.     747.72  E(vib)   ...       0.06
freq.     749.71  E(vib)   ...       0.06
freq.     872.17  E(vib)   ...       0.04
freq.     901.10  E(vib)   ...       0.03
freq.     902.61  E(vib)   ...       0.03
freq.    1046.72  E(vib)   ...       0.02
freq.    1046.73  E(vib)   ...       0.02
freq.    1078.17  E(vib)   ...       0.02
freq.    1158.41  E(vib)   ...       0.01
freq.    1213.19  E(vib)   ...       0.01
freq.    1216.97  E(vib)   ...       0.01
freq.    1217.13  E(vib)   ...       0.01
freq.    1474.85  E(vib)   ...       0.00
freq.    1475.02  E(vib)   ...       0.00
freq.    1514.30  E(vib)   ...       0.00
freq.    3113.09  E(vib)   ...       0.00
freq.    3113.19  E(vib)   ...       0.00
freq.    3118.50  E(vib)   ...       0.00
freq.    3192.60  E(vib)   ...       0.00
freq.    3192.73  E(vib)   ...       0.00
freq.    3214.92  E(vib)   ...       0.00

------------
INNER ENERGY
------------

The inner energy is: U= E(el) + E(ZPE) + E(vib) + E(rot) + E(trans)
    E(el)   - is the total energy from the electronic structure calculation
              = E(kin-el) + E(nuc-el) + E(el-el) + E(nuc-nuc)
    E(ZPE)  - the the zero temperature vibrational energy from the frequency calculation
    E(vib)  - the the finite temperature correction to E(ZPE) due to population
              of excited vibrational states
    E(rot)  - is the rotational thermal energy
    E(trans)- is the translational thermal energy

Summary of contributions to the inner energy U:
Electronic energy                ...   -117.86086250 Eh
Zero point energy                ...      0.08101126 Eh      50.84 kcal/mol
Thermal vibrational correction   ...      0.00052752 Eh       0.33 kcal/mol
Thermal rotational correction    ...      0.00141627 Eh       0.89 kcal/mol
Thermal translational correction ...      0.00141627 Eh       0.89 kcal/mol
-----------------------------------------------------------------------
Total thermal energy                   -117.77649118 Eh

Summary of corrections to the electronic energy:
(perhaps to be used in another calculation)
Total thermal correction                  0.00336007 Eh       2.11 kcal/mol
Non-thermal (ZPE) correction              0.08101126 Eh      50.84 kcal/mol
-----------------------------------------------------------------------
Total correction                          0.08437132 Eh      52.94 kcal/mol

--------
ENTHALPY
--------

The enthalpy is H = U + kB*T
                kB is Boltzmann's constant
Total thermal energy              ...   -117.77649118 Eh
Thermal Enthalpy correction       ...      0.00094421 Eh       0.59 kcal/mol
-----------------------------------------------------------------------
Total Enthalpy                    ...   -117.77554697 Eh

Note: Rotational entropy computed according to Herzberg
Infrared and Raman Spectra, Chapter V,1, Van Nostrand Reinhold, 1945
Point Group:  C2, Symmetry Number:   2
Rotational constants in cm-1:     0.673695     0.673650     0.421732

Vibrational entropy computed according to the QRRHO of S. Grimme
Chem.Eur.J. 2012 18 9955 using a reference frequency of 100.0 cm-1

-------
ENTROPY
-------

The entropy contributions are T*S = T*(S(el)+S(vib)+S(rot)+S(trans))
     S(el)   - electronic entropy
     S(vib)  - vibrational entropy
     S(rot)  - rotational entropy
     S(trans)- translational entropy
The entropies will be listed as multiplied by the temperature to get
units of energy

Electronic entropy                ...      0.00000000 Eh      0.00 kcal/mol
Vibrational entropy               ...      0.00064922 Eh      0.41 kcal/mol
Rotational entropy                ...      0.00963691 Eh      6.05 kcal/mol
Translational entropy             ...      0.01764535 Eh     11.07 kcal/mol
-----------------------------------------------------------------------
Final entropy term                ...      0.02793149 Eh     17.53 kcal/mol

In case the symmetry of your molecule has not been determined correctly
or in case you have a reason to use a different symmetry number we print
out the resulting rotational entropy values for sn=1,12:

 non-linear molecules -----------------------------------
|  sn= 1 | S(rot)=       0.01029137 Eh      6.46 kcal/mol|
|  sn= 2 | S(rot)=       0.00963691 Eh      6.05 kcal/mol|
|  sn= 3 | S(rot)=       0.00925408 Eh      5.81 kcal/mol|
|  sn= 4 | S(rot)=       0.00898246 Eh      5.64 kcal/mol|
|  sn= 5 | S(rot)=       0.00877177 Eh      5.50 kcal/mol|
|  sn= 6 | S(rot)=       0.00859962 Eh      5.40 kcal/mol|
|  sn= 7 | S(rot)=       0.00845408 Eh      5.31 kcal/mol|
|  sn= 8 | S(rot)=       0.00832800 Eh      5.23 kcal/mol|
|  sn= 9 | S(rot)=       0.00821679 Eh      5.16 kcal/mol|
|  sn=10 | S(rot)=       0.00811731 Eh      5.09 kcal/mol|
|  sn=11 | S(rot)=       0.00802732 Eh      5.04 kcal/mol|
|  sn=12 | S(rot)=       0.00794517 Eh      4.99 kcal/mol|
 linear molecules ---------------------------------------
|  Dinfh | S(rot)=       0.00614100 Eh      3.85 kcal/mol|
|  Cinfv | S(rot)=       0.00679545 Eh      4.26 kcal/mol|
 --------------------------------------------------------

-------------------
GIBBS FREE ENERGY
-------------------

The Gibbs free energy is G = H - T*S

Total enthalpy                    ...   -117.77554697 Eh
Total entropy correction          ...     -0.02793149 Eh    -17.53 kcal/mol
-----------------------------------------------------------------------
Final Gibbs free energy         ...   -117.80347846 Eh

For completeness - the Gibbs free energy minus the electronic energy
G-E(el)                           ...      0.05738404 Eh     36.01 kcal/mol

                             ****ORCA TERMINATED NORMALLY****
TOTAL RUN TIME: 0 days 0 hours 1 minutes 41 seconds 768 msec
