                         Program Version 6.0.1  -  RELEASE   -
|  1> ! r2scan-3c def2/J RI DEFGRID2 scfconv6 printgap
|  2> %output
|  3>     printlevel normal
|  4> end
|  5> * xyz 0 1
|  6> C -2.6462747323 -0.1171863415 -0.0008584552
|  7> O -1.3623813739 -0.7248555153 0.0006797934
|  8> C -0.3138611242 0.1161182314 0.0008396896
|  9> O -0.4248694286 1.315593941 0.0002292063
| 10> C 0.9639881801 -0.6328988713 0.0004756995
| 11> C 2.1290181754 -0.0264307229 -0.7433004091
| 12> C 2.1300248475 -0.0260171911 0.7421294751
| 13> H -3.3675708983 -0.9300006021 0.0065667779
| 14> H -2.7721439221 0.5002876021 -0.8925281941
| 15> H -2.7682024944 0.513266754 0.8822153337
| 16> H 0.8429632242 -1.7068889805 0.0008686852
| 17> H 2.7879094291 -0.6983650439 -1.2710348522
| 18> H 1.9449107733 0.9107483242 -1.2457246575
| 19> H 2.789515261 -0.6978858679 1.2692145456
| 20> H 1.9468298414 0.9113667745 1.2445015423
| 21> *
| 22>
| 23>                          ****END OF INPUT****

CARTESIAN COORDINATES (ANGSTROEM)
---------------------------------
  C     -2.646275   -0.117186   -0.000858
  O     -1.362381   -0.724856    0.000680
  C     -0.313861    0.116118    0.000840
  O     -0.424869    1.315594    0.000229
  C      0.963988   -0.632899    0.000476
  C      2.129018   -0.026431   -0.743300
  C      2.130025   -0.026017    0.742129
  H     -3.367571   -0.930001    0.006567
  H     -2.772144    0.500288   -0.892528
  H     -2.768202    0.513267    0.882215
  H      0.842963   -1.706889    0.000869
  H      2.787909   -0.698365   -1.271035
  H      1.944911    0.910748   -1.245725
  H      2.789515   -0.697886    1.269215
  H      1.946830    0.911367    1.244502

 Total Charge           Charge          ....    0
 Multiplicity           Mult            ....    1
 Number of Electrons    NEL             ....   54
 Basis Dimension        Dim             ....  183

ORBITAL ENERGIES
----------------

  NO   OCC          E(Eh)            E(eV)
   0   2.0000     -18.997791      -516.9562
   1   2.0000     -18.930209      -515.1172
   2   2.0000     -10.152739      -276.2701
   3   2.0000     -10.083933      -274.3978
   4   2.0000     -10.056428      -273.6493
   5   2.0000     -10.046563      -273.3809
   6   2.0000     -10.046359      -273.3753
   7   2.0000      -1.071759       -29.1640
   8   2.0000      -0.981519       -26.7085
   9   2.0000      -0.843228       -22.9454
  10   2.0000      -0.709634       -19.3101
  11   2.0000      -0.610445       -16.6111
  12   2.0000      -0.579704       -15.7746
  13   2.0000      -0.524650       -14.2764
  14   2.0000      -0.497891       -13.5483
  15   2.0000      -0.463642       -12.6163
  16   2.0000      -0.449816       -12.2401
  17   2.0000      -0.429820       -11.6960
  18   2.0000      -0.410427       -11.1683
  19   2.0000      -0.372253       -10.1295
  20   2.0000      -0.363565        -9.8931
  21   2.0000      -0.339047        -9.2259
  22   2.0000      -0.324690        -8.8353
  23   2.0000      -0.288164        -7.8413
  24   2.0000      -0.277653        -7.5553
  25   2.0000      -0.273469        -7.4415
  26   2.0000      -0.242751        -6.6056
  27   0.0000      -0.018147        -0.4938
  28   0.0000       0.067512         1.8371
  29   0.0000       0.089853         2.4450
  30   0.0000       0.101656         2.7662
  31   0.0000       0.105439         2.8691

MULLIKEN ATOMIC CHARGES
-----------------------
   0 C :   -0.298151
   1 O :   -0.189257
   2 C :    0.395626
   3 O :   -0.447921
   4 C :   -0.111660
   5 C :   -0.342710
   6 C :   -0.342816
   7 H :    0.149324
   8 H :    0.159984
   9 H :    0.160445
  10 H :    0.182708
  11 H :    0.163953
  12 H :    0.178265
  13 H :    0.163951
  14 H :    0.178258
Sum of atomic charges:   -0.0000000

LOEWDIN ATOMIC CHARGES
----------------------
   0 C :   -0.046729
   1 O :   -0.605466
   2 C :    0.367831
   3 O :   -0.431220
   4 C :   -0.152634
   5 C :   -0.262341
   6 C :   -0.262384
   7 H :    0.175301
   8 H :    0.175875
   9 H :    0.176134
  10 H :    0.183051
  11 H :    0.163937
  12 H :    0.177361
  13 H :    0.163939
  14 H :    0.177345

  Mayer bond orders larger than 0.100000
B(  0-C ,  1-O ) :   0.8540 B(  0-C ,  7-H ) :   0.9687 B(  0-C ,  8-H ) :   0.9645
B(  0-C ,  9-H ) :   0.9647 B(  1-O ,  2-C ) :   1.0775 B(  2-C ,  3-O ) :   1.8529
B(  2-C ,  4-C ) :   1.0876 B(  4-C ,  5-C ) :   0.8796 B(  4-C ,  6-C ) :   0.8796
B(  4-C , 10-H ) :   0.9027 B(  5-C ,  6-C ) :   0.9942 B(  5-C , 11-H ) :   0.9443
B(  5-C , 12-H ) :   0.9498 B(  6-C , 13-H ) :   0.9444 B(  6-C , 14-H ) :   0.9498

Dispersion correction           -0.003493285
FINAL SINGLE POINT ENERGY      -345.701094433536

DIPOLE MOMENT
-------------

Method             : SCF
Type of density    : Electron Density
Multiplicity       :   1
Irrep              :   0
Energy             :  -345.7063149326443181 Eh
Relativity type    :
Basis              : AO
                                X                 Y                 Z
Electronic contribution:     -1.294083080       0.455767172       0.005120814
Nuclear contribution   :      1.290901287      -1.114675686      -0.005541258
                        -----------------------------------------
Total Dipole Moment    :     -0.003181793      -0.658908513      -0.000420443
                        -----------------------------------------
Magnitude (a.u.)       :      0.658916329
Magnitude (Debye)      :      1.674832208

Rotational constants in cm-1:             0.242730             0.054358             0.050002
Rotational constants in MHz :          7276.853797          1629.620058          1499.026245

                             ****ORCA TERMINATED NORMALLY****
TOTAL RUN TIME: 0 days 0 hours 0 minutes 17 seconds 237 msec
