                         Program Version 6.0.1  -  RELEASE   -
|  1> ! pbe def2-sv(p) def2/J RI DEFGRID1 loosescf d4 GCP(DFT/SV(P)) printgap
|  2> %output
|  3>     printlevel normal
|  4> end
|  5> * xyz 0 1
|  6> C 1.5703916985 -0.5281114847 -0.1107074576
|  7> C 0.6119917602 0.592100787 0.291020298
|  8> O -0.6540610767 0.5187116665 -0.3248470963
|  9> C -1.4665052073 -0.5331192226 0.1301344926
| 10> H 1.2403278401 -1.4875548285 0.280296956
| 11> H 1.6300010881 -0.5922145285 -1.1943225718
| 12> H 2.5597281702 -0.3169656222 0.2856743414
| 13> H 1.0174339422 1.5556122612 -0.0287668245
| 14> H 0.4954035751 0.6054849713 1.386249395
| 15> H -1.5606581673 -0.5164104387 1.2234564459
| 16> H -1.0843240151 -1.5127263296 -0.1773806277
| 17> H -2.4463685172 -0.3786980174 -0.3181422109
| 18> *
| 19>
| 20>                          ****END OF INPUT****

CARTESIAN COORDINATES (ANGSTROEM)
---------------------------------
  C      1.570392   -0.528111   -0.110707
  C      0.611992    0.592101    0.291020
  O     -0.654061    0.518712   -0.324847
  C     -1.466505   -0.533119    0.130134
  H      1.240328   -1.487555    0.280297
  H      1.630001   -0.592215   -1.194323
  H      2.559728   -0.316966    0.285674
  H      1.017434    1.555612   -0.028767
  H      0.495404    0.605485    1.386249
  H     -1.560658   -0.516410    1.223456
  H     -1.084324   -1.512726   -0.177381
  H     -2.446369   -0.378698   -0.318142

 Total Charge           Charge          ....    0
 Multiplicity           Mult            ....    1
 Number of Electrons    NEL             ....   34
 Basis Dimension        Dim             ....   72

ORBITAL ENERGIES
----------------

  NO   OCC          E(Eh)            E(eV)
   0   2.0000     -18.747313      -510.1403
   1   2.0000      -9.928541      -270.1693
   2   2.0000      -9.921276      -269.9716
   3   2.0000      -9.876378      -268.7499
   4   2.0000      -0.930069       -25.3085
   5   2.0000      -0.679769       -18.4975
   6   2.0000      -0.613843       -16.7035
   7   2.0000      -0.529524       -14.4091
   8   2.0000      -0.435998       -11.8641
   9   2.0000      -0.430247       -11.7076
  10   2.0000      -0.399275       -10.8648
  11   2.0000      -0.363004        -9.8778
  12   2.0000      -0.351726        -9.5709
  13   2.0000      -0.329655        -8.9704
  14   2.0000      -0.309469        -8.4211
  15   2.0000      -0.256488        -6.9794
  16   2.0000      -0.201700        -5.4885
  17   0.0000       0.038361         1.0439
  18   0.0000       0.075534         2.0554
  19   0.0000       0.078238         2.1290
  20   0.0000       0.096378         2.6226
  21   0.0000       0.110632         3.0104

MULLIKEN ATOMIC CHARGES
-----------------------
   0 C :   -0.312170
   1 C :   -0.010394
   2 O :   -0.333464
   3 C :   -0.109955
   4 H :    0.108445
   5 H :    0.111234
   6 H :    0.103343
   7 H :    0.092151
   8 H :    0.067830
   9 H :    0.079937
  10 H :    0.089859
  11 H :    0.113184
Sum of atomic charges:    0.0000000

LOEWDIN ATOMIC CHARGES
----------------------
   0 C :   -0.366097
   1 C :   -0.120584
   2 O :   -0.178909
   3 C :   -0.210365
   4 H :    0.118190
   5 H :    0.124072
   6 H :    0.125825
   7 H :    0.111220
   8 H :    0.092492
   9 H :    0.094635
  10 H :    0.094501
  11 H :    0.115018

  Mayer bond orders larger than 0.100000
B(  0-C ,  1-C ) :   1.1361 B(  0-C ,  4-H ) :   0.9500 B(  0-C ,  5-H ) :   0.9480
B(  0-C ,  6-H ) :   0.9430 B(  1-C ,  2-O ) :   1.0418 B(  1-C ,  7-H ) :   0.9394
B(  1-C ,  8-H ) :   0.9213 B(  2-O ,  3-C ) :   1.0285 B(  3-C ,  9-H ) :   0.9384
B(  3-C , 10-H ) :   0.9400 B(  3-C , 11-H ) :   0.9640

Dispersion correction           -0.006378040
FINAL SINGLE POINT ENERGY      -193.870813283433

DIPOLE MOMENT
-------------

Method             : SCF
Type of density    : Electron Density
Multiplicity       :   1
Irrep              :   0
Energy             :  -193.9193547047798631 Eh
Relativity type    :
Basis              : AO
                                X                 Y                 Z
Electronic contribution:     -1.577552860       2.155127909      -1.063372938
Nuclear contribution   :      1.727345823      -2.472313162       1.362145176
                        -----------------------------------------
Total Dipole Moment    :      0.149792963      -0.317185253       0.298772238
                        -----------------------------------------
Magnitude (a.u.)       :      0.460770297
Magnitude (Debye)      :      1.171185019

Rotational constants in cm-1:             0.531297             0.174099             0.150400
Rotational constants in MHz :         15927.873143          5219.354213          4508.877495

                             ****ORCA TERMINATED NORMALLY****
TOTAL RUN TIME: 0 days 0 hours 0 minutes 11 seconds 138 msec
