                         Program Version 6.0.0  -   RELEASE  -
|  1> ! r2SCAN-3c DEF2-TZVP FREQ
|  2> * xyzfile 0 1 censo.xyz
|  3>
|  4>                          ****END OF INPUT****

CARTESIAN COORDINATES (ANGSTROEM)
---------------------------------
  C     -1.205641   -0.229974    0.085869
  N     -0.005160    0.616986    0.099399
  C      1.190513   -0.207835   -0.118448
  H     -1.355313   -0.640678   -0.918648
  H     -2.088955    0.364686    0.338398
  H     -1.149209   -1.078746    0.788680
  H      0.071370    1.000319    1.037678
  H      2.091846    0.405694   -0.032577
  H      1.167666   -0.629597   -1.128956
  H      1.276631   -1.048270    0.591042

 Total Charge           Charge          ....    0
 Multiplicity           Mult            ....    1
 Number of Electrons    NEL             ....   26
 Basis Dimension        Dim             ....  135

ORBITAL ENERGIES
----------------

  NO   OCC          E(Eh)            E(eV)
   0   2.0000     -14.145341      -384.9143
   1   2.0000     -10.045039      -273.3394
   2   2.0000     -10.044890      -273.3353
   3   2.0000      -0.861316       -23.4376
   4   2.0000      -0.662203       -18.0195
   5   2.0000      -0.594052       -16.1650
   6   2.0000      -0.453005       -12.3269
   7   2.0000      -0.408272       -11.1096
   8   2.0000      -0.400508       -10.8984
   9   2.0000      -0.353919        -9.6306
  10   2.0000      -0.331367        -9.0169
  11   2.0000      -0.327588        -8.9141
  12   2.0000      -0.198872        -5.4116
  13   0.0000       0.041373         1.1258
  14   0.0000       0.085162         2.3174
  15   0.0000       0.098639         2.6841
  16   0.0000       0.109451         2.9783
  17   0.0000       0.118226         3.2171

MULLIKEN ATOMIC CHARGES
-----------------------
   0 C :   -0.221225
   1 N :   -0.326926
   2 C :   -0.221396
   3 H :    0.103649
   4 H :    0.109954
   5 H :    0.079125
   6 H :    0.183919
   7 H :    0.110049
   8 H :    0.103439
   9 H :    0.079411
Sum of atomic charges:   -0.0000000

LOEWDIN ATOMIC CHARGES
----------------------
   0 C :   -0.351143
   1 N :   -0.084905
   2 C :   -0.351211
   3 H :    0.110933
   4 H :    0.109781
   5 H :    0.092310
   6 H :    0.161319
   7 H :    0.109659
   8 H :    0.110976
   9 H :    0.092280

  Mayer bond orders larger than 0.100000
B(  0-C ,  1-N ) :   0.9872 B(  0-C ,  3-H ) :   0.9757 B(  0-C ,  4-H ) :   0.9767
B(  0-C ,  5-H ) :   0.9637 B(  1-N ,  2-C ) :   0.9872 B(  1-N ,  6-H ) :   0.9341
B(  2-C ,  7-H ) :   0.9766 B(  2-C ,  8-H ) :   0.9756 B(  2-C ,  9-H ) :   0.9641

Dispersion correction           -0.001491948
FINAL SINGLE POINT ENERGY      -135.119307553150

DIPOLE MOMENT
-------------

Method             : SCF
Type of density    : Electron Density
Multiplicity       :   1
Irrep              :   0
Energy             :  -135.1278214552015697 Eh
Relativity type    :
Basis              : AO
                                X                 Y                 Z
Electronic contribution:     -0.015853224       1.518676149      -0.036865346
Nuclear contribution   :      0.048103096      -1.776883272       0.389184760
                        -----------------------------------------
Total Dipole Moment    :      0.032249872      -0.258207123       0.352319414
                        -----------------------------------------
Magnitude (a.u.)       :      0.437995367
Magnitude (Debye)      :      1.113295749

VIBRATIONAL FREQUENCIES
-----------------------

Scaling factor for frequencies =  1.000000000  (already applied!)

     0:       0.00 cm**-1
     1:       0.00 cm**-1
     2:       0.00 cm**-1
     3:       0.00 cm**-1
     4:       0.00 cm**-1
     5:       0.00 cm**-1
     6:     221.18 cm**-1
     7:     280.67 cm**-1
     8:     405.79 cm**-1
     9:     824.86 cm**-1
    10:     945.57 cm**-1
    11:    1021.56 cm**-1
    12:    1086.07 cm**-1
    13:    1122.52 cm**-1
    14:    1193.20 cm**-1
    15:    1270.06 cm**-1
    16:    1429.23 cm**-1
    17:    1458.35 cm**-1
    18:    1465.82 cm**-1
    19:    1479.32 cm**-1
    20:    1491.74 cm**-1
    21:    1506.50 cm**-1
    22:    1507.96 cm**-1
    23:    2931.11 cm**-1
    24:    2934.66 cm**-1
    25:    3038.24 cm**-1
    26:    3041.80 cm**-1
    27:    3085.31 cm**-1
    28:    3090.62 cm**-1
    29:    3472.81 cm**-1

IR SPECTRUM
-----------

 Mode   freq       eps      Int      T**2         TX        TY        TZ
       cm**-1   L/(mol*cm) km/mol    a.u.
----------------------------------------------------------------------------
  6:    221.18   0.000013    0.06  0.000018  (-0.004007 -0.001382 -0.000108)
  7:    280.67   0.000474    2.39  0.000527  ( 0.001301  0.012685  0.019085)
  8:    405.79   0.000704    3.56  0.000542  ( 0.000374 -0.023082  0.002975)
  9:    824.86   0.020541  103.81  0.007771  ( 0.001801 -0.087429  0.011139)
 10:    945.57   0.000530    2.68  0.000175  ( 0.001086 -0.012830  0.003027)
 11:   1021.56   0.002797   14.13  0.000854  ( 0.029128  0.000410 -0.002397)
 12:   1086.07   0.000149    0.75  0.000043  ( 0.006521 -0.000335 -0.000357)
 13:   1122.52   0.004403   22.25  0.001224  ( 0.034859  0.000611 -0.002918)
 14:   1193.20   0.001576    7.96  0.000412  (-0.001216  0.018291 -0.008722)
 15:   1270.06   0.000365    1.85  0.000090  (-0.000133  0.009199 -0.002259)
 16:   1429.23   0.000346    1.75  0.000076  (-0.008668 -0.000096  0.000676)
 17:   1458.35   0.000106    0.54  0.000023  (-0.000043 -0.001724 -0.004451)
 18:   1465.82   0.000566    2.86  0.000120  (-0.010880  0.000122  0.001437)
 19:   1479.32   0.001321    6.67  0.000279  (-0.016587 -0.000217  0.001861)
 20:   1491.74   0.002821   14.26  0.000590  ( 0.002420 -0.005987  0.023419)
 21:   1506.50   0.000549    2.78  0.000114  ( 0.001679  0.007531  0.007364)
 22:   1507.96   0.001850    9.35  0.000383  ( 0.019454 -0.000321 -0.002054)
 23:   2931.11   0.010742   54.28  0.001144  ( 0.030697  0.011502 -0.008307)
 24:   2934.66   0.028753  145.31  0.003058  ( 0.009805 -0.048167  0.025325)
 25:   3038.24   0.009166   46.32  0.000941  ( 0.014222 -0.007004  0.026270)
 26:   3041.80   0.006435   32.52  0.000660  (-0.017863 -0.003693  0.018097)
 27:   3085.31   0.006083   30.74  0.000615  ( 0.015094 -0.014038 -0.013795)
 28:   3090.62   0.006247   31.57  0.000631  (-0.016344 -0.015431 -0.011202)
 29:   3472.81   0.000026    0.13  0.000002  ( 0.000034  0.001482  0.000424)

--------------------------
THERMOCHEMISTRY AT 298.15K
--------------------------

Temperature         ...   298.15 K
Pressure            ...     1.00 atm
Total Mass          ...    45.09 AMU
Quasi RRHO          ...     True
Cut-Off Frequency   ...     1.00 cm^-1

Throughout the following assumptions are being made:
  (1) The electronic state is orbitally nondegenerate
  (2) There are no thermally accessible electronically excited states
  (3) Hindered rotations indicated by low frequency modes are not
      treated as such but are treated as vibrations and this may
      cause some error
  (4) All equations used are the standard statistical mechanics
      equations for an ideal gas
  (5) All vibrations are strictly harmonic

freq.     221.18  E(vib)   ...       0.33
freq.     280.67  E(vib)   ...       0.28
freq.     405.79  E(vib)   ...       0.19
freq.     824.86  E(vib)   ...       0.04
freq.     945.57  E(vib)   ...       0.03
freq.    1021.56  E(vib)   ...       0.02
freq.    1086.07  E(vib)   ...       0.02
freq.    1122.52  E(vib)   ...       0.01
freq.    1193.20  E(vib)   ...       0.01
freq.    1270.06  E(vib)   ...       0.01
freq.    1429.23  E(vib)   ...       0.00
freq.    1458.35  E(vib)   ...       0.00
freq.    1465.82  E(vib)   ...       0.00
freq.    1479.32  E(vib)   ...       0.00
freq.    1491.74  E(vib)   ...       0.00
freq.    1506.50  E(vib)   ...       0.00
freq.    1507.96  E(vib)   ...       0.00
freq.    2931.11  E(vib)   ...       0.00
freq.    2934.66  E(vib)   ...       0.00
freq.    3038.24  E(vib)   ...       0.00
freq.    3041.80  E(vib)   ...       0.00
freq.    3085.31  E(vib)   ...       0.00
freq.    3090.62  E(vib)   ...       0.00
freq.    3472.81  E(vib)   ...       0.00

------------
INNER ENERGY
------------

The inner energy is: U= E(el) + E(ZPE) + E(vib) + E(rot) + E(trans)
    E(el)   - is the total energy from the electronic structure calculation
              = E(kin-el) + E(nuc-el) + E(el-el) + E(nuc-nuc)
    E(ZPE)  - the the zero temperature vibrational energy from the frequency calculation
    E(vib)  - the the finite temperature correction to E(ZPE) due to population
              of excited vibrational states
    E(rot)  - is the rotational thermal energy
    E(trans)- is the translational thermal energy

Summary of contributions to the inner energy U:
Electronic energy                ...   -135.11930755 Eh
Zero point energy                ...      0.09182144 Eh      57.62 kcal/mol
Thermal vibrational correction   ...      0.00154497 Eh       0.97 kcal/mol
Thermal rotational correction    ...      0.00141627 Eh       0.89 kcal/mol
Thermal translational correction ...      0.00141627 Eh       0.89 kcal/mol
-----------------------------------------------------------------------
Total thermal energy                   -135.02310860 Eh

Summary of corrections to the electronic energy:
(perhaps to be used in another calculation)
Total thermal correction                  0.00437751 Eh       2.75 kcal/mol
Non-thermal (ZPE) correction              0.09182144 Eh      57.62 kcal/mol
-----------------------------------------------------------------------
Total correction                          0.09619895 Eh      60.37 kcal/mol

--------
ENTHALPY
--------

The enthalpy is H = U + kB*T
                kB is Boltzmann's constant
Total thermal energy              ...   -135.02310860 Eh
Thermal Enthalpy correction       ...      0.00094421 Eh       0.59 kcal/mol
-----------------------------------------------------------------------
Total Enthalpy                    ...   -135.02216439 Eh

Note: Only C1 symmetry has been detected, increase convergence thresholds
      if your molecule has a higher symmetry. Symmetry factor of 1.0 is
      used for the rotational entropy correction.

Note: Rotational entropy computed according to Herzberg
Infrared and Raman Spectra, Chapter V,1, Van Nostrand Reinhold, 1945
Point Group:  C1, Symmetry Number:   1
Rotational constants in cm-1:     1.113762     0.314236     0.275675

Vibrational entropy computed according to the QRRHO of S. Grimme
Chem.Eur.J. 2012 18 9955 using a reference frequency of 100.0 cm-1

-------
ENTROPY
-------

The entropy contributions are T*S = T*(S(el)+S(vib)+S(rot)+S(trans))
     S(el)   - electronic entropy
     S(vib)  - vibrational entropy
     S(rot)  - rotational entropy
     S(trans)- translational entropy
The entropies will be listed as multiplied by the temperature to get
units of energy

Electronic entropy                ...      0.00000000 Eh      0.00 kcal/mol
Vibrational entropy               ...      0.00242808 Eh      1.52 kcal/mol
Rotational entropy                ...      0.01061475 Eh      6.66 kcal/mol
Translational entropy             ...      0.01774301 Eh     11.13 kcal/mol
-----------------------------------------------------------------------
Final entropy term                ...      0.03078584 Eh     19.32 kcal/mol

In case the symmetry of your molecule has not been determined correctly
or in case you have a reason to use a different symmetry number we print
out the resulting rotational entropy values for sn=1,12:

 non-linear molecules -----------------------------------
|  sn= 1 | S(rot)=       0.01061475 Eh      6.66 kcal/mol|
|  sn= 2 | S(rot)=       0.00996029 Eh      6.25 kcal/mol|
|  sn= 3 | S(rot)=       0.00957746 Eh      6.01 kcal/mol|
|  sn= 4 | S(rot)=       0.00930583 Eh      5.84 kcal/mol|
|  sn= 5 | S(rot)=       0.00909515 Eh      5.71 kcal/mol|
|  sn= 6 | S(rot)=       0.00892300 Eh      5.60 kcal/mol|
|  sn= 7 | S(rot)=       0.00877746 Eh      5.51 kcal/mol|
|  sn= 8 | S(rot)=       0.00865138 Eh      5.43 kcal/mol|
|  sn= 9 | S(rot)=       0.00854017 Eh      5.36 kcal/mol|
|  sn=10 | S(rot)=       0.00844069 Eh      5.30 kcal/mol|
|  sn=11 | S(rot)=       0.00835070 Eh      5.24 kcal/mol|
|  sn=12 | S(rot)=       0.00826855 Eh      5.19 kcal/mol|
 linear molecules ---------------------------------------
|  Dinfh | S(rot)=       0.00654242 Eh      4.11 kcal/mol|
|  Cinfv | S(rot)=       0.00719687 Eh      4.52 kcal/mol|
 --------------------------------------------------------

-------------------
GIBBS FREE ENERGY
-------------------

The Gibbs free energy is G = H - T*S

Total enthalpy                    ...   -135.02216439 Eh
Total entropy correction          ...     -0.03078584 Eh    -19.32 kcal/mol
-----------------------------------------------------------------------
Final Gibbs free energy         ...   -135.05295023 Eh

For completeness - the Gibbs free energy minus the electronic energy
G-E(el)                           ...      0.06635733 Eh     41.64 kcal/mol

                             ****ORCA TERMINATED NORMALLY****
TOTAL RUN TIME: 0 days 0 hours 2 minutes 3 seconds 528 msec
