                         Program Version 6.0.0  -   RELEASE  -
|  1> ! r2SCAN-3c DEF2-TZVP FREQ
|  2> * xyzfile 0 1 vacuum_censo.xyz
|  3>
|  4>                          ****END OF INPUT****

CARTESIAN COORDINATES (ANGSTROEM)
---------------------------------
  C     -1.209855    0.249999    0.018178
  N     -0.000000   -0.560367   -0.106586
  C      1.209857    0.249995    0.018173
  H     -2.094341   -0.393520   -0.023354
  H     -1.266500    0.946494   -0.826581
  H     -1.256676    0.848964    0.947128
  H      0.000000   -1.264950    0.622451
  H      1.256690    0.848950    0.947130
  H      1.266493    0.946500   -0.826579
  H      2.094341   -0.393525   -0.023377

 Total Charge           Charge          ....    0
 Multiplicity           Mult            ....    1
 Number of Electrons    NEL             ....   26
 Basis Dimension        Dim             ....  135

ORBITAL ENERGIES
----------------

  NO   OCC          E(Eh)            E(eV)
   0   2.0000     -14.143245      -384.8573
   1   2.0000     -10.044966      -273.3374
   2   2.0000     -10.044963      -273.3373
   3   2.0000      -0.860930       -23.4271
   4   2.0000      -0.663274       -18.0486
   5   2.0000      -0.593214       -16.1422
   6   2.0000      -0.454077       -12.3561
   7   2.0000      -0.406942       -11.0735
   8   2.0000      -0.402167       -10.9435
   9   2.0000      -0.353104        -9.6085
  10   2.0000      -0.332498        -9.0477
  11   2.0000      -0.329094        -8.9551
  12   2.0000      -0.193688        -5.2705
  13   0.0000       0.042750         1.1633
  14   0.0000       0.084412         2.2970
  15   0.0000       0.098313         2.6752
  16   0.0000       0.109357         2.9758
  17   0.0000       0.120517         3.2794

MULLIKEN ATOMIC CHARGES
-----------------------
   0 C :   -0.212413
   1 N :   -0.340754
   2 C :   -0.212414
   3 H :    0.109384
   4 H :    0.102456
   5 H :    0.077598
   6 H :    0.186705
   7 H :    0.077598
   8 H :    0.102456
   9 H :    0.109384
Sum of atomic charges:    0.0000000

LOEWDIN ATOMIC CHARGES
----------------------
   0 C :   -0.352614
   1 N :   -0.081863
   2 C :   -0.352614
   3 H :    0.110539
   4 H :    0.111322
   5 H :    0.092000
   6 H :    0.159371
   7 H :    0.092000
   8 H :    0.111322
   9 H :    0.110539

  Mayer bond orders larger than 0.100000
B(  0-C ,  1-N ) :   0.9903 B(  0-C ,  3-H ) :   0.9765 B(  0-C ,  4-H ) :   0.9752
B(  0-C ,  5-H ) :   0.9622 B(  1-N ,  2-C ) :   0.9903 B(  1-N ,  6-H ) :   0.9338
B(  2-C ,  7-H ) :   0.9622 B(  2-C ,  8-H ) :   0.9752 B(  2-C ,  9-H ) :   0.9765

Dispersion correction           -0.001489340
FINAL SINGLE POINT ENERGY      -135.119862254077

DIPOLE MOMENT
-------------

Method             : SCF
Type of density    : Electron Density
Multiplicity       :   1
Irrep              :   0
Energy             :  -135.1283725170657135 Eh
Relativity type    :
Basis              : AO
                                X                 Y                 Z
Electronic contribution:     -0.000002380      -1.396025406      -0.417973534
Nuclear contribution   :      0.000003088       1.483313795       0.799698662
                        -----------------------------------------
Total Dipole Moment    :      0.000000708       0.087288389       0.381725128
                        -----------------------------------------
Magnitude (a.u.)       :      0.391578008
Magnitude (Debye)      :      0.995312197

VIBRATIONAL FREQUENCIES
-----------------------

Scaling factor for frequencies =  1.000000000  (already applied!)

     0:       0.00 cm**-1
     1:       0.00 cm**-1
     2:       0.00 cm**-1
     3:       0.00 cm**-1
     4:       0.00 cm**-1
     5:       0.00 cm**-1
     6:     242.51 cm**-1
     7:     281.96 cm**-1
     8:     393.59 cm**-1
     9:     787.68 cm**-1
    10:     938.13 cm**-1
    11:    1031.34 cm**-1
    12:    1094.22 cm**-1
    13:    1142.27 cm**-1
    14:    1187.49 cm**-1
    15:    1268.03 cm**-1
    16:    1432.99 cm**-1
    17:    1460.54 cm**-1
    18:    1466.44 cm**-1
    19:    1480.06 cm**-1
    20:    1488.98 cm**-1
    21:    1509.56 cm**-1
    22:    1512.06 cm**-1
    23:    2905.09 cm**-1
    24:    2909.21 cm**-1
    25:    3028.37 cm**-1
    26:    3030.29 cm**-1
    27:    3080.87 cm**-1
    28:    3081.28 cm**-1
    29:    3506.01 cm**-1

IR SPECTRUM
-----------

 Mode   freq       eps      Int      T**2         TX        TY        TZ
       cm**-1   L/(mol*cm) km/mol    a.u.
----------------------------------------------------------------------------
  6:    242.51   0.000017    0.09  0.000022  (-0.004693  0.000000  0.000000)
  7:    281.96   0.000507    2.56  0.000562  (-0.000000 -0.017266  0.016230)
  8:    393.59   0.001028    5.20  0.000815  ( 0.000000  0.025639  0.012557)
  9:    787.68   0.023391  118.21  0.009267  (-0.000000 -0.084964 -0.045255)
 10:    938.13   0.000076    0.39  0.000025  ( 0.000000 -0.004572  0.002117)
 11:   1031.34   0.002214   11.19  0.000670  ( 0.025880 -0.000000 -0.000000)
 12:   1094.22   0.000052    0.26  0.000015  (-0.003850 -0.000000 -0.000000)
 13:   1142.27   0.005794   29.28  0.001583  (-0.039786  0.000000  0.000000)
 14:   1187.49   0.001407    7.11  0.000370  ( 0.000000  0.012627  0.014505)
 15:   1268.03   0.000059    0.30  0.000015  (-0.000000  0.003099  0.002234)
 16:   1432.99   0.000323    1.63  0.000070  ( 0.008384 -0.000000  0.000000)
 17:   1460.54   0.000193    0.97  0.000041  ( 0.000000 -0.001845  0.006149)
 18:   1466.44   0.000811    4.10  0.000173  (-0.013136 -0.000000 -0.000000)
 19:   1480.06   0.001154    5.83  0.000243  (-0.015598 -0.000000 -0.000000)
 20:   1488.98   0.002610   13.19  0.000547  ( 0.000000  0.003073 -0.023187)
 21:   1509.56   0.000561    2.84  0.000116  ( 0.000001 -0.009860  0.004330)
 22:   1512.06   0.002139   10.81  0.000442  ( 0.021013  0.000000  0.000000)
 23:   2905.09   0.010962   55.40  0.001177  (-0.034315  0.000001  0.000001)
 24:   2909.21   0.033136  167.45  0.003554  ( 0.000001  0.040604  0.043654)
 25:   3028.37   0.010888   55.02  0.001122  (-0.000004  0.005709 -0.033005)
 26:   3030.29   0.004971   25.12  0.000512  (-0.022625 -0.000001  0.000006)
 27:   3080.87   0.005148   26.02  0.000521  (-0.022836 -0.000001  0.000001)
 28:   3081.28   0.007190   36.34  0.000728  ( 0.000001 -0.025368  0.009202)
 29:   3506.01   0.000003    0.01  0.000000  ( 0.000000 -0.000295 -0.000412)

--------------------------
THERMOCHEMISTRY AT 298.15K
--------------------------

Temperature         ...   298.15 K
Pressure            ...     1.00 atm
Total Mass          ...    45.09 AMU
Quasi RRHO          ...     True
Cut-Off Frequency   ...     1.00 cm^-1

Throughout the following assumptions are being made:
  (1) The electronic state is orbitally nondegenerate
  (2) There are no thermally accessible electronically excited states
  (3) Hindered rotations indicated by low frequency modes are not
      treated as such but are treated as vibrations and this may
      cause some error
  (4) All equations used are the standard statistical mechanics
      equations for an ideal gas
  (5) All vibrations are strictly harmonic

freq.     242.51  E(vib)   ...       0.31
freq.     281.96  E(vib)   ...       0.28
freq.     393.59  E(vib)   ...       0.20
freq.     787.68  E(vib)   ...       0.05
freq.     938.13  E(vib)   ...       0.03
freq.    1031.34  E(vib)   ...       0.02
freq.    1094.22  E(vib)   ...       0.02
freq.    1142.27  E(vib)   ...       0.01
freq.    1187.49  E(vib)   ...       0.01
freq.    1268.03  E(vib)   ...       0.01
freq.    1432.99  E(vib)   ...       0.00
freq.    1460.54  E(vib)   ...       0.00
freq.    1466.44  E(vib)   ...       0.00
freq.    1480.06  E(vib)   ...       0.00
freq.    1488.98  E(vib)   ...       0.00
freq.    1509.56  E(vib)   ...       0.00
freq.    1512.06  E(vib)   ...       0.00
freq.    2905.09  E(vib)   ...       0.00
freq.    2909.21  E(vib)   ...       0.00
freq.    3028.37  E(vib)   ...       0.00
freq.    3030.29  E(vib)   ...       0.00
freq.    3080.87  E(vib)   ...       0.00
freq.    3081.28  E(vib)   ...       0.00
freq.    3506.01  E(vib)   ...       0.00

------------
INNER ENERGY
------------

The inner energy is: U= E(el) + E(ZPE) + E(vib) + E(rot) + E(trans)
    E(el)   - is the total energy from the electronic structure calculation
              = E(kin-el) + E(nuc-el) + E(el-el) + E(nuc-nuc)
    E(ZPE)  - the the zero temperature vibrational energy from the frequency calculation
    E(vib)  - the the finite temperature correction to E(ZPE) due to population
              of excited vibrational states
    E(rot)  - is the rotational thermal energy
    E(trans)- is the translational thermal energy

Summary of contributions to the inner energy U:
Electronic energy                ...   -135.11986225 Eh
Zero point energy                ...      0.09171671 Eh      57.55 kcal/mol
Thermal vibrational correction   ...      0.00153220 Eh       0.96 kcal/mol
Thermal rotational correction    ...      0.00141627 Eh       0.89 kcal/mol
Thermal translational correction ...      0.00141627 Eh       0.89 kcal/mol
-----------------------------------------------------------------------
Total thermal energy                   -135.02378080 Eh

Summary of corrections to the electronic energy:
(perhaps to be used in another calculation)
Total thermal correction                  0.00436474 Eh       2.74 kcal/mol
Non-thermal (ZPE) correction              0.09171671 Eh      57.55 kcal/mol
-----------------------------------------------------------------------
Total correction                          0.09608145 Eh      60.29 kcal/mol

--------
ENTHALPY
--------

The enthalpy is H = U + kB*T
                kB is Boltzmann's constant
Total thermal energy              ...   -135.02378080 Eh
Thermal Enthalpy correction       ...      0.00094421 Eh       0.59 kcal/mol
-----------------------------------------------------------------------
Total Enthalpy                    ...   -135.02283659 Eh

Note: Rotational entropy computed according to Herzberg
Infrared and Raman Spectra, Chapter V,1, Van Nostrand Reinhold, 1945
Point Group:  Cs, Symmetry Number:   1
Rotational constants in cm-1:     1.137087     0.311259     0.274061

Vibrational entropy computed according to the QRRHO of S. Grimme
Chem.Eur.J. 2012 18 9955 using a reference frequency of 100.0 cm-1

-------
ENTROPY
-------

The entropy contributions are T*S = T*(S(el)+S(vib)+S(rot)+S(trans))
     S(el)   - electronic entropy
     S(vib)  - vibrational entropy
     S(rot)  - rotational entropy
     S(trans)- translational entropy
The entropies will be listed as multiplied by the temperature to get
units of energy

Electronic entropy                ...      0.00000000 Eh      0.00 kcal/mol
Vibrational entropy               ...      0.00237899 Eh      1.49 kcal/mol
Rotational entropy                ...      0.01061223 Eh      6.66 kcal/mol
Translational entropy             ...      0.01774301 Eh     11.13 kcal/mol
-----------------------------------------------------------------------
Final entropy term                ...      0.03073423 Eh     19.29 kcal/mol

In case the symmetry of your molecule has not been determined correctly
or in case you have a reason to use a different symmetry number we print
out the resulting rotational entropy values for sn=1,12:

 non-linear molecules -----------------------------------
|  sn= 1 | S(rot)=       0.01061223 Eh      6.66 kcal/mol|
|  sn= 2 | S(rot)=       0.00995777 Eh      6.25 kcal/mol|
|  sn= 3 | S(rot)=       0.00957494 Eh      6.01 kcal/mol|
|  sn= 4 | S(rot)=       0.00930332 Eh      5.84 kcal/mol|
|  sn= 5 | S(rot)=       0.00909263 Eh      5.71 kcal/mol|
|  sn= 6 | S(rot)=       0.00892048 Eh      5.60 kcal/mol|
|  sn= 7 | S(rot)=       0.00877494 Eh      5.51 kcal/mol|
|  sn= 8 | S(rot)=       0.00864886 Eh      5.43 kcal/mol|
|  sn= 9 | S(rot)=       0.00853765 Eh      5.36 kcal/mol|
|  sn=10 | S(rot)=       0.00843817 Eh      5.30 kcal/mol|
|  sn=11 | S(rot)=       0.00834818 Eh      5.24 kcal/mol|
|  sn=12 | S(rot)=       0.00826603 Eh      5.19 kcal/mol|
 linear molecules ---------------------------------------
|  Dinfh | S(rot)=       0.00654796 Eh      4.11 kcal/mol|
|  Cinfv | S(rot)=       0.00720241 Eh      4.52 kcal/mol|
 --------------------------------------------------------

-------------------
GIBBS FREE ENERGY
-------------------

The Gibbs free energy is G = H - T*S

Total enthalpy                    ...   -135.02283659 Eh
Total entropy correction          ...     -0.03073423 Eh    -19.29 kcal/mol
-----------------------------------------------------------------------
Final Gibbs free energy         ...   -135.05357083 Eh

For completeness - the Gibbs free energy minus the electronic energy
G-E(el)                           ...      0.06629143 Eh     41.60 kcal/mol

                             ****ORCA TERMINATED NORMALLY****
TOTAL RUN TIME: 0 days 0 hours 2 minutes 3 seconds 89 msec
