                         Program Version 6.0.1  -  RELEASE   -
|  1> ! pbe def2-sv(p) def2/J RI DEFGRID1 loosescf d4 GCP(DFT/SV(P)) printgap
|  2> %output
|  3>     printlevel normal
|  4> end
|  5> * xyz 0 1
|  6> C -1.3803934936 -0.8513372147 0.3898835009
|  7> C -0.5844265671 0.0909614004 -0.513780898
|  8> C -0.6613152818 1.5256815597 0.001204079
|  9> C 0.8819511926 -0.3574926304 -0.6283503048
| 10> O 1.5815520625 -0.3363817585 0.5910914722
| 11> H -2.4377110492 -0.6000874841 0.3540779344
| 12> H -1.0545030822 -0.7648263753 1.425327882
| 13> H -1.2647593156 -1.8852618206 0.0689641059
| 14> H -1.0096115922 0.0470351357 -1.5223560617
| 15> H -0.1440651285 1.6063464062 0.9545461031
| 16> H -1.6965464595 1.8293014028 0.1374082615
| 17> H -0.1887995097 2.2079124488 -0.7011975145
| 18> H 0.920185848 -1.3640623271 -1.0729648528
| 19> H 1.4253052956 0.3265268103 -1.2846091653
| 20> H 1.130147573 -0.9230122019 1.2078993025
| 21> *
| 22>
| 23>                          ****END OF INPUT****

CARTESIAN COORDINATES (ANGSTROEM)
---------------------------------
  C     -1.380393   -0.851337    0.389884
  C     -0.584427    0.090961   -0.513781
  C     -0.661315    1.525682    0.001204
  C      0.881951   -0.357493   -0.628350
  O      1.581552   -0.336382    0.591091
  H     -2.437711   -0.600087    0.354078
  H     -1.054503   -0.764826    1.425328
  H     -1.264759   -1.885262    0.068964
  H     -1.009612    0.047035   -1.522356
  H     -0.144065    1.606346    0.954546
  H     -1.696546    1.829301    0.137408
  H     -0.188800    2.207912   -0.701198
  H      0.920186   -1.364062   -1.072965
  H      1.425305    0.326527   -1.284609
  H      1.130148   -0.923012    1.207899

 Total Charge           Charge          ....    0
 Multiplicity           Mult            ....    1
 Number of Electrons    NEL             ....   42
 Basis Dimension        Dim             ....   90

ORBITAL ENERGIES
----------------

  NO   OCC          E(Eh)            E(eV)
   0   2.0000     -18.741302      -509.9768
   1   2.0000      -9.924509      -270.0596
   2   2.0000      -9.895363      -269.2665
   3   2.0000      -9.881695      -268.8946
   4   2.0000      -9.869753      -268.5696
   5   2.0000      -0.920365       -25.0444
   6   2.0000      -0.719478       -19.5780
   7   2.0000      -0.616198       -16.7676
   8   2.0000      -0.602987       -16.4081
   9   2.0000      -0.508538       -13.8380
  10   2.0000      -0.441774       -12.0213
  11   2.0000      -0.425032       -11.5657
  12   2.0000      -0.399007       -10.8575
  13   2.0000      -0.381199       -10.3729
  14   2.0000      -0.346570        -9.4306
  15   2.0000      -0.336145        -9.1470
  16   2.0000      -0.316125        -8.6022
  17   2.0000      -0.299090        -8.1387
  18   2.0000      -0.292410        -7.9569
  19   2.0000      -0.266370        -7.2483
  20   2.0000      -0.212706        -5.7880
  21   0.0000       0.020664         0.5623
  22   0.0000       0.051000         1.3878
  23   0.0000       0.080120         2.1802
  24   0.0000       0.093348         2.5401
  25   0.0000       0.096753         2.6328

MULLIKEN ATOMIC CHARGES
-----------------------
   0 C :   -0.281766
   1 C :   -0.201866
   2 C :   -0.237400
   3 C :    0.040168
   4 O :   -0.432845
   5 H :    0.109568
   6 H :    0.090529
   7 H :    0.101393
   8 H :    0.072791
   9 H :    0.098333
  10 H :    0.097044
  11 H :    0.096860
  12 H :    0.069768
  13 H :    0.082836
  14 H :    0.294587
Sum of atomic charges:    0.0000000

LOEWDIN ATOMIC CHARGES
----------------------
   0 C :   -0.339352
   1 C :   -0.183295
   2 C :   -0.332010
   3 C :   -0.115192
   4 O :   -0.333589
   5 H :    0.124135
   6 H :    0.111193
   7 H :    0.116750
   8 H :    0.118190
   9 H :    0.118000
  10 H :    0.115705
  11 H :    0.118232
  12 H :    0.091093
  13 H :    0.110559
  14 H :    0.279580

  Mayer bond orders larger than 0.100000
B(  0-C ,  1-C ) :   1.1006 B(  0-C ,  5-H ) :   0.9507 B(  0-C ,  6-H ) :   0.9411
B(  0-C ,  7-H ) :   0.9518 B(  1-C ,  2-C ) :   1.1005 B(  1-C ,  3-C ) :   1.0457
B(  1-C ,  8-H ) :   0.8940 B(  2-C ,  9-H ) :   0.9425 B(  2-C , 10-H ) :   0.9542
B(  2-C , 11-H ) :   0.9525 B(  3-C ,  4-O ) :   1.0725 B(  3-C , 12-H ) :   0.9241
B(  3-C , 13-H ) :   0.9310 B(  4-O , 14-H ) :   0.8489

Dispersion correction           -0.009966451
FINAL SINGLE POINT ENERGY      -233.088926956813

DIPOLE MOMENT
-------------

Method             : SCF
Type of density    : Electron Density
Multiplicity       :   1
Irrep              :   0
Energy             :  -233.1488521124232136 Eh
Relativity type    :
Basis              : AO
                                X                 Y                 Z
Electronic contribution:      3.498810773      -0.768664681       0.344356644
Nuclear contribution   :     -4.029732431       0.445206598      -0.397363039
                        -----------------------------------------
Total Dipole Moment    :     -0.530921658      -0.323458084      -0.053006395
                        -----------------------------------------
Magnitude (a.u.)       :      0.623949210
Magnitude (Debye)      :      1.585952854

Rotational constants in cm-1:             0.209633             0.133357             0.106647
Rotational constants in MHz :          6284.627800          3997.956513          3197.191158

                             ****ORCA TERMINATED NORMALLY****
TOTAL RUN TIME: 0 days 0 hours 0 minutes 5 seconds 965 msec
