                         Program Version 6.0.1  -  RELEASE   -
|  1> ! pbe def2-sv(p) def2/J RI DEFGRID1 loosescf d4 GCP(DFT/SV(P)) printgap
|  2> %output
|  3>     printlevel normal
|  4> end
|  5> * xyz 0 1
|  6> C -2.4837906739 -0.4850607406 -0.2620887471
|  7> C -1.0725213908 -0.1856130298 0.257475234
|  8> H -1.0300379567 -0.4034801939 1.3373348706
|  9> C -0.646407814 1.2848670586 0.0273417225
| 10> H -1.2870491708 1.7451376526 -0.739573629
| 11> C 0.8044608699 1.3128242753 -0.5031665497
| 12> H 1.1968703692 2.3288471395 -0.3958795081
| 13> C 1.6656499253 0.3402176234 0.323973423
| 14> H 2.6917544549 0.339382471 -0.0663348211
| 15> C 1.1055591042 -1.102881206 0.1466521539
| 16> H 1.0675295134 -1.5930286202 1.131262235
| 17> O -0.2007577615 -1.0711227643 -0.4224423211
| 18> O 1.8917533502 -1.8965877611 -0.6574232737
| 19> O 1.7432751932 0.7113375989 1.6713540299
| 20> O 0.8449386632 1.006426892 -1.870437958
| 21> O -0.6937333672 2.0325975119 1.223441098
| 22> O -2.8924394136 -1.7774135676 0.0757965141
| 23> H -2.4925790626 -0.3407356963 -1.3528161955
| 24> H -3.205013277 0.1981087938 0.1929057965
| 25> H 1.9991084671 -1.4774752948 -1.5217182674
| 26> H 0.9579564349 1.2290033736 1.9041590845
| 27> H 0.385415625 0.1617764014 -1.9939704056
| 28> H -1.6067958062 2.1172718446 1.5188642959
| 29> H -2.2059556086 -2.3893986812 -0.2193491932
| 30> *
| 31>
| 32>                          ****END OF INPUT****

CARTESIAN COORDINATES (ANGSTROEM)
---------------------------------
  C     -2.483791   -0.485061   -0.262089
  C     -1.072521   -0.185613    0.257475
  H     -1.030038   -0.403480    1.337335
  C     -0.646408    1.284867    0.027342
  H     -1.287049    1.745138   -0.739574
  C      0.804461    1.312824   -0.503167
  H      1.196870    2.328847   -0.395880
  C      1.665650    0.340218    0.323973
  H      2.691754    0.339382   -0.066335
  C      1.105559   -1.102881    0.146652
  H      1.067530   -1.593029    1.131262
  O     -0.200758   -1.071123   -0.422442
  O      1.891753   -1.896588   -0.657423
  O      1.743275    0.711338    1.671354
  O      0.844939    1.006427   -1.870438
  O     -0.693733    2.032598    1.223441
  O     -2.892439   -1.777414    0.075797
  H     -2.492579   -0.340736   -1.352816
  H     -3.205013    0.198109    0.192906
  H      1.999108   -1.477475   -1.521718
  H      0.957956    1.229003    1.904159
  H      0.385416    0.161776   -1.993970
  H     -1.606796    2.117272    1.518864
  H     -2.205956   -2.389399   -0.219349

 Total Charge           Charge          ....    0
 Multiplicity           Mult            ....    1
 Number of Electrons    NEL             ....   96
 Basis Dimension        Dim             ....  192

ORBITAL ENERGIES
----------------

  NO   OCC          E(Eh)            E(eV)
   0   2.0000     -18.794745      -511.4310
   1   2.0000     -18.790636      -511.3192
   2   2.0000     -18.767429      -510.6877
   3   2.0000     -18.764220      -510.6004
   4   2.0000     -18.755446      -510.3616
   5   2.0000     -18.745386      -510.0879
   6   2.0000      -9.990841      -271.8646
   7   2.0000      -9.963470      -271.1198
   8   2.0000      -9.959697      -271.0171
   9   2.0000      -9.954399      -270.8730
  10   2.0000      -9.950937      -270.7788
  11   2.0000      -9.941461      -270.5209
  12   2.0000      -1.000994       -27.2384
  13   2.0000      -0.966906       -26.3109
  14   2.0000      -0.943295       -25.6684
  15   2.0000      -0.942143       -25.6370
  16   2.0000      -0.925106       -25.1734
  17   2.0000      -0.924117       -25.1465
  18   2.0000      -0.715747       -19.4765
  19   2.0000      -0.690086       -18.7782
  20   2.0000      -0.633457       -17.2372
  21   2.0000      -0.596524       -16.2323
  22   2.0000      -0.581388       -15.8204
  23   2.0000      -0.543784       -14.7971
  24   2.0000      -0.517945       -14.0940
  25   2.0000      -0.507986       -13.8230
  26   2.0000      -0.488547       -13.2940
  27   2.0000      -0.473749       -12.8914
  28   2.0000      -0.456783       -12.4297
  29   2.0000      -0.447235       -12.1699
  30   2.0000      -0.424949       -11.5635
  31   2.0000      -0.404006       -10.9936
  32   2.0000      -0.393953       -10.7200
  33   2.0000      -0.383254       -10.4289
  34   2.0000      -0.372962       -10.1488
  35   2.0000      -0.362854        -9.8738
  36   2.0000      -0.346774        -9.4362
  37   2.0000      -0.333524        -9.0757
  38   2.0000      -0.316091        -8.6013
  39   2.0000      -0.309613        -8.4250
  40   2.0000      -0.291858        -7.9419
  41   2.0000      -0.288040        -7.8380
  42   2.0000      -0.266781        -7.2595
  43   2.0000      -0.262599        -7.1457
  44   2.0000      -0.242517        -6.5992
  45   2.0000      -0.237611        -6.4657
  46   2.0000      -0.224554        -6.1104
  47   2.0000      -0.205455        -5.5907
  48   0.0000      -0.010499        -0.2857
  49   0.0000       0.012928         0.3518
  50   0.0000       0.031382         0.8539
  51   0.0000       0.050406         1.3716
  52   0.0000       0.054775         1.4905

MULLIKEN ATOMIC CHARGES
-----------------------
   0 C :    0.084421
   1 C :   -0.026710
   2 H :    0.065335
   3 C :    0.017935
   4 H :    0.076891
   5 C :    0.023398
   6 H :    0.093262
   7 C :    0.025697
   8 H :    0.080464
   9 C :    0.180765
  10 H :    0.076195
  11 O :   -0.323296
  12 O :   -0.369189
  13 O :   -0.420545
  14 O :   -0.419648
  15 O :   -0.413159
  16 O :   -0.426428
  17 H :    0.076956
  18 H :    0.080372
  19 H :    0.295308
  20 H :    0.305414
  21 H :    0.297439
  22 H :    0.315572
  23 H :    0.303552
Sum of atomic charges:   -0.0000000

LOEWDIN ATOMIC CHARGES
----------------------
   0 C :   -0.126235
   1 C :   -0.090757
   2 H :    0.108663
   3 C :   -0.080390
   4 H :    0.110588
   5 C :   -0.071646
   6 H :    0.124540
   7 C :   -0.093189
   8 H :    0.116906
   9 C :   -0.004436
  10 H :    0.108347
  11 O :   -0.166108
  12 O :   -0.280714
  13 O :   -0.319508
  14 O :   -0.311535
  15 O :   -0.306863
  16 O :   -0.329228
  17 H :    0.101014
  18 H :    0.112537
  19 H :    0.280057
  20 H :    0.272728
  21 H :    0.265558
  22 H :    0.295310
  23 H :    0.284361

  Mayer bond orders larger than 0.100000
B(  0-C ,  1-C ) :   1.0434 B(  0-C , 16-O ) :   1.0888 B(  0-C , 17-H ) :   0.9003
B(  0-C , 18-H ) :   0.9221 B(  1-C ,  2-H ) :   0.8609 B(  1-C ,  3-C ) :   0.9738
B(  1-C , 11-O ) :   1.0041 B(  3-C ,  4-H ) :   0.8929 B(  3-C ,  5-C ) :   0.9965
B(  3-C , 15-O ) :   1.0257 B(  5-C ,  6-H ) :   0.8899 B(  5-C ,  7-C ) :   0.9930
B(  5-C , 14-O ) :   1.0447 B(  7-C ,  8-H ) :   0.9011 B(  7-C ,  9-C ) :   0.9280
B(  7-C , 13-O ) :   1.0894 B(  9-C , 10-H ) :   0.8943 B(  9-C , 11-O ) :   0.9533
B(  9-C , 12-O ) :   1.1597 B( 12-O , 19-H ) :   0.8370 B( 13-O , 20-H ) :   0.8086
B( 14-O , 21-H ) :   0.8164 B( 15-O , 20-H ) :   0.1033 B( 15-O , 22-H ) :   0.8397
B( 16-O , 23-H ) :   0.8403

Dispersion correction           -0.025045213
FINAL SINGLE POINT ENERGY      -685.692149372030

DIPOLE MOMENT
-------------

Method             : SCF
Type of density    : Electron Density
Multiplicity       :   1
Irrep              :   0
Energy             :  -685.8258882585622587 Eh
Relativity type    :
Basis              : AO
                                X                 Y                 Z
Electronic contribution:      2.402000963      -1.278668770      -0.047375820
Nuclear contribution   :     -3.300343990       1.782242771      -0.192132898
                        -----------------------------------------
Total Dipole Moment    :     -0.898343027       0.503574001      -0.239508718
                        -----------------------------------------
Magnitude (a.u.)       :      1.057341664
Magnitude (Debye)      :      2.687548927

Rotational constants in cm-1:             0.037921             0.027753             0.021894
Rotational constants in MHz :          1136.850406           832.019678           656.359765

                             ****ORCA TERMINATED NORMALLY****
TOTAL RUN TIME: 0 days 0 hours 0 minutes 9 seconds 200 msec
