                         Program Version 6.0.1  -  RELEASE   -
|  1> ! pbe def2-sv(p) def2/J RI DEFGRID1 loosescf d4 GCP(DFT/SV(P)) printgap
|  2> %output
|  3>     printlevel normal
|  4> end
|  5> * xyz 0 1
|  6> C -1.8389185173 -0.909761691 -0.8393832508
|  7> C -1.3240782403 -0.1578328904 0.4079795574
|  8> H -2.1456800899 -0.0870387975 1.1335501665
|  9> C -0.8655190051 1.2737574477 0.0455286613
| 10> H -1.1608059198 1.5117753877 -0.9822972784
| 11> C 0.6638196807 1.3712566374 0.1526758798
| 12> H 0.9409322779 1.4736782797 1.2167282337
| 13> C 1.3329511061 0.1007340022 -0.3872059567
| 14> H 1.025110743 -0.0524788616 -1.4340012338
| 15> C 0.8979341668 -1.1087083121 0.4732133775
| 16> H 1.6397843702 -1.2180195494 1.2759817741
| 17> O -0.3300756395 -0.8700558943 1.1245889674
| 18> O 0.8997623448 -2.3000305926 -0.2331249574
| 19> O 2.7249920288 0.2084328158 -0.3053961259
| 20> O 1.160186282 2.4662903454 -0.5802646752
| 21> O -1.4900673371 2.2583403298 0.83265866
| 22> O -1.8815989068 -2.3019850818 -0.6491993493
| 23> H -1.1763884551 -0.7496298534 -1.6932743415
| 24> H -2.8328365919 -0.5169835314 -1.0925386977
| 25> H 0.0043976414 -2.4823524095 -0.5694760462
| 26> H 2.9721548558 1.0496795503 -0.7122158843
| 27> H 0.6362393461 3.2436912617 -0.3533428136
| 28> H -1.2864408068 2.0941218345 1.7620772249
| 29> H -2.2996986535 -2.4962283935 0.1985193139
| 30> *
| 31>
| 32>                          ****END OF INPUT****

CARTESIAN COORDINATES (ANGSTROEM)
---------------------------------
  C     -1.838919   -0.909762   -0.839383
  C     -1.324078   -0.157833    0.407980
  H     -2.145680   -0.087039    1.133550
  C     -0.865519    1.273757    0.045529
  H     -1.160806    1.511775   -0.982297
  C      0.663820    1.371257    0.152676
  H      0.940932    1.473678    1.216728
  C      1.332951    0.100734   -0.387206
  H      1.025111   -0.052479   -1.434001
  C      0.897934   -1.108708    0.473213
  H      1.639784   -1.218020    1.275982
  O     -0.330076   -0.870056    1.124589
  O      0.899762   -2.300031   -0.233125
  O      2.724992    0.208433   -0.305396
  O      1.160186    2.466290   -0.580265
  O     -1.490067    2.258340    0.832659
  O     -1.881599   -2.301985   -0.649199
  H     -1.176388   -0.749630   -1.693274
  H     -2.832837   -0.516984   -1.092539
  H      0.004398   -2.482352   -0.569476
  H      2.972155    1.049680   -0.712216
  H      0.636239    3.243691   -0.353343
  H     -1.286441    2.094122    1.762077
  H     -2.299699   -2.496228    0.198519

 Total Charge           Charge          ....    0
 Multiplicity           Mult            ....    1
 Number of Electrons    NEL             ....   96
 Basis Dimension        Dim             ....  192

ORBITAL ENERGIES
----------------

  NO   OCC          E(Eh)            E(eV)
   0   2.0000     -18.784343      -511.1480
   1   2.0000     -18.775588      -510.9097
   2   2.0000     -18.769168      -510.7350
   3   2.0000     -18.764785      -510.6158
   4   2.0000     -18.744882      -510.0742
   5   2.0000     -18.731979      -509.7230
   6   2.0000      -9.978068      -271.5170
   7   2.0000      -9.959848      -271.0213
   8   2.0000      -9.956208      -270.9222
   9   2.0000      -9.955969      -270.9157
  10   2.0000      -9.948355      -270.7085
  11   2.0000      -9.938689      -270.4455
  12   2.0000      -0.984361       -26.7858
  13   2.0000      -0.957964       -26.0675
  14   2.0000      -0.951110       -25.8810
  15   2.0000      -0.940523       -25.5929
  16   2.0000      -0.918829       -25.0026
  17   2.0000      -0.898952       -24.4617
  18   2.0000      -0.716263       -19.4905
  19   2.0000      -0.692058       -18.8318
  20   2.0000      -0.632869       -17.2213
  21   2.0000      -0.593170       -16.1410
  22   2.0000      -0.581261       -15.8169
  23   2.0000      -0.528767       -14.3885
  24   2.0000      -0.505650       -13.7594
  25   2.0000      -0.500333       -13.6147
  26   2.0000      -0.479569       -13.0497
  27   2.0000      -0.461427       -12.5561
  28   2.0000      -0.444759       -12.1025
  29   2.0000      -0.443288       -12.0625
  30   2.0000      -0.423978       -11.5370
  31   2.0000      -0.408258       -11.1093
  32   2.0000      -0.399882       -10.8813
  33   2.0000      -0.392444       -10.6790
  34   2.0000      -0.373061       -10.1515
  35   2.0000      -0.353536        -9.6202
  36   2.0000      -0.331233        -9.0133
  37   2.0000      -0.318220        -8.6592
  38   2.0000      -0.310062        -8.4372
  39   2.0000      -0.299109        -8.1392
  40   2.0000      -0.297129        -8.0853
  41   2.0000      -0.279913        -7.6168
  42   2.0000      -0.261149        -7.1062
  43   2.0000      -0.253155        -6.8887
  44   2.0000      -0.242130        -6.5887
  45   2.0000      -0.218814        -5.9542
  46   2.0000      -0.214360        -5.8330
  47   2.0000      -0.205388        -5.5889
  48   0.0000       0.008140         0.2215
  49   0.0000       0.012563         0.3419
  50   0.0000       0.032692         0.8896
  51   0.0000       0.038988         1.0609
  52   0.0000       0.057843         1.5740

MULLIKEN ATOMIC CHARGES
-----------------------
   0 C :   -0.017476
   1 C :    0.009146
   2 H :    0.065036
   3 C :    0.037811
   4 H :    0.074046
   5 C :    0.056686
   6 H :    0.047711
   7 C :    0.009751
   8 H :    0.057126
   9 C :    0.231697
  10 H :    0.071443
  11 O :   -0.307409
  12 O :   -0.410310
  13 O :   -0.407930
  14 O :   -0.422891
  15 O :   -0.419626
  16 O :   -0.420976
  17 H :    0.112030
  18 H :    0.104636
  19 H :    0.297665
  20 H :    0.307223
  21 H :    0.307010
  22 H :    0.303114
  23 H :    0.314486
Sum of atomic charges:    0.0000000

LOEWDIN ATOMIC CHARGES
----------------------
   0 C :   -0.150248
   1 C :   -0.084567
   2 H :    0.113440
   3 C :   -0.080767
   4 H :    0.118456
   5 C :   -0.082090
   6 H :    0.102360
   7 C :   -0.086863
   8 H :    0.100465
   9 C :    0.010139
  10 H :    0.112404
  11 O :   -0.147873
  12 O :   -0.319762
  13 O :   -0.309484
  14 O :   -0.324389
  15 O :   -0.314650
  16 O :   -0.310145
  17 H :    0.114779
  18 H :    0.114817
  19 H :    0.269467
  20 H :    0.286078
  21 H :    0.289097
  22 H :    0.285738
  23 H :    0.293597

  Mayer bond orders larger than 0.100000
B(  0-C ,  1-C ) :   1.0125 B(  0-C , 16-O ) :   1.0183 B(  0-C , 17-H ) :   0.9181
B(  0-C , 18-H ) :   0.9099 B(  1-C ,  2-H ) :   0.8847 B(  1-C ,  3-C ) :   0.9646
B(  1-C , 11-O ) :   1.0833 B(  3-C ,  4-H ) :   0.8779 B(  3-C ,  5-C ) :   1.0117
B(  3-C , 15-O ) :   1.0179 B(  5-C ,  6-H ) :   0.8604 B(  5-C ,  7-C ) :   1.0063
B(  5-C , 14-O ) :   1.0687 B(  7-C ,  8-H ) :   0.8767 B(  7-C ,  9-C ) :   0.9588
B(  7-C , 13-O ) :   1.0885 B(  9-C , 10-H ) :   0.8826 B(  9-C , 11-O ) :   1.0185
B(  9-C , 12-O ) :   1.1582 B( 12-O , 19-H ) :   0.7889 B( 13-O , 20-H ) :   0.8354
B( 14-O , 21-H ) :   0.8369 B( 15-O , 22-H ) :   0.8499 B( 16-O , 19-H ) :   0.1275
B( 16-O , 23-H ) :   0.8386

Dispersion correction           -0.025034283
FINAL SINGLE POINT ENERGY      -685.690360088105

DIPOLE MOMENT
-------------

Method             : SCF
Type of density    : Electron Density
Multiplicity       :   1
Irrep              :   0
Energy             :  -685.8230726820858081 Eh
Relativity type    :
Basis              : AO
                                X                 Y                 Z
Electronic contribution:      2.124078804      -0.714657629       1.544468521
Nuclear contribution   :     -3.439450488       1.652777608      -1.170180497
                        -----------------------------------------
Total Dipole Moment    :     -1.315371684       0.938119979       0.374288024
                        -----------------------------------------
Magnitude (a.u.)       :      1.658421927
Magnitude (Debye)      :      4.215373536

Rotational constants in cm-1:             0.038939             0.029556             0.019621
Rotational constants in MHz :          1167.371797           886.062301           588.231264

                             ****ORCA TERMINATED NORMALLY****
TOTAL RUN TIME: 0 days 0 hours 0 minutes 8 seconds 235 msec
