                         Program Version 6.0.1  -  RELEASE   -
|  1> ! r2scan-3c def2/J RI DEFGRID2 scfconv6 printgap
|  2> %output
|  3>     printlevel normal
|  4> end
|  5> * xyz 0 1
|  6> C -2.9073670711 -1.6398340011 0.0001673463
|  7> N -2.6770005175 -0.2141686062 -0.0015998351
|  8> C -3.8431794288 0.6388952644 0.0014928458
|  9> C -1.4402788516 0.3769293365 -0.0007500148
| 10> O -1.3104608831 1.5850382773 -0.0012188243
| 11> N -0.3893865184 -0.5116326605 0.0005602517
| 12> C 0.9788931413 -0.2364620152 0.0004366295
| 13> C 1.502152665 1.0531643221 0.000758517
| 14> C 2.8723068334 1.2389089177 0.0004658309
| 15> C 3.7369020985 0.1576879034 -0.0001404221
| 16> C 3.2189931288 -1.1264997659 -0.0003308545
| 17> C 1.8521537681 -1.3242121295 1.7633e-06
| 18> H -2.4892738292 -2.1201116091 -0.8907769626
| 19> H -3.9815030333 -1.8118763761 -0.0041717602
| 20> H -2.496670097 -2.1172428411 0.8962144596
| 21> H -4.4528727124 0.460324032 -0.8874875681
| 22> H -3.4991434759 1.6709880751 -0.0008695676
| 23> H -4.4470468497 0.4625969285 0.8950267396
| 24> H -0.6072151009 -1.4953625666 0.001452041
| 25> H 0.8318129349 1.8954914047 0.0011326726
| 26> H 3.2670021926 2.2442287942 0.0003933445
| 27> H 4.8053803015 0.3122652265 -0.0008812592
| 28> H 3.8814266484 -1.9799519092 -0.0010846504
| 29> H 1.4531684128 -2.3303968391 -0.0001978347
| 30> *
| 31>
| 32>                          ****END OF INPUT****

CARTESIAN COORDINATES (ANGSTROEM)
---------------------------------
  C     -2.907367   -1.639834    0.000167
  N     -2.677001   -0.214169   -0.001600
  C     -3.843179    0.638895    0.001493
  C     -1.440279    0.376929   -0.000750
  O     -1.310461    1.585038   -0.001219
  N     -0.389387   -0.511633    0.000560
  C      0.978893   -0.236462    0.000437
  C      1.502153    1.053164    0.000759
  C      2.872307    1.238909    0.000466
  C      3.736902    0.157688   -0.000140
  C      3.218993   -1.126500   -0.000331
  C      1.852154   -1.324212    0.000002
  H     -2.489274   -2.120112   -0.890777
  H     -3.981503   -1.811876   -0.004172
  H     -2.496670   -2.117243    0.896214
  H     -4.452873    0.460324   -0.887488
  H     -3.499143    1.670988   -0.000870
  H     -4.447047    0.462597    0.895027
  H     -0.607215   -1.495363    0.001452
  H      0.831813    1.895491    0.001133
  H      3.267002    2.244229    0.000393
  H      4.805380    0.312265   -0.000881
  H      3.881427   -1.979952   -0.001085
  H      1.453168   -2.330397   -0.000198

 Total Charge           Charge          ....    0
 Multiplicity           Mult            ....    1
 Number of Electrons    NEL             ....   88
 Basis Dimension        Dim             ....  303

ORBITAL ENERGIES
----------------

  NO   OCC          E(Eh)            E(eV)
   0   2.0000     -18.903313      -514.3853
   1   2.0000     -14.199078      -386.3766
   2   2.0000     -14.191620      -386.1736
   3   2.0000     -10.151049      -276.2241
   4   2.0000     -10.083126      -274.3758
   5   2.0000     -10.079956      -274.2895
   6   2.0000     -10.059108      -273.7222
   7   2.0000     -10.033614      -273.0285
   8   2.0000     -10.032598      -273.0009
   9   2.0000     -10.028119      -272.8790
  10   2.0000     -10.023321      -272.7484
  11   2.0000     -10.019863      -272.6543
  12   2.0000      -1.017833       -27.6966
  13   2.0000      -0.917424       -24.9644
  14   2.0000      -0.900320       -24.4990
  15   2.0000      -0.814078       -22.1522
  16   2.0000      -0.719455       -19.5774
  17   2.0000      -0.713009       -19.4020
  18   2.0000      -0.701572       -19.0907
  19   2.0000      -0.661767       -18.0076
  20   2.0000      -0.593180       -16.1413
  21   2.0000      -0.579356       -15.7651
  22   2.0000      -0.531774       -14.4703
  23   2.0000      -0.519488       -14.1360
  24   2.0000      -0.492960       -13.4141
  25   2.0000      -0.460047       -12.5185
  26   2.0000      -0.456560       -12.4236
  27   2.0000      -0.434007       -11.8099
  28   2.0000      -0.414959       -11.2916
  29   2.0000      -0.399297       -10.8654
  30   2.0000      -0.393504       -10.7078
  31   2.0000      -0.390845       -10.6354
  32   2.0000      -0.386555       -10.5187
  33   2.0000      -0.382795       -10.4164
  34   2.0000      -0.378139       -10.2897
  35   2.0000      -0.350752        -9.5445
  36   2.0000      -0.343607        -9.3500
  37   2.0000      -0.325500        -8.8573
  38   2.0000      -0.309376        -8.4185
  39   2.0000      -0.284030        -7.7289
  40   2.0000      -0.233115        -6.3434
  41   2.0000      -0.227664        -6.1951
  42   2.0000      -0.217163        -5.9093
  43   2.0000      -0.194439        -5.2910
  44   0.0000      -0.027818        -0.7570
  45   0.0000      -0.023240        -0.6324
  46   0.0000       0.045370         1.2346
  47   0.0000       0.046834         1.2744
  48   0.0000       0.076888         2.0922

MULLIKEN ATOMIC CHARGES
-----------------------
   0 C :   -0.464238
   1 N :    0.112519
   2 C :   -0.409875
   3 C :    0.219022
   4 O :   -0.514818
   5 N :   -0.086404
   6 C :    0.185058
   7 C :   -0.197661
   8 C :   -0.158467
   9 C :   -0.173178
  10 C :   -0.136495
  11 C :   -0.355489
  12 H :    0.159281
  13 H :    0.163803
  14 H :    0.159784
  15 H :    0.140790
  16 H :    0.203691
  17 H :    0.140840
  18 H :    0.243924
  19 H :    0.201271
  20 H :    0.146587
  21 H :    0.145290
  22 H :    0.146018
  23 H :    0.128748
Sum of atomic charges:    0.0000000

LOEWDIN ATOMIC CHARGES
----------------------
   0 C :   -0.120903
   1 N :   -0.813962
   2 C :   -0.106651
   3 C :    0.444201
   4 O :   -0.462544
   5 N :   -0.555408
   6 C :    0.162600
   7 C :   -0.128129
   8 C :   -0.153332
   9 C :   -0.187887
  10 C :   -0.159338
  11 C :   -0.152384
  12 H :    0.169456
  13 H :    0.190008
  14 H :    0.169354
  15 H :    0.168089
  16 H :    0.214740
  17 H :    0.168034
  18 H :    0.280221
  19 H :    0.206823
  20 H :    0.168172
  21 H :    0.165505
  22 H :    0.167295
  23 H :    0.166039

  Mayer bond orders larger than 0.100000
B(  0-C ,  1-N ) :   0.8780 B(  0-C , 12-H ) :   0.9629 B(  0-C , 13-H ) :   0.9513
B(  0-C , 14-H ) :   0.9628 B(  1-N ,  2-C ) :   0.9072 B(  1-N ,  3-C ) :   1.2246
B(  2-C , 15-H ) :   0.9570 B(  2-C , 16-H ) :   0.9510 B(  2-C , 17-H ) :   0.9566
B(  3-C ,  4-O ) :   1.7754 B(  3-C ,  5-N ) :   1.0985 B(  5-N ,  6-C ) :   1.0171
B(  5-N , 18-H ) :   0.9125 B(  6-C ,  7-C ) :   1.4455 B(  6-C , 11-C ) :   1.3003
B(  7-C ,  8-C ) :   1.3577 B(  7-C , 19-H ) :   0.9269 B(  8-C ,  9-C ) :   1.4035
B(  8-C , 20-H ) :   0.9595 B(  9-C , 10-C ) :   1.4200 B(  9-C , 21-H ) :   0.9489
B( 10-C , 11-C ) :   1.4312 B( 10-C , 22-H ) :   0.9392 B( 11-C , 23-H ) :   0.9437

Dispersion correction           -0.008501897
FINAL SINGLE POINT ENERGY      -534.789920307433

DIPOLE MOMENT
-------------

Method             : SCF
Type of density    : Electron Density
Multiplicity       :   1
Irrep              :   0
Energy             :  -534.8013489516305299 Eh
Relativity type    :
Basis              : AO
                                X                 Y                 Z
Electronic contribution:      6.467809040       3.026451740      -0.006765764
Nuclear contribution   :     -7.292919213      -4.492198675       0.008184897
                        -----------------------------------------
Total Dipole Moment    :     -0.825110173      -1.465746934       0.001419133
                        -----------------------------------------
Magnitude (a.u.)       :      1.682029395
Magnitude (Debye)      :      4.275378953

Rotational constants in cm-1:             0.087922             0.016189             0.013743
Rotational constants in MHz :          2635.848075           485.327933           412.007598

                             ****ORCA TERMINATED NORMALLY****
TOTAL RUN TIME: 0 days 0 hours 0 minutes 43 seconds 368 msec
