                         Program Version 6.0.1  -  RELEASE   -
|  1> ! pbe def2-sv(p) def2/J RI DEFGRID1 loosescf d4 GCP(DFT/SV(P)) printgap
|  2> %output
|  3>     printlevel normal
|  4> end
|  5> * xyz 0 1
|  6> C -3.1493883548 0.020250083 1.0596254692
|  7> O -1.7533086713 0.0470270666 0.7983795893
|  8> C -1.361842468 -0.0586002351 -0.4781755647
|  9> O -2.1229589456 -0.1660896712 -1.4040659011
| 10> C 0.1463514574 -0.0254096305 -0.5993993714
| 11> C 0.758741318 -1.237323147 0.1121985981
| 12> C 2.278448395 -1.2127349651 -0.0170717736
| 13> C 2.8441220977 0.0798189554 0.5629182921
| 14> C 2.2316017795 1.2889563724 -0.1370631484
| 15> C 0.7117738519 1.2695725278 -0.007414082
| 16> H -3.340446622 0.7247842934 1.8670703501
| 17> H -3.4426697865 -0.9858546608 1.3652041586
| 18> H -3.7028284896 0.3025054004 0.1621873781
| 19> H 0.3829899395 -0.073450613 -1.6670127331
| 20> H 0.4780562624 -1.2076174025 1.166773754
| 21> H 0.3611284866 -2.1577082983 -0.3211042324
| 22> H 2.7040376625 -2.0729989865 0.5033399834
| 23> H 2.554182477 -1.2889211746 -1.0712521911
| 24> H 2.6180247354 0.1267781687 1.6305173117
| 25> H 3.929912281 0.0945926131 0.4492346646
| 26> H 2.6245534134 2.210235151 0.2974666086
| 27> H 2.5058834274 1.273752639 -1.1942959553
| 28> H 0.4308419588 1.3304109781 1.045518791
| 29> H 0.2812943702 2.1294854183 -0.5251998868
| 30> *
| 31>
| 32>                          ****END OF INPUT****

CARTESIAN COORDINATES (ANGSTROEM)
---------------------------------
  C     -3.149388    0.020250    1.059625
  O     -1.753309    0.047027    0.798380
  C     -1.361842   -0.058600   -0.478176
  O     -2.122959   -0.166090   -1.404066
  C      0.146351   -0.025410   -0.599399
  C      0.758741   -1.237323    0.112199
  C      2.278448   -1.212735   -0.017072
  C      2.844122    0.079819    0.562918
  C      2.231602    1.288956   -0.137063
  C      0.711774    1.269573   -0.007414
  H     -3.340447    0.724784    1.867070
  H     -3.442670   -0.985855    1.365204
  H     -3.702828    0.302505    0.162187
  H      0.382990   -0.073451   -1.667013
  H      0.478056   -1.207617    1.166774
  H      0.361128   -2.157708   -0.321104
  H      2.704038   -2.072999    0.503340
  H      2.554182   -1.288921   -1.071252
  H      2.618025    0.126778    1.630517
  H      3.929912    0.094593    0.449235
  H      2.624553    2.210235    0.297467
  H      2.505883    1.273753   -1.194296
  H      0.430842    1.330411    1.045519
  H      0.281294    2.129485   -0.525200

 Total Charge           Charge          ....    0
 Multiplicity           Mult            ....    1
 Number of Electrons    NEL             ....   78
 Basis Dimension        Dim             ....  168

ORBITAL ENERGIES
----------------

  NO   OCC          E(Eh)            E(eV)
   0   2.0000     -18.795752      -511.4584
   1   2.0000     -18.733099      -509.7535
   2   2.0000     -10.001329      -272.1500
   3   2.0000      -9.936925      -270.3975
   4   2.0000      -9.901744      -269.4402
   5   2.0000      -9.889190      -269.0986
   6   2.0000      -9.888391      -269.0768
   7   2.0000      -9.885928      -269.0098
   8   2.0000      -9.885654      -269.0023
   9   2.0000      -9.884603      -268.9737
  10   2.0000      -1.003143       -27.2969
  11   2.0000      -0.912259       -24.8238
  12   2.0000      -0.764544       -20.8043
  13   2.0000      -0.694343       -18.8940
  14   2.0000      -0.670819       -18.2539
  15   2.0000      -0.646956       -17.6046
  16   2.0000      -0.560256       -15.2453
  17   2.0000      -0.547375       -14.8948
  18   2.0000      -0.505537       -13.7564
  19   2.0000      -0.501983       -13.6597
  20   2.0000      -0.456654       -12.4262
  21   2.0000      -0.430381       -11.7113
  22   2.0000      -0.425998       -11.5920
  23   2.0000      -0.405107       -11.0235
  24   2.0000      -0.398741       -10.8503
  25   2.0000      -0.387857       -10.5541
  26   2.0000      -0.378218       -10.2918
  27   2.0000      -0.364846        -9.9280
  28   2.0000      -0.349599        -9.5131
  29   2.0000      -0.339635        -9.2419
  30   2.0000      -0.321814        -8.7570
  31   2.0000      -0.309143        -8.4122
  32   2.0000      -0.307022        -8.3545
  33   2.0000      -0.301097        -8.1933
  34   2.0000      -0.285507        -7.7690
  35   2.0000      -0.274514        -7.4699
  36   2.0000      -0.263066        -7.1584
  37   2.0000      -0.254494        -6.9251
  38   2.0000      -0.213500        -5.8096
  39   0.0000      -0.015586        -0.4241
  40   0.0000       0.033648         0.9156
  41   0.0000       0.047735         1.2989
  42   0.0000       0.058443         1.5903
  43   0.0000       0.069332         1.8866

MULLIKEN ATOMIC CHARGES
-----------------------
   0 C :   -0.125976
   1 O :   -0.256884
   2 C :    0.153265
   3 O :   -0.178766
   4 C :   -0.159860
   5 C :   -0.148403
   6 C :   -0.126384
   7 C :   -0.166530
   8 C :   -0.127552
   9 C :   -0.145068
  10 H :    0.119135
  11 H :    0.117469
  12 H :    0.129444
  13 H :    0.073384
  14 H :    0.087033
  15 H :    0.091258
  16 H :    0.087068
  17 H :    0.075224
  18 H :    0.076011
  19 H :    0.086645
  20 H :    0.086804
  21 H :    0.074642
  22 H :    0.087958
  23 H :    0.090081
Sum of atomic charges:   -0.0000000

LOEWDIN ATOMIC CHARGES
----------------------
   0 C :   -0.211753
   1 O :   -0.075529
   2 C :    0.044809
   3 O :   -0.154380
   4 C :   -0.159754
   5 C :   -0.213271
   6 C :   -0.224847
   7 C :   -0.227421
   8 C :   -0.225020
   9 C :   -0.214329
  10 H :    0.118645
  11 H :    0.117308
  12 H :    0.122233
  13 H :    0.128831
  14 H :    0.118750
  15 H :    0.119735
  16 H :    0.117909
  17 H :    0.115320
  18 H :    0.114732
  19 H :    0.116811
  20 H :    0.117778
  21 H :    0.115069
  22 H :    0.119012
  23 H :    0.119360

  Mayer bond orders larger than 0.100000
B(  0-C ,  1-O ) :   0.9495 B(  0-C , 10-H ) :   0.9601 B(  0-C , 11-H ) :   0.9594
B(  0-C , 12-H ) :   0.9318 B(  1-O ,  2-C ) :   1.1731 B(  2-C ,  3-O ) :   2.1118
B(  2-C ,  4-C ) :   0.9546 B(  4-C ,  5-C ) :   1.0770 B(  4-C ,  9-C ) :   1.0734
B(  4-C , 13-H ) :   0.8805 B(  5-C ,  6-C ) :   1.1367 B(  5-C , 14-H ) :   0.9056
B(  5-C , 15-H ) :   0.9187 B(  6-C ,  7-C ) :   1.1363 B(  6-C , 16-H ) :   0.9190
B(  6-C , 17-H ) :   0.9112 B(  7-C ,  8-C ) :   1.1361 B(  7-C , 18-H ) :   0.9151
B(  7-C , 19-H ) :   0.9197 B(  8-C ,  9-C ) :   1.1361 B(  8-C , 20-H ) :   0.9191
B(  8-C , 21-H ) :   0.9111 B(  9-C , 22-H ) :   0.9046 B(  9-C , 23-H ) :   0.9196

Dispersion correction           -0.022705145
FINAL SINGLE POINT ENERGY      -462.706293080532

DIPOLE MOMENT
-------------

Method             : SCF
Type of density    : Electron Density
Multiplicity       :   1
Irrep              :   0
Energy             :  -462.7943810209060302 Eh
Relativity type    :
Basis              : AO
                                X                 Y                 Z
Electronic contribution:     -7.560762482      -0.316954524      -2.761644536
Nuclear contribution   :      7.809023393       0.379124532       3.470164021
                        -----------------------------------------
Total Dipole Moment    :      0.248260911       0.062170008       0.708519486
                        -----------------------------------------
Magnitude (a.u.)       :      0.753324931
Magnitude (Debye)      :      1.914799802

Rotational constants in cm-1:             0.090677             0.025305             0.024589
Rotational constants in MHz :          2718.440729           758.621124           737.163365

                             ****ORCA TERMINATED NORMALLY****
TOTAL RUN TIME: 0 days 0 hours 0 minutes 8 seconds 393 msec
