                         Program Version 6.0.0  -   RELEASE  -
|  1> ! r2SCAN-3c DEF2-TZVP FREQ
|  2> * xyzfile 0 1 censo.xyz
|  3>
|  4>                          ****END OF INPUT****

CARTESIAN COORDINATES (ANGSTROEM)
---------------------------------
  C     -1.050921   -2.194328    0.000009
  C     -0.203359   -0.959167    0.000026
  C      1.190902   -1.053223    0.000046
  C      1.992116    0.087200    0.000013
  C      1.416740    1.356036   -0.000013
  C      0.032844    1.471442   -0.000035
  C     -0.753877    0.326377   -0.000029
  Cl    -2.510512    0.517058   -0.000130
  O      3.365650    0.014427    0.000015
  H     -0.424155   -3.088056    0.000696
  H     -1.702067   -2.225413    0.880011
  H     -1.701016   -2.226074   -0.880757
  H      1.656715   -2.035515    0.000085
  H      2.045663    2.239708   -0.000018
  H     -0.428968    2.452399   -0.000061
  H      3.634965   -0.914713    0.000020

 Total Charge           Charge          ....    0
 Multiplicity           Mult            ....    1
 Number of Electrons    NEL             ....   74
 Basis Dimension        Dim             ....  327

ORBITAL ENERGIES
----------------

  NO   OCC          E(Eh)            E(eV)
   0   2.0000    -101.186264     -2753.4182
   1   2.0000     -18.993469      -516.8386
   2   2.0000     -10.105236      -274.9774
   3   2.0000     -10.092915      -274.6422
   4   2.0000     -10.064598      -273.8716
   5   2.0000     -10.050968      -273.5008
   6   2.0000     -10.047006      -273.3929
   7   2.0000     -10.041313      -273.2380
   8   2.0000     -10.038759      -273.1685
   9   2.0000      -9.362056      -254.7545
  10   2.0000      -7.106908      -193.3888
  11   2.0000      -7.097093      -193.1217
  12   2.0000      -7.096596      -193.1082
  13   2.0000      -1.031564       -28.0703
  14   2.0000      -0.855179       -23.2706
  15   2.0000      -0.796061       -21.6619
  16   2.0000      -0.753426       -20.5018
  17   2.0000      -0.699835       -19.0435
  18   2.0000      -0.666055       -18.1243
  19   2.0000      -0.597604       -16.2616
  20   2.0000      -0.562582       -15.3086
  21   2.0000      -0.517757       -14.0889
  22   2.0000      -0.472366       -12.8537
  23   2.0000      -0.451587       -12.2883
  24   2.0000      -0.414162       -11.2699
  25   2.0000      -0.408375       -11.1125
  26   2.0000      -0.393543       -10.7089
  27   2.0000      -0.381211       -10.3733
  28   2.0000      -0.379615       -10.3299
  29   2.0000      -0.368999       -10.0410
  30   2.0000      -0.341087        -9.2814
  31   2.0000      -0.339423        -9.2362
  32   2.0000      -0.325117        -8.8469
  33   2.0000      -0.286933        -7.8079
  34   2.0000      -0.281549        -7.6613
  35   2.0000      -0.243346        -6.6218
  36   2.0000      -0.205620        -5.5952
  37   0.0000      -0.045051        -1.2259
  38   0.0000      -0.029535        -0.8037
  39   0.0000       0.002076         0.0565
  40   0.0000       0.031433         0.8553
  41   0.0000       0.058568         1.5937

MULLIKEN ATOMIC CHARGES
-----------------------
   0 C :   -0.315294
   1 C :    0.104775
   2 C :   -0.278292
   3 C :    0.338712
   4 C :   -0.228532
   5 C :   -0.142570
   6 C :    0.054138
   7 Cl:   -0.133099
   8 O :   -0.399494
   9 H :    0.103544
  10 H :    0.126258
  11 H :    0.126260
  12 H :    0.089723
  13 H :    0.115875
  14 H :    0.123624
  15 H :    0.314370
Sum of atomic charges:    0.0000000

LOEWDIN ATOMIC CHARGES
----------------------
   0 C :   -0.256869
   1 C :   -0.177226
   2 C :   -0.118395
   3 C :   -0.266227
   4 C :   -0.119287
   5 C :   -0.140762
   6 C :   -0.389083
   7 Cl:    0.364447
   8 O :    0.076391
   9 H :    0.125684
  10 H :    0.133562
  11 H :    0.133575
  12 H :    0.144523
  13 H :    0.151512
  14 H :    0.150199
  15 H :    0.187955

  Mayer bond orders larger than 0.100000
B(  0-C ,  1-C ) :   0.9283 B(  0-C ,  9-H ) :   0.9798 B(  0-C , 10-H ) :   0.9575
B(  0-C , 11-H ) :   0.9574 B(  1-C ,  2-C ) :   1.3584 B(  1-C ,  6-C ) :   1.2558
B(  2-C ,  3-C ) :   1.3328 B(  2-C , 12-H ) :   0.9488 B(  3-C ,  4-C ) :   1.3615
B(  3-C ,  8-O ) :   1.1008 B(  4-C ,  5-C ) :   1.3896 B(  4-C , 13-H ) :   0.9798
B(  5-C ,  6-C ) :   1.3687 B(  5-C , 14-H ) :   0.9715 B(  6-C ,  7-Cl) :   1.0266
B(  8-O , 15-H ) :   0.8854

Dispersion correction           -0.005733687
FINAL SINGLE POINT ENERGY      -806.316686817801

DIPOLE MOMENT
-------------

Method             : SCF
Type of density    : Electron Density
Multiplicity       :   1
Irrep              :   0
Energy             :  -806.3176938190684950 Eh
Relativity type    :
Basis              : AO
                                X                 Y                 Z
Electronic contribution:     -5.767116656       5.431470266      -0.000310176
Nuclear contribution   :      6.329534415      -6.174154994       0.000303978
                        -----------------------------------------
Total Dipole Moment    :      0.562417759      -0.742684728      -0.000006197
                        -----------------------------------------
Magnitude (a.u.)       :      0.931608469
Magnitude (Debye)      :      2.367960544

VIBRATIONAL FREQUENCIES
-----------------------

Scaling factor for frequencies =  1.000000000  (already applied!)

     0:       0.00 cm**-1
     1:       0.00 cm**-1
     2:       0.00 cm**-1
     3:       0.00 cm**-1
     4:       0.00 cm**-1
     5:       0.00 cm**-1
     6:     128.65 cm**-1
     7:     173.64 cm**-1
     8:     214.46 cm**-1
     9:     249.84 cm**-1
    10:     312.90 cm**-1
    11:     333.37 cm**-1
    12:     378.68 cm**-1
    13:     412.00 cm**-1
    14:     452.21 cm**-1
    15:     494.16 cm**-1
    16:     557.56 cm**-1
    17:     581.10 cm**-1
    18:     632.50 cm**-1
    19:     707.59 cm**-1
    20:     746.10 cm**-1
    21:     817.07 cm**-1
    22:     835.84 cm**-1
    23:     941.29 cm**-1
    24:     961.22 cm**-1
    25:    1021.58 cm**-1
    26:    1049.27 cm**-1
    27:    1052.76 cm**-1
    28:    1143.37 cm**-1
    29:    1185.84 cm**-1
    30:    1203.60 cm**-1
    31:    1267.62 cm**-1
    32:    1316.87 cm**-1
    33:    1352.44 cm**-1
    34:    1405.42 cm**-1
    35:    1445.44 cm**-1
    36:    1470.69 cm**-1
    37:    1487.96 cm**-1
    38:    1507.95 cm**-1
    39:    1621.65 cm**-1
    40:    1633.65 cm**-1
    41:    3013.95 cm**-1
    42:    3077.37 cm**-1
    43:    3112.36 cm**-1
    44:    3147.44 cm**-1
    45:    3180.39 cm**-1
    46:    3194.01 cm**-1
    47:    3759.57 cm**-1

IR SPECTRUM
-----------

 Mode   freq       eps      Int      T**2         TX        TY        TZ
       cm**-1   L/(mol*cm) km/mol    a.u.
----------------------------------------------------------------------------
  6:    128.65   0.000004    0.02  0.000011  ( 0.000005 -0.000006  0.003244)
  7:    173.64   0.000100    0.51  0.000180  (-0.000023  0.000054  0.013412)
  8:    214.46   0.000157    0.80  0.000229  (-0.000009  0.000013 -0.015132)
  9:    249.84   0.000261    1.32  0.000326  (-0.013611  0.011880 -0.000002)
 10:    312.90   0.000064    0.32  0.000064  ( 0.007957 -0.000686 -0.000001)
 11:    333.37   0.000046    0.23  0.000043  ( 0.000011 -0.000002 -0.006560)
 12:    378.68   0.000945    4.78  0.000779  ( 0.027734 -0.003128 -0.000002)
 13:    412.00   0.017024   86.03  0.012894  (-0.000002 -0.000003 -0.113552)
 14:    452.21   0.003987   20.15  0.002751  ( 0.000002 -0.000002  0.052453)
 15:    494.16   0.001922    9.71  0.001214  (-0.034798  0.001655 -0.000002)
 16:    557.56   0.000140    0.71  0.000078  (-0.006886  0.005540  0.000007)
 17:    581.10   0.000787    3.98  0.000423  (-0.000007 -0.000002  0.020557)
 18:    632.50   0.007772   39.28  0.003835  ( 0.061578 -0.006543  0.000001)
 19:    707.59   0.000561    2.84  0.000247  (-0.000009  0.000010 -0.015730)
 20:    746.10   0.000366    1.85  0.000153  ( 0.012376 -0.000024 -0.000001)
 21:    817.07   0.000628    3.17  0.000240  (-0.000004 -0.000001 -0.015481)
 22:    835.84   0.008540   43.16  0.003188  (-0.000005  0.000002 -0.056466)
 23:    941.29   0.000006    0.03  0.000002  (-0.000003 -0.000004  0.001449)
 24:    961.22   0.000260    1.31  0.000084  (-0.007279 -0.005610 -0.000003)
 25:   1021.58   0.002263   11.44  0.000691  ( 0.020387  0.016603  0.000001)
 26:   1049.27   0.006810   34.41  0.002025  (-0.044151  0.008718 -0.000013)
 27:   1052.76   0.000350    1.77  0.000104  ( 0.000035 -0.000021 -0.010188)
 28:   1143.37   0.003365   17.01  0.000918  ( 0.029710  0.005981  0.000002)
 29:   1185.84   0.025408  128.40  0.006686  (-0.080614  0.013703 -0.000003)
 30:   1203.60   0.020248  102.32  0.005250  ( 0.072455 -0.000162 -0.000001)
 31:   1267.62   0.009686   48.95  0.002384  (-0.048737  0.003019  0.000001)
 32:   1316.87   0.001614    8.15  0.000382  (-0.016776  0.010049  0.000003)
 33:   1352.44   0.001236    6.25  0.000285  ( 0.015397 -0.006941  0.000000)
 34:   1405.42   0.000589    2.98  0.000131  (-0.007255 -0.008844 -0.000006)
 35:   1445.44   0.013298   67.20  0.002871  ( 0.053545 -0.002007  0.000003)
 36:   1470.69   0.001821    9.20  0.000386  ( 0.000038  0.000008 -0.019658)
 37:   1487.96   0.005411   27.34  0.001135  (-0.027974  0.018769 -0.000016)
 38:   1507.95   0.013990   70.70  0.002895  (-0.053773  0.001923 -0.000004)
 39:   1621.65   0.007730   39.06  0.001488  (-0.038567 -0.000340  0.000000)
 40:   1633.65   0.004396   22.21  0.000840  (-0.022907 -0.017746  0.000001)
 41:   3013.95   0.003354   16.95  0.000347  (-0.008256 -0.016708 -0.000010)
 42:   3077.37   0.001561    7.89  0.000158  ( 0.000000  0.000016 -0.012583)
 43:   3112.36   0.002993   15.13  0.000300  ( 0.008864 -0.014885  0.000003)
 44:   3147.44   0.003009   15.20  0.000298  (-0.012731  0.011671 -0.000001)
 45:   3180.39   0.000376    1.90  0.000037  ( 0.006077  0.000088 -0.000000)
 46:   3194.01   0.000345    1.75  0.000034  ( 0.002493  0.005246 -0.000000)
 47:   3759.57   0.011505   58.14  0.000955  ( 0.024105 -0.019336  0.000000)

--------------------------
THERMOCHEMISTRY AT 298.15K
--------------------------

Temperature         ...   298.15 K
Pressure            ...     1.00 atm
Total Mass          ...   142.59 AMU
Quasi RRHO          ...     True
Cut-Off Frequency   ...     1.00 cm^-1

Throughout the following assumptions are being made:
  (1) The electronic state is orbitally nondegenerate
  (2) There are no thermally accessible electronically excited states
  (3) Hindered rotations indicated by low frequency modes are not
      treated as such but are treated as vibrations and this may
      cause some error
  (4) All equations used are the standard statistical mechanics
      equations for an ideal gas
  (5) All vibrations are strictly harmonic

freq.     128.65  E(vib)   ...       0.43
freq.     173.64  E(vib)   ...       0.38
freq.     214.46  E(vib)   ...       0.34
freq.     249.84  E(vib)   ...       0.31
freq.     312.90  E(vib)   ...       0.25
freq.     333.37  E(vib)   ...       0.24
freq.     378.68  E(vib)   ...       0.21
freq.     412.00  E(vib)   ...       0.19
freq.     452.21  E(vib)   ...       0.16
freq.     494.16  E(vib)   ...       0.14
freq.     557.56  E(vib)   ...       0.12
freq.     581.10  E(vib)   ...       0.11
freq.     632.50  E(vib)   ...       0.09
freq.     707.59  E(vib)   ...       0.07
freq.     746.10  E(vib)   ...       0.06
freq.     817.07  E(vib)   ...       0.05
freq.     835.84  E(vib)   ...       0.04
freq.     941.29  E(vib)   ...       0.03
freq.     961.22  E(vib)   ...       0.03
freq.    1021.58  E(vib)   ...       0.02
freq.    1049.27  E(vib)   ...       0.02
freq.    1052.76  E(vib)   ...       0.02
freq.    1143.37  E(vib)   ...       0.01
freq.    1185.84  E(vib)   ...       0.01
freq.    1203.60  E(vib)   ...       0.01
freq.    1267.62  E(vib)   ...       0.01
freq.    1316.87  E(vib)   ...       0.01
freq.    1352.44  E(vib)   ...       0.01
freq.    1405.42  E(vib)   ...       0.00
freq.    1445.44  E(vib)   ...       0.00
freq.    1470.69  E(vib)   ...       0.00
freq.    1487.96  E(vib)   ...       0.00
freq.    1507.95  E(vib)   ...       0.00
freq.    1621.65  E(vib)   ...       0.00
freq.    1633.65  E(vib)   ...       0.00
freq.    3013.95  E(vib)   ...       0.00
freq.    3077.37  E(vib)   ...       0.00
freq.    3112.36  E(vib)   ...       0.00
freq.    3147.44  E(vib)   ...       0.00
freq.    3180.39  E(vib)   ...       0.00
freq.    3194.01  E(vib)   ...       0.00
freq.    3759.57  E(vib)   ...       0.00

------------
INNER ENERGY
------------

The inner energy is: U= E(el) + E(ZPE) + E(vib) + E(rot) + E(trans)
    E(el)   - is the total energy from the electronic structure calculation
              = E(kin-el) + E(nuc-el) + E(el-el) + E(nuc-nuc)
    E(ZPE)  - the the zero temperature vibrational energy from the frequency calculation
    E(vib)  - the the finite temperature correction to E(ZPE) due to population
              of excited vibrational states
    E(rot)  - is the rotational thermal energy
    E(trans)- is the translational thermal energy

Summary of contributions to the inner energy U:
Electronic energy                ...   -806.31668682 Eh
Zero point energy                ...      0.12206736 Eh      76.60 kcal/mol
Thermal vibrational correction   ...      0.00536446 Eh       3.37 kcal/mol
Thermal rotational correction    ...      0.00141627 Eh       0.89 kcal/mol
Thermal translational correction ...      0.00141627 Eh       0.89 kcal/mol
-----------------------------------------------------------------------
Total thermal energy                   -806.18642245 Eh

Summary of corrections to the electronic energy:
(perhaps to be used in another calculation)
Total thermal correction                  0.00819700 Eh       5.14 kcal/mol
Non-thermal (ZPE) correction              0.12206736 Eh      76.60 kcal/mol
-----------------------------------------------------------------------
Total correction                          0.13026436 Eh      81.74 kcal/mol

--------
ENTHALPY
--------

The enthalpy is H = U + kB*T
                kB is Boltzmann's constant
Total thermal energy              ...   -806.18642245 Eh
Thermal Enthalpy correction       ...      0.00094421 Eh       0.59 kcal/mol
-----------------------------------------------------------------------
Total Enthalpy                    ...   -806.18547825 Eh

Note: Only C1 symmetry has been detected, increase convergence thresholds
      if your molecule has a higher symmetry. Symmetry factor of 1.0 is
      used for the rotational entropy correction.

Note: Rotational entropy computed according to Herzberg
Infrared and Raman Spectra, Chapter V,1, Van Nostrand Reinhold, 1945
Point Group:  C1, Symmetry Number:   1
Rotational constants in cm-1:     0.094475     0.031093     0.023496

Vibrational entropy computed according to the QRRHO of S. Grimme
Chem.Eur.J. 2012 18 9955 using a reference frequency of 100.0 cm-1

-------
ENTROPY
-------

The entropy contributions are T*S = T*(S(el)+S(vib)+S(rot)+S(trans))
     S(el)   - electronic entropy
     S(vib)  - vibrational entropy
     S(rot)  - rotational entropy
     S(trans)- translational entropy
The entropies will be listed as multiplied by the temperature to get
units of energy

Electronic entropy                ...      0.00000000 Eh      0.00 kcal/mol
Vibrational entropy               ...      0.00861738 Eh      5.41 kcal/mol
Rotational entropy                ...      0.01403397 Eh      8.81 kcal/mol
Translational entropy             ...      0.01937369 Eh     12.16 kcal/mol
-----------------------------------------------------------------------
Final entropy term                ...      0.04202504 Eh     26.37 kcal/mol

In case the symmetry of your molecule has not been determined correctly
or in case you have a reason to use a different symmetry number we print
out the resulting rotational entropy values for sn=1,12:

 non-linear molecules -----------------------------------
|  sn= 1 | S(rot)=       0.01403397 Eh      8.81 kcal/mol|
|  sn= 2 | S(rot)=       0.01337951 Eh      8.40 kcal/mol|
|  sn= 3 | S(rot)=       0.01299668 Eh      8.16 kcal/mol|
|  sn= 4 | S(rot)=       0.01272505 Eh      7.99 kcal/mol|
|  sn= 5 | S(rot)=       0.01251437 Eh      7.85 kcal/mol|
|  sn= 6 | S(rot)=       0.01234222 Eh      7.74 kcal/mol|
|  sn= 7 | S(rot)=       0.01219668 Eh      7.65 kcal/mol|
|  sn= 8 | S(rot)=       0.01207060 Eh      7.57 kcal/mol|
|  sn= 9 | S(rot)=       0.01195939 Eh      7.50 kcal/mol|
|  sn=10 | S(rot)=       0.01185991 Eh      7.44 kcal/mol|
|  sn=11 | S(rot)=       0.01176992 Eh      7.39 kcal/mol|
|  sn=12 | S(rot)=       0.01168777 Eh      7.33 kcal/mol|
 linear molecules ---------------------------------------
|  Dinfh | S(rot)=       0.00886737 Eh      5.56 kcal/mol|
|  Cinfv | S(rot)=       0.00952182 Eh      5.98 kcal/mol|
 --------------------------------------------------------

                             ****ORCA TERMINATED NORMALLY****
TOTAL RUN TIME: 0 days 0 hours 13 minutes 38 seconds 414 msec
