                         Program Version 6.0.0  -   RELEASE  -
|  1> ! r2SCAN-3c DEF2-TZVP FREQ
|  2> * xyzfile 0 1 vacuum_censo.xyz
|  3>
|  4>                          ****END OF INPUT****

CARTESIAN COORDINATES (ANGSTROEM)
---------------------------------
  C     -1.057229   -2.186711   -0.000002
  C     -0.203311   -0.954513    0.000023
  C      1.187000   -1.051384    0.000033
  C      1.993126    0.084519    0.000013
  C      1.416285    1.352358    0.000004
  C      0.031393    1.470677   -0.000007
  C     -0.758540    0.330493   -0.000008
  Cl    -2.508548    0.520900   -0.000080
  O      3.346805   -0.113509    0.000009
  H     -1.708871   -2.211219   -0.879284
  H     -0.437248   -3.085098    0.000569
  H     -1.709746   -2.210677    0.878637
  H      1.662470   -2.026592    0.000053
  H      2.035849    2.244952    0.000007
  H     -0.433557    2.449560   -0.000016
  H      3.790795    0.741810   -0.000019

 Total Charge           Charge          ....    0
 Multiplicity           Mult            ....    1
 Number of Electrons    NEL             ....   74
 Basis Dimension        Dim             ....  327

ORBITAL ENERGIES
----------------

  NO   OCC          E(Eh)            E(eV)
   0   2.0000    -101.186374     -2753.4212
   1   2.0000     -18.993871      -516.8495
   2   2.0000     -10.104428      -274.9555
   3   2.0000     -10.091788      -274.6115
   4   2.0000     -10.061746      -273.7940
   5   2.0000     -10.051756      -273.5222
   6   2.0000     -10.046317      -273.3742
   7   2.0000     -10.039706      -273.1943
   8   2.0000     -10.035299      -273.0744
   9   2.0000      -9.362254      -254.7599
  10   2.0000      -7.107094      -193.3939
  11   2.0000      -7.097283      -193.1269
  12   2.0000      -7.096786      -193.1134
  13   2.0000      -1.035217       -28.1697
  14   2.0000      -0.855442       -23.2778
  15   2.0000      -0.796559       -21.6755
  16   2.0000      -0.751583       -20.4516
  17   2.0000      -0.702307       -19.1107
  18   2.0000      -0.661896       -18.0111
  19   2.0000      -0.589947       -16.0533
  20   2.0000      -0.577274       -15.7084
  21   2.0000      -0.508417       -13.8347
  22   2.0000      -0.471378       -12.8268
  23   2.0000      -0.453243       -12.3334
  24   2.0000      -0.419449       -11.4138
  25   2.0000      -0.406811       -11.0699
  26   2.0000      -0.393836       -10.7168
  27   2.0000      -0.383197       -10.4273
  28   2.0000      -0.379981       -10.3398
  29   2.0000      -0.357048        -9.7158
  30   2.0000      -0.344663        -9.3788
  31   2.0000      -0.339816        -9.2469
  32   2.0000      -0.324117        -8.8197
  33   2.0000      -0.287380        -7.8200
  34   2.0000      -0.281377        -7.6567
  35   2.0000      -0.241868        -6.5816
  36   2.0000      -0.205273        -5.5858
  37   0.0000      -0.044065        -1.1991
  38   0.0000      -0.028591        -0.7780
  39   0.0000       0.003920         0.1067
  40   0.0000       0.033584         0.9139
  41   0.0000       0.063272         1.7217

MULLIKEN ATOMIC CHARGES
-----------------------
   0 C :   -0.315605
   1 C :    0.147493
   2 C :   -0.281465
   3 C :    0.315643
   4 C :   -0.225930
   5 C :   -0.176610
   6 C :    0.058049
   7 Cl:   -0.130065
   8 O :   -0.395639
   9 H :    0.124609
  10 H :    0.109419
  11 H :    0.124606
  12 H :    0.106308
  13 H :    0.101147
  14 H :    0.123549
  15 H :    0.314491
Sum of atomic charges:   -0.0000000

LOEWDIN ATOMIC CHARGES
----------------------
   0 C :   -0.256147
   1 C :   -0.174478
   2 C :   -0.092703
   3 C :   -0.273019
   4 C :   -0.146513
   5 C :   -0.144654
   6 C :   -0.395330
   7 Cl:    0.371712
   8 O :    0.085115
   9 H :    0.132952
  10 H :    0.126926
  11 H :    0.132939
  12 H :    0.153157
  13 H :    0.143416
  14 H :    0.149374
  15 H :    0.187254

  Mayer bond orders larger than 0.100000
B(  0-C ,  1-C ) :   0.9434 B(  0-C ,  9-H ) :   0.9581 B(  0-C , 10-H ) :   0.9793
B(  0-C , 11-H ) :   0.9581 B(  1-C ,  2-C ) :   1.3473 B(  1-C ,  6-C ) :   1.2508
B(  2-C ,  3-C ) :   1.3762 B(  2-C , 12-H ) :   0.9787 B(  3-C ,  4-C ) :   1.3201
B(  3-C ,  8-O ) :   1.1239 B(  4-C ,  5-C ) :   1.3767 B(  4-C , 13-H ) :   0.9641
B(  5-C ,  6-C ) :   1.4003 B(  5-C , 14-H ) :   0.9574 B(  6-C ,  7-Cl) :   1.0305
B(  8-O , 15-H ) :   0.8853

Dispersion correction           -0.005733614
FINAL SINGLE POINT ENERGY      -806.316999753734

DIPOLE MOMENT
-------------

Method             : SCF
Type of density    : Electron Density
Multiplicity       :   1
Irrep              :   0
Energy             :  -806.3180175452941967 Eh
Relativity type    :
Basis              : AO
                                X                 Y                 Z
Electronic contribution:     -5.773402101       4.860442900      -0.000161313
Nuclear contribution   :      6.448914347      -4.583603127       0.000133394
                        -----------------------------------------
Total Dipole Moment    :      0.675512245       0.276839773      -0.000027919
                        -----------------------------------------
Magnitude (a.u.)       :      0.730039077
Magnitude (Debye)      :      1.855611867

VIBRATIONAL FREQUENCIES
-----------------------

Scaling factor for frequencies =  1.000000000  (already applied!)

     0:       0.00 cm**-1
     1:       0.00 cm**-1
     2:       0.00 cm**-1
     3:       0.00 cm**-1
     4:       0.00 cm**-1
     5:       0.00 cm**-1
     6:     122.77 cm**-1
     7:     171.78 cm**-1
     8:     212.86 cm**-1
     9:     251.04 cm**-1
    10:     311.21 cm**-1
    11:     331.18 cm**-1
    12:     354.11 cm**-1
    13:     379.19 cm**-1
    14:     449.57 cm**-1
    15:     490.96 cm**-1
    16:     559.46 cm**-1
    17:     579.15 cm**-1
    18:     637.33 cm**-1
    19:     706.40 cm**-1
    20:     745.70 cm**-1
    21:     793.85 cm**-1
    22:     868.26 cm**-1
    23:     913.23 cm**-1
    24:     964.81 cm**-1
    25:    1021.63 cm**-1
    26:    1053.20 cm**-1
    27:    1054.06 cm**-1
    28:    1154.55 cm**-1
    29:    1176.97 cm**-1
    30:    1208.39 cm**-1
    31:    1269.91 cm**-1
    32:    1312.50 cm**-1
    33:    1353.84 cm**-1
    34:    1403.88 cm**-1
    35:    1460.63 cm**-1
    36:    1471.52 cm**-1
    37:    1487.25 cm**-1
    38:    1507.87 cm**-1
    39:    1615.21 cm**-1
    40:    1645.84 cm**-1
    41:    3017.29 cm**-1
    42:    3080.95 cm**-1
    43:    3115.52 cm**-1
    44:    3155.33 cm**-1
    45:    3178.72 cm**-1
    46:    3193.64 cm**-1
    47:    3806.76 cm**-1

IR SPECTRUM
-----------

 Mode   freq       eps      Int      T**2         TX        TY        TZ
       cm**-1   L/(mol*cm) km/mol    a.u.
----------------------------------------------------------------------------
  6:    122.77   0.000057    0.29  0.000144  ( 0.000009 -0.000006  0.011992)
  7:    171.78   0.000279    1.41  0.000507  ( 0.000017 -0.000044 -0.022520)
  8:    212.86   0.001077    5.44  0.001579  (-0.000001 -0.000008  0.039741)
  9:    251.04   0.000086    0.44  0.000107  ( 0.001374 -0.010253 -0.000009)
 10:    311.21   0.001446    7.31  0.001450  (-0.037950  0.003192 -0.000001)
 11:    331.18   0.000015    0.08  0.000014  ( 0.000008 -0.000002 -0.003787)
 12:    354.11   0.018650   94.25  0.016436  ( 0.000002 -0.000006 -0.128203)
 13:    379.19   0.000010    0.05  0.000008  ( 0.001164  0.002643  0.000001)
 14:    449.57   0.000465    2.35  0.000323  ( 0.000003 -0.000001  0.017961)
 15:    490.96   0.000823    4.16  0.000523  (-0.022773  0.002165  0.000002)
 16:    559.46   0.000075    0.38  0.000042  (-0.004299 -0.004845 -0.000010)
 17:    579.15   0.001434    7.25  0.000773  (-0.000007 -0.000001  0.027799)
 18:    637.33   0.007771   39.27  0.003805  (-0.060580  0.011630 -0.000001)
 19:    706.40   0.000242    1.22  0.000107  (-0.000011  0.000007 -0.010330)
 20:    745.70   0.000029    0.15  0.000012  (-0.003016 -0.001755  0.000002)
 21:    793.85   0.006318   31.93  0.002484  (-0.000003 -0.000001 -0.049837)
 22:    868.26   0.003343   16.90  0.001202  (-0.000000  0.000001 -0.034665)
 23:    913.23   0.000297    1.50  0.000102  ( 0.000002  0.000002 -0.010076)
 24:    964.81   0.001391    7.03  0.000450  (-0.020543 -0.005295 -0.000003)
 25:   1021.63   0.004748   23.99  0.001450  ( 0.035259  0.014392  0.000001)
 26:   1053.20   0.005422   27.40  0.001607  (-0.039609  0.006141 -0.000037)
 27:   1054.06   0.000469    2.37  0.000139  ( 0.000116 -0.000030 -0.011780)
 28:   1154.55   0.009381   47.41  0.002535  (-0.049527 -0.009083 -0.000002)
 29:   1176.97   0.019133   96.69  0.005073  (-0.069770  0.014325 -0.000002)
 30:   1208.39   0.011653   58.89  0.003009  ( 0.054600 -0.005299 -0.000001)
 31:   1269.91   0.001534    7.75  0.000377  (-0.019258 -0.002486  0.000001)
 32:   1312.50   0.019151   96.78  0.004553  (-0.066594  0.010888  0.000003)
 33:   1353.84   0.004716   23.83  0.001087  (-0.032609 -0.004875 -0.000000)
 34:   1403.88   0.000630    3.19  0.000140  (-0.007834 -0.008874 -0.000005)
 35:   1460.63   0.000269    1.36  0.000057  ( 0.006435 -0.003994 -0.000009)
 36:   1471.52   0.001867    9.43  0.000396  (-0.000007  0.000011 -0.019896)
 37:   1487.25   0.005497   27.78  0.001153  ( 0.031648  0.012325 -0.000009)
 38:   1507.87   0.020189  102.03  0.004178  (-0.063355  0.012819 -0.000005)
 39:   1615.21   0.010402   52.57  0.002010  (-0.043986  0.008654  0.000000)
 40:   1645.84   0.004712   23.81  0.000894  (-0.023304 -0.018720  0.000001)
 41:   3017.29   0.003267   16.51  0.000338  (-0.008544 -0.016277 -0.000009)
 42:   3080.95   0.001634    8.26  0.000165  ( 0.000001  0.000014 -0.012863)
 43:   3115.52   0.002884   14.57  0.000289  ( 0.008955 -0.014444  0.000001)
 44:   3155.33   0.002421   12.23  0.000239  (-0.013839 -0.006921  0.000000)
 45:   3178.72   0.000862    4.36  0.000085  (-0.006014  0.006961 -0.000000)
 46:   3193.64   0.000311    1.57  0.000030  ( 0.000357  0.005505  0.000000)
 47:   3806.76   0.012611   63.73  0.001034  (-0.027787 -0.016177  0.000001)

--------------------------
THERMOCHEMISTRY AT 298.15K
--------------------------

Temperature         ...   298.15 K
Pressure            ...     1.00 atm
Total Mass          ...   142.59 AMU
Quasi RRHO          ...     True
Cut-Off Frequency   ...     1.00 cm^-1

Throughout the following assumptions are being made:
  (1) The electronic state is orbitally nondegenerate
  (2) There are no thermally accessible electronically excited states
  (3) Hindered rotations indicated by low frequency modes are not
      treated as such but are treated as vibrations and this may
      cause some error
  (4) All equations used are the standard statistical mechanics
      equations for an ideal gas
  (5) All vibrations are strictly harmonic

freq.     122.77  E(vib)   ...       0.43
freq.     171.78  E(vib)   ...       0.38
freq.     212.86  E(vib)   ...       0.34
freq.     251.04  E(vib)   ...       0.30
freq.     311.21  E(vib)   ...       0.25
freq.     331.18  E(vib)   ...       0.24
freq.     354.11  E(vib)   ...       0.22
freq.     379.19  E(vib)   ...       0.21
freq.     449.57  E(vib)   ...       0.17
freq.     490.96  E(vib)   ...       0.14
freq.     559.46  E(vib)   ...       0.12
freq.     579.15  E(vib)   ...       0.11
freq.     637.33  E(vib)   ...       0.09
freq.     706.40  E(vib)   ...       0.07
freq.     745.70  E(vib)   ...       0.06
freq.     793.85  E(vib)   ...       0.05
freq.     868.26  E(vib)   ...       0.04
freq.     913.23  E(vib)   ...       0.03
freq.     964.81  E(vib)   ...       0.03
freq.    1021.63  E(vib)   ...       0.02
freq.    1053.20  E(vib)   ...       0.02
freq.    1054.06  E(vib)   ...       0.02
freq.    1154.55  E(vib)   ...       0.01
freq.    1176.97  E(vib)   ...       0.01
freq.    1208.39  E(vib)   ...       0.01
freq.    1269.91  E(vib)   ...       0.01
freq.    1312.50  E(vib)   ...       0.01
freq.    1353.84  E(vib)   ...       0.01
freq.    1403.88  E(vib)   ...       0.00
freq.    1460.63  E(vib)   ...       0.00
freq.    1471.52  E(vib)   ...       0.00
freq.    1487.25  E(vib)   ...       0.00
freq.    1507.87  E(vib)   ...       0.00
freq.    1615.21  E(vib)   ...       0.00
freq.    1645.84  E(vib)   ...       0.00
freq.    3017.29  E(vib)   ...       0.00
freq.    3080.95  E(vib)   ...       0.00
freq.    3115.52  E(vib)   ...       0.00
freq.    3155.33  E(vib)   ...       0.00
freq.    3178.72  E(vib)   ...       0.00
freq.    3193.64  E(vib)   ...       0.00
freq.    3806.76  E(vib)   ...       0.00

------------
INNER ENERGY
------------

The inner energy is: U= E(el) + E(ZPE) + E(vib) + E(rot) + E(trans)
    E(el)   - is the total energy from the electronic structure calculation
              = E(kin-el) + E(nuc-el) + E(el-el) + E(nuc-nuc)
    E(ZPE)  - the the zero temperature vibrational energy from the frequency calculation
    E(vib)  - the the finite temperature correction to E(ZPE) due to population
              of excited vibrational states
    E(rot)  - is the rotational thermal energy
    E(trans)- is the translational thermal energy

Summary of contributions to the inner energy U:
Electronic energy                ...   -806.31699975 Eh
Zero point energy                ...      0.12208323 Eh      76.61 kcal/mol
Thermal vibrational correction   ...      0.00544662 Eh       3.42 kcal/mol
Thermal rotational correction    ...      0.00141627 Eh       0.89 kcal/mol
Thermal translational correction ...      0.00141627 Eh       0.89 kcal/mol
-----------------------------------------------------------------------
Total thermal energy                   -806.18663736 Eh

Summary of corrections to the electronic energy:
(perhaps to be used in another calculation)
Total thermal correction                  0.00827916 Eh       5.20 kcal/mol
Non-thermal (ZPE) correction              0.12208323 Eh      76.61 kcal/mol
-----------------------------------------------------------------------
Total correction                          0.13036239 Eh      81.80 kcal/mol

--------
ENTHALPY
--------

The enthalpy is H = U + kB*T
                kB is Boltzmann's constant
Total thermal energy              ...   -806.18663736 Eh
Thermal Enthalpy correction       ...      0.00094421 Eh       0.59 kcal/mol
-----------------------------------------------------------------------
Total Enthalpy                    ...   -806.18569315 Eh

Note: Only C1 symmetry has been detected, increase convergence thresholds
      if your molecule has a higher symmetry. Symmetry factor of 1.0 is
      used for the rotational entropy correction.

Note: Rotational entropy computed according to Herzberg
Infrared and Raman Spectra, Chapter V,1, Van Nostrand Reinhold, 1945
Point Group:  C1, Symmetry Number:   1
Rotational constants in cm-1:     0.094907     0.031150     0.023555

Vibrational entropy computed according to the QRRHO of S. Grimme
Chem.Eur.J. 2012 18 9955 using a reference frequency of 100.0 cm-1

-------
ENTROPY
-------

The entropy contributions are T*S = T*(S(el)+S(vib)+S(rot)+S(trans))
     S(el)   - electronic entropy
     S(vib)  - vibrational entropy
     S(rot)  - rotational entropy
     S(trans)- translational entropy
The entropies will be listed as multiplied by the temperature to get
units of energy

Electronic entropy                ...      0.00000000 Eh      0.00 kcal/mol
Vibrational entropy               ...      0.00878355 Eh      5.51 kcal/mol
Rotational entropy                ...      0.01402977 Eh      8.80 kcal/mol
Translational entropy             ...      0.01937369 Eh     12.16 kcal/mol
-----------------------------------------------------------------------
Final entropy term                ...      0.04218700 Eh     26.47 kcal/mol

In case the symmetry of your molecule has not been determined correctly
or in case you have a reason to use a different symmetry number we print
out the resulting rotational entropy values for sn=1,12:

 non-linear molecules -----------------------------------
|  sn= 1 | S(rot)=       0.01402977 Eh      8.80 kcal/mol|
|  sn= 2 | S(rot)=       0.01337531 Eh      8.39 kcal/mol|
|  sn= 3 | S(rot)=       0.01299248 Eh      8.15 kcal/mol|
|  sn= 4 | S(rot)=       0.01272085 Eh      7.98 kcal/mol|
|  sn= 5 | S(rot)=       0.01251017 Eh      7.85 kcal/mol|
|  sn= 6 | S(rot)=       0.01233802 Eh      7.74 kcal/mol|
|  sn= 7 | S(rot)=       0.01219248 Eh      7.65 kcal/mol|
|  sn= 8 | S(rot)=       0.01206640 Eh      7.57 kcal/mol|
|  sn= 9 | S(rot)=       0.01195519 Eh      7.50 kcal/mol|
|  sn=10 | S(rot)=       0.01185571 Eh      7.44 kcal/mol|
|  sn=11 | S(rot)=       0.01176572 Eh      7.38 kcal/mol|
|  sn=12 | S(rot)=       0.01168357 Eh      7.33 kcal/mol|
 linear molecules ---------------------------------------
|  Dinfh | S(rot)=       0.00886500 Eh      5.56 kcal/mol|
|  Cinfv | S(rot)=       0.00951946 Eh      5.97 kcal/mol|
 --------------------------------------------------------

                             ****ORCA TERMINATED NORMALLY****
TOTAL RUN TIME: 0 days 0 hours 13 minutes 49 seconds 504 msec
