                         Program Version 6.0.1  -  RELEASE   -
|  1> ! pbe def2-sv(p) def2/J RI DEFGRID1 loosescf d4 GCP(DFT/SV(P)) printgap
|  2> %output
|  3>     printlevel normal
|  4> end
|  5> * xyz 0 1
|  6> C 1.841445157 0.9810997928 -0.2291139467
|  7> C 0.9774378563 -0.1005071342 0.4062633335
|  8> C -0.3742793207 -0.2864263953 -0.2961251709
|  9> H -0.1922277363 -0.472056308 -1.3696635533
| 10> C -1.2820965213 0.929051691 -0.1503932944
| 11> O -1.0783657431 -1.3860859314 0.2530059374
| 12> H 1.9778174113 0.7852015646 -1.2907353589
| 13> H 2.8203569898 1.0034576224 0.2440730199
| 14> H 1.387049359 1.9612029432 -0.1146667663
| 15> H 0.7953396426 0.1364036501 1.4566747454
| 16> H 1.5177231206 -1.0523086593 0.3698413364
| 17> H -0.8690230684 1.7833085681 -0.6772126876
| 18> H -2.258737217 0.6948924228 -0.5647028735
| 19> H -1.4045054354 1.1735636679 0.901375811
| 20> H -0.5092517092 -2.1629140054 0.2388339753
| 21> *
| 22>
| 23>                          ****END OF INPUT****

CARTESIAN COORDINATES (ANGSTROEM)
---------------------------------
  C      1.841445    0.981100   -0.229114
  C      0.977438   -0.100507    0.406263
  C     -0.374279   -0.286426   -0.296125
  H     -0.192228   -0.472056   -1.369664
  C     -1.282097    0.929052   -0.150393
  O     -1.078366   -1.386086    0.253006
  H      1.977817    0.785202   -1.290735
  H      2.820357    1.003458    0.244073
  H      1.387049    1.961203   -0.114667
  H      0.795340    0.136404    1.456675
  H      1.517723   -1.052309    0.369841
  H     -0.869023    1.783309   -0.677213
  H     -2.258737    0.694892   -0.564703
  H     -1.404505    1.173564    0.901376
  H     -0.509252   -2.162914    0.238834

 Total Charge           Charge          ....    0
 Multiplicity           Mult            ....    1
 Number of Electrons    NEL             ....   42
 Basis Dimension        Dim             ....   90

ORBITAL ENERGIES
----------------

  NO   OCC          E(Eh)            E(eV)
   0   2.0000     -18.734661      -509.7961
   1   2.0000      -9.934098      -270.3205
   2   2.0000      -9.884862      -268.9808
   3   2.0000      -9.878150      -268.7981
   4   2.0000      -9.869484      -268.5623
   5   2.0000      -0.914420       -24.8826
   6   2.0000      -0.708626       -19.2827
   7   2.0000      -0.647533       -17.6203
   8   2.0000      -0.568528       -15.4704
   9   2.0000      -0.513639       -13.9768
  10   2.0000      -0.461061       -12.5461
  11   2.0000      -0.417436       -11.3590
  12   2.0000      -0.383987       -10.4488
  13   2.0000      -0.358864        -9.7652
  14   2.0000      -0.346097        -9.4178
  15   2.0000      -0.334476        -9.1016
  16   2.0000      -0.325582        -8.8595
  17   2.0000      -0.300274        -8.1709
  18   2.0000      -0.296678        -8.0730
  19   2.0000      -0.264948        -7.2096
  20   2.0000      -0.208599        -5.6763
  21   0.0000       0.028565         0.7773
  22   0.0000       0.051791         1.4093
  23   0.0000       0.073598         2.0027
  24   0.0000       0.076830         2.0907
  25   0.0000       0.099140         2.6977

MULLIKEN ATOMIC CHARGES
-----------------------
   0 C :   -0.291874
   1 C :   -0.179038
   2 C :    0.013489
   3 H :    0.054872
   4 C :   -0.250297
   5 O :   -0.424160
   6 H :    0.099755
   7 H :    0.105469
   8 H :    0.110648
   9 H :    0.087875
  10 H :    0.070992
  11 H :    0.102945
  12 H :    0.110221
  13 H :    0.098080
  14 H :    0.291022
Sum of atomic charges:   -0.0000000

LOEWDIN ATOMIC CHARGES
----------------------
   0 C :   -0.342229
   1 C :   -0.247983
   2 C :   -0.058858
   3 H :    0.091665
   4 C :   -0.340956
   5 O :   -0.334238
   6 H :    0.117640
   7 H :    0.122021
   8 H :    0.119289
   9 H :    0.117744
  10 H :    0.107897
  11 H :    0.121182
  12 H :    0.126384
  13 H :    0.121829
  14 H :    0.278614

  Mayer bond orders larger than 0.100000
B(  0-C ,  1-C ) :   1.1347 B(  0-C ,  6-H ) :   0.9529 B(  0-C ,  7-H ) :   0.9481
B(  0-C ,  8-H ) :   0.9513 B(  1-C ,  2-C ) :   1.0727 B(  1-C ,  9-H ) :   0.9149
B(  1-C , 10-H ) :   0.9212 B(  2-C ,  3-H ) :   0.9100 B(  2-C ,  4-C ) :   1.1118
B(  2-C ,  5-O ) :   1.0606 B(  4-C , 11-H ) :   0.9427 B(  4-C , 12-H ) :   0.9438
B(  4-C , 13-H ) :   0.9446 B(  5-O , 14-H ) :   0.8537

Dispersion correction           -0.009594176
FINAL SINGLE POINT ENERGY      -233.092494832231

DIPOLE MOMENT
-------------

Method             : SCF
Type of density    : Electron Density
Multiplicity       :   1
Irrep              :   0
Energy             :  -233.1519637681591632 Eh
Relativity type    :
Basis              : AO
                                X                 Y                 Z
Electronic contribution:     -2.478725442      -3.659503640       0.590304390
Nuclear contribution   :      3.046671373       3.592065872      -0.752576440
                        -----------------------------------------
Total Dipole Moment    :      0.567945931      -0.067437768      -0.162272050
                        -----------------------------------------
Magnitude (a.u.)       :      0.594510430
Magnitude (Debye)      :      1.511125421

Rotational constants in cm-1:             0.258178             0.116151             0.088673
Rotational constants in MHz :          7739.994992          3482.134007          2658.346511

                             ****ORCA TERMINATED NORMALLY****
TOTAL RUN TIME: 0 days 0 hours 0 minutes 3 seconds 813 msec
