                         Program Version 6.0.1  -  RELEASE   -
|  1> ! pbe def2-sv(p) def2/J RI DEFGRID1 loosescf d4 GCP(DFT/SV(P)) printgap
|  2> %output
|  3>     printlevel normal
|  4> end
|  5> * xyz 0 1
|  6> C -1.6977913502 -1.393196779 -0.51024703
|  7> C -1.113147489 -0.5160351917 0.6154524982
|  8> H -1.8376072775 -0.4839441813 1.4416928144
|  9> C -0.8691199916 0.9314575174 0.1300982181
| 10> H -1.2128735372 1.0312913328 -0.905302976
| 11> C 0.6243078718 1.2661136961 0.2023954604
| 12> H 0.914925648 1.3820223916 1.2626512635
| 13> C 1.4540807736 0.1266954765 -0.3961610548
| 14> H 1.1453103074 -0.0340872448 -1.4399682586
| 15> C 1.1939322041 -1.1617823611 0.399457598
| 16> H 2.0183824732 -1.2916525295 1.1167228772
| 17> O 0.0426512658 -1.0886441167 1.2069286383
| 18> O 1.1393293311 -2.2237334735 -0.4992780789
| 19> O 2.8225041564 0.4148802642 -0.3274735189
| 20> O 0.9221832354 2.4469877277 -0.5034486525
| 21> O -1.6201422683 1.8827848075 0.8502058077
| 22> O -2.8426627603 -0.821693673 -1.0821435473
| 23> H -1.9087803068 -2.3919510641 -0.1021010309
| 24> H -0.9742350065 -1.495221711 -1.3206079187
| 25> H 1.0769470336 -3.0533179971 -0.0112015761
| 26> H 2.942490895 1.3000690048 -0.6966590472
| 27> H 0.2052322614 3.0740420951 -0.346537515
| 28> H -1.369604924 1.8415019018 1.7818121158
| 29> H -3.5045909318 -0.6722357823 -0.3971916221
| 30> *
| 31>
| 32>                          ****END OF INPUT****

CARTESIAN COORDINATES (ANGSTROEM)
---------------------------------
  C     -1.697791   -1.393197   -0.510247
  C     -1.113147   -0.516035    0.615452
  H     -1.837607   -0.483944    1.441693
  C     -0.869120    0.931458    0.130098
  H     -1.212874    1.031291   -0.905303
  C      0.624308    1.266114    0.202395
  H      0.914926    1.382022    1.262651
  C      1.454081    0.126695   -0.396161
  H      1.145310   -0.034087   -1.439968
  C      1.193932   -1.161782    0.399458
  H      2.018382   -1.291653    1.116723
  O      0.042651   -1.088644    1.206929
  O      1.139329   -2.223733   -0.499278
  O      2.822504    0.414880   -0.327474
  O      0.922183    2.446988   -0.503449
  O     -1.620142    1.882785    0.850206
  O     -2.842663   -0.821694   -1.082144
  H     -1.908780   -2.391951   -0.102101
  H     -0.974235   -1.495222   -1.320608
  H      1.076947   -3.053318   -0.011202
  H      2.942491    1.300069   -0.696659
  H      0.205232    3.074042   -0.346538
  H     -1.369605    1.841502    1.781812
  H     -3.504591   -0.672236   -0.397192

 Total Charge           Charge          ....    0
 Multiplicity           Mult            ....    1
 Number of Electrons    NEL             ....   96
 Basis Dimension        Dim             ....  192

ORBITAL ENERGIES
----------------

  NO   OCC          E(Eh)            E(eV)
   0   2.0000     -18.774321      -510.8752
   1   2.0000     -18.764034      -510.5953
   2   2.0000     -18.763748      -510.5875
   3   2.0000     -18.757900      -510.4284
   4   2.0000     -18.754865      -510.3458
   5   2.0000     -18.746437      -510.1165
   6   2.0000      -9.986886      -271.7570
   7   2.0000      -9.948845      -270.7218
   8   2.0000      -9.944214      -270.5958
   9   2.0000      -9.943211      -270.5685
  10   2.0000      -9.940914      -270.5060
  11   2.0000      -9.931700      -270.2553
  12   2.0000      -0.984782       -26.7973
  13   2.0000      -0.951989       -25.9049
  14   2.0000      -0.937219       -25.5030
  15   2.0000      -0.930972       -25.3330
  16   2.0000      -0.917637       -24.9702
  17   2.0000      -0.916054       -24.9271
  18   2.0000      -0.704399       -19.1677
  19   2.0000      -0.693496       -18.8710
  20   2.0000      -0.622425       -16.9370
  21   2.0000      -0.588652       -16.0180
  22   2.0000      -0.575262       -15.6537
  23   2.0000      -0.515583       -14.0297
  24   2.0000      -0.507010       -13.7965
  25   2.0000      -0.496030       -13.4977
  26   2.0000      -0.486435       -13.2366
  27   2.0000      -0.464990       -12.6530
  28   2.0000      -0.438747       -11.9389
  29   2.0000      -0.431677       -11.7465
  30   2.0000      -0.413968       -11.2647
  31   2.0000      -0.399614       -10.8740
  32   2.0000      -0.384288       -10.4570
  33   2.0000      -0.379549       -10.3280
  34   2.0000      -0.363936        -9.9032
  35   2.0000      -0.350691        -9.5428
  36   2.0000      -0.335993        -9.1428
  37   2.0000      -0.317699        -8.6450
  38   2.0000      -0.308697        -8.4001
  39   2.0000      -0.299559        -8.1514
  40   2.0000      -0.288385        -7.8474
  41   2.0000      -0.260034        -7.0759
  42   2.0000      -0.255736        -6.9589
  43   2.0000      -0.252717        -6.8768
  44   2.0000      -0.240375        -6.5409
  45   2.0000      -0.226169        -6.1544
  46   2.0000      -0.215196        -5.8558
  47   2.0000      -0.205761        -5.5990
  48   0.0000       0.017014         0.4630
  49   0.0000       0.022353         0.6083
  50   0.0000       0.027051         0.7361
  51   0.0000       0.036849         1.0027
  52   0.0000       0.056535         1.5384

MULLIKEN ATOMIC CHARGES
-----------------------
   0 C :    0.013577
   1 C :    0.001350
   2 H :    0.053072
   3 C :    0.030992
   4 H :    0.085966
   5 C :    0.059708
   6 H :    0.041439
   7 C :    0.020961
   8 H :    0.072044
   9 C :    0.211942
  10 H :    0.074093
  11 O :   -0.309231
  12 O :   -0.384004
  13 O :   -0.412266
  14 O :   -0.424866
  15 O :   -0.422006
  16 O :   -0.419861
  17 H :    0.073349
  18 H :    0.117503
  19 H :    0.301280
  20 H :    0.309865
  21 H :    0.306673
  22 H :    0.299293
  23 H :    0.299131
Sum of atomic charges:    0.0000000

LOEWDIN ATOMIC CHARGES
----------------------
   0 C :   -0.146081
   1 C :   -0.079018
   2 H :    0.107730
   3 C :   -0.087396
   4 H :    0.123920
   5 C :   -0.082946
   6 H :    0.098126
   7 C :   -0.075745
   8 H :    0.110399
   9 C :    0.003619
  10 H :    0.106924
  11 O :   -0.147314
  12 O :   -0.297740
  13 O :   -0.313407
  14 O :   -0.326414
  15 O :   -0.315408
  16 O :   -0.324380
  17 H :    0.096163
  18 H :    0.119862
  19 H :    0.285761
  20 H :    0.288201
  21 H :    0.287688
  22 H :    0.282724
  23 H :    0.284735

  Mayer bond orders larger than 0.100000
B(  0-C ,  1-C ) :   1.0338 B(  0-C , 16-O ) :   1.0495 B(  0-C , 17-H ) :   0.9136
B(  0-C , 18-H ) :   0.9059 B(  1-C ,  2-H ) :   0.8913 B(  1-C ,  3-C ) :   0.9645
B(  1-C , 11-O ) :   1.0332 B(  3-C ,  4-H ) :   0.8679 B(  3-C ,  5-C ) :   1.0259
B(  3-C , 15-O ) :   1.0007 B(  5-C ,  6-H ) :   0.8586 B(  5-C ,  7-C ) :   1.0162
B(  5-C , 14-O ) :   1.0809 B(  7-C ,  8-H ) :   0.8792 B(  7-C ,  9-C ) :   0.9935
B(  7-C , 13-O ) :   1.0883 B(  9-C , 10-H ) :   0.8849 B(  9-C , 11-O ) :   1.0466
B(  9-C , 12-O ) :   1.1332 B( 12-O , 19-H ) :   0.8413 B( 13-O , 20-H ) :   0.8364
B( 14-O , 21-H ) :   0.8326 B( 15-O , 22-H ) :   0.8504 B( 16-O , 23-H ) :   0.8494

Dispersion correction           -0.024626941
FINAL SINGLE POINT ENERGY      -685.691578054355

DIPOLE MOMENT
-------------

Method             : SCF
Type of density    : Electron Density
Multiplicity       :   1
Irrep              :   0
Energy             :  -685.8225056822484476 Eh
Relativity type    :
Basis              : AO
                                X                 Y                 Z
Electronic contribution:      1.809125876       0.679278484       0.622068831
Nuclear contribution   :     -2.342684507      -0.735377320       0.354346922
                        -----------------------------------------
Total Dipole Moment    :     -0.533558631      -0.056098836       0.976415754
                        -----------------------------------------
Magnitude (a.u.)       :      1.114100362
Magnitude (Debye)      :      2.831818072

Rotational constants in cm-1:             0.036947             0.029389             0.019725
Rotational constants in MHz :          1107.644506           881.071204           591.354924

                             ****ORCA TERMINATED NORMALLY****
TOTAL RUN TIME: 0 days 0 hours 0 minutes 22 seconds 105 msec
