                         Program Version 6.0.1  -  RELEASE   -
|  1> ! pbe def2-sv(p) def2/J RI DEFGRID1 loosescf d4 GCP(DFT/SV(P)) printgap
|  2> %output
|  3>     printlevel normal
|  4> end
|  5> * xyz 0 1
|  6> C -2.3804407622 -0.9122537381 0.1188203761
|  7> C -1.134607742 -0.1639902158 0.6791233165
|  8> H -1.3991271062 0.2959472542 1.6424235171
|  9> C -0.64487248 0.9440987634 -0.2640565635
| 10> H -0.6466349539 0.59956641 -1.3027299788
| 11> C 0.7892740238 1.3475064759 0.1181422302
| 12> H 0.7852563494 1.6766134161 1.1771475096
| 13> C 1.745386607 0.1414646652 -0.0089034415
| 14> H 2.270169591 0.2133301652 -0.9643089763
| 15> C 0.9288125359 -1.16989234 0.0118247275
| 16> H 1.5756585157 -1.9809765732 0.3905693291
| 17> O -0.1033132636 -1.097653063 0.9740940334
| 18> O 0.4732297034 -1.4498772184 -1.2665549027
| 19> O 2.7310428013 0.1305445406 0.9832089796
| 20> O 1.2336077438 2.3983228338 -0.6937328996
| 21> O -1.4998607774 2.0610040411 -0.2437000251
| 22> O -2.0505836191 -2.1925078977 -0.359327117
| 23> H -2.7935783346 -0.3602626471 -0.7268865
| 24> H -3.1469806206 -0.9893576594 0.8993356542
| 25> H -0.3597122395 -1.9577766252 -1.2086362749
| 26> H 2.3102934139 0.0108790761 1.8437834925
| 27> H 0.4602999226 2.9134957575 -0.9645199303
| 28> H -1.5341269908 2.4240711981 0.6508086998
| 29> H -1.6692070046 -2.689444323 0.3778910215
| 30> *
| 31>
| 32>                          ****END OF INPUT****

CARTESIAN COORDINATES (ANGSTROEM)
---------------------------------
  C     -2.380441   -0.912254    0.118820
  C     -1.134608   -0.163990    0.679123
  H     -1.399127    0.295947    1.642424
  C     -0.644872    0.944099   -0.264057
  H     -0.646635    0.599566   -1.302730
  C      0.789274    1.347506    0.118142
  H      0.785256    1.676613    1.177148
  C      1.745387    0.141465   -0.008903
  H      2.270170    0.213330   -0.964309
  C      0.928813   -1.169892    0.011825
  H      1.575659   -1.980977    0.390569
  O     -0.103313   -1.097653    0.974094
  O      0.473230   -1.449877   -1.266555
  O      2.731043    0.130545    0.983209
  O      1.233608    2.398323   -0.693733
  O     -1.499861    2.061004   -0.243700
  O     -2.050584   -2.192508   -0.359327
  H     -2.793578   -0.360263   -0.726886
  H     -3.146981   -0.989358    0.899336
  H     -0.359712   -1.957777   -1.208636
  H      2.310293    0.010879    1.843783
  H      0.460300    2.913496   -0.964520
  H     -1.534127    2.424071    0.650809
  H     -1.669207   -2.689444    0.377891

 Total Charge           Charge          ....    0
 Multiplicity           Mult            ....    1
 Number of Electrons    NEL             ....   96
 Basis Dimension        Dim             ....  192

ORBITAL ENERGIES
----------------

  NO   OCC          E(Eh)            E(eV)
   0   2.0000     -18.788990      -511.2744
   1   2.0000     -18.783728      -511.1312
   2   2.0000     -18.777969      -510.9745
   3   2.0000     -18.752285      -510.2756
   4   2.0000     -18.747109      -510.1348
   5   2.0000     -18.744760      -510.0708
   6   2.0000      -9.985723      -271.7253
   7   2.0000      -9.961427      -271.0642
   8   2.0000      -9.950930      -270.7786
   9   2.0000      -9.950722      -270.7729
  10   2.0000      -9.944079      -270.5922
  11   2.0000      -9.935756      -270.3657
  12   2.0000      -0.996332       -27.1116
  13   2.0000      -0.959914       -26.1206
  14   2.0000      -0.952896       -25.9296
  15   2.0000      -0.931316       -25.3424
  16   2.0000      -0.917588       -24.9688
  17   2.0000      -0.912890       -24.8410
  18   2.0000      -0.713551       -19.4167
  19   2.0000      -0.690959       -18.8019
  20   2.0000      -0.631513       -17.1843
  21   2.0000      -0.597925       -16.2704
  22   2.0000      -0.571524       -15.5519
  23   2.0000      -0.536336       -14.5944
  24   2.0000      -0.505603       -13.7582
  25   2.0000      -0.500288       -13.6135
  26   2.0000      -0.479542       -13.0490
  27   2.0000      -0.466374       -12.6907
  28   2.0000      -0.449826       -12.2404
  29   2.0000      -0.433180       -11.7874
  30   2.0000      -0.429658       -11.6916
  31   2.0000      -0.403604       -10.9826
  32   2.0000      -0.393481       -10.7072
  33   2.0000      -0.386769       -10.5245
  34   2.0000      -0.373316       -10.1584
  35   2.0000      -0.360634        -9.8133
  36   2.0000      -0.347582        -9.4582
  37   2.0000      -0.322889        -8.7863
  38   2.0000      -0.305798        -8.3212
  39   2.0000      -0.301320        -8.1993
  40   2.0000      -0.289902        -7.8886
  41   2.0000      -0.280900        -7.6437
  42   2.0000      -0.263250        -7.1634
  43   2.0000      -0.254424        -6.9232
  44   2.0000      -0.242898        -6.6096
  45   2.0000      -0.230476        -6.2716
  46   2.0000      -0.219144        -5.9632
  47   2.0000      -0.204459        -5.5636
  48   0.0000       0.004949         0.1347
  49   0.0000       0.008123         0.2210
  50   0.0000       0.033472         0.9108
  51   0.0000       0.052608         1.4315
  52   0.0000       0.058362         1.5881

MULLIKEN ATOMIC CHARGES
-----------------------
   0 C :    0.061908
   1 C :    0.030891
   2 H :    0.054044
   3 C :   -0.000091
   4 H :    0.089095
   5 C :    0.045600
   6 H :    0.016466
   7 C :    0.143298
   8 H :    0.090031
   9 C :    0.104568
  10 H :    0.065540
  11 O :   -0.330718
  12 O :   -0.408410
  13 O :   -0.412775
  14 O :   -0.402425
  15 O :   -0.409907
  16 O :   -0.429234
  17 H :    0.111942
  18 H :    0.085531
  19 H :    0.297088
  20 H :    0.292484
  21 H :    0.296663
  22 H :    0.298609
  23 H :    0.309802
Sum of atomic charges:    0.0000000

LOEWDIN ATOMIC CHARGES
----------------------
   0 C :   -0.129719
   1 C :   -0.080159
   2 H :    0.107790
   3 C :   -0.101199
   4 H :    0.126134
   5 C :   -0.071865
   6 H :    0.088523
   7 C :   -0.072744
   8 H :    0.133605
   9 C :   -0.010162
  10 H :    0.095227
  11 O :   -0.154522
  12 O :   -0.317322
  13 O :   -0.305660
  14 O :   -0.315484
  15 O :   -0.305018
  16 O :   -0.309989
  17 H :    0.125111
  18 H :    0.104848
  19 H :    0.269309
  20 H :    0.278669
  21 H :    0.277266
  22 H :    0.283348
  23 H :    0.284013

  Mayer bond orders larger than 0.100000
B(  0-C ,  1-C ) :   1.0012 B(  0-C , 16-O ) :   1.0457 B(  0-C , 17-H ) :   0.9261
B(  0-C , 18-H ) :   0.9244 B(  1-C ,  2-H ) :   0.8835 B(  1-C ,  3-C ) :   0.9691
B(  1-C , 11-O ) :   1.0249 B(  3-C ,  4-H ) :   0.8509 B(  3-C ,  5-C ) :   1.0694
B(  3-C , 15-O ) :   0.9906 B(  5-C ,  6-H ) :   0.8458 B(  5-C ,  7-C ) :   0.9781
B(  5-C , 14-O ) :   1.1130 B(  7-C ,  8-H ) :   0.8596 B(  7-C ,  9-C ) :   0.9979
B(  7-C , 13-O ) :   1.0409 B(  9-C , 10-H ) :   0.8962 B(  9-C , 11-O ) :   1.0108
B(  9-C , 12-O ) :   1.0985 B( 12-O , 19-H ) :   0.7714 B( 13-O , 20-H ) :   0.8498
B( 14-O , 21-H ) :   0.8274 B( 15-O , 22-H ) :   0.8453 B( 16-O , 19-H ) :   0.1431
B( 16-O , 23-H ) :   0.8249

Dispersion correction           -0.025243135
FINAL SINGLE POINT ENERGY      -685.689408906122

DIPOLE MOMENT
-------------

Method             : SCF
Type of density    : Electron Density
Multiplicity       :   1
Irrep              :   0
Energy             :  -685.8239332302690627 Eh
Relativity type    :
Basis              : AO
                                X                 Y                 Z
Electronic contribution:      2.534055113      -0.229696586      -0.430063366
Nuclear contribution   :     -3.879621931       0.144210060       1.693686139
                        -----------------------------------------
Total Dipole Moment    :     -1.345566818      -0.085486526       1.263622773
                        -----------------------------------------
Magnitude (a.u.)       :      1.847863772
Magnitude (Debye)      :      4.696896440

Rotational constants in cm-1:             0.042329             0.028469             0.020560
Rotational constants in MHz :          1268.978415           853.477725           616.377767

                             ****ORCA TERMINATED NORMALLY****
TOTAL RUN TIME: 0 days 0 hours 0 minutes 8 seconds 410 msec
