                         Program Version 6.0.1  -  RELEASE   -
|  1> ! pbe def2-sv(p) def2/J RI DEFGRID1 loosescf d4 GCP(DFT/SV(P)) printgap
|  2> %output
|  3>     printlevel normal
|  4> end
|  5> * xyz 0 1
|  6> C -2.3766902514 -0.8513851804 0.4671509375
|  7> C -0.9232048872 -0.3988177414 0.6516931392
|  8> H -0.6587691972 -0.4551086116 1.7190055609
|  9> C -0.7281206313 1.0541349215 0.1657600924
| 10> H -1.4605826902 1.2739233455 -0.617795041
| 11> C 0.6823033515 1.2376326415 -0.433242462
| 12> H 0.9695287836 2.2858161757 -0.272914237
| 13> C 1.6660023632 0.3201915127 0.3119993601
| 14> H 2.6820870367 0.4468477886 -0.0957330602
| 15> C 1.257393847 -1.1504557461 0.0361903364
| 16> H 1.6382776564 -1.7909055251 0.8530740941
| 17> O -0.1306292091 -1.3084407543 -0.0915156914
| 18> O 1.8464631226 -1.6079660474 -1.1295067811
| 19> O 1.6341162823 0.6663050007 1.6771010754
| 20> O 0.6572461578 0.9221002437 -1.806121117
| 21> O -0.9562906466 1.9667013128 1.2007754996
| 22> O -2.7573048793 -0.8268170133 -0.8788133678
| 23> H -3.0383110328 -0.1656119889 0.9996207177
| 24> H -2.4847589464 -1.862898339 0.8840726545
| 25> H 1.3540446095 -1.2069374292 -1.8627939687
| 26> H 2.2598592534 0.113456735 2.158856013
| 27> H 1.4467279569 1.2779627307 -2.2288574739
| 28> H -0.2646468963 1.8408114502 1.8651682974
| 29> H -2.0713929423 -1.2892205484 -1.3768426005
| 30> *
| 31>
| 32>                          ****END OF INPUT****

CARTESIAN COORDINATES (ANGSTROEM)
---------------------------------
  C     -2.376690   -0.851385    0.467151
  C     -0.923205   -0.398818    0.651693
  H     -0.658769   -0.455109    1.719006
  C     -0.728121    1.054135    0.165760
  H     -1.460583    1.273923   -0.617795
  C      0.682303    1.237633   -0.433242
  H      0.969529    2.285816   -0.272914
  C      1.666002    0.320192    0.311999
  H      2.682087    0.446848   -0.095733
  C      1.257394   -1.150456    0.036190
  H      1.638278   -1.790906    0.853074
  O     -0.130629   -1.308441   -0.091516
  O      1.846463   -1.607966   -1.129507
  O      1.634116    0.666305    1.677101
  O      0.657246    0.922100   -1.806121
  O     -0.956291    1.966701    1.200775
  O     -2.757305   -0.826817   -0.878813
  H     -3.038311   -0.165612    0.999621
  H     -2.484759   -1.862898    0.884073
  H      1.354045   -1.206937   -1.862794
  H      2.259859    0.113457    2.158856
  H      1.446728    1.277963   -2.228857
  H     -0.264647    1.840811    1.865168
  H     -2.071393   -1.289221   -1.376843

 Total Charge           Charge          ....    0
 Multiplicity           Mult            ....    1
 Number of Electrons    NEL             ....   96
 Basis Dimension        Dim             ....  192

ORBITAL ENERGIES
----------------

  NO   OCC          E(Eh)            E(eV)
   0   2.0000     -18.784056      -511.1402
   1   2.0000     -18.777469      -510.9609
   2   2.0000     -18.774419      -510.8779
   3   2.0000     -18.755170      -510.3541
   4   2.0000     -18.744804      -510.0720
   5   2.0000     -18.740101      -509.9441
   6   2.0000      -9.993363      -271.9332
   7   2.0000      -9.953775      -270.8560
   8   2.0000      -9.952750      -270.8281
   9   2.0000      -9.939867      -270.4775
  10   2.0000      -9.935844      -270.3680
  11   2.0000      -9.926202      -270.1057
  12   2.0000      -0.991250       -26.9733
  13   2.0000      -0.957639       -26.0587
  14   2.0000      -0.949891       -25.8479
  15   2.0000      -0.930715       -25.3261
  16   2.0000      -0.921762       -25.0824
  17   2.0000      -0.908601       -24.7243
  18   2.0000      -0.703608       -19.1462
  19   2.0000      -0.688991       -18.7484
  20   2.0000      -0.621985       -16.9251
  21   2.0000      -0.591685       -16.1006
  22   2.0000      -0.566676       -15.4200
  23   2.0000      -0.530209       -14.4277
  24   2.0000      -0.506537       -13.7836
  25   2.0000      -0.504199       -13.7200
  26   2.0000      -0.474731       -12.9181
  27   2.0000      -0.462146       -12.5756
  28   2.0000      -0.458020       -12.4634
  29   2.0000      -0.435217       -11.8429
  30   2.0000      -0.421404       -11.4670
  31   2.0000      -0.397922       -10.8280
  32   2.0000      -0.383587       -10.4379
  33   2.0000      -0.370765       -10.0890
  34   2.0000      -0.360384        -9.8066
  35   2.0000      -0.358512        -9.7556
  36   2.0000      -0.338326        -9.2063
  37   2.0000      -0.325014        -8.8441
  38   2.0000      -0.313450        -8.5294
  39   2.0000      -0.303896        -8.2694
  40   2.0000      -0.277308        -7.5459
  41   2.0000      -0.271563        -7.3896
  42   2.0000      -0.263969        -7.1830
  43   2.0000      -0.259628        -7.0648
  44   2.0000      -0.241035        -6.5589
  45   2.0000      -0.218556        -5.9472
  46   2.0000      -0.213701        -5.8151
  47   2.0000      -0.201218        -5.4754
  48   0.0000      -0.004332        -0.1179
  49   0.0000       0.008681         0.2362
  50   0.0000       0.052655         1.4328
  51   0.0000       0.055111         1.4997
  52   0.0000       0.061531         1.6743

MULLIKEN ATOMIC CHARGES
-----------------------
   0 C :    0.087926
   1 C :   -0.016147
   2 H :    0.046723
   3 C :    0.092723
   4 H :    0.079450
   5 C :    0.031936
   6 H :    0.079111
   7 C :   -0.048362
   8 H :    0.070742
   9 C :    0.244495
  10 H :    0.047866
  11 O :   -0.313047
  12 O :   -0.401308
  13 O :   -0.418373
  14 O :   -0.409464
  15 O :   -0.423731
  16 O :   -0.433035
  17 H :    0.094541
  18 H :    0.075430
  19 H :    0.290561
  20 H :    0.312552
  21 H :    0.307499
  22 H :    0.301868
  23 H :    0.300043
Sum of atomic charges:   -0.0000000

LOEWDIN ATOMIC CHARGES
----------------------
   0 C :   -0.122596
   1 C :   -0.083675
   2 H :    0.100879
   3 C :   -0.067549
   4 H :    0.123982
   5 C :   -0.071514
   6 H :    0.109969
   7 C :   -0.106093
   8 H :    0.103853
   9 C :    0.004395
  10 H :    0.089687
  11 O :   -0.150249
  12 O :   -0.303186
  13 O :   -0.313367
  14 O :   -0.307550
  15 O :   -0.308555
  16 O :   -0.328374
  17 H :    0.120798
  18 H :    0.099485
  19 H :    0.271069
  20 H :    0.292464
  21 H :    0.290933
  22 H :    0.275267
  23 H :    0.279926

  Mayer bond orders larger than 0.100000
B(  0-C ,  1-C ) :   1.0514 B(  0-C , 16-O ) :   1.0687 B(  0-C , 17-H ) :   0.9207
B(  0-C , 18-H ) :   0.9087 B(  1-C ,  2-H ) :   0.8691 B(  1-C ,  3-C ) :   0.9792
B(  1-C , 11-O ) :   0.9963 B(  3-C ,  4-H ) :   0.8668 B(  3-C ,  5-C ) :   0.9922
B(  3-C , 15-O ) :   1.0402 B(  5-C ,  6-H ) :   0.8977 B(  5-C ,  7-C ) :   1.0126
B(  5-C , 14-O ) :   1.0434 B(  7-C ,  8-H ) :   0.8973 B(  7-C ,  9-C ) :   0.9304
B(  7-C , 13-O ) :   1.0294 B(  9-C , 10-H ) :   0.9013 B(  9-C , 11-O ) :   1.0373
B(  9-C , 12-O ) :   1.1278 B( 12-O , 19-H ) :   0.8252 B( 13-O , 20-H ) :   0.8394
B( 14-O , 21-H ) :   0.8403 B( 15-O , 22-H ) :   0.8325 B( 16-O , 23-H ) :   0.8387

Dispersion correction           -0.025394323
FINAL SINGLE POINT ENERGY      -685.694066448762

DIPOLE MOMENT
-------------

Method             : SCF
Type of density    : Electron Density
Multiplicity       :   1
Irrep              :   0
Energy             :  -685.8266248822200168 Eh
Relativity type    :
Basis              : AO
                                X                 Y                 Z
Electronic contribution:      1.195735394      -0.329656496      -1.516436546
Nuclear contribution   :      0.353408490       0.436404142       1.884433555
                        -----------------------------------------
Total Dipole Moment    :      1.549143884       0.106747646       0.367997009
                        -----------------------------------------
Magnitude (a.u.)       :      1.595826943
Magnitude (Debye)      :      4.056269732

Rotational constants in cm-1:             0.039014             0.029206             0.023792
Rotational constants in MHz :          1169.623405           875.565588           713.251429

                             ****ORCA TERMINATED NORMALLY****
TOTAL RUN TIME: 0 days 0 hours 0 minutes 9 seconds 528 msec
