                         Program Version 6.0.0  -   RELEASE  -
|  1> ! r2SCAN-3c DEF2-TZVP FREQ
|  2> * xyzfile 0 1 censo.xyz
|  3>
|  4>                          ****END OF INPUT****

CARTESIAN COORDINATES (ANGSTROEM)
---------------------------------
  C      0.671997   -0.000005   -0.000202
  C     -0.671995    0.000011   -0.000136
  Cl    -1.591967    1.457691    0.000320
  Cl    -1.592001   -1.457648    0.000323
  Cl     1.591972   -1.457684    0.000366
  Cl     1.592003    1.457655    0.000370

 Total Charge           Charge          ....    0
 Multiplicity           Mult            ....    1
 Number of Electrons    NEL             ....   80
 Basis Dimension        Dim             ....  210

ORBITAL ENERGIES
----------------

  NO   OCC          E(Eh)            E(eV)
   0   2.0000    -101.226842     -2754.5224
   1   2.0000    -101.226838     -2754.5223
   2   2.0000    -101.226836     -2754.5223
   3   2.0000    -101.226827     -2754.5220
   4   2.0000     -10.175532      -276.8903
   5   2.0000     -10.174888      -276.8728
   6   2.0000      -9.402316      -255.8500
   7   2.0000      -9.402313      -255.8499
   8   2.0000      -9.402311      -255.8499
   9   2.0000      -9.402301      -255.8496
  10   2.0000      -7.147767      -194.5006
  11   2.0000      -7.147765      -194.5006
  12   2.0000      -7.147763      -194.5005
  13   2.0000      -7.147761      -194.5005
  14   2.0000      -7.137025      -194.2083
  15   2.0000      -7.137025      -194.2083
  16   2.0000      -7.137025      -194.2083
  17   2.0000      -7.137024      -194.2083
  18   2.0000      -7.136603      -194.1968
  19   2.0000      -7.136602      -194.1968
  20   2.0000      -7.136601      -194.1968
  21   2.0000      -7.136601      -194.1968
  22   2.0000      -0.926216       -25.2036
  23   2.0000      -0.872424       -23.7399
  24   2.0000      -0.831092       -22.6152
  25   2.0000      -0.808632       -22.0040
  26   2.0000      -0.701864       -19.0987
  27   2.0000      -0.544626       -14.8200
  28   2.0000      -0.487897       -13.2764
  29   2.0000      -0.486514       -13.2387
  30   2.0000      -0.426201       -11.5975
  31   2.0000      -0.421196       -11.4613
  32   2.0000      -0.361763        -9.8441
  33   2.0000      -0.340635        -9.2692
  34   2.0000      -0.329497        -8.9661
  35   2.0000      -0.328328        -8.9343
  36   2.0000      -0.322362        -8.7719
  37   2.0000      -0.317149        -8.6300
  38   2.0000      -0.288158        -7.8412
  39   2.0000      -0.235905        -6.4193
  40   0.0000      -0.067808        -1.8452
  41   0.0000      -0.046796        -1.2734
  42   0.0000      -0.045155        -1.2287
  43   0.0000      -0.034931        -0.9505
  44   0.0000       0.088897         2.4190

MULLIKEN ATOMIC CHARGES
-----------------------
   0 C :    0.058369
   1 C :    0.058370
   2 Cl:   -0.029185
   3 Cl:   -0.029185
   4 Cl:   -0.029185
   5 Cl:   -0.029185
Sum of atomic charges:    0.0000000

LOEWDIN ATOMIC CHARGES
----------------------
   0 C :   -0.859415
   1 C :   -0.859415
   2 Cl:    0.429708
   3 Cl:    0.429708
   4 Cl:    0.429707
   5 Cl:    0.429707

  Mayer bond orders larger than 0.100000
B(  0-C ,  1-C ) :   1.6620 B(  0-C ,  4-Cl) :   1.1680 B(  0-C ,  5-Cl) :   1.1680
B(  1-C ,  2-Cl) :   1.1680 B(  1-C ,  3-Cl) :   1.1680

Dispersion correction           -0.002755483
FINAL SINGLE POINT ENERGY     -1916.894550637234

DIPOLE MOMENT
-------------

Method             : SCF
Type of density    : Electron Density
Multiplicity       :   1
Irrep              :   0
Energy             : -1916.8979877779895560 Eh
Relativity type    :
Basis              : AO
                                X                 Y                 Z
Electronic contribution:     -0.000000562      -0.000000335       0.000511339
Nuclear contribution   :     -0.000000552      -0.000000429      -0.000399454
                        -----------------------------------------
Total Dipole Moment    :     -0.000001114      -0.000000764       0.000111885
                        -----------------------------------------
Magnitude (a.u.)       :      0.000111893
Magnitude (Debye)      :      0.000284411

VIBRATIONAL FREQUENCIES
-----------------------

Scaling factor for frequencies =  1.000000000  (already applied!)

     0:       0.00 cm**-1
     1:       0.00 cm**-1
     2:       0.00 cm**-1
     3:       0.00 cm**-1
     4:       0.00 cm**-1
     5:       0.00 cm**-1
     6:     105.63 cm**-1
     7:     182.36 cm**-1
     8:     239.50 cm**-1
     9:     304.51 cm**-1
    10:     314.62 cm**-1
    11:     342.26 cm**-1
    12:     438.49 cm**-1
    13:     525.96 cm**-1
    14:     759.73 cm**-1
    15:     854.85 cm**-1
    16:     934.95 cm**-1
    17:    1592.28 cm**-1

IR SPECTRUM
-----------

 Mode   freq       eps      Int      T**2         TX        TY        TZ
       cm**-1   L/(mol*cm) km/mol    a.u.
----------------------------------------------------------------------------
  6:    105.63   0.000000    0.00  0.000000  ( 0.000000 -0.000004 -0.000000)
  7:    182.36   0.000149    0.75  0.000254  (-0.000000 -0.015950  0.000000)
  8:    239.50   0.000000    0.00  0.000000  ( 0.000000 -0.000000  0.000010)
  9:    304.51   0.000126    0.63  0.000129  (-0.000017  0.000000  0.011343)
 10:    314.62   0.000027    0.14  0.000027  (-0.005162  0.000000 -0.000001)
 11:    342.26   0.000000    0.00  0.000000  (-0.000000 -0.000000  0.000000)
 12:    438.49   0.000000    0.00  0.000000  (-0.000000 -0.000000  0.000007)
 13:    525.96   0.000000    0.00  0.000000  ( 0.000147  0.000000 -0.000000)
 14:    759.73   0.015728   79.48  0.006461  ( 0.080377 -0.000002  0.000000)
 15:    854.85   0.043640  220.54  0.015931  ( 0.000002  0.126216  0.000000)
 16:    934.95   0.000000    0.00  0.000000  (-0.000000 -0.000001  0.000000)
 17:   1592.28   0.000000    0.00  0.000000  ( 0.000000 -0.000000  0.000020)

--------------------------
THERMOCHEMISTRY AT 298.15K
--------------------------

Temperature         ...   298.15 K
Pressure            ...     1.00 atm
Total Mass          ...   165.83 AMU
Quasi RRHO          ...     True
Cut-Off Frequency   ...     1.00 cm^-1

Throughout the following assumptions are being made:
  (1) The electronic state is orbitally nondegenerate
  (2) There are no thermally accessible electronically excited states
  (3) Hindered rotations indicated by low frequency modes are not
      treated as such but are treated as vibrations and this may
      cause some error
  (4) All equations used are the standard statistical mechanics
      equations for an ideal gas
  (5) All vibrations are strictly harmonic

freq.     105.63  E(vib)   ...       0.45
freq.     182.36  E(vib)   ...       0.37
freq.     239.50  E(vib)   ...       0.31
freq.     304.51  E(vib)   ...       0.26
freq.     314.62  E(vib)   ...       0.25
freq.     342.26  E(vib)   ...       0.23
freq.     438.49  E(vib)   ...       0.17
freq.     525.96  E(vib)   ...       0.13
freq.     759.73  E(vib)   ...       0.06
freq.     854.85  E(vib)   ...       0.04
freq.     934.95  E(vib)   ...       0.03
freq.    1592.28  E(vib)   ...       0.00

------------
INNER ENERGY
------------

The inner energy is: U= E(el) + E(ZPE) + E(vib) + E(rot) + E(trans)
    E(el)   - is the total energy from the electronic structure calculation
              = E(kin-el) + E(nuc-el) + E(el-el) + E(nuc-nuc)
    E(ZPE)  - the the zero temperature vibrational energy from the frequency calculation
    E(vib)  - the the finite temperature correction to E(ZPE) due to population
              of excited vibrational states
    E(rot)  - is the rotational thermal energy
    E(trans)- is the translational thermal energy

Summary of contributions to the inner energy U:
Electronic energy                ...  -1916.89455064 Eh
Zero point energy                ...      0.01502486 Eh       9.43 kcal/mol
Thermal vibrational correction   ...      0.00368584 Eh       2.31 kcal/mol
Thermal rotational correction    ...      0.00141627 Eh       0.89 kcal/mol
Thermal translational correction ...      0.00141627 Eh       0.89 kcal/mol
-----------------------------------------------------------------------
Total thermal energy                  -1916.87300739 Eh

Summary of corrections to the electronic energy:
(perhaps to be used in another calculation)
Total thermal correction                  0.00651839 Eh       4.09 kcal/mol
Non-thermal (ZPE) correction              0.01502486 Eh       9.43 kcal/mol
-----------------------------------------------------------------------
Total correction                          0.02154325 Eh      13.52 kcal/mol

--------
ENTHALPY
--------

The enthalpy is H = U + kB*T
                kB is Boltzmann's constant
Total thermal energy              ...  -1916.87300739 Eh
Thermal Enthalpy correction       ...      0.00094421 Eh       0.59 kcal/mol
-----------------------------------------------------------------------
Total Enthalpy                    ...  -1916.87206318 Eh

Note: Rotational entropy computed according to Herzberg
Infrared and Raman Spectra, Chapter V,1, Van Nostrand Reinhold, 1945
Point Group:  C2v, Symmetry Number:   2
Rotational constants in cm-1:     0.055946     0.045529     0.025101

Vibrational entropy computed according to the QRRHO of S. Grimme
Chem.Eur.J. 2012 18 9955 using a reference frequency of 100.0 cm-1

-------
ENTROPY
-------

The entropy contributions are T*S = T*(S(el)+S(vib)+S(rot)+S(trans))
     S(el)   - electronic entropy
     S(vib)  - vibrational entropy
     S(rot)  - rotational entropy
     S(trans)- translational entropy
The entropies will be listed as multiplied by the temperature to get
units of energy

Electronic entropy                ...      0.00000000 Eh      0.00 kcal/mol
Vibrational entropy               ...      0.00623769 Eh      3.91 kcal/mol
Rotational entropy                ...      0.01341562 Eh      8.42 kcal/mol
Translational entropy             ...      0.01958762 Eh     12.29 kcal/mol
-----------------------------------------------------------------------
Final entropy term                ...      0.03924092 Eh     24.62 kcal/mol

In case the symmetry of your molecule has not been determined correctly
or in case you have a reason to use a different symmetry number we print
out the resulting rotational entropy values for sn=1,12:

 non-linear molecules -----------------------------------
|  sn= 1 | S(rot)=       0.01407007 Eh      8.83 kcal/mol|
|  sn= 2 | S(rot)=       0.01341562 Eh      8.42 kcal/mol|
|  sn= 3 | S(rot)=       0.01303278 Eh      8.18 kcal/mol|
|  sn= 4 | S(rot)=       0.01276116 Eh      8.01 kcal/mol|
|  sn= 5 | S(rot)=       0.01255047 Eh      7.88 kcal/mol|
|  sn= 6 | S(rot)=       0.01237833 Eh      7.77 kcal/mol|
|  sn= 7 | S(rot)=       0.01223278 Eh      7.68 kcal/mol|
|  sn= 8 | S(rot)=       0.01210670 Eh      7.60 kcal/mol|
|  sn= 9 | S(rot)=       0.01199550 Eh      7.53 kcal/mol|
|  sn=10 | S(rot)=       0.01189602 Eh      7.46 kcal/mol|
|  sn=11 | S(rot)=       0.01180603 Eh      7.41 kcal/mol|
|  sn=12 | S(rot)=       0.01172387 Eh      7.36 kcal/mol|
 linear molecules ---------------------------------------
|  Dinfh | S(rot)=       0.00880495 Eh      5.53 kcal/mol|
|  Cinfv | S(rot)=       0.00945941 Eh      5.94 kcal/mol|
 --------------------------------------------------------

-------------------
GIBBS FREE ENERGY
-------------------

The Gibbs free energy is G = H - T*S

Total enthalpy                    ...  -1916.87206318 Eh
Total entropy correction          ...     -0.03924092 Eh    -24.62 kcal/mol
-----------------------------------------------------------------------
Final Gibbs free energy         ...  -1916.91130410 Eh

For completeness - the Gibbs free energy minus the electronic energy
G-E(el)                           ...     -0.01675346 Eh    -10.51 kcal/mol

                             ****ORCA TERMINATED NORMALLY****
TOTAL RUN TIME: 0 days 0 hours 2 minutes 12 seconds 367 msec
