                         Program Version 6.0.0  -   RELEASE  -
|  1> ! r2SCAN-3c DEF2-TZVP FREQ
|  2> * xyzfile 0 1 vacuum_censo.xyz
|  3>
|  4>                          ****END OF INPUT****

CARTESIAN COORDINATES (ANGSTROEM)
---------------------------------
  C      0.672199    0.000116    0.000019
  C     -0.672222   -0.000124    0.000019
  Cl    -1.592568    1.457632   -0.000039
  Cl    -1.592060   -1.458192   -0.000043
  Cl     1.592558   -1.457638   -0.000039
  Cl     1.592046    1.458184   -0.000044

 Total Charge           Charge          ....    0
 Multiplicity           Mult            ....    1
 Number of Electrons    NEL             ....   80
 Basis Dimension        Dim             ....  210

ORBITAL ENERGIES
----------------

  NO   OCC          E(Eh)            E(eV)
   0   2.0000    -101.226870     -2754.5232
   1   2.0000    -101.226866     -2754.5231
   2   2.0000    -101.226864     -2754.5230
   3   2.0000    -101.226855     -2754.5228
   4   2.0000     -10.175603      -276.8922
   5   2.0000     -10.174962      -276.8748
   6   2.0000      -9.402336      -255.8506
   7   2.0000      -9.402332      -255.8505
   8   2.0000      -9.402330      -255.8504
   9   2.0000      -9.402320      -255.8501
  10   2.0000      -7.147788      -194.5012
  11   2.0000      -7.147786      -194.5011
  12   2.0000      -7.147784      -194.5011
  13   2.0000      -7.147783      -194.5011
  14   2.0000      -7.137045      -194.2089
  15   2.0000      -7.137044      -194.2089
  16   2.0000      -7.137044      -194.2088
  17   2.0000      -7.137043      -194.2088
  18   2.0000      -7.136623      -194.1974
  19   2.0000      -7.136622      -194.1974
  20   2.0000      -7.136621      -194.1973
  21   2.0000      -7.136621      -194.1973
  22   2.0000      -0.926079       -25.1999
  23   2.0000      -0.872354       -23.7380
  24   2.0000      -0.831041       -22.6138
  25   2.0000      -0.808622       -22.0037
  26   2.0000      -0.701794       -19.0968
  27   2.0000      -0.544627       -14.8200
  28   2.0000      -0.487831       -13.2746
  29   2.0000      -0.486445       -13.2369
  30   2.0000      -0.426100       -11.5948
  31   2.0000      -0.421188       -11.4611
  32   2.0000      -0.361738        -9.8434
  33   2.0000      -0.340613        -9.2685
  34   2.0000      -0.329501        -8.9662
  35   2.0000      -0.328321        -8.9341
  36   2.0000      -0.322364        -8.7720
  37   2.0000      -0.317156        -8.6303
  38   2.0000      -0.288194        -7.8422
  39   2.0000      -0.235898        -6.4191
  40   0.0000      -0.067892        -1.8474
  41   0.0000      -0.046848        -1.2748
  42   0.0000      -0.045315        -1.2331
  43   0.0000      -0.035029        -0.9532
  44   0.0000       0.088932         2.4200

MULLIKEN ATOMIC CHARGES
-----------------------
   0 C :    0.058364
   1 C :    0.058361
   2 Cl:   -0.029182
   3 Cl:   -0.029178
   4 Cl:   -0.029185
   5 Cl:   -0.029180
Sum of atomic charges:    0.0000000

LOEWDIN ATOMIC CHARGES
----------------------
   0 C :   -0.858905
   1 C :   -0.858914
   2 Cl:    0.429454
   3 Cl:    0.429463
   4 Cl:    0.429447
   5 Cl:    0.429456

  Mayer bond orders larger than 0.100000
B(  0-C ,  1-C ) :   1.6618 B(  0-C ,  4-Cl) :   1.1678 B(  0-C ,  5-Cl) :   1.1679
B(  1-C ,  2-Cl) :   1.1679 B(  1-C ,  3-Cl) :   1.1679

Dispersion correction           -0.002755158
FINAL SINGLE POINT ENERGY     -1916.894537453502

DIPOLE MOMENT
-------------

Method             : SCF
Type of density    : Electron Density
Multiplicity       :   1
Irrep              :   0
Energy             : -1916.8979712915377149 Eh
Relativity type    :
Basis              : AO
                                X                 Y                 Z
Electronic contribution:     -0.000006904      -0.000000223      -0.000059730
Nuclear contribution   :     -0.000004490      -0.000000536       0.000046651
                        -----------------------------------------
Total Dipole Moment    :     -0.000011394      -0.000000760      -0.000013080
                        -----------------------------------------
Magnitude (a.u.)       :      0.000017363
Magnitude (Debye)      :      0.000044133

VIBRATIONAL FREQUENCIES
-----------------------

Scaling factor for frequencies =  1.000000000  (already applied!)

     0:       0.00 cm**-1
     1:       0.00 cm**-1
     2:       0.00 cm**-1
     3:       0.00 cm**-1
     4:       0.00 cm**-1
     5:       0.00 cm**-1
     6:     105.77 cm**-1
     7:     182.35 cm**-1
     8:     239.42 cm**-1
     9:     304.74 cm**-1
    10:     314.55 cm**-1
    11:     342.10 cm**-1
    12:     438.15 cm**-1
    13:     526.20 cm**-1
    14:     759.24 cm**-1
    15:     854.16 cm**-1
    16:     934.64 cm**-1
    17:    1590.33 cm**-1

IR SPECTRUM
-----------

 Mode   freq       eps      Int      T**2         TX        TY        TZ
       cm**-1   L/(mol*cm) km/mol    a.u.
----------------------------------------------------------------------------
  6:    105.77   0.000000    0.00  0.000000  (-0.000000  0.000000  0.000001)
  7:    182.35   0.000148    0.75  0.000254  ( 0.000006 -0.015936  0.000000)
  8:    239.42   0.000000    0.00  0.000000  ( 0.000000 -0.000000 -0.000001)
  9:    304.74   0.000126    0.64  0.000129  ( 0.000000  0.000000  0.011355)
 10:    314.55   0.000027    0.14  0.000027  (-0.005204 -0.000002  0.000000)
 11:    342.10   0.000000    0.00  0.000000  ( 0.000000 -0.000001 -0.000000)
 12:    438.15   0.000000    0.00  0.000000  (-0.000001  0.000000 -0.000001)
 13:    526.20   0.000000    0.00  0.000000  (-0.000017 -0.000000 -0.000000)
 14:    759.24   0.015739   79.54  0.006469  ( 0.080431  0.000008 -0.000000)
 15:    854.16   0.043663  220.65  0.015952  (-0.000025  0.126301 -0.000000)
 16:    934.64   0.000000    0.00  0.000000  (-0.000000 -0.000009 -0.000000)
 17:   1590.33   0.000000    0.00  0.000000  ( 0.000000 -0.000000 -0.000002)

--------------------------
THERMOCHEMISTRY AT 298.15K
--------------------------

Temperature         ...   298.15 K
Pressure            ...     1.00 atm
Total Mass          ...   165.83 AMU
Quasi RRHO          ...     True
Cut-Off Frequency   ...     1.00 cm^-1

Throughout the following assumptions are being made:
  (1) The electronic state is orbitally nondegenerate
  (2) There are no thermally accessible electronically excited states
  (3) Hindered rotations indicated by low frequency modes are not
      treated as such but are treated as vibrations and this may
      cause some error
  (4) All equations used are the standard statistical mechanics
      equations for an ideal gas
  (5) All vibrations are strictly harmonic

freq.     105.77  E(vib)   ...       0.45
freq.     182.35  E(vib)   ...       0.37
freq.     239.42  E(vib)   ...       0.31
freq.     304.74  E(vib)   ...       0.26
freq.     314.55  E(vib)   ...       0.25
freq.     342.10  E(vib)   ...       0.23
freq.     438.15  E(vib)   ...       0.17
freq.     526.20  E(vib)   ...       0.13
freq.     759.24  E(vib)   ...       0.06
freq.     854.16  E(vib)   ...       0.04
freq.     934.64  E(vib)   ...       0.03
freq.    1590.33  E(vib)   ...       0.00

------------
INNER ENERGY
------------

The inner energy is: U= E(el) + E(ZPE) + E(vib) + E(rot) + E(trans)
    E(el)   - is the total energy from the electronic structure calculation
              = E(kin-el) + E(nuc-el) + E(el-el) + E(nuc-nuc)
    E(ZPE)  - the the zero temperature vibrational energy from the frequency calculation
    E(vib)  - the the finite temperature correction to E(ZPE) due to population
              of excited vibrational states
    E(rot)  - is the rotational thermal energy
    E(trans)- is the translational thermal energy

Summary of contributions to the inner energy U:
Electronic energy                ...  -1916.89453745 Eh
Zero point energy                ...      0.01501691 Eh       9.42 kcal/mol
Thermal vibrational correction   ...      0.00368623 Eh       2.31 kcal/mol
Thermal rotational correction    ...      0.00141627 Eh       0.89 kcal/mol
Thermal translational correction ...      0.00141627 Eh       0.89 kcal/mol
-----------------------------------------------------------------------
Total thermal energy                  -1916.87300177 Eh

Summary of corrections to the electronic energy:
(perhaps to be used in another calculation)
Total thermal correction                  0.00651878 Eh       4.09 kcal/mol
Non-thermal (ZPE) correction              0.01501691 Eh       9.42 kcal/mol
-----------------------------------------------------------------------
Total correction                          0.02153568 Eh      13.51 kcal/mol

--------
ENTHALPY
--------

The enthalpy is H = U + kB*T
                kB is Boltzmann's constant
Total thermal energy              ...  -1916.87300177 Eh
Thermal Enthalpy correction       ...      0.00094421 Eh       0.59 kcal/mol
-----------------------------------------------------------------------
Total Enthalpy                    ...  -1916.87205756 Eh

Note: Rotational entropy computed according to Herzberg
Infrared and Raman Spectra, Chapter V,1, Van Nostrand Reinhold, 1945
Point Group:  D2h, Symmetry Number:   4
Rotational constants in cm-1:     0.055927     0.045511     0.025092

Vibrational entropy computed according to the QRRHO of S. Grimme
Chem.Eur.J. 2012 18 9955 using a reference frequency of 100.0 cm-1

-------
ENTROPY
-------

The entropy contributions are T*S = T*(S(el)+S(vib)+S(rot)+S(trans))
     S(el)   - electronic entropy
     S(vib)  - vibrational entropy
     S(rot)  - rotational entropy
     S(trans)- translational entropy
The entropies will be listed as multiplied by the temperature to get
units of energy

Electronic entropy                ...      0.00000000 Eh      0.00 kcal/mol
Vibrational entropy               ...      0.00623812 Eh      3.91 kcal/mol
Rotational entropy                ...      0.01276169 Eh      8.01 kcal/mol
Translational entropy             ...      0.01958762 Eh     12.29 kcal/mol
-----------------------------------------------------------------------
Final entropy term                ...      0.03858742 Eh     24.21 kcal/mol

In case the symmetry of your molecule has not been determined correctly
or in case you have a reason to use a different symmetry number we print
out the resulting rotational entropy values for sn=1,12:

 non-linear molecules -----------------------------------
|  sn= 1 | S(rot)=       0.01407060 Eh      8.83 kcal/mol|
|  sn= 2 | S(rot)=       0.01341615 Eh      8.42 kcal/mol|
|  sn= 3 | S(rot)=       0.01303331 Eh      8.18 kcal/mol|
|  sn= 4 | S(rot)=       0.01276169 Eh      8.01 kcal/mol|
|  sn= 5 | S(rot)=       0.01255100 Eh      7.88 kcal/mol|
|  sn= 6 | S(rot)=       0.01237886 Eh      7.77 kcal/mol|
|  sn= 7 | S(rot)=       0.01223331 Eh      7.68 kcal/mol|
|  sn= 8 | S(rot)=       0.01210723 Eh      7.60 kcal/mol|
|  sn= 9 | S(rot)=       0.01199602 Eh      7.53 kcal/mol|
|  sn=10 | S(rot)=       0.01189655 Eh      7.47 kcal/mol|
|  sn=11 | S(rot)=       0.01180655 Eh      7.41 kcal/mol|
|  sn=12 | S(rot)=       0.01172440 Eh      7.36 kcal/mol|
 linear molecules ---------------------------------------
|  Dinfh | S(rot)=       0.00880531 Eh      5.53 kcal/mol|
|  Cinfv | S(rot)=       0.00945976 Eh      5.94 kcal/mol|
 --------------------------------------------------------

-------------------
GIBBS FREE ENERGY
-------------------

The Gibbs free energy is G = H - T*S

Total enthalpy                    ...  -1916.87205756 Eh
Total entropy correction          ...     -0.03858742 Eh    -24.21 kcal/mol
-----------------------------------------------------------------------
Final Gibbs free energy         ...  -1916.91064499 Eh

For completeness - the Gibbs free energy minus the electronic energy
G-E(el)                           ...     -0.01610753 Eh    -10.11 kcal/mol

                             ****ORCA TERMINATED NORMALLY****
TOTAL RUN TIME: 0 days 0 hours 2 minutes 13 seconds 13 msec
