                         Program Version 6.0.1  -  RELEASE   -
|  1> ! pbe def2-sv(p) def2/J RI DEFGRID1 loosescf d4 GCP(DFT/SV(P)) printgap
|  2> %output
|  3>     printlevel normal
|  4> end
|  5> * xyz 0 1
|  6> C -2.1316743164 -1.065772855 -0.4932632837
|  7> C -1.2052104087 -0.2118750407 0.3882193758
|  8> H -1.7812355372 0.1258247592 1.2613865032
|  9> C -0.6508269297 1.0078370553 -0.3593570302
| 10> H -0.5502442333 0.7873219155 -1.4284331435
| 11> C 0.7371612483 1.3429866398 0.2056889455
| 12> H 0.6731226077 1.4423500318 1.3032600533
| 13> C 1.677395975 0.1834287284 -0.131663303
| 14> H 1.854189102 0.2060581358 -1.2203610971
| 15> C 1.0009613093 -1.1616650455 0.2359659038
| 16> H 1.6754760754 -1.696482622 0.9205770617
| 17> O -0.1689886662 -1.0038840476 0.9670450089
| 18> O 0.738644959 -1.9297800441 -0.9138846855
| 19> O 2.8943097597 0.2693612336 0.5588409005
| 20> O 1.2435654978 2.531194212 -0.3498016602
| 21> O -1.4988294796 2.1270988526 -0.2984335126
| 22> O -2.7107396498 -2.1056314459 0.2450432223
| 23> H -1.5571307505 -1.4601898131 -1.3409181139
| 24> H -2.9497677558 -0.4440087938 -0.8635816058
| 25> H 1.5659228074 -2.2835030828 -1.2550291179
| 26> H 3.2193604532 1.1736873115 0.4629650655
| 27> H 0.4854121188 3.0749930965 -0.6072448821
| 28> H -1.7321088222 2.3010096856 0.6224571017
| 29> H -1.988905745 -2.5862483179 0.6703593375
| 30> *
| 31>
| 32>                          ****END OF INPUT****

CARTESIAN COORDINATES (ANGSTROEM)
---------------------------------
  C     -2.131674   -1.065773   -0.493263
  C     -1.205210   -0.211875    0.388219
  H     -1.781236    0.125825    1.261387
  C     -0.650827    1.007837   -0.359357
  H     -0.550244    0.787322   -1.428433
  C      0.737161    1.342987    0.205689
  H      0.673123    1.442350    1.303260
  C      1.677396    0.183429   -0.131663
  H      1.854189    0.206058   -1.220361
  C      1.000961   -1.161665    0.235966
  H      1.675476   -1.696483    0.920577
  O     -0.168989   -1.003884    0.967045
  O      0.738645   -1.929780   -0.913885
  O      2.894310    0.269361    0.558841
  O      1.243565    2.531194   -0.349802
  O     -1.498829    2.127099   -0.298434
  O     -2.710740   -2.105631    0.245043
  H     -1.557131   -1.460190   -1.340918
  H     -2.949768   -0.444009   -0.863582
  H      1.565923   -2.283503   -1.255029
  H      3.219360    1.173687    0.462965
  H      0.485412    3.074993   -0.607245
  H     -1.732109    2.301010    0.622457
  H     -1.988906   -2.586248    0.670359

 Total Charge           Charge          ....    0
 Multiplicity           Mult            ....    1
 Number of Electrons    NEL             ....   96
 Basis Dimension        Dim             ....  192

ORBITAL ENERGIES
----------------

  NO   OCC          E(Eh)            E(eV)
   0   2.0000     -18.781740      -511.0771
   1   2.0000     -18.777876      -510.9720
   2   2.0000     -18.768080      -510.7054
   3   2.0000     -18.755411      -510.3607
   4   2.0000     -18.755248      -510.3562
   5   2.0000     -18.737066      -509.8615
   6   2.0000      -9.994351      -271.9601
   7   2.0000      -9.955177      -270.8942
   8   2.0000      -9.951258      -270.7875
   9   2.0000      -9.945176      -270.6220
  10   2.0000      -9.943729      -270.5826
  11   2.0000      -9.924263      -270.0529
  12   2.0000      -0.991455       -26.9789
  13   2.0000      -0.961588       -26.1661
  14   2.0000      -0.940686       -25.5974
  15   2.0000      -0.926900       -25.2222
  16   2.0000      -0.921569       -25.0772
  17   2.0000      -0.912590       -24.8328
  18   2.0000      -0.713352       -19.4113
  19   2.0000      -0.695648       -18.9295
  20   2.0000      -0.617862       -16.8129
  21   2.0000      -0.598412       -16.2836
  22   2.0000      -0.566978       -15.4283
  23   2.0000      -0.529116       -14.3980
  24   2.0000      -0.516472       -14.0539
  25   2.0000      -0.495476       -13.4826
  26   2.0000      -0.478139       -13.0108
  27   2.0000      -0.462329       -12.5806
  28   2.0000      -0.443148       -12.0587
  29   2.0000      -0.432824       -11.7777
  30   2.0000      -0.422472       -11.4960
  31   2.0000      -0.407526       -11.0894
  32   2.0000      -0.391087       -10.6420
  33   2.0000      -0.380853       -10.3635
  34   2.0000      -0.372050       -10.1240
  35   2.0000      -0.352494        -9.5919
  36   2.0000      -0.335538        -9.1304
  37   2.0000      -0.317764        -8.6468
  38   2.0000      -0.310481        -8.4486
  39   2.0000      -0.304067        -8.2741
  40   2.0000      -0.285821        -7.7776
  41   2.0000      -0.277851        -7.5607
  42   2.0000      -0.256676        -6.9845
  43   2.0000      -0.251874        -6.8539
  44   2.0000      -0.239509        -6.5174
  45   2.0000      -0.222351        -6.0505
  46   2.0000      -0.218617        -5.9489
  47   2.0000      -0.203140        -5.5277
  48   0.0000       0.007820         0.2128
  49   0.0000       0.020946         0.5700
  50   0.0000       0.031505         0.8573
  51   0.0000       0.047618         1.2958
  52   0.0000       0.058040         1.5794

MULLIKEN ATOMIC CHARGES
-----------------------
   0 C :    0.069012
   1 C :    0.028899
   2 H :    0.058009
   3 C :   -0.014636
   4 H :    0.077104
   5 C :    0.028957
   6 H :    0.049099
   7 C :    0.082259
   8 H :    0.047239
   9 C :    0.200809
  10 H :    0.076293
  11 O :   -0.310509
  12 O :   -0.415620
  13 O :   -0.413665
  14 O :   -0.421563
  15 O :   -0.411131
  16 O :   -0.433818
  17 H :    0.093069
  18 H :    0.085761
  19 H :    0.308333
  20 H :    0.311987
  21 H :    0.302941
  22 H :    0.303862
  23 H :    0.297308
Sum of atomic charges:   -0.0000000

LOEWDIN ATOMIC CHARGES
----------------------
   0 C :   -0.138421
   1 C :   -0.074250
   2 H :    0.112722
   3 C :   -0.081960
   4 H :    0.120670
   5 C :   -0.089110
   6 H :    0.101575
   7 C :   -0.086564
   8 H :    0.100599
   9 C :    0.010506
  10 H :    0.107315
  11 O :   -0.125137
  12 O :   -0.324852
  13 O :   -0.318941
  14 O :   -0.330031
  15 O :   -0.303097
  16 O :   -0.335866
  17 H :    0.105843
  18 H :    0.115666
  19 H :    0.294406
  20 H :    0.291187
  21 H :    0.281115
  22 H :    0.287234
  23 H :    0.279389

  Mayer bond orders larger than 0.100000
B(  0-C ,  1-C ) :   1.0678 B(  0-C , 16-O ) :   1.0766 B(  0-C , 17-H ) :   0.8933
B(  0-C , 18-H ) :   0.9137 B(  1-C ,  2-H ) :   0.8781 B(  1-C ,  3-C ) :   0.9676
B(  1-C , 11-O ) :   0.9794 B(  3-C ,  4-H ) :   0.8744 B(  3-C ,  5-C ) :   1.0151
B(  3-C , 15-O ) :   1.0110 B(  5-C ,  6-H ) :   0.8583 B(  5-C ,  7-C ) :   1.0458
B(  5-C , 14-O ) :   1.1055 B(  7-C ,  8-H ) :   0.8726 B(  7-C ,  9-C ) :   0.9686
B(  7-C , 13-O ) :   1.0887 B(  9-C , 10-H ) :   0.8962 B(  9-C , 11-O ) :   1.0924
B(  9-C , 12-O ) :   1.0307 B( 12-O , 19-H ) :   0.8412 B( 13-O , 20-H ) :   0.8415
B( 14-O , 21-H ) :   0.8212 B( 15-O , 22-H ) :   0.8444 B( 16-O , 23-H ) :   0.8423

Dispersion correction           -0.024486661
FINAL SINGLE POINT ENERGY      -685.690468274484

DIPOLE MOMENT
-------------

Method             : SCF
Type of density    : Electron Density
Multiplicity       :   1
Irrep              :   0
Energy             :  -685.8215317890211509 Eh
Relativity type    :
Basis              : AO
                                X                 Y                 Z
Electronic contribution:      1.563594983      -0.151746033       1.343292318
Nuclear contribution   :     -1.011390952       0.599537049      -1.380297388
                        -----------------------------------------
Total Dipole Moment    :      0.552204031       0.447791016      -0.037005070
                        -----------------------------------------
Magnitude (a.u.)       :      0.711909728
Magnitude (Debye)      :      1.809530722

Rotational constants in cm-1:             0.042139             0.026671             0.018372
Rotational constants in MHz :          1263.306090           799.567085           550.779644

                             ****ORCA TERMINATED NORMALLY****
TOTAL RUN TIME: 0 days 0 hours 0 minutes 10 seconds 7 msec
