                         Program Version 6.0.1  -  RELEASE   -
|  1> ! pbe def2-sv(p) def2/J RI DEFGRID1 loosescf d4 GCP(DFT/SV(P)) printgap
|  2> %output
|  3>     printlevel normal
|  4> end
|  5> * xyz 0 1
|  6> C 1.6198567398 -9.1551e-06 -8.053e-07
|  7> Br -0.3175261986 -9.325e-07 4.3e-09
|  8> H 1.9562608769 0.9535315293 -0.3938737356
|  9> H 1.956398431 -0.1355430658 1.022613448
| 10> H 1.9564884965 -0.8178054372 -0.6287304588
| 11> *
| 12>
| 13>                          ****END OF INPUT****

CARTESIAN COORDINATES (ANGSTROEM)
---------------------------------
  C      1.619857   -0.000009   -0.000001
  Br    -0.317526   -0.000001    0.000000
  H      1.956261    0.953532   -0.393874
  H      1.956398   -0.135543    1.022613
  H      1.956488   -0.817805   -0.628730

 Total Charge           Charge          ....    0
 Multiplicity           Mult            ....    1
 Number of Electrons    NEL             ....   44
 Basis Dimension        Dim             ....   52

ORBITAL ENERGIES
----------------

  NO   OCC          E(Eh)            E(eV)
   0   2.0000    -480.922953    -13086.5789
   1   2.0000     -61.765472     -1680.7239
   2   2.0000     -55.696162     -1515.5696
   3   2.0000     -55.692871     -1515.4801
   4   2.0000     -55.692871     -1515.4801
   5   2.0000      -9.932429      -270.2751
   6   2.0000      -8.391022      -228.3313
   7   2.0000      -6.273527      -170.7114
   8   2.0000      -6.258274      -170.2963
   9   2.0000      -6.258274      -170.2963
  10   2.0000      -2.474489       -67.3343
  11   2.0000      -2.470724       -67.2318
  12   2.0000      -2.470724       -67.2318
  13   2.0000      -2.459273       -66.9202
  14   2.0000      -2.459250       -66.9196
  15   2.0000      -0.732357       -19.9284
  16   2.0000      -0.601095       -16.3566
  17   2.0000      -0.396716       -10.7952
  18   2.0000      -0.396706       -10.7949
  19   2.0000      -0.351689        -9.5699
  20   2.0000      -0.235159        -6.3990
  21   2.0000      -0.235156        -6.3989
  22   0.0000      -0.023760        -0.6465
  23   0.0000       0.054416         1.4807
  24   0.0000       0.096261         2.6194
  25   0.0000       0.096270         2.6196
  26   0.0000       0.310189         8.4407

MULLIKEN ATOMIC CHARGES
-----------------------
   0 C :   -0.347498
   1 Br:   -0.133359
   2 H :    0.160282
   3 H :    0.160287
   4 H :    0.160289
Sum of atomic charges:    0.0000000

LOEWDIN ATOMIC CHARGES
----------------------
   0 C :   -0.406976
   1 Br:    0.007874
   2 H :    0.133033
   3 H :    0.133033
   4 H :    0.133035

  Mayer bond orders larger than 0.100000
B(  0-C ,  1-Br) :   1.0575 B(  0-C ,  2-H ) :   0.9503 B(  0-C ,  3-H ) :   0.9503
B(  0-C ,  4-H ) :   0.9503

Dispersion correction           -0.002020812
FINAL SINGLE POINT ENERGY     -2613.244762188361

DIPOLE MOMENT
-------------

Method             : SCF
Type of density    : Electron Density
Multiplicity       :   1
Irrep              :   0
Energy             : -2613.2667514590111750 Eh
Relativity type    :
Basis              : AO
                                X                 Y                 Z
Electronic contribution:     -7.778669060      -0.000146993       0.000043811
Nuclear contribution   :      8.454654772       0.000180371       0.000008641
                        -----------------------------------------
Total Dipole Moment    :      0.675985712       0.000033378       0.000052452
                        -----------------------------------------
Magnitude (a.u.)       :      0.675985715
Magnitude (Debye)      :      1.718219138

Rotational constants in cm-1:             5.238356             0.319546             0.319545
Rotational constants in MHz :        157041.963792          9579.755515          9579.714649

                             ****ORCA TERMINATED NORMALLY****
TOTAL RUN TIME: 0 days 0 hours 0 minutes 9 seconds 666 msec
