                         Program Version 6.0.1  -  RELEASE   -
|  1> ! pbe def2-sv(p) def2/J RI DEFGRID1 loosescf d4 GCP(DFT/SV(P)) printgap
|  2> %output
|  3>     printlevel normal
|  4> end
|  5> * xyz 0 1
|  6> C -1.9067205876 -1.437445798 -0.2542318829
|  7> C -1.0692644681 -0.5094704651 0.644775552
|  8> H -1.6476045055 -0.2730370307 1.5475036826
|  9> C -0.7801843193 0.8254509465 -0.0649504643
| 10> H -0.9113670765 0.7017954412 -1.1545022037
| 11> C 0.6641929031 1.2511890274 0.2056358566
| 12> H 0.8094537268 1.3987196695 1.2814716685
| 13> C 1.6166843179 0.1616283536 -0.2929569181
| 14> H 1.534992743 0.0871695548 -1.3916876301
| 15> C 1.212477395 -1.2049458456 0.2928271272
| 16> H 2.0281491186 -1.5442003282 0.9486401315
| 17> O 0.099210632 -1.1424328964 1.1425241175
| 18> O 1.0236490211 -2.0838927119 -0.7744710428
| 19> O 2.9411085576 0.4373379245 0.0765621641
| 20> O 0.9517536585 2.497946054 -0.3877622437
| 21> O -1.6914908862 1.7863006347 0.4111306143
| 22> O -3.0221206789 -0.7794997302 -0.7915716654
| 23> H -2.2089491458 -2.3171522608 0.3335213491
| 24> H -1.3102810331 -1.7700208026 -1.1072166704
| 25> H 0.8592974157 -2.9697293445 -0.4291130716
| 26> H 3.0880133833 1.3871438905 -0.0306708561
| 27> H 0.8474385905 2.4197242701 -1.3454181648
| 28> H -1.3094593634 2.6605479912 0.2548519713
| 29> H -3.4434555857 -0.2557542167 -0.099778853
| 30> *
| 31>
| 32>                          ****END OF INPUT****

CARTESIAN COORDINATES (ANGSTROEM)
---------------------------------
  C     -1.906721   -1.437446   -0.254232
  C     -1.069264   -0.509470    0.644776
  H     -1.647605   -0.273037    1.547504
  C     -0.780184    0.825451   -0.064950
  H     -0.911367    0.701795   -1.154502
  C      0.664193    1.251189    0.205636
  H      0.809454    1.398720    1.281472
  C      1.616684    0.161628   -0.292957
  H      1.534993    0.087170   -1.391688
  C      1.212477   -1.204946    0.292827
  H      2.028149   -1.544200    0.948640
  O      0.099211   -1.142433    1.142524
  O      1.023649   -2.083893   -0.774471
  O      2.941109    0.437338    0.076562
  O      0.951754    2.497946   -0.387762
  O     -1.691491    1.786301    0.411131
  O     -3.022121   -0.779500   -0.791572
  H     -2.208949   -2.317152    0.333521
  H     -1.310281   -1.770021   -1.107217
  H      0.859297   -2.969729   -0.429113
  H      3.088013    1.387144   -0.030671
  H      0.847439    2.419724   -1.345418
  H     -1.309459    2.660548    0.254852
  H     -3.443456   -0.255754   -0.099779

 Total Charge           Charge          ....    0
 Multiplicity           Mult            ....    1
 Number of Electrons    NEL             ....   96
 Basis Dimension        Dim             ....  192

ORBITAL ENERGIES
----------------

  NO   OCC          E(Eh)            E(eV)
   0   2.0000     -18.780468      -511.0425
   1   2.0000     -18.774917      -510.8915
   2   2.0000     -18.767987      -510.7029
   3   2.0000     -18.754846      -510.3453
   4   2.0000     -18.754208      -510.3279
   5   2.0000     -18.746998      -510.1318
   6   2.0000      -9.990051      -271.8431
   7   2.0000      -9.950690      -270.7721
   8   2.0000      -9.947221      -270.6776
   9   2.0000      -9.946686      -270.6631
  10   2.0000      -9.946380      -270.6548
  11   2.0000      -9.926320      -270.1089
  12   2.0000      -0.987470       -26.8704
  13   2.0000      -0.964001       -26.2318
  14   2.0000      -0.936506       -25.4836
  15   2.0000      -0.926978       -25.2244
  16   2.0000      -0.922082       -25.0911
  17   2.0000      -0.917777       -24.9740
  18   2.0000      -0.708723       -19.2853
  19   2.0000      -0.696650       -18.9568
  20   2.0000      -0.622541       -16.9402
  21   2.0000      -0.590392       -16.0654
  22   2.0000      -0.575626       -15.6636
  23   2.0000      -0.531642       -14.4667
  24   2.0000      -0.515556       -14.0290
  25   2.0000      -0.480666       -13.0796
  26   2.0000      -0.478089       -13.0095
  27   2.0000      -0.468159       -12.7393
  28   2.0000      -0.448775       -12.2118
  29   2.0000      -0.438435       -11.9304
  30   2.0000      -0.411055       -11.1854
  31   2.0000      -0.408852       -11.1254
  32   2.0000      -0.387079       -10.5330
  33   2.0000      -0.372581       -10.1384
  34   2.0000      -0.364171        -9.9096
  35   2.0000      -0.357484        -9.7276
  36   2.0000      -0.339346        -9.2341
  37   2.0000      -0.328192        -8.9306
  38   2.0000      -0.305970        -8.3259
  39   2.0000      -0.296056        -8.0561
  40   2.0000      -0.292337        -7.9549
  41   2.0000      -0.265615        -7.2277
  42   2.0000      -0.262218        -7.1353
  43   2.0000      -0.255320        -6.9476
  44   2.0000      -0.236169        -6.4265
  45   2.0000      -0.227641        -6.1944
  46   2.0000      -0.214890        -5.8474
  47   2.0000      -0.210261        -5.7215
  48   0.0000       0.004621         0.1257
  49   0.0000       0.026100         0.7102
  50   0.0000       0.032369         0.8808
  51   0.0000       0.045844         1.2475
  52   0.0000       0.052500         1.4286

MULLIKEN ATOMIC CHARGES
-----------------------
   0 C :    0.034235
   1 C :    0.020972
   2 H :    0.078288
   3 C :    0.026441
   4 H :    0.057227
   5 C :    0.018276
   6 H :    0.075776
   7 C :    0.042628
   8 H :    0.054259
   9 C :    0.206042
  10 H :    0.078305
  11 O :   -0.310519
  12 O :   -0.390922
  13 O :   -0.407225
  14 O :   -0.421527
  15 O :   -0.414945
  16 O :   -0.426764
  17 H :    0.073914
  18 H :    0.094999
  19 H :    0.305711
  20 H :    0.302312
  21 H :    0.301208
  22 H :    0.299555
  23 H :    0.301753
Sum of atomic charges:    0.0000000

LOEWDIN ATOMIC CHARGES
----------------------
   0 C :   -0.143832
   1 C :   -0.069166
   2 H :    0.119187
   3 C :   -0.081051
   4 H :    0.102287
   5 C :   -0.092985
   6 H :    0.124132
   7 C :   -0.082940
   8 H :    0.101967
   9 C :    0.004470
  10 H :    0.108438
  11 O :   -0.137919
  12 O :   -0.302354
  13 O :   -0.315624
  14 O :   -0.309726
  15 O :   -0.322805
  16 O :   -0.328108
  17 H :    0.093842
  18 H :    0.111937
  19 H :    0.287137
  20 H :    0.282690
  21 H :    0.286179
  22 H :    0.280202
  23 H :    0.284042

  Mayer bond orders larger than 0.100000
B(  0-C ,  1-C ) :   1.0645 B(  0-C , 16-O ) :   1.0598 B(  0-C , 17-H ) :   0.9164
B(  0-C , 18-H ) :   0.9014 B(  1-C ,  2-H ) :   0.8868 B(  1-C ,  3-C ) :   0.9753
B(  1-C , 11-O ) :   0.9978 B(  3-C ,  4-H ) :   0.8742 B(  3-C ,  5-C ) :   1.0236
B(  3-C , 15-O ) :   1.0727 B(  5-C ,  6-H ) :   0.8518 B(  5-C ,  7-C ) :   1.0369
B(  5-C , 14-O ) :   1.0069 B(  7-C ,  8-H ) :   0.8700 B(  7-C ,  9-C ) :   0.9868
B(  7-C , 13-O ) :   1.0953 B(  9-C , 10-H ) :   0.8909 B(  9-C , 11-O ) :   1.0764
B(  9-C , 12-O ) :   1.1105 B( 12-O , 19-H ) :   0.8369 B( 13-O , 20-H ) :   0.8355
B( 14-O , 21-H ) :   0.8453 B( 15-O , 22-H ) :   0.8307 B( 16-O , 23-H ) :   0.8432

Dispersion correction           -0.024595510
FINAL SINGLE POINT ENERGY      -685.691969621000

DIPOLE MOMENT
-------------

Method             : SCF
Type of density    : Electron Density
Multiplicity       :   1
Irrep              :   0
Energy             :  -685.8235006550867183 Eh
Relativity type    :
Basis              : AO
                                X                 Y                 Z
Electronic contribution:      1.705785744       0.708491192       1.040756188
Nuclear contribution   :     -1.556425312      -0.434833151      -1.123466571
                        -----------------------------------------
Total Dipole Moment    :      0.149360432       0.273658040      -0.082710384
                        -----------------------------------------
Magnitude (a.u.)       :      0.322549639
Magnitude (Debye)      :      0.819856026

Rotational constants in cm-1:             0.040398             0.028051             0.018994
Rotational constants in MHz :          1211.108475           840.947866           569.426253

                             ****ORCA TERMINATED NORMALLY****
TOTAL RUN TIME: 0 days 0 hours 0 minutes 15 seconds 4 msec
