                         Program Version 6.0.1  -  RELEASE   -
|  1> ! r2scan-3c def2/J RI DEFGRID2 scfconv6 printgap
|  2> %output
|  3>     printlevel normal
|  4> end
|  5> * xyz 0 1
|  6> C 2.7215902183 0.1217147173 -0.7127973607
|  7> C 1.9332985798 -0.1243407862 0.5749267295
|  8> C 0.4584064662 -0.0400128062 0.3099899225
|  9> C -0.1904226256 1.1893653383 0.2163713378
| 10> C -1.5444620012 1.2118574574 -0.0649958962
| 11> C -2.209519702 0.0082652005 -0.2445667913
| 12> C -1.4761564497 -1.161536688 -0.1300715655
| 13> N -0.182824651 -1.1880145752 0.1384285035
| 14> H 2.4533004722 -0.6198235572 -1.4612980006
| 15> H 3.789712991 0.0523832584 -0.521234858
| 16> H 2.5040101289 1.1098359316 -1.1131192657
| 17> H 2.2173316541 0.61712112 1.3246385685
| 18> H 2.1610341248 -1.1202790906 0.9550180261
| 19> H 0.3601190845 2.1063187843 0.3660265116
| 20> H -2.0745757154 2.1508311469 -0.1419311475
| 21> H -3.2654248236 -0.0200742231 -0.4646707988
| 22> H -1.9431702534 -2.1301122421 -0.257686851
| 23> *
| 24>
| 25>                          ****END OF INPUT****

CARTESIAN COORDINATES (ANGSTROEM)
---------------------------------
  C      2.721590    0.121715   -0.712797
  C      1.933299   -0.124341    0.574927
  C      0.458406   -0.040013    0.309990
  C     -0.190423    1.189365    0.216371
  C     -1.544462    1.211857   -0.064996
  C     -2.209520    0.008265   -0.244567
  C     -1.476156   -1.161537   -0.130072
  N     -0.182825   -1.188015    0.138429
  H      2.453300   -0.619824   -1.461298
  H      3.789713    0.052383   -0.521235
  H      2.504010    1.109836   -1.113119
  H      2.217332    0.617121    1.324639
  H      2.161034   -1.120279    0.955018
  H      0.360119    2.106319    0.366027
  H     -2.074576    2.150831   -0.141931
  H     -3.265425   -0.020074   -0.464671
  H     -1.943170   -2.130112   -0.257687

 Total Charge           Charge          ....    0
 Multiplicity           Mult            ....    1
 Number of Electrons    NEL             ....   58
 Basis Dimension        Dim             ....  202

ORBITAL ENERGIES
----------------

  NO   OCC          E(Eh)            E(eV)
   0   2.0000     -14.149031      -385.0147
   1   2.0000     -10.070647      -274.0362
   2   2.0000     -10.063888      -273.8523
   3   2.0000     -10.052081      -273.5310
   4   2.0000     -10.040727      -273.2221
   5   2.0000     -10.040577      -273.2180
   6   2.0000     -10.030008      -272.9304
   7   2.0000     -10.022210      -272.7182
   8   2.0000      -0.914869       -24.8949
   9   2.0000      -0.772971       -21.0336
  10   2.0000      -0.764335       -20.7986
  11   2.0000      -0.703250       -19.1364
  12   2.0000      -0.615019       -16.7355
  13   2.0000      -0.599953       -16.3256
  14   2.0000      -0.559615       -15.2279
  15   2.0000      -0.484869       -13.1940
  16   2.0000      -0.461048       -12.5458
  17   2.0000      -0.434242       -11.8163
  18   2.0000      -0.406579       -11.0636
  19   2.0000      -0.402668       -10.9572
  20   2.0000      -0.382694       -10.4136
  21   2.0000      -0.371175       -10.1002
  22   2.0000      -0.354193        -9.6381
  23   2.0000      -0.336747        -9.1633
  24   2.0000      -0.314002        -8.5444
  25   2.0000      -0.312525        -8.5042
  26   2.0000      -0.269553        -7.3349
  27   2.0000      -0.237525        -6.4634
  28   2.0000      -0.220225        -5.9926
  29   0.0000      -0.050069        -1.3624
  30   0.0000      -0.037968        -1.0332
  31   0.0000       0.076757         2.0887
  32   0.0000       0.103030         2.8036
  33   0.0000       0.104902         2.8545

MULLIKEN ATOMIC CHARGES
-----------------------
   0 C :   -0.475741
   1 C :   -0.369398
   2 C :    0.286098
   3 C :   -0.212807
   4 C :   -0.168878
   5 C :   -0.102488
   6 C :   -0.115352
   7 N :   -0.193370
   8 H :    0.158143
   9 H :    0.149059
  10 H :    0.147649
  11 H :    0.141571
  12 H :    0.169302
  13 H :    0.154689
  14 H :    0.148608
  15 H :    0.149504
  16 H :    0.133410
Sum of atomic charges:    0.0000000

LOEWDIN ATOMIC CHARGES
----------------------
   0 C :   -0.402299
   1 C :   -0.261498
   2 C :    0.132039
   3 C :   -0.142916
   4 C :   -0.122748
   5 C :   -0.158193
   6 C :    0.083939
   7 N :   -0.617317
   8 H :    0.157582
   9 H :    0.150618
  10 H :    0.151443
  11 H :    0.160449
  12 H :    0.175707
  13 H :    0.171196
  14 H :    0.168830
  15 H :    0.169405
  16 H :    0.183763

  Mayer bond orders larger than 0.100000
B(  0-C ,  1-C ) :   0.9045 B(  0-C ,  8-H ) :   0.9784 B(  0-C ,  9-H ) :   0.9704
B(  0-C , 10-H ) :   0.9796 B(  1-C ,  2-C ) :   0.8399 B(  1-C , 11-H ) :   0.9897
B(  1-C , 12-H ) :   0.9931 B(  2-C ,  3-C ) :   1.3829 B(  2-C ,  7-N ) :   1.3153
B(  3-C ,  4-C ) :   1.4563 B(  3-C , 13-H ) :   0.9119 B(  4-C ,  5-C ) :   1.3962
B(  4-C , 14-H ) :   0.9495 B(  5-C ,  6-C ) :   1.3684 B(  5-C , 15-H ) :   0.9359
B(  6-C ,  7-N ) :   1.4742 B(  6-C , 16-H ) :   0.9814

Dispersion correction           -0.005227527
FINAL SINGLE POINT ENERGY      -326.819176678763

DIPOLE MOMENT
-------------

Method             : SCF
Type of density    : Electron Density
Multiplicity       :   1
Irrep              :   0
Energy             :  -326.8212268991871383 Eh
Relativity type    :
Basis              : AO
                                X                 Y                 Z
Electronic contribution:     -6.002456158      -1.335856746       1.176848883
Nuclear contribution   :      5.817835590       2.006984478      -1.232236321
                        -----------------------------------------
Total Dipole Moment    :     -0.184620569       0.671127732      -0.055387438
                        -----------------------------------------
Magnitude (a.u.)       :      0.698258516
Magnitude (Debye)      :      1.774832100

Rotational constants in cm-1:             0.156363             0.051690             0.042756
Rotational constants in MHz :          4687.655766          1549.621506          1281.793764

                             ****ORCA TERMINATED NORMALLY****
TOTAL RUN TIME: 0 days 0 hours 0 minutes 16 seconds 536 msec
