                         Program Version 6.0.1  -  RELEASE   -
|  1> ! pbe def2-sv(p) def2/J RI DEFGRID1 loosescf d4 GCP(DFT/SV(P)) printgap
|  2> %output
|  3>     printlevel normal
|  4> end
|  5> * xyz 0 1
|  6> C -2.1932286081 -0.9969376005 0.015223343
|  7> C -1.0413679978 -0.3486367427 0.815721525
|  8> H -1.4119217947 -0.267753079 1.8469450642
|  9> C -0.71538816 1.0989236158 0.3639029611
| 10> H -1.5365092884 1.4465029389 -0.2715805942
| 11> C 0.5915035956 1.2706980453 -0.4388079128
| 12> H 0.9282594008 2.3020249634 -0.2579711602
| 13> C 1.6764966549 0.3029612318 0.0821401117
| 14> H 2.5884691302 0.3963057582 -0.5203145826
| 15> C 1.1210420591 -1.1288599896 -0.0020586918
| 16> H 1.8613661082 -1.8534006968 0.3638261153
| 17> O 0.0771096671 -1.2310723341 0.9403689797
| 18> O 0.7872542616 -1.5079811981 -1.2882996249
| 19> O 1.9915548507 0.6108056502 1.4188501924
| 20> O 0.3302737583 1.0769428967 -1.8145542875
| 21> O -0.6933658009 1.9619578868 1.4750737432
| 22> O -1.9962388997 -1.0874006261 -1.3651319577
| 23> H -3.0865034863 -0.384220074 0.1573438061
| 24> H -2.3716887593 -1.9894806023 0.4520363051
| 25> H 0.3899516485 -0.7390125137 -1.7479541759
| 26> H 1.5220341525 -0.0254565489 1.9802762401
| 27> H 1.0542181108 1.4399428268 -2.3361840023
| 28> H 0.1339572234 1.8255148319 1.9581723576
| 29> H -1.2697945635 -1.706583251 -1.5292945573
| 30> *
| 31>
| 32>                          ****END OF INPUT****

CARTESIAN COORDINATES (ANGSTROEM)
---------------------------------
  C     -2.193229   -0.996938    0.015223
  C     -1.041368   -0.348637    0.815722
  H     -1.411922   -0.267753    1.846945
  C     -0.715388    1.098924    0.363903
  H     -1.536509    1.446503   -0.271581
  C      0.591504    1.270698   -0.438808
  H      0.928259    2.302025   -0.257971
  C      1.676497    0.302961    0.082140
  H      2.588469    0.396306   -0.520315
  C      1.121042   -1.128860   -0.002059
  H      1.861366   -1.853401    0.363826
  O      0.077110   -1.231072    0.940369
  O      0.787254   -1.507981   -1.288300
  O      1.991555    0.610806    1.418850
  O      0.330274    1.076943   -1.814554
  O     -0.693366    1.961958    1.475074
  O     -1.996239   -1.087401   -1.365132
  H     -3.086503   -0.384220    0.157344
  H     -2.371689   -1.989481    0.452036
  H      0.389952   -0.739013   -1.747954
  H      1.522034   -0.025457    1.980276
  H      1.054218    1.439943   -2.336184
  H      0.133957    1.825515    1.958172
  H     -1.269795   -1.706583   -1.529295

 Total Charge           Charge          ....    0
 Multiplicity           Mult            ....    1
 Number of Electrons    NEL             ....   96
 Basis Dimension        Dim             ....  192

ORBITAL ENERGIES
----------------

  NO   OCC          E(Eh)            E(eV)
   0   2.0000     -18.792411      -511.3675
   1   2.0000     -18.779486      -511.0158
   2   2.0000     -18.775162      -510.8981
   3   2.0000     -18.768759      -510.7239
   4   2.0000     -18.750338      -510.2226
   5   2.0000     -18.744047      -510.0514
   6   2.0000      -9.997496      -272.0457
   7   2.0000      -9.961176      -271.0574
   8   2.0000      -9.958057      -270.9725
   9   2.0000      -9.951014      -270.7809
  10   2.0000      -9.946694      -270.6633
  11   2.0000      -9.931928      -270.2615
  12   2.0000      -0.996886       -27.1267
  13   2.0000      -0.964162       -26.2362
  14   2.0000      -0.950957       -25.8768
  15   2.0000      -0.932748       -25.3814
  16   2.0000      -0.922520       -25.1030
  17   2.0000      -0.919191       -25.0125
  18   2.0000      -0.709021       -19.2935
  19   2.0000      -0.698466       -19.0062
  20   2.0000      -0.627540       -17.0762
  21   2.0000      -0.605875       -16.4867
  22   2.0000      -0.574882       -15.6433
  23   2.0000      -0.529923       -14.4199
  24   2.0000      -0.524821       -14.2811
  25   2.0000      -0.495757       -13.4902
  26   2.0000      -0.478151       -13.0111
  27   2.0000      -0.471724       -12.8363
  28   2.0000      -0.452623       -12.3165
  29   2.0000      -0.446038       -12.1373
  30   2.0000      -0.429984       -11.7005
  31   2.0000      -0.402915       -10.9639
  32   2.0000      -0.391025       -10.6403
  33   2.0000      -0.383148       -10.4260
  34   2.0000      -0.371735       -10.1154
  35   2.0000      -0.354033        -9.6337
  36   2.0000      -0.344177        -9.3655
  37   2.0000      -0.326127        -8.8744
  38   2.0000      -0.311773        -8.4838
  39   2.0000      -0.304603        -8.2887
  40   2.0000      -0.291952        -7.9444
  41   2.0000      -0.285323        -7.7640
  42   2.0000      -0.277702        -7.5567
  43   2.0000      -0.260556        -7.0901
  44   2.0000      -0.249095        -6.7782
  45   2.0000      -0.230677        -6.2770
  46   2.0000      -0.222204        -6.0465
  47   2.0000      -0.202227        -5.5029
  48   0.0000      -0.005656        -0.1539
  49   0.0000       0.018792         0.5113
  50   0.0000       0.046252         1.2586
  51   0.0000       0.058046         1.5795
  52   0.0000       0.064073         1.7435

MULLIKEN ATOMIC CHARGES
-----------------------
   0 C :    0.036180
   1 C :    0.009337
   2 H :    0.076691
   3 C :    0.083011
   4 H :    0.095455
   5 C :   -0.004103
   6 H :    0.089451
   7 C :    0.016352
   8 H :    0.076401
   9 C :    0.170605
  10 H :    0.083174
  11 O :   -0.320145
  12 O :   -0.413210
  13 O :   -0.418896
  14 O :   -0.402266
  15 O :   -0.423519
  16 O :   -0.436566
  17 H :    0.091559
  18 H :    0.081651
  19 H :    0.302360
  20 H :    0.307787
  21 H :    0.318651
  22 H :    0.287035
  23 H :    0.293004
Sum of atomic charges:    0.0000000

LOEWDIN ATOMIC CHARGES
----------------------
   0 C :   -0.132668
   1 C :   -0.087461
   2 H :    0.123561
   3 C :   -0.060842
   4 H :    0.130330
   5 C :   -0.082199
   6 H :    0.114657
   7 C :   -0.095955
   8 H :    0.111460
   9 C :   -0.014728
  10 H :    0.110411
  11 O :   -0.153383
  12 O :   -0.305504
  13 O :   -0.310860
  14 O :   -0.297990
  15 O :   -0.314784
  16 O :   -0.337297
  17 H :    0.117743
  18 H :    0.101972
  19 H :    0.266340
  20 H :    0.279302
  21 H :    0.298520
  22 H :    0.268831
  23 H :    0.270543

  Mayer bond orders larger than 0.100000
B(  0-C ,  1-C ) :   1.0376 B(  0-C , 16-O ) :   1.1095 B(  0-C , 17-H ) :   0.9179
B(  0-C , 18-H ) :   0.9131 B(  1-C ,  2-H ) :   0.8851 B(  1-C ,  3-C ) :   0.9639
B(  1-C , 11-O ) :   0.9581 B(  3-C ,  4-H ) :   0.8851 B(  3-C ,  5-C ) :   0.9986
B(  3-C , 15-O ) :   1.0413 B(  5-C ,  6-H ) :   0.8998 B(  5-C ,  7-C ) :   0.9556
B(  5-C , 14-O ) :   1.0117 B(  7-C ,  8-H ) :   0.8978 B(  7-C ,  9-C ) :   1.0108
B(  7-C , 13-O ) :   1.0619 B(  9-C , 10-H ) :   0.9125 B(  9-C , 11-O ) :   1.0156
B(  9-C , 12-O ) :   1.1309 B( 12-O , 19-H ) :   0.7509 B( 13-O , 20-H ) :   0.8114
B( 14-O , 19-H ) :   0.1476 B( 14-O , 21-H ) :   0.8358 B( 15-O , 22-H ) :   0.8273
B( 16-O , 23-H ) :   0.8044

Dispersion correction           -0.026503161
FINAL SINGLE POINT ENERGY      -685.694815630658

DIPOLE MOMENT
-------------

Method             : SCF
Type of density    : Electron Density
Multiplicity       :   1
Irrep              :   0
Energy             :  -685.8315268671266267 Eh
Relativity type    :
Basis              : AO
                                X                 Y                 Z
Electronic contribution:      1.929816682      -0.198000727      -0.148597233
Nuclear contribution   :     -1.116723199       0.414289881       0.080020539
                        -----------------------------------------
Total Dipole Moment    :      0.813093483       0.216289154      -0.068576694
                        -----------------------------------------
Magnitude (a.u.)       :      0.844159211
Magnitude (Debye)      :      2.145682193

Rotational constants in cm-1:             0.039289             0.031271             0.027422
Rotational constants in MHz :          1177.862474           937.492754           822.104528

                             ****ORCA TERMINATED NORMALLY****
TOTAL RUN TIME: 0 days 0 hours 0 minutes 9 seconds 719 msec
