                         Program Version 6.0.1  -  RELEASE   -
|  1> ! pbe def2-sv(p) def2/J RI DEFGRID1 loosescf d4 GCP(DFT/SV(P)) printgap
|  2> %output
|  3>     printlevel normal
|  4> end
|  5> * xyz 0 1
|  6> C -2.6712198368 -1.6858358217 0.8311883057
|  7> C -2.3231812564 -1.0078354746 -0.4961659901
|  8> C -1.2962850407 0.0722892099 -0.2939598886
|  9> C -1.7080019852 1.3769682864 -0.1888092594
| 10> C -0.8017444434 2.4208042894 0.0397498427
| 11> C 0.5305838329 2.1533994431 0.1667643667
| 12> C 1.0051462847 0.8293778208 0.067435101
| 13> C 0.0866285185 -0.2311195264 -0.1658686332
| 14> C 0.6021393498 -1.5427455515 -0.26124079
| 15> C 1.9397443525 -1.7916179593 -0.1282489595
| 16> C 2.840301342 -0.7428793232 0.1061733922
| 17> C 2.3794992879 0.5390972045 0.1990709038
| 18> H -1.7873340408 -2.1333161981 1.2794389794
| 19> H -3.4160808898 -2.463523136 0.6768852052
| 20> H -3.0724886297 -0.9554015792 1.5302610037
| 21> H -3.2295622302 -0.5645389261 -0.9141295574
| 22> H -1.963238531 -1.7527748451 -1.2078117485
| 23> H -2.759167575 1.6115255071 -0.2847783167
| 24> H -1.1689198844 3.4341782679 0.1144905113
| 25> H 1.2408578143 2.9481457693 0.3454171964
| 26> H -0.0684572057 -2.3678220773 -0.4440655831
| 27> H 2.3122565563 -2.803160942 -0.2043867796
| 28> H 3.8940912105 -0.9573155889 0.2092442316
| 29> H 3.063241754 1.3575903168 0.3760717583
| 30> *
| 31>
| 32>                          ****END OF INPUT****

CARTESIAN COORDINATES (ANGSTROEM)
---------------------------------
  C     -2.671220   -1.685836    0.831188
  C     -2.323181   -1.007835   -0.496166
  C     -1.296285    0.072289   -0.293960
  C     -1.708002    1.376968   -0.188809
  C     -0.801744    2.420804    0.039750
  C      0.530584    2.153399    0.166764
  C      1.005146    0.829378    0.067435
  C      0.086629   -0.231120   -0.165869
  C      0.602139   -1.542746   -0.261241
  C      1.939744   -1.791618   -0.128249
  C      2.840301   -0.742879    0.106173
  C      2.379499    0.539097    0.199071
  H     -1.787334   -2.133316    1.279439
  H     -3.416081   -2.463523    0.676885
  H     -3.072489   -0.955402    1.530261
  H     -3.229562   -0.564539   -0.914130
  H     -1.963239   -1.752775   -1.207812
  H     -2.759168    1.611526   -0.284778
  H     -1.168920    3.434178    0.114491
  H      1.240858    2.948146    0.345417
  H     -0.068457   -2.367822   -0.444066
  H      2.312257   -2.803161   -0.204387
  H      3.894091   -0.957316    0.209244
  H      3.063242    1.357590    0.376072

 Total Charge           Charge          ....    0
 Multiplicity           Mult            ....    1
 Number of Electrons    NEL             ....   84
 Basis Dimension        Dim             ....  192

ORBITAL ENERGIES
----------------

  NO   OCC          E(Eh)            E(eV)
   0   2.0000      -9.902741      -269.4673
   1   2.0000      -9.902363      -269.4570
   2   2.0000      -9.901201      -269.4254
   3   2.0000      -9.892600      -269.1913
   4   2.0000      -9.892180      -269.1799
   5   2.0000      -9.891665      -269.1659
   6   2.0000      -9.891173      -269.1525
   7   2.0000      -9.890535      -269.1351
   8   2.0000      -9.889695      -269.1123
   9   2.0000      -9.888765      -269.0870
  10   2.0000      -9.888158      -269.0705
  11   2.0000      -9.879003      -268.8213
  12   2.0000      -0.795302       -21.6413
  13   2.0000      -0.746234       -20.3061
  14   2.0000      -0.717416       -19.5219
  15   2.0000      -0.673175       -18.3180
  16   2.0000      -0.664949       -18.0942
  17   2.0000      -0.637337       -17.3428
  18   2.0000      -0.568847       -15.4791
  19   2.0000      -0.554667       -15.0933
  20   2.0000      -0.548604       -14.9283
  21   2.0000      -0.512231       -13.9385
  22   2.0000      -0.461809       -12.5664
  23   2.0000      -0.450220       -12.2511
  24   2.0000      -0.444787       -12.1033
  25   2.0000      -0.409852       -11.1526
  26   2.0000      -0.397709       -10.8222
  27   2.0000      -0.385458       -10.4888
  28   2.0000      -0.375327       -10.2132
  29   2.0000      -0.366474        -9.9723
  30   2.0000      -0.359921        -9.7940
  31   2.0000      -0.351184        -9.5562
  32   2.0000      -0.340341        -9.2612
  33   2.0000      -0.328413        -8.9366
  34   2.0000      -0.318432        -8.6650
  35   2.0000      -0.306584        -8.3426
  36   2.0000      -0.293339        -7.9822
  37   2.0000      -0.289614        -7.8808
  38   2.0000      -0.278964        -7.5910
  39   2.0000      -0.251464        -6.8427
  40   2.0000      -0.223802        -6.0900
  41   2.0000      -0.193024        -5.2524
  42   0.0000      -0.067232        -1.8295
  43   0.0000      -0.038190        -1.0392
  44   0.0000      -0.003632        -0.0988
  45   0.0000       0.039822         1.0836
  46   0.0000       0.053402         1.4531

MULLIKEN ATOMIC CHARGES
-----------------------
   0 C :   -0.272917
   1 C :   -0.137009
   2 C :    0.014196
   3 C :   -0.151715
   4 C :   -0.029181
   5 C :   -0.125877
   6 C :    0.140109
   7 C :    0.124139
   8 C :   -0.157202
   9 C :   -0.039050
  10 C :   -0.037152
  11 C :   -0.130604
  12 H :    0.111404
  13 H :    0.105105
  14 H :    0.101059
  15 H :    0.085222
  16 H :    0.097153
  17 H :    0.035883
  18 H :    0.048353
  19 H :    0.036309
  20 H :    0.042407
  21 H :    0.049404
  22 H :    0.051383
  23 H :    0.038581
Sum of atomic charges:   -0.0000000

LOEWDIN ATOMIC CHARGES
----------------------
   0 C :   -0.334261
   1 C :   -0.218293
   2 C :   -0.025939
   3 C :   -0.126203
   4 C :   -0.124179
   5 C :   -0.116349
   6 C :   -0.023185
   7 C :   -0.022343
   8 C :   -0.116996
   9 C :   -0.123844
  10 C :   -0.126193
  11 C :   -0.109513
  12 H :    0.120168
  13 H :    0.119072
  14 H :    0.121092
  15 H :    0.122520
  16 H :    0.122121
  17 H :    0.120888
  18 H :    0.123741
  19 H :    0.122706
  20 H :    0.124087
  21 H :    0.123601
  22 H :    0.123987
  23 H :    0.123318

  Mayer bond orders larger than 0.100000
B(  0-C ,  1-C ) :   1.1457 B(  0-C , 12-H ) :   0.9527 B(  0-C , 13-H ) :   0.9483
B(  0-C , 14-H ) :   0.9518 B(  1-C ,  2-C ) :   1.0988 B(  1-C , 15-H ) :   0.9059
B(  1-C , 16-H ) :   0.8881 B(  2-C ,  3-C ) :   1.4849 B(  2-C ,  7-C ) :   1.2569
B(  3-C ,  4-C ) :   1.2427 B(  3-C , 17-H ) :   0.9565 B(  4-C ,  5-C ) :   1.4430
B(  4-C , 18-H ) :   0.9627 B(  5-C ,  6-C ) :   1.2385 B(  5-C , 19-H ) :   0.9667
B(  6-C ,  7-C ) :   1.2497 B(  6-C , 11-C ) :   1.2387 B(  7-C ,  8-C ) :   1.2588
B(  8-C ,  9-C ) :   1.4693 B(  8-C , 20-H ) :   0.9415 B(  9-C , 10-C ) :   1.2594
B(  9-C , 21-H ) :   0.9595 B( 10-C , 11-C ) :   1.4559 B( 10-C , 22-H ) :   0.9632
B( 11-C , 23-H ) :   0.9645

Dispersion correction           -0.029602092
FINAL SINGLE POINT ENERGY      -463.481444625330

DIPOLE MOMENT
-------------

Method             : SCF
Type of density    : Electron Density
Multiplicity       :   1
Irrep              :   0
Energy             :  -463.5418580916136762 Eh
Relativity type    :
Basis              : AO
                                X                 Y                 Z
Electronic contribution:      6.419236667       4.267605670      -1.374685647
Nuclear contribution   :     -6.524780772      -4.359122019       1.385335275
                        -----------------------------------------
Total Dipole Moment    :     -0.105544105      -0.091516349       0.010649628
                        -----------------------------------------
Magnitude (a.u.)       :      0.140100731
Magnitude (Debye)      :      0.356107757

Rotational constants in cm-1:             0.047010             0.030893             0.019619
Rotational constants in MHz :          1409.315053           926.141657           588.163043

                             ****ORCA TERMINATED NORMALLY****
TOTAL RUN TIME: 0 days 0 hours 1 minutes 21 seconds 942 msec
