                         Program Version 6.0.1  -  RELEASE   -
|  1> ! r2scan-3c def2/J RI DEFGRID2 scfconv6 printgap
|  2> %output
|  3>     printlevel normal
|  4> end
|  5> * xyz 0 1
|  6> C -2.2378599801 0.2721604561 -3.31417e-05
|  7> C -1.3398898963 1.3292047921 2.10912e-05
|  8> C 0.0180016503 1.0791937351 4.71121e-05
|  9> C 0.4891286972 -0.2346866686 4.9667e-05
| 10> C -0.4202059245 -1.2918300856 -1.20738e-05
| 11> C -1.7780310393 -1.0363126442 -5.84643e-05
| 12> C 1.9333515885 -0.494152555 0.0001268009
| 13> O 2.7945644352 0.3480636049 -0.0001413758
| 14> H -3.300057988 0.467862677 -1.36733e-05
| 15> H -1.7033257064 2.3460243864 0.000103418
| 16> H 0.7377319083 1.8841909197 0.0001127609
| 17> H -0.0556513137 -2.3093163767 -3.1017e-05
| 18> H -2.4822605309 -1.8550627473 -8.34776e-05
| 19> H 2.1913949422 -1.5730802934 0.0004760137
| 20> *
| 21>
| 22>                          ****END OF INPUT****

CARTESIAN COORDINATES (ANGSTROEM)
---------------------------------
  C     -2.237860    0.272160   -0.000033
  C     -1.339890    1.329205    0.000021
  C      0.018002    1.079194    0.000047
  C      0.489129   -0.234687    0.000050
  C     -0.420206   -1.291830   -0.000012
  C     -1.778031   -1.036313   -0.000058
  C      1.933352   -0.494153    0.000127
  O      2.794564    0.348064   -0.000141
  H     -3.300058    0.467863   -0.000014
  H     -1.703326    2.346024    0.000103
  H      0.737732    1.884191    0.000113
  H     -0.055651   -2.309316   -0.000031
  H     -2.482261   -1.855063   -0.000083
  H      2.191395   -1.573080    0.000476

 Total Charge           Charge          ....    0
 Multiplicity           Mult            ....    1
 Number of Electrons    NEL             ....   56
 Basis Dimension        Dim             ....  187

ORBITAL ENERGIES
----------------

  NO   OCC          E(Eh)            E(eV)
   0   2.0000     -18.948442      -515.6133
   1   2.0000     -10.119452      -275.3643
   2   2.0000     -10.060089      -273.7489
   3   2.0000     -10.058484      -273.7053
   4   2.0000     -10.056343      -273.6470
   5   2.0000     -10.054957      -273.6093
   6   2.0000     -10.053909      -273.5808
   7   2.0000     -10.053374      -273.5662
   8   2.0000      -1.015485       -27.6327
   9   2.0000      -0.847641       -23.0655
  10   2.0000      -0.749695       -20.4002
  11   2.0000      -0.736656       -20.0454
  12   2.0000      -0.629642       -17.1334
  13   2.0000      -0.595668       -16.2090
  14   2.0000      -0.549792       -14.9606
  15   2.0000      -0.500151       -13.6098
  16   2.0000      -0.459522       -12.5042
  17   2.0000      -0.437530       -11.9058
  18   2.0000      -0.415865       -11.3163
  19   2.0000      -0.409091       -11.1319
  20   2.0000      -0.398375       -10.8403
  21   2.0000      -0.389892       -10.6095
  22   2.0000      -0.349959        -9.5229
  23   2.0000      -0.343336        -9.3427
  24   2.0000      -0.328277        -8.9329
  25   2.0000      -0.259301        -7.0559
  26   2.0000      -0.255535        -6.9535
  27   2.0000      -0.227272        -6.1844
  28   0.0000      -0.098202        -2.6722
  29   0.0000      -0.049985        -1.3602
  30   0.0000       0.002386         0.0649
  31   0.0000       0.076766         2.0889
  32   0.0000       0.095236         2.5915

MULLIKEN ATOMIC CHARGES
-----------------------
   0 C :   -0.111203
   1 C :   -0.147343
   2 C :   -0.163984
   3 C :    0.219220
   4 C :   -0.216817
   5 C :   -0.152403
   6 C :    0.026360
   7 O :   -0.341481
   8 H :    0.151298
   9 H :    0.150658
  10 H :    0.180437
  11 H :    0.154254
  12 H :    0.149736
  13 H :    0.101270
Sum of atomic charges:    0.0000000

LOEWDIN ATOMIC CHARGES
----------------------
   0 C :   -0.138333
   1 C :   -0.155564
   2 C :   -0.102274
   3 C :   -0.102317
   4 C :   -0.133142
   5 C :   -0.160112
   6 C :    0.214171
   7 O :   -0.449517
   8 H :    0.170191
   9 H :    0.170717
  10 H :    0.187617
  11 H :    0.173479
  12 H :    0.170202
  13 H :    0.154881

  Mayer bond orders larger than 0.100000
B(  0-C ,  1-C ) :   1.3883 B(  0-C ,  5-C ) :   1.4191 B(  0-C ,  8-H ) :   0.9457
B(  1-C ,  2-C ) :   1.4261 B(  1-C ,  9-H ) :   0.9558 B(  2-C ,  3-C ) :   1.3738
B(  2-C , 10-H ) :   0.9581 B(  3-C ,  4-C ) :   1.3663 B(  3-C ,  6-C ) :   0.8328
B(  3-C ,  7-O ) :  -0.1105 B(  3-C , 13-H ) :  -0.1216 B(  4-C ,  5-C ) :   1.4367
B(  4-C , 11-H ) :   0.9309 B(  5-C , 12-H ) :   0.9507 B(  6-C ,  7-O ) :   1.9605
B(  6-C , 13-H ) :   1.0437

Dispersion correction           -0.004454963
FINAL SINGLE POINT ENERGY      -345.489408858217

DIPOLE MOMENT
-------------

Method             : SCF
Type of density    : Electron Density
Multiplicity       :   1
Irrep              :   0
Energy             :  -345.4885801109262502 Eh
Relativity type    :
Basis              : AO
                                X                 Y                 Z
Electronic contribution:      3.002249406       0.530982910      -0.000311781
Nuclear contribution   :     -4.285614270      -0.969962601       0.000527058
                        -----------------------------------------
Total Dipole Moment    :     -1.283364863      -0.438979691       0.000215277
                        -----------------------------------------
Magnitude (a.u.)       :      1.356365949
Magnitude (Debye)      :      3.447608257

Rotational constants in cm-1:             0.176962             0.052675             0.040592
Rotational constants in MHz :          5305.196239          1579.159131          1216.925721

                             ****ORCA TERMINATED NORMALLY****
TOTAL RUN TIME: 0 days 0 hours 0 minutes 21 seconds 971 msec
