                         Program Version 6.0.1  -  RELEASE   -
|  1> ! pbe def2-sv(p) def2/J RI DEFGRID1 loosescf d4 GCP(DFT/SV(P)) printgap
|  2> %output
|  3>     printlevel normal
|  4> end
|  5> * xyz 0 1
|  6> C -2.7232091872 -0.2533730229 0.29585581
|  7> C -1.4547154039 0.0970959699 -0.4785583625
|  8> C -0.7417871076 1.2899808152 0.1750572456
|  9> C 0.7419354798 1.2900743227 -0.174573547
| 10> C 1.4548903904 0.0969270563 0.478547243
| 11> C 0.504088833 -1.1085944779 0.5718722084
| 12> C -0.5041358512 -1.1086216156 -0.5716127601
| 13> C 2.7229627856 -0.2536253111 -0.2965279297
| 14> H -3.3613356194 0.62232964 0.3956553146
| 15> H -3.2859651295 -1.030224857 -0.2176431423
| 16> H -2.4754553462 -0.6114572766 1.2929078992
| 17> H -1.7477057698 0.3811223242 -1.4955699454
| 18> H -1.2070640032 2.2210137552 -0.1545851629
| 19> H -0.8501496335 1.2368069776 1.2603867282
| 20> H 0.8502724116 1.2373036419 -1.2599236955
| 21> H 1.2071942287 2.2209926107 0.1554125162
| 22> H 1.7484369876 0.3807164202 1.4954580892
| 23> H 1.0844375382 -2.033093276 0.5550767255
| 24> H -0.0368288528 -1.0830897849 1.5194089334
| 25> H 0.0367798753 -1.0833714158 -1.5191502709
| 26> H -1.0846283358 -2.0330264812 -0.5546576542
| 27> H 3.2860360194 -1.0303320202 0.2168028851
| 28> H 3.3610065378 0.6220670617 -0.3969155391
| 29> H 2.474612313 -0.6119763281 -1.2933775927
| 30> *
| 31>
| 32>                          ****END OF INPUT****

CARTESIAN COORDINATES (ANGSTROEM)
---------------------------------
  C     -2.723209   -0.253373    0.295856
  C     -1.454715    0.097096   -0.478558
  C     -0.741787    1.289981    0.175057
  C      0.741935    1.290074   -0.174574
  C      1.454890    0.096927    0.478547
  C      0.504089   -1.108594    0.571872
  C     -0.504136   -1.108622   -0.571613
  C      2.722963   -0.253625   -0.296528
  H     -3.361336    0.622330    0.395655
  H     -3.285965   -1.030225   -0.217643
  H     -2.475455   -0.611457    1.292908
  H     -1.747706    0.381122   -1.495570
  H     -1.207064    2.221014   -0.154585
  H     -0.850150    1.236807    1.260387
  H      0.850272    1.237304   -1.259924
  H      1.207194    2.220993    0.155413
  H      1.748437    0.380716    1.495458
  H      1.084438   -2.033093    0.555077
  H     -0.036829   -1.083090    1.519409
  H      0.036780   -1.083371   -1.519150
  H     -1.084628   -2.033026   -0.554658
  H      3.286036   -1.030332    0.216803
  H      3.361007    0.622067   -0.396916
  H      2.474612   -0.611976   -1.293378

 Total Charge           Charge          ....    0
 Multiplicity           Mult            ....    1
 Number of Electrons    NEL             ....   64
 Basis Dimension        Dim             ....  144

ORBITAL ENERGIES
----------------

  NO   OCC          E(Eh)            E(eV)
   0   2.0000      -9.886542      -269.0265
   1   2.0000      -9.886516      -269.0258
   2   2.0000      -9.874907      -268.7099
   3   2.0000      -9.874871      -268.7089
   4   2.0000      -9.874764      -268.7060
   5   2.0000      -9.874730      -268.7051
   6   2.0000      -9.868801      -268.5437
   7   2.0000      -9.868793      -268.5435
   8   2.0000      -0.757351       -20.6086
   9   2.0000      -0.696107       -18.9420
  10   2.0000      -0.658133       -17.9087
  11   2.0000      -0.626588       -17.0503
  12   2.0000      -0.573731       -15.6120
  13   2.0000      -0.547731       -14.9045
  14   2.0000      -0.505173       -13.7465
  15   2.0000      -0.458231       -12.4691
  16   2.0000      -0.430901       -11.7254
  17   2.0000      -0.430831       -11.7235
  18   2.0000      -0.386388       -10.5141
  19   2.0000      -0.369253       -10.0479
  20   2.0000      -0.366671        -9.9776
  21   2.0000      -0.356660        -9.7052
  22   2.0000      -0.335279        -9.1234
  23   2.0000      -0.332117        -9.0373
  24   2.0000      -0.324374        -8.8267
  25   2.0000      -0.310156        -8.4398
  26   2.0000      -0.298120        -8.1123
  27   2.0000      -0.289418        -7.8755
  28   2.0000      -0.288856        -7.8602
  29   2.0000      -0.254309        -6.9201
  30   2.0000      -0.251344        -6.8394
  31   2.0000      -0.251326        -6.8389
  32   0.0000       0.029475         0.8021
  33   0.0000       0.045044         1.2257
  34   0.0000       0.057899         1.5755
  35   0.0000       0.075008         2.0411
  36   0.0000       0.092693         2.5223

MULLIKEN ATOMIC CHARGES
-----------------------
   0 C :   -0.242308
   1 C :   -0.180974
   2 C :   -0.109853
   3 C :   -0.109838
   4 C :   -0.180947
   5 C :   -0.117735
   6 C :   -0.117772
   7 C :   -0.242351
   8 H :    0.097692
   9 H :    0.097039
  10 H :    0.095054
  11 H :    0.063990
  12 H :    0.079421
  13 H :    0.066067
  14 H :    0.066066
  15 H :    0.079425
  16 H :    0.063988
  17 H :    0.076968
  18 H :    0.074646
  19 H :    0.074652
  20 H :    0.076966
  21 H :    0.097031
  22 H :    0.097706
  23 H :    0.095067
Sum of atomic charges:   -0.0000000

LOEWDIN ATOMIC CHARGES
----------------------
   0 C :   -0.329295
   1 C :   -0.151656
   2 C :   -0.219235
   3 C :   -0.219236
   4 C :   -0.151655
   5 C :   -0.219675
   6 C :   -0.219680
   7 C :   -0.329297
   8 H :    0.116857
   9 H :    0.115537
  10 H :    0.114581
  11 H :    0.113596
  12 H :    0.116697
  13 H :    0.113341
  14 H :    0.113341
  15 H :    0.116702
  16 H :    0.113597
  17 H :    0.115973
  18 H :    0.113279
  19 H :    0.113279
  20 H :    0.115974
  21 H :    0.115537
  22 H :    0.116860
  23 H :    0.114579

  Mayer bond orders larger than 0.100000
B(  0-C ,  1-C ) :   1.1203 B(  0-C ,  8-H ) :   0.9493 B(  0-C ,  9-H ) :   0.9475
B(  0-C , 10-H ) :   0.9457 B(  1-C ,  2-C ) :   1.0997 B(  1-C ,  6-C ) :   1.0880
B(  1-C , 11-H ) :   0.8970 B(  2-C ,  3-C ) :   1.1895 B(  2-C , 12-H ) :   0.9144
B(  2-C , 13-H ) :   0.9000 B(  3-C ,  4-C ) :   1.0997 B(  3-C , 14-H ) :   0.9000
B(  3-C , 15-H ) :   0.9144 B(  4-C ,  5-C ) :   1.0881 B(  4-C ,  7-C ) :   1.1204
B(  4-C , 16-H ) :   0.8970 B(  5-C ,  6-C ) :   1.1828 B(  5-C , 17-H ) :   0.9177
B(  5-C , 18-H ) :   0.9004 B(  6-C , 19-H ) :   0.9005 B(  6-C , 20-H ) :   0.9177
B(  7-C , 21-H ) :   0.9475 B(  7-C , 22-H ) :   0.9493 B(  7-C , 23-H ) :   0.9457

Dispersion correction           -0.022512088
FINAL SINGLE POINT ENERGY      -313.696191357224

DIPOLE MOMENT
-------------

Method             : SCF
Type of density    : Electron Density
Multiplicity       :   1
Irrep              :   0
Energy             :  -313.7768326076846961 Eh
Relativity type    :
Basis              : AO
                                X                 Y                 Z
Electronic contribution:      0.000360104       0.584760791       0.000699969
Nuclear contribution   :     -0.000334716      -0.557474311      -0.000669765
                        -----------------------------------------
Total Dipole Moment    :      0.000025388       0.027286480       0.000030203
                        -----------------------------------------
Magnitude (a.u.)       :      0.027286508
Magnitude (Debye)      :      0.069356792

Rotational constants in cm-1:             0.127745             0.048010             0.040417
Rotational constants in MHz :          3829.707578          1439.299605          1211.661705

                             ****ORCA TERMINATED NORMALLY****
TOTAL RUN TIME: 0 days 0 hours 0 minutes 7 seconds 8 msec
