                         Program Version 6.0.1  -  RELEASE   -
|  1> ! r2scan-3c def2/J RI DEFGRID2 scfconv6 printgap
|  2> %output
|  3>     printlevel normal
|  4> end
|  5> * xyz 0 1
|  6> C -2.544761608 1.0056203275 -0.0001968923
|  7> C -1.2317055637 0.2832293641 0.0002538506
|  8> C -1.2004037303 -1.1084080868 0.0003477736
|  9> C 0.0058738195 -1.7809970841 -4.23169e-05
| 10> C 1.1999143908 -1.0806116168 -0.0002672048
| 11> C 1.1794955577 0.3073081664 -0.0001613063
| 12> C -0.0369938569 0.982071443 3.8386e-06
| 13> O 2.3226021663 1.0485657443 0.000193358
| 14> H -2.3975098739 2.0821848761 0.0104472497
| 15> H -3.1212059351 0.7411843653 -0.8858864855
| 16> H -3.1315168278 0.724686836 0.8734505754
| 17> H -2.1276371237 -1.6621851838 0.0004877281
| 18> H 0.023004418 -2.8610035787 -0.000200081
| 19> H 2.144897126 -1.6081501381 -0.0005636941
| 20> H -0.023917596 2.0610027855 0.0001999347
| 21> H 3.0893329624 0.4630844165 -0.0002626765
| 22> *
| 23>
| 24>                          ****END OF INPUT****

CARTESIAN COORDINATES (ANGSTROEM)
---------------------------------
  C     -2.544762    1.005620   -0.000197
  C     -1.231706    0.283229    0.000254
  C     -1.200404   -1.108408    0.000348
  C      0.005874   -1.780997   -0.000042
  C      1.199914   -1.080612   -0.000267
  C      1.179496    0.307308   -0.000161
  C     -0.036994    0.982071    0.000004
  O      2.322602    1.048566    0.000193
  H     -2.397510    2.082185    0.010447
  H     -3.121206    0.741184   -0.885886
  H     -3.131517    0.724687    0.873451
  H     -2.127637   -1.662185    0.000488
  H      0.023004   -2.861004   -0.000200
  H      2.144897   -1.608150   -0.000564
  H     -0.023918    2.061003    0.000200
  H      3.089333    0.463084   -0.000263

 Total Charge           Charge          ....    0
 Multiplicity           Mult            ....    1
 Number of Electrons    NEL             ....   58
 Basis Dimension        Dim             ....  197

ORBITAL ENERGIES
----------------

  NO   OCC          E(Eh)            E(eV)
   0   2.0000     -18.984029      -516.5817
   1   2.0000     -10.094480      -274.6848
   2   2.0000     -10.043399      -273.2948
   3   2.0000     -10.035046      -273.0675
   4   2.0000     -10.030608      -272.9467
   5   2.0000     -10.026706      -272.8406
   6   2.0000     -10.025068      -272.7960
   7   2.0000     -10.022103      -272.7153
   8   2.0000      -1.028628       -27.9904
   9   2.0000      -0.824008       -22.4224
  10   2.0000      -0.740902       -20.1610
  11   2.0000      -0.709876       -19.3167
  12   2.0000      -0.656100       -17.8534
  13   2.0000      -0.580290       -15.7905
  14   2.0000      -0.572450       -15.5772
  15   2.0000      -0.497095       -13.5267
  16   2.0000      -0.466981       -12.7072
  17   2.0000      -0.442549       -12.0424
  18   2.0000      -0.406091       -11.0503
  19   2.0000      -0.395919       -10.7735
  20   2.0000      -0.380344       -10.3497
  21   2.0000      -0.372922       -10.1477
  22   2.0000      -0.368256       -10.0208
  23   2.0000      -0.341981        -9.3058
  24   2.0000      -0.325104        -8.8465
  25   2.0000      -0.304602        -8.2886
  26   2.0000      -0.303185        -8.2501
  27   2.0000      -0.229236        -6.2378
  28   2.0000      -0.202792        -5.5183
  29   0.0000      -0.027251        -0.7415
  30   0.0000      -0.016032        -0.4362
  31   0.0000       0.059592         1.6216
  32   0.0000       0.078747         2.1428
  33   0.0000       0.108432         2.9506

MULLIKEN ATOMIC CHARGES
-----------------------
   0 C :   -0.526084
   1 C :    0.249718
   2 C :   -0.240274
   3 C :   -0.134889
   4 C :   -0.338310
   5 C :    0.418658
   6 C :   -0.381705
   7 O :   -0.412320
   8 H :    0.151866
   9 H :    0.161074
  10 H :    0.160482
  11 H :    0.146343
  12 H :    0.145215
  13 H :    0.136322
  14 H :    0.155618
  15 H :    0.308288
Sum of atomic charges:   -0.0000000

LOEWDIN ATOMIC CHARGES
----------------------
   0 C :   -0.388193
   1 C :   -0.086403
   2 C :   -0.191205
   3 C :   -0.148005
   4 C :   -0.184823
   5 C :    0.185807
   6 C :   -0.146837
   7 O :   -0.495302
   8 H :    0.159116
   9 H :    0.165406
  10 H :    0.165261
  11 H :    0.168419
  12 H :    0.167604
  13 H :    0.167749
  14 H :    0.180296
  15 H :    0.281110

  Mayer bond orders larger than 0.100000
B(  0-C ,  1-C ) :   0.7836 B(  0-C ,  8-H ) :   0.9958 B(  0-C ,  9-H ) :   0.9760
B(  0-C , 10-H ) :   0.9767 B(  1-C ,  2-C ) :   1.3678 B(  1-C ,  6-C ) :   1.4153
B(  2-C ,  3-C ) :   1.4712 B(  2-C , 11-H ) :   0.9505 B(  3-C ,  4-C ) :   1.4127
B(  3-C , 12-H ) :   0.9426 B(  4-C ,  5-C ) :   1.3549 B(  4-C , 13-H ) :   0.9378
B(  5-C ,  6-C ) :   1.4762 B(  5-C ,  7-O ) :   0.9131 B(  6-C ,  7-O ) :   0.1034
B(  6-C , 14-H ) :   0.9309 B(  7-O , 15-H ) :   0.8862

Dispersion correction           -0.004910124
FINAL SINGLE POINT ENERGY      -346.702615204207

DIPOLE MOMENT
-------------

Method             : SCF
Type of density    : Electron Density
Multiplicity       :   1
Irrep              :   0
Energy             :  -346.7031519731218623 Eh
Relativity type    :
Basis              : AO
                                X                 Y                 Z
Electronic contribution:      5.289219966      -0.308909275       0.001183497
Nuclear contribution   :     -5.167315904      -0.039998806      -0.002180677
                        -----------------------------------------
Total Dipole Moment    :      0.121904063      -0.348908080      -0.000997180
                        -----------------------------------------
Magnitude (a.u.)       :      0.369592267
Magnitude (Debye)      :      0.939428884

Rotational constants in cm-1:             0.124454             0.060310             0.040931
Rotational constants in MHz :          3731.024693          1808.042308          1227.094913

                             ****ORCA TERMINATED NORMALLY****
TOTAL RUN TIME: 0 days 0 hours 0 minutes 30 seconds 889 msec
