                         Program Version 6.0.1  -  RELEASE   -
|  1> ! pbe def2-sv(p) def2/J RI DEFGRID1 loosescf d4 GCP(DFT/SV(P)) printgap
|  2> %output
|  3>     printlevel normal
|  4> end
|  5> * xyz 0 1
|  6> C -1.7308084003 1.4484911653 -0.1523677294
|  7> C -1.6334639348 0.0010709578 0.3221174476
|  8> C -2.9565183001 -0.7513476201 0.0860990173
|  9> C -0.5097782437 -0.7332241847 -0.3978366071
| 10> Br 1.2491754183 0.0030328585 0.0329844272
| 11> H -2.5269817194 1.9643212432 0.3788298584
| 12> H -0.8001529573 1.9807173616 0.033095213
| 13> H -1.9441896269 1.4863118671 -1.2194552251
| 14> H -1.4050166916 0.0047478776 1.3932814854
| 15> H -3.3860377107 -1.0903349566 1.0246064868
| 16> H -2.808259752 -1.6232308456 -0.5476165601
| 17> H -3.6820063441 -0.1069527768 -0.4029406031
| 18> H -0.6138396929 -0.6576972178 -1.4801372578
| 19> H -0.466365811 -1.7811152519 -0.1025439881
| 20> *
| 21>
| 22>                          ****END OF INPUT****

CARTESIAN COORDINATES (ANGSTROEM)
---------------------------------
  C     -1.730808    1.448491   -0.152368
  C     -1.633464    0.001071    0.322117
  C     -2.956518   -0.751348    0.086099
  C     -0.509778   -0.733224   -0.397837
  Br     1.249175    0.003033    0.032984
  H     -2.526982    1.964321    0.378830
  H     -0.800153    1.980717    0.033095
  H     -1.944190    1.486312   -1.219455
  H     -1.405017    0.004748    1.393281
  H     -3.386038   -1.090335    1.024606
  H     -2.808260   -1.623231   -0.547617
  H     -3.682006   -0.106953   -0.402941
  H     -0.613840   -0.657697   -1.480137
  H     -0.466366   -1.781115   -0.102544

 Total Charge           Charge          ....    0
 Multiplicity           Mult            ....    1
 Number of Electrons    NEL             ....   68
 Basis Dimension        Dim             ....  106

ORBITAL ENERGIES
----------------

  NO   OCC          E(Eh)            E(eV)
   0   2.0000    -480.918705    -13086.4633
   1   2.0000     -61.761009     -1680.6025
   2   2.0000     -55.691598     -1515.4454
   3   2.0000     -55.688540     -1515.3622
   4   2.0000     -55.688461     -1515.3601
   5   2.0000      -9.937310      -270.4080
   6   2.0000      -9.908839      -269.6332
   7   2.0000      -9.884858      -268.9807
   8   2.0000      -9.876007      -268.7398
   9   2.0000      -8.386181      -228.1996
  10   2.0000      -6.267958      -170.5598
  11   2.0000      -6.253932      -170.1781
  12   2.0000      -6.253687      -170.1715
  13   2.0000      -2.469116       -67.1881
  14   2.0000      -2.465720       -67.0957
  15   2.0000      -2.465570       -67.0916
  16   2.0000      -2.454995       -66.8038
  17   2.0000      -2.454981       -66.8034
  18   2.0000      -0.756365       -20.5817
  19   2.0000      -0.697665       -18.9844
  20   2.0000      -0.619431       -16.8556
  21   2.0000      -0.596212       -16.2237
  22   2.0000      -0.511259       -13.9121
  23   2.0000      -0.430032       -11.7018
  24   2.0000      -0.401894       -10.9361
  25   2.0000      -0.396193       -10.7810
  26   2.0000      -0.368304       -10.0220
  27   2.0000      -0.352240        -9.5849
  28   2.0000      -0.327253        -8.9050
  29   2.0000      -0.308586        -8.3970
  30   2.0000      -0.298436        -8.1209
  31   2.0000      -0.294122        -8.0035
  32   2.0000      -0.232912        -6.3378
  33   2.0000      -0.230982        -6.2853
  34   0.0000      -0.020845        -0.5672
  35   0.0000       0.041603         1.1321
  36   0.0000       0.064911         1.7663
  37   0.0000       0.079208         2.1554
  38   0.0000       0.083143         2.2624

MULLIKEN ATOMIC CHARGES
-----------------------
   0 C :   -0.259389
   1 C :   -0.167271
   2 C :   -0.248688
   3 C :   -0.216212
   4 Br:   -0.119331
   5 H :    0.106922
   6 H :    0.116928
   7 H :    0.096952
   8 H :    0.092588
   9 H :    0.110108
  10 H :    0.101789
  11 H :    0.106168
  12 H :    0.136615
  13 H :    0.142820
Sum of atomic charges:   -0.0000000

LOEWDIN ATOMIC CHARGES
----------------------
   0 C :   -0.336821
   1 C :   -0.176213
   2 C :   -0.331114
   3 C :   -0.272841
   4 Br:    0.013215
   5 H :    0.120029
   6 H :    0.118527
   7 H :    0.116644
   8 H :    0.120831
   9 H :    0.127557
  10 H :    0.121506
  11 H :    0.124503
  12 H :    0.127050
  13 H :    0.127128

  Mayer bond orders larger than 0.100000
B(  0-C ,  1-C ) :   1.1248 B(  0-C ,  5-H ) :   0.9496 B(  0-C ,  6-H ) :   0.9415
B(  0-C ,  7-H ) :   0.9464 B(  1-C ,  2-C ) :   1.0677 B(  1-C ,  3-C ) :   1.0702
B(  1-C ,  8-H ) :   0.9133 B(  2-C ,  9-H ) :   0.9515 B(  2-C , 10-H ) :   0.9521
B(  2-C , 11-H ) :   0.9544 B(  3-C ,  4-Br) :   1.0427 B(  3-C , 12-H ) :   0.9173
B(  3-C , 13-H ) :   0.9239

Dispersion correction           -0.010871512
FINAL SINGLE POINT ENERGY     -2730.882839088707

DIPOLE MOMENT
-------------

Method             : SCF
Type of density    : Electron Density
Multiplicity       :   1
Irrep              :   0
Energy             : -2730.9358981590421536 Eh
Relativity type    :
Basis              : AO
                                X                 Y                 Z
Electronic contribution:     27.401870960      -0.364151185       1.095803119
Nuclear contribution   :    -28.141365072       0.137678842      -1.172086734
                        -----------------------------------------
Total Dipole Moment    :     -0.739494113      -0.226472343      -0.076283614
                        -----------------------------------------
Magnitude (a.u.)       :      0.777148927
Magnitude (Debye)      :      1.975355588

Rotational constants in cm-1:             0.251815             0.047032             0.041780
Rotational constants in MHz :          7549.217520          1409.987754          1252.546938

                             ****ORCA TERMINATED NORMALLY****
TOTAL RUN TIME: 0 days 0 hours 0 minutes 6 seconds 419 msec
