                         Program Version 6.0.0  -   RELEASE  -
|  1> ! r2SCAN-3c DEF2-TZVP FREQ
|  2> * xyzfile 0 1 censo.xyz
|  3>
|  4>                          ****END OF INPUT****

CARTESIAN COORDINATES (ANGSTROEM)
---------------------------------
  C     -1.043908   -2.932928   -0.000109
  C     -1.016661   -1.431581   -0.000019
  C     -2.187384   -0.705769    0.000047
  C     -2.187854    0.704296    0.000054
  C     -1.017619    1.430896   -0.000014
  C      0.221203    0.718012   -0.000015
  C      0.221682   -0.717869   -0.000006
  C      1.467285   -1.394872    0.000032
  C      2.656894   -0.703264    0.000057
  C      2.656424    0.705048    0.000034
  C      1.466349    1.395855   -0.000003
  C     -1.045879    2.932222   -0.000060
  H     -2.074923   -3.293760   -0.000448
  H     -0.537996   -3.345127   -0.880664
  H     -0.538540   -3.345240    0.880711
  H     -3.138517   -1.231486    0.000064
  H     -3.139340    1.229374    0.000084
  H      1.481126   -2.479311    0.000060
  H      3.598846   -1.243014    0.000100
  H      3.598014    1.245429    0.000044
  H      1.479453    2.480305   -0.000010
  H     -0.540917    3.344840    0.880852
  H     -0.540124    3.344802   -0.880527
  H     -2.077142    3.292347   -0.000527

 Total Charge           Charge          ....    0
 Multiplicity           Mult            ....    1
 Number of Electrons    NEL             ....   84
 Basis Dimension        Dim             ....  444

ORBITAL ENERGIES
----------------

  NO   OCC          E(Eh)            E(eV)
   0   2.0000     -10.043426      -273.2955
   1   2.0000     -10.043299      -273.2921
   2   2.0000     -10.043096      -273.2865
   3   2.0000     -10.042952      -273.2826
   4   2.0000     -10.036039      -273.0945
   5   2.0000     -10.035867      -273.0898
   6   2.0000     -10.035509      -273.0801
   7   2.0000     -10.035316      -273.0748
   8   2.0000     -10.031097      -272.9600
   9   2.0000     -10.030725      -272.9499
  10   2.0000     -10.030345      -272.9396
  11   2.0000     -10.030342      -272.9395
  12   2.0000      -0.840392       -22.8682
  13   2.0000      -0.789049       -21.4711
  14   2.0000      -0.764741       -20.8097
  15   2.0000      -0.705445       -19.1961
  16   2.0000      -0.702227       -19.1086
  17   2.0000      -0.686913       -18.6918
  18   2.0000      -0.622503       -16.9392
  19   2.0000      -0.586879       -15.9698
  20   2.0000      -0.580856       -15.8059
  21   2.0000      -0.531598       -14.4655
  22   2.0000      -0.475738       -12.9455
  23   2.0000      -0.474125       -12.9016
  24   2.0000      -0.452004       -12.2997
  25   2.0000      -0.420987       -11.4556
  26   2.0000      -0.404827       -11.0159
  27   2.0000      -0.399062       -10.8590
  28   2.0000      -0.386826       -10.5261
  29   2.0000      -0.382329       -10.4037
  30   2.0000      -0.381068       -10.3694
  31   2.0000      -0.364083        -9.9072
  32   2.0000      -0.353120        -9.6089
  33   2.0000      -0.345620        -9.4048
  34   2.0000      -0.345024        -9.3886
  35   2.0000      -0.335361        -9.1256
  36   2.0000      -0.298744        -8.1292
  37   2.0000      -0.298596        -8.1252
  38   2.0000      -0.293287        -7.9808
  39   2.0000      -0.252895        -6.8816
  40   2.0000      -0.228186        -6.2093
  41   2.0000      -0.195198        -5.3116
  42   0.0000      -0.066352        -1.8055
  43   0.0000      -0.037550        -1.0218
  44   0.0000       0.005445         0.1482
  45   0.0000       0.051758         1.4084
  46   0.0000       0.059451         1.6177

MULLIKEN ATOMIC CHARGES
-----------------------
   0 C :   -0.364138
   1 C :    0.067075
   2 C :   -0.148538
   3 C :   -0.148452
   4 C :    0.067036
   5 C :    0.127274
   6 C :    0.127227
   7 C :   -0.221691
   8 C :   -0.113957
   9 C :   -0.114057
  10 C :   -0.221629
  11 C :   -0.364158
  12 H :    0.108432
  13 H :    0.120446
  14 H :    0.120460
  15 H :    0.093651
  16 H :    0.093645
  17 H :    0.103874
  18 H :    0.107139
  19 H :    0.107140
  20 H :    0.103880
  21 H :    0.120465
  22 H :    0.120439
  23 H :    0.108433
Sum of atomic charges:    0.0000000

LOEWDIN ATOMIC CHARGES
----------------------
   0 C :   -0.254158
   1 C :   -0.137639
   2 C :   -0.119980
   3 C :   -0.119980
   4 C :   -0.137639
   5 C :   -0.064008
   6 C :   -0.064009
   7 C :   -0.102227
   8 C :   -0.142315
   9 C :   -0.142315
  10 C :   -0.102227
  11 C :   -0.254159
  12 H :    0.126922
  13 H :    0.129261
  14 H :    0.129263
  15 H :    0.144132
  16 H :    0.144131
  17 H :    0.148158
  18 H :    0.142592
  19 H :    0.142592
  20 H :    0.148158
  21 H :    0.129266
  22 H :    0.129259
  23 H :    0.126922

  Mayer bond orders larger than 0.100000
B(  0-C ,  1-C ) :   0.9195 B(  0-C , 12-H ) :   0.9849 B(  0-C , 13-H ) :   0.9707
B(  0-C , 14-H ) :   0.9707 B(  1-C ,  2-C ) :   1.5028 B(  1-C ,  6-C ) :   1.1424
B(  2-C ,  3-C ) :   1.2631 B(  2-C , 15-H ) :   0.9770 B(  3-C ,  4-C ) :   1.5028
B(  3-C , 16-H ) :   0.9770 B(  4-C ,  5-C ) :   1.1424 B(  4-C , 11-C ) :   0.9195
B(  5-C ,  6-C ) :   1.2351 B(  5-C , 10-C ) :   1.1927 B(  6-C ,  7-C ) :   1.1926
B(  7-C ,  8-C ) :   1.5260 B(  7-C , 17-H ) :   0.9824 B(  8-C ,  9-C ) :   1.2761
B(  8-C , 18-H ) :   0.9715 B(  9-C , 10-C ) :   1.5259 B(  9-C , 19-H ) :   0.9715
B( 10-C , 20-H ) :   0.9824 B( 11-C , 21-H ) :   0.9707 B( 11-C , 22-H ) :   0.9707
B( 11-C , 23-H ) :   0.9849

Dispersion correction           -0.009681588
FINAL SINGLE POINT ENERGY      -464.428411252316

DIPOLE MOMENT
-------------

Method             : SCF
Type of density    : Electron Density
Multiplicity       :   1
Irrep              :   0
Energy             :  -464.4259071883993784 Eh
Relativity type    :
Basis              : AO
                                X                 Y                 Z
Electronic contribution:      2.241934740       0.000757568       0.000241986
Nuclear contribution   :     -2.268223042      -0.000767192      -0.000223751
                        -----------------------------------------
Total Dipole Moment    :     -0.026288303      -0.000009623       0.000018235
                        -----------------------------------------
Magnitude (a.u.)       :      0.026288311
Magnitude (Debye)      :      0.066819576

VIBRATIONAL FREQUENCIES
-----------------------

Scaling factor for frequencies =  1.000000000  (already applied!)

     0:       0.00 cm**-1
     1:       0.00 cm**-1
     2:       0.00 cm**-1
     3:       0.00 cm**-1
     4:       0.00 cm**-1
     5:       0.00 cm**-1
     6:     125.42 cm**-1
     7:     135.14 cm**-1
     8:     184.31 cm**-1
     9:     220.22 cm**-1
    10:     222.83 cm**-1
    11:     282.84 cm**-1
    12:     311.61 cm**-1
    13:     333.95 cm**-1
    14:     421.73 cm**-1
    15:     458.85 cm**-1
    16:     476.59 cm**-1
    17:     493.97 cm**-1
    18:     515.26 cm**-1
    19:     550.34 cm**-1
    20:     577.88 cm**-1
    21:     643.35 cm**-1
    22:     708.02 cm**-1
    23:     745.54 cm**-1
    24:     758.80 cm**-1
    25:     796.83 cm**-1
    26:     815.71 cm**-1
    27:     826.84 cm**-1
    28:     867.21 cm**-1
    29:     922.63 cm**-1
    30:     939.55 cm**-1
    31:     954.10 cm**-1
    32:     963.18 cm**-1
    33:    1018.61 cm**-1
    34:    1047.33 cm**-1
    35:    1052.06 cm**-1
    36:    1055.04 cm**-1
    37:    1084.96 cm**-1
    38:    1087.75 cm**-1
    39:    1167.72 cm**-1
    40:    1181.98 cm**-1
    41:    1185.94 cm**-1
    42:    1249.23 cm**-1
    43:    1267.75 cm**-1
    44:    1298.69 cm**-1
    45:    1361.31 cm**-1
    46:    1384.33 cm**-1
    47:    1400.35 cm**-1
    48:    1402.05 cm**-1
    49:    1419.86 cm**-1
    50:    1450.43 cm**-1
    51:    1475.41 cm**-1
    52:    1475.74 cm**-1
    53:    1483.94 cm**-1
    54:    1492.87 cm**-1
    55:    1500.80 cm**-1
    56:    1544.87 cm**-1
    57:    1618.48 cm**-1
    58:    1626.42 cm**-1
    59:    1643.02 cm**-1
    60:    3002.02 cm**-1
    61:    3002.51 cm**-1
    62:    3060.55 cm**-1
    63:    3060.56 cm**-1
    64:    3102.51 cm**-1
    65:    3102.58 cm**-1
    66:    3143.56 cm**-1
    67:    3155.25 cm**-1
    68:    3159.99 cm**-1
    69:    3168.09 cm**-1
    70:    3182.47 cm**-1
    71:    3186.93 cm**-1

IR SPECTRUM
-----------

 Mode   freq       eps      Int      T**2         TX        TY        TZ
       cm**-1   L/(mol*cm) km/mol    a.u.
----------------------------------------------------------------------------
  6:    125.42   0.000185    0.93  0.000459  (-0.000017 -0.000006 -0.021430)
  7:    135.14   0.000000    0.00  0.000000  (-0.000000  0.000018  0.000010)
  8:    184.31   0.000811    4.10  0.001374  (-0.000050  0.000012  0.037065)
  9:    220.22   0.000000    0.00  0.000000  ( 0.000007 -0.000031  0.000080)
 10:    222.83   0.000167    0.84  0.000233  (-0.000039  0.000005  0.015276)
 11:    282.84   0.000062    0.31  0.000068  (-0.000006  0.008248  0.000003)
 12:    311.61   0.000107    0.54  0.000107  (-0.010359 -0.000006 -0.000012)
 13:    333.95   0.000000    0.00  0.000000  (-0.000005  0.000018  0.000001)
 14:    421.73   0.001164    5.88  0.000861  (-0.000051 -0.000006  0.029351)
 15:    458.85   0.000231    1.17  0.000157  (-0.012542 -0.000004 -0.000004)
 16:    476.59   0.000000    0.00  0.000000  (-0.000010  0.000096  0.000005)
 17:    493.97   0.000275    1.39  0.000174  (-0.000004  0.013173  0.000001)
 18:    515.26   0.000061    0.31  0.000037  ( 0.000001 -0.006068  0.000000)
 19:    550.34   0.000008    0.04  0.000005  (-0.002155 -0.000000  0.000001)
 20:    577.88   0.000415    2.10  0.000224  (-0.000009  0.000002 -0.014966)
 21:    643.35   0.000000    0.00  0.000000  (-0.000000  0.000004 -0.000001)
 22:    708.02   0.000376    1.90  0.000166  (-0.012875 -0.000005 -0.000004)
 23:    745.54   0.000000    0.00  0.000000  (-0.000000  0.000065  0.000002)
 24:    758.80   0.008862   44.78  0.003644  (-0.000009  0.000005 -0.060370)
 25:    796.83   0.000000    0.00  0.000000  ( 0.000008 -0.000002 -0.000005)
 26:    815.71   0.000287    1.45  0.000110  ( 0.000003 -0.010477 -0.000001)
 27:    826.84   0.007522   38.01  0.002839  ( 0.000008  0.000002 -0.053280)
 28:    867.21   0.000000    0.00  0.000000  (-0.000005  0.000008  0.000001)
 29:    922.63   0.000000    0.00  0.000000  ( 0.000001 -0.000019 -0.000001)
 30:    939.55   0.000084    0.42  0.000028  (-0.000000 -0.000003  0.005277)
 31:    954.10   0.000091    0.46  0.000030  (-0.005460 -0.000002  0.000001)
 32:    963.18   0.000000    0.00  0.000000  ( 0.000002  0.000011  0.000002)
 33:   1018.61   0.001665    8.42  0.000510  (-0.000008  0.022586 -0.000000)
 34:   1047.33   0.001820    9.20  0.000542  (-0.023290 -0.000008  0.000003)
 35:   1052.06   0.000000    0.00  0.000000  ( 0.000001  0.000003 -0.000005)
 36:   1055.04   0.000360    1.82  0.000107  (-0.000010 -0.000003 -0.010323)
 37:   1084.96   0.000001    0.00  0.000000  (-0.000508 -0.000001  0.000001)
 38:   1087.75   0.000001    0.01  0.000000  ( 0.000001 -0.000635 -0.000000)
 39:   1167.72   0.000338    1.71  0.000090  (-0.009502 -0.000002 -0.000000)
 40:   1181.98   0.000272    1.38  0.000072  (-0.000010  0.008477 -0.000000)
 41:   1185.94   0.000167    0.85  0.000044  (-0.006635 -0.000011 -0.000000)
 42:   1249.23   0.000217    1.09  0.000054  ( 0.007355  0.000004 -0.000002)
 43:   1267.75   0.000124    0.62  0.000030  ( 0.000000 -0.005514 -0.000000)
 44:   1298.69   0.000353    1.79  0.000085  ( 0.000004 -0.009213 -0.000001)
 45:   1361.31   0.000020    0.10  0.000005  (-0.002157  0.000001  0.000001)
 46:   1384.33   0.000178    0.90  0.000040  (-0.006332 -0.000002 -0.000003)
 47:   1400.35   0.000082    0.42  0.000018  ( 0.000004 -0.004283 -0.000001)
 48:   1402.05   0.000015    0.08  0.000003  (-0.001840 -0.000001 -0.000001)
 49:   1419.86   0.003937   19.90  0.000865  ( 0.000008 -0.029417 -0.000001)
 50:   1450.43   0.001616    8.17  0.000348  (-0.018647 -0.000005 -0.000002)
 51:   1475.41   0.000000    0.00  0.000000  (-0.000001 -0.000013  0.000087)
 52:   1475.74   0.003364   17.00  0.000711  ( 0.000005  0.000002 -0.026672)
 53:   1483.94   0.000523    2.64  0.000110  (-0.000004  0.010487 -0.000008)
 54:   1492.87   0.000040    0.20  0.000008  ( 0.000004 -0.002894 -0.000002)
 55:   1500.80   0.002670   13.49  0.000555  (-0.023562 -0.000008 -0.000010)
 56:   1544.87   0.001055    5.33  0.000213  (-0.014597 -0.000006  0.000004)
 57:   1618.48   0.000007    0.03  0.000001  (-0.001127  0.000004 -0.000002)
 58:   1626.42   0.002688   13.59  0.000516  (-0.000007  0.022711  0.000000)
 59:   1643.02   0.000039    0.20  0.000007  ( 0.000000 -0.002724 -0.000001)
 60:   3002.02   0.014020   70.85  0.001457  ( 0.000020 -0.038176 -0.000004)
 61:   3002.51   0.000006    0.03  0.000001  ( 0.000661  0.000410 -0.000011)
 62:   3060.55   0.000714    3.61  0.000073  ( 0.000001 -0.000011  0.008533)
 63:   3060.56   0.005304   26.80  0.000541  ( 0.000001 -0.000001  0.023254)
 64:   3102.51   0.000662    3.35  0.000067  (-0.002116  0.007882  0.000001)
 65:   3102.58   0.006024   30.44  0.000606  (-0.024605 -0.000686 -0.000001)
 66:   3143.56   0.003030   15.31  0.000301  (-0.000012  0.017343  0.000000)
 67:   3155.25   0.000363    1.83  0.000036  ( 0.000002 -0.005990  0.000000)
 68:   3159.99   0.005040   25.47  0.000498  ( 0.022311  0.000012 -0.000001)
 69:   3168.09   0.002196   11.10  0.000216  ( 0.014709  0.000003  0.000001)
 70:   3182.47   0.004082   20.63  0.000400  ( 0.000001  0.020006 -0.000000)
 71:   3186.93   0.002367   11.96  0.000232  ( 0.015225 -0.000003  0.000000)

--------------------------
THERMOCHEMISTRY AT 298.15K
--------------------------

Temperature         ...   298.15 K
Pressure            ...     1.00 atm
Total Mass          ...   156.23 AMU
Quasi RRHO          ...     True
Cut-Off Frequency   ...     1.00 cm^-1

Throughout the following assumptions are being made:
  (1) The electronic state is orbitally nondegenerate
  (2) There are no thermally accessible electronically excited states
  (3) Hindered rotations indicated by low frequency modes are not
      treated as such but are treated as vibrations and this may
      cause some error
  (4) All equations used are the standard statistical mechanics
      equations for an ideal gas
  (5) All vibrations are strictly harmonic

freq.     125.42  E(vib)   ...       0.43
freq.     135.14  E(vib)   ...       0.42
freq.     184.31  E(vib)   ...       0.37
freq.     220.22  E(vib)   ...       0.33
freq.     222.83  E(vib)   ...       0.33
freq.     282.84  E(vib)   ...       0.28
freq.     311.61  E(vib)   ...       0.25
freq.     333.95  E(vib)   ...       0.24
freq.     421.73  E(vib)   ...       0.18
freq.     458.85  E(vib)   ...       0.16
freq.     476.59  E(vib)   ...       0.15
freq.     493.97  E(vib)   ...       0.14
freq.     515.26  E(vib)   ...       0.13
freq.     550.34  E(vib)   ...       0.12
freq.     577.88  E(vib)   ...       0.11
freq.     643.35  E(vib)   ...       0.09
freq.     708.02  E(vib)   ...       0.07
freq.     745.54  E(vib)   ...       0.06
freq.     758.80  E(vib)   ...       0.06
freq.     796.83  E(vib)   ...       0.05
freq.     815.71  E(vib)   ...       0.05
freq.     826.84  E(vib)   ...       0.04
freq.     867.21  E(vib)   ...       0.04
freq.     922.63  E(vib)   ...       0.03
freq.     939.55  E(vib)   ...       0.03
freq.     954.10  E(vib)   ...       0.03
freq.     963.18  E(vib)   ...       0.03
freq.    1018.61  E(vib)   ...       0.02
freq.    1047.33  E(vib)   ...       0.02
freq.    1052.06  E(vib)   ...       0.02
freq.    1055.04  E(vib)   ...       0.02
freq.    1084.96  E(vib)   ...       0.02
freq.    1087.75  E(vib)   ...       0.02
freq.    1167.72  E(vib)   ...       0.01
freq.    1181.98  E(vib)   ...       0.01
freq.    1185.94  E(vib)   ...       0.01
freq.    1249.23  E(vib)   ...       0.01
freq.    1267.75  E(vib)   ...       0.01
freq.    1298.69  E(vib)   ...       0.01
freq.    1361.31  E(vib)   ...       0.01
freq.    1384.33  E(vib)   ...       0.00
freq.    1400.35  E(vib)   ...       0.00
freq.    1402.05  E(vib)   ...       0.00
freq.    1419.86  E(vib)   ...       0.00
freq.    1450.43  E(vib)   ...       0.00
freq.    1475.41  E(vib)   ...       0.00
freq.    1475.74  E(vib)   ...       0.00
freq.    1483.94  E(vib)   ...       0.00
freq.    1492.87  E(vib)   ...       0.00
freq.    1500.80  E(vib)   ...       0.00
freq.    1544.87  E(vib)   ...       0.00
freq.    1618.48  E(vib)   ...       0.00
freq.    1626.42  E(vib)   ...       0.00
freq.    1643.02  E(vib)   ...       0.00
freq.    3002.02  E(vib)   ...       0.00
freq.    3002.51  E(vib)   ...       0.00
freq.    3060.55  E(vib)   ...       0.00
freq.    3060.56  E(vib)   ...       0.00
freq.    3102.51  E(vib)   ...       0.00
freq.    3102.58  E(vib)   ...       0.00
freq.    3143.56  E(vib)   ...       0.00
freq.    3155.25  E(vib)   ...       0.00
freq.    3159.99  E(vib)   ...       0.00
freq.    3168.09  E(vib)   ...       0.00
freq.    3182.47  E(vib)   ...       0.00
freq.    3186.93  E(vib)   ...       0.00

------------
INNER ENERGY
------------

The inner energy is: U= E(el) + E(ZPE) + E(vib) + E(rot) + E(trans)
    E(el)   - is the total energy from the electronic structure calculation
              = E(kin-el) + E(nuc-el) + E(el-el) + E(nuc-nuc)
    E(ZPE)  - the the zero temperature vibrational energy from the frequency calculation
    E(vib)  - the the finite temperature correction to E(ZPE) due to population
              of excited vibrational states
    E(rot)  - is the rotational thermal energy
    E(trans)- is the translational thermal energy

Summary of contributions to the inner energy U:
Electronic energy                ...   -464.42841125 Eh
Zero point energy                ...      0.20174700 Eh     126.60 kcal/mol
Thermal vibrational correction   ...      0.00707128 Eh       4.44 kcal/mol
Thermal rotational correction    ...      0.00141627 Eh       0.89 kcal/mol
Thermal translational correction ...      0.00141627 Eh       0.89 kcal/mol
-----------------------------------------------------------------------
Total thermal energy                   -464.21676043 Eh

Summary of corrections to the electronic energy:
(perhaps to be used in another calculation)
Total thermal correction                  0.00990382 Eh       6.21 kcal/mol
Non-thermal (ZPE) correction              0.20174700 Eh     126.60 kcal/mol
-----------------------------------------------------------------------
Total correction                          0.21165082 Eh     132.81 kcal/mol

--------
ENTHALPY
--------

The enthalpy is H = U + kB*T
                kB is Boltzmann's constant
Total thermal energy              ...   -464.21676043 Eh
Thermal Enthalpy correction       ...      0.00094421 Eh       0.59 kcal/mol
-----------------------------------------------------------------------
Total Enthalpy                    ...   -464.21581623 Eh

Note: Only C1 symmetry has been detected, increase convergence thresholds
      if your molecule has a higher symmetry. Symmetry factor of 1.0 is
      used for the rotational entropy correction.

Note: Rotational entropy computed according to Herzberg
Infrared and Raman Spectra, Chapter V,1, Van Nostrand Reinhold, 1945
Point Group:  C1, Symmetry Number:   1
Rotational constants in cm-1:     0.039435     0.037310     0.019309

Vibrational entropy computed according to the QRRHO of S. Grimme
Chem.Eur.J. 2012 18 9955 using a reference frequency of 100.0 cm-1

-------
ENTROPY
-------

The entropy contributions are T*S = T*(S(el)+S(vib)+S(rot)+S(trans))
     S(el)   - electronic entropy
     S(vib)  - vibrational entropy
     S(rot)  - rotational entropy
     S(trans)- translational entropy
The entropies will be listed as multiplied by the temperature to get
units of energy

Electronic entropy                ...      0.00000000 Eh      0.00 kcal/mol
Vibrational entropy               ...      0.01139951 Eh      7.15 kcal/mol
Rotational entropy                ...      0.01445301 Eh      9.07 kcal/mol
Translational entropy             ...      0.01950311 Eh     12.24 kcal/mol
-----------------------------------------------------------------------
Final entropy term                ...      0.04535563 Eh     28.46 kcal/mol

                             ****ORCA TERMINATED NORMALLY****
TOTAL RUN TIME: 0 days 0 hours 36 minutes 0 seconds 5 msec
