                         Program Version 6.0.0  -   RELEASE  -
|  1> ! r2SCAN-3c DEF2-TZVP FREQ
|  2> * xyzfile 0 1 vacuum_censo.xyz
|  3>
|  4>                          ****END OF INPUT****

CARTESIAN COORDINATES (ANGSTROEM)
---------------------------------
  C     -1.044915   -2.930825   -0.000095
  C     -1.016133   -1.428159    0.000029
  C     -2.185732   -0.704156    0.000024
  C     -2.185700    0.704257    0.000015
  C     -1.016068    1.428205    0.000000
  C      0.221971    0.717222   -0.000013
  C      0.221939   -0.717231    0.000024
  C      1.466792   -1.392637    0.000044
  C      2.656337   -0.703374    0.000023
  C      2.656368    0.703253   -0.000050
  C      1.466855    1.392570   -0.000062
  C     -1.044779    2.930873    0.000070
  H     -2.075208   -3.293074    0.000867
  H     -0.543493   -3.343364   -0.883075
  H     -0.541756   -3.343613    0.881760
  H     -3.137090   -1.229143    0.000022
  H     -3.137034    1.229287    0.000033
  H      1.480890   -2.476847    0.000071
  H      3.597556   -1.243943    0.000068
  H      3.597612    1.243780   -0.000105
  H      1.481004    2.476778   -0.000116
  H     -0.542163    3.343579   -0.882138
  H     -2.075055    3.293172   -0.000260
  H     -0.542775    3.343446    0.882697

 Total Charge           Charge          ....    0
 Multiplicity           Mult            ....    1
 Number of Electrons    NEL             ....   84
 Basis Dimension        Dim             ....  444

ORBITAL ENERGIES
----------------

  NO   OCC          E(Eh)            E(eV)
   0   2.0000     -10.042971      -273.2831
   1   2.0000     -10.042890      -273.2809
   2   2.0000     -10.042668      -273.2749
   3   2.0000     -10.042474      -273.2696
   4   2.0000     -10.035614      -273.0829
   5   2.0000     -10.035425      -273.0778
   6   2.0000     -10.035062      -273.0679
   7   2.0000     -10.034881      -273.0630
   8   2.0000     -10.030622      -272.9471
   9   2.0000     -10.030244      -272.9368
  10   2.0000     -10.030184      -272.9352
  11   2.0000     -10.030181      -272.9351
  12   2.0000      -0.841080       -22.8870
  13   2.0000      -0.789681       -21.4883
  14   2.0000      -0.764731       -20.8094
  15   2.0000      -0.705973       -19.2105
  16   2.0000      -0.702333       -19.1114
  17   2.0000      -0.686721       -18.6866
  18   2.0000      -0.622540       -16.9402
  19   2.0000      -0.587215       -15.9789
  20   2.0000      -0.581102       -15.8126
  21   2.0000      -0.531828       -14.4718
  22   2.0000      -0.475757       -12.9460
  23   2.0000      -0.474274       -12.9057
  24   2.0000      -0.452393       -12.3102
  25   2.0000      -0.421031       -11.4568
  26   2.0000      -0.404450       -11.0056
  27   2.0000      -0.399359       -10.8671
  28   2.0000      -0.387024       -10.5315
  29   2.0000      -0.382801       -10.4165
  30   2.0000      -0.380394       -10.3511
  31   2.0000      -0.364024        -9.9056
  32   2.0000      -0.352799        -9.6002
  33   2.0000      -0.346100        -9.4179
  34   2.0000      -0.344962        -9.3869
  35   2.0000      -0.334931        -9.1139
  36   2.0000      -0.299219        -8.1422
  37   2.0000      -0.298966        -8.1353
  38   2.0000      -0.292754        -7.9662
  39   2.0000      -0.253099        -6.8872
  40   2.0000      -0.228471        -6.2170
  41   2.0000      -0.195300        -5.3144
  42   0.0000      -0.066145        -1.7999
  43   0.0000      -0.037317        -1.0154
  44   0.0000       0.005968         0.1624
  45   0.0000       0.051859         1.4112
  46   0.0000       0.059615         1.6222

MULLIKEN ATOMIC CHARGES
-----------------------
   0 C :   -0.364624
   1 C :    0.067255
   2 C :   -0.147783
   3 C :   -0.147789
   4 C :    0.067205
   5 C :    0.127010
   6 C :    0.127040
   7 C :   -0.221753
   8 C :   -0.113574
   9 C :   -0.113602
  10 C :   -0.221685
  11 C :   -0.364626
  12 H :    0.108325
  13 H :    0.120442
  14 H :    0.120380
  15 H :    0.093585
  16 H :    0.093584
  17 H :    0.103688
  18 H :    0.107041
  19 H :    0.107043
  20 H :    0.103692
  21 H :    0.120398
  22 H :    0.108325
  23 H :    0.120424
Sum of atomic charges:    0.0000000

LOEWDIN ATOMIC CHARGES
----------------------
   0 C :   -0.253871
   1 C :   -0.137371
   2 C :   -0.120106
   3 C :   -0.120106
   4 C :   -0.137372
   5 C :   -0.064502
   6 C :   -0.064502
   7 C :   -0.102015
   8 C :   -0.142432
   9 C :   -0.142432
  10 C :   -0.102015
  11 C :   -0.253871
  12 H :    0.126639
  13 H :    0.129154
  14 H :    0.129132
  15 H :    0.144349
  16 H :    0.144349
  17 H :    0.148309
  18 H :    0.142715
  19 H :    0.142715
  20 H :    0.148309
  21 H :    0.129138
  22 H :    0.126639
  23 H :    0.129148

  Mayer bond orders larger than 0.100000
B(  0-C ,  1-C ) :   0.9197 B(  0-C , 12-H ) :   0.9851 B(  0-C , 13-H ) :   0.9707
B(  0-C , 14-H ) :   0.9708 B(  1-C ,  2-C ) :   1.5039 B(  1-C ,  6-C ) :   1.1426
B(  2-C ,  3-C ) :   1.2628 B(  2-C , 15-H ) :   0.9773 B(  3-C ,  4-C ) :   1.5039
B(  3-C , 16-H ) :   0.9773 B(  4-C ,  5-C ) :   1.1426 B(  4-C , 11-C ) :   0.9198
B(  5-C ,  6-C ) :   1.2360 B(  5-C , 10-C ) :   1.1931 B(  6-C ,  7-C ) :   1.1930
B(  7-C ,  8-C ) :   1.5261 B(  7-C , 17-H ) :   0.9827 B(  8-C ,  9-C ) :   1.2762
B(  8-C , 18-H ) :   0.9716 B(  9-C , 10-C ) :   1.5261 B(  9-C , 19-H ) :   0.9716
B( 10-C , 20-H ) :   0.9826 B( 11-C , 21-H ) :   0.9708 B( 11-C , 22-H ) :   0.9851
B( 11-C , 23-H ) :   0.9707

Dispersion correction           -0.009687438
FINAL SINGLE POINT ENERGY      -464.428479330147

DIPOLE MOMENT
-------------

Method             : SCF
Type of density    : Electron Density
Multiplicity       :   1
Irrep              :   0
Energy             :  -464.4259715317975861 Eh
Relativity type    :
Basis              : AO
                                X                 Y                 Z
Electronic contribution:      2.252284965      -0.000050886       0.000121279
Nuclear contribution   :     -2.280214247       0.000051631      -0.000161675
                        -----------------------------------------
Total Dipole Moment    :     -0.027929282       0.000000745      -0.000040396
                        -----------------------------------------
Magnitude (a.u.)       :      0.027929311
Magnitude (Debye)      :      0.070990668

VIBRATIONAL FREQUENCIES
-----------------------

Scaling factor for frequencies =  1.000000000  (already applied!)

     0:       0.00 cm**-1
     1:       0.00 cm**-1
     2:       0.00 cm**-1
     3:       0.00 cm**-1
     4:       0.00 cm**-1
     5:       0.00 cm**-1
     6:     125.53 cm**-1
     7:     131.93 cm**-1
     8:     182.49 cm**-1
     9:     215.90 cm**-1
    10:     218.83 cm**-1
    11:     281.93 cm**-1
    12:     311.44 cm**-1
    13:     333.98 cm**-1
    14:     419.89 cm**-1
    15:     459.11 cm**-1
    16:     474.79 cm**-1
    17:     494.40 cm**-1
    18:     514.65 cm**-1
    19:     551.10 cm**-1
    20:     576.73 cm**-1
    21:     642.55 cm**-1
    22:     709.41 cm**-1
    23:     745.30 cm**-1
    24:     758.20 cm**-1
    25:     796.29 cm**-1
    26:     816.57 cm**-1
    27:     826.90 cm**-1
    28:     867.09 cm**-1
    29:     923.11 cm**-1
    30:     939.74 cm**-1
    31:     954.28 cm**-1
    32:     963.24 cm**-1
    33:    1017.77 cm**-1
    34:    1050.29 cm**-1
    35:    1052.64 cm**-1
    36:    1055.59 cm**-1
    37:    1085.13 cm**-1
    38:    1087.29 cm**-1
    39:    1170.00 cm**-1
    40:    1183.25 cm**-1
    41:    1187.13 cm**-1
    42:    1252.18 cm**-1
    43:    1268.98 cm**-1
    44:    1299.58 cm**-1
    45:    1366.29 cm**-1
    46:    1390.26 cm**-1
    47:    1400.35 cm**-1
    48:    1403.00 cm**-1
    49:    1421.28 cm**-1
    50:    1453.09 cm**-1
    51:    1476.67 cm**-1
    52:    1477.00 cm**-1
    53:    1484.95 cm**-1
    54:    1494.06 cm**-1
    55:    1500.65 cm**-1
    56:    1549.15 cm**-1
    57:    1623.67 cm**-1
    58:    1632.02 cm**-1
    59:    1648.76 cm**-1
    60:    3002.27 cm**-1
    61:    3002.76 cm**-1
    62:    3061.69 cm**-1
    63:    3061.70 cm**-1
    64:    3103.17 cm**-1
    65:    3103.24 cm**-1
    66:    3144.82 cm**-1
    67:    3157.14 cm**-1
    68:    3161.32 cm**-1
    69:    3169.97 cm**-1
    70:    3184.21 cm**-1
    71:    3188.77 cm**-1

IR SPECTRUM
-----------

 Mode   freq       eps      Int      T**2         TX        TY        TZ
       cm**-1   L/(mol*cm) km/mol    a.u.
----------------------------------------------------------------------------
  6:    125.53   0.000156    0.79  0.000387  ( 0.000002 -0.000049 -0.019662)
  7:    131.93   0.000000    0.00  0.000000  (-0.000014 -0.000014 -0.000017)
  8:    182.49   0.000845    4.27  0.001446  ( 0.000026  0.000077  0.038023)
  9:    215.90   0.000000    0.00  0.000000  ( 0.000063  0.000026 -0.000012)
 10:    218.83   0.000145    0.73  0.000207  (-0.000027 -0.000043 -0.014395)
 11:    281.93   0.000066    0.33  0.000073  ( 0.000000  0.008539  0.000025)
 12:    311.44   0.000108    0.54  0.000108  (-0.010381  0.000000  0.000009)
 13:    333.98   0.000000    0.00  0.000000  (-0.000043 -0.000019 -0.000009)
 14:    419.89   0.001171    5.92  0.000870  (-0.000021  0.000027 -0.029499)
 15:    459.11   0.000231    1.17  0.000157  ( 0.012520 -0.000000  0.000002)
 16:    474.79   0.000000    0.00  0.000000  ( 0.000057  0.000056  0.000017)
 17:    494.40   0.000276    1.40  0.000174  (-0.000000 -0.013208 -0.000002)
 18:    514.65   0.000058    0.29  0.000035  (-0.000000 -0.005941  0.000004)
 19:    551.10   0.000008    0.04  0.000005  ( 0.002166 -0.000000  0.000001)
 20:    576.73   0.000408    2.06  0.000221  ( 0.000003 -0.000009  0.014862)
 21:    642.55   0.000000    0.00  0.000000  ( 0.000006 -0.000013  0.000003)
 22:    709.41   0.000382    1.93  0.000168  (-0.012970  0.000000  0.000002)
 23:    745.30   0.000000    0.00  0.000000  ( 0.000000  0.000168  0.000031)
 24:    758.20   0.008855   44.75  0.003644  (-0.000002 -0.000022  0.060370)
 25:    796.29   0.000000    0.00  0.000000  ( 0.000062  0.000014  0.000022)
 26:    816.57   0.000283    1.43  0.000108  (-0.000000 -0.010403 -0.000014)
 27:    826.90   0.007485   37.83  0.002825  (-0.000001 -0.000007  0.053150)
 28:    867.09   0.000000    0.00  0.000000  (-0.000036 -0.000010 -0.000012)
 29:    923.11   0.000000    0.00  0.000000  (-0.000012 -0.000010 -0.000005)
 30:    939.74   0.000087    0.44  0.000029  (-0.000000 -0.000004  0.005360)
 31:    954.28   0.000080    0.41  0.000026  ( 0.005124 -0.000000  0.000000)
 32:    963.24   0.000000    0.00  0.000000  (-0.000002  0.000009  0.000001)
 33:   1017.77   0.001650    8.34  0.000506  ( 0.000001  0.022493 -0.000002)
 34:   1050.29   0.001845    9.32  0.000548  ( 0.023411 -0.000001  0.000004)
 35:   1052.64   0.000000    0.00  0.000000  (-0.000025  0.000010  0.000003)
 36:   1055.59   0.000355    1.79  0.000105  ( 0.000009 -0.000024 -0.010243)
 37:   1085.13   0.000000    0.00  0.000000  ( 0.000229  0.000000 -0.000001)
 38:   1087.29   0.000005    0.03  0.000001  ( 0.000000  0.001224  0.000002)
 39:   1170.00   0.000346    1.75  0.000092  (-0.009600  0.000000  0.000001)
 40:   1183.25   0.000252    1.28  0.000067  ( 0.000001  0.008159 -0.000000)
 41:   1187.13   0.000157    0.79  0.000041  (-0.006419  0.000001  0.000001)
 42:   1252.18   0.000217    1.10  0.000054  (-0.007353  0.000000 -0.000001)
 43:   1268.98   0.000132    0.67  0.000032  ( 0.000000 -0.005690 -0.000002)
 44:   1299.58   0.000343    1.73  0.000082  ( 0.000000  0.009078  0.000007)
 45:   1366.29   0.000026    0.13  0.000006  (-0.002436  0.000000 -0.000000)
 46:   1390.26   0.000133    0.67  0.000030  (-0.005461  0.000000  0.000000)
 47:   1400.35   0.000109    0.55  0.000024  ( 0.000001  0.004920  0.000005)
 48:   1403.00   0.000035    0.18  0.000008  (-0.002810  0.000001  0.000002)
 49:   1421.28   0.003968   20.05  0.000871  ( 0.000001  0.029516  0.000007)
 50:   1453.09   0.001737    8.78  0.000373  ( 0.019311 -0.000000 -0.000001)
 51:   1476.67   0.000000    0.00  0.000000  ( 0.000012 -0.000010 -0.000005)
 52:   1477.00   0.003343   16.89  0.000706  (-0.000006  0.000021 -0.026577)
 53:   1484.95   0.000460    2.32  0.000097  ( 0.000000 -0.009830  0.000082)
 54:   1494.06   0.000117    0.59  0.000025  (-0.000001 -0.004953 -0.000014)
 55:   1500.65   0.002555   12.91  0.000531  (-0.023052  0.000000  0.000011)
 56:   1549.15   0.001054    5.33  0.000212  ( 0.014574 -0.000000  0.000003)
 57:   1623.67   0.000007    0.03  0.000001  (-0.001129 -0.000001 -0.000000)
 58:   1632.02   0.002561   12.94  0.000490  ( 0.000000  0.022130  0.000002)
 59:   1648.76   0.000069    0.35  0.000013  (-0.000000 -0.003623 -0.000003)
 60:   3002.27   0.013871   70.10  0.001442  ( 0.000003  0.037971  0.000028)
 61:   3002.76   0.000002    0.01  0.000000  ( 0.000334 -0.000239  0.000012)
 62:   3061.69   0.000378    1.91  0.000039  ( 0.000003  0.000023 -0.006211)
 63:   3061.70   0.005625   28.42  0.000573  ( 0.000000  0.000030 -0.023943)
 64:   3103.17   0.000715    3.62  0.000072  (-0.000336 -0.008475 -0.000001)
 65:   3103.24   0.006155   31.11  0.000619  (-0.024879  0.000115  0.000000)
 66:   3144.82   0.003023   15.28  0.000300  (-0.000002 -0.017321 -0.000000)
 67:   3157.14   0.000353    1.78  0.000035  (-0.000001  0.005905 -0.000000)
 68:   3161.32   0.005031   25.42  0.000497  ( 0.022284 -0.000002 -0.000000)
 69:   3169.97   0.002155   10.89  0.000212  ( 0.014565  0.000001 -0.000000)
 70:   3184.21   0.004146   20.95  0.000406  (-0.000005  0.020157 -0.000001)
 71:   3188.77   0.002407   12.16  0.000236  (-0.015348 -0.000006 -0.000000)

--------------------------
THERMOCHEMISTRY AT 298.15K
--------------------------

Temperature         ...   298.15 K
Pressure            ...     1.00 atm
Total Mass          ...   156.23 AMU
Quasi RRHO          ...     True
Cut-Off Frequency   ...     1.00 cm^-1

Throughout the following assumptions are being made:
  (1) The electronic state is orbitally nondegenerate
  (2) There are no thermally accessible electronically excited states
  (3) Hindered rotations indicated by low frequency modes are not
      treated as such but are treated as vibrations and this may
      cause some error
  (4) All equations used are the standard statistical mechanics
      equations for an ideal gas
  (5) All vibrations are strictly harmonic

freq.     125.53  E(vib)   ...       0.43
freq.     131.93  E(vib)   ...       0.42
freq.     182.49  E(vib)   ...       0.37
freq.     215.90  E(vib)   ...       0.34
freq.     218.83  E(vib)   ...       0.33
freq.     281.93  E(vib)   ...       0.28
freq.     311.44  E(vib)   ...       0.25
freq.     333.98  E(vib)   ...       0.24
freq.     419.89  E(vib)   ...       0.18
freq.     459.11  E(vib)   ...       0.16
freq.     474.79  E(vib)   ...       0.15
freq.     494.40  E(vib)   ...       0.14
freq.     514.65  E(vib)   ...       0.13
freq.     551.10  E(vib)   ...       0.12
freq.     576.73  E(vib)   ...       0.11
freq.     642.55  E(vib)   ...       0.09
freq.     709.41  E(vib)   ...       0.07
freq.     745.30  E(vib)   ...       0.06
freq.     758.20  E(vib)   ...       0.06
freq.     796.29  E(vib)   ...       0.05
freq.     816.57  E(vib)   ...       0.05
freq.     826.90  E(vib)   ...       0.04
freq.     867.09  E(vib)   ...       0.04
freq.     923.11  E(vib)   ...       0.03
freq.     939.74  E(vib)   ...       0.03
freq.     954.28  E(vib)   ...       0.03
freq.     963.24  E(vib)   ...       0.03
freq.    1017.77  E(vib)   ...       0.02
freq.    1050.29  E(vib)   ...       0.02
freq.    1052.64  E(vib)   ...       0.02
freq.    1055.59  E(vib)   ...       0.02
freq.    1085.13  E(vib)   ...       0.02
freq.    1087.29  E(vib)   ...       0.02
freq.    1170.00  E(vib)   ...       0.01
freq.    1183.25  E(vib)   ...       0.01
freq.    1187.13  E(vib)   ...       0.01
freq.    1252.18  E(vib)   ...       0.01
freq.    1268.98  E(vib)   ...       0.01
freq.    1299.58  E(vib)   ...       0.01
freq.    1366.29  E(vib)   ...       0.01
freq.    1390.26  E(vib)   ...       0.00
freq.    1400.35  E(vib)   ...       0.00
freq.    1403.00  E(vib)   ...       0.00
freq.    1421.28  E(vib)   ...       0.00
freq.    1453.09  E(vib)   ...       0.00
freq.    1476.67  E(vib)   ...       0.00
freq.    1477.00  E(vib)   ...       0.00
freq.    1484.95  E(vib)   ...       0.00
freq.    1494.06  E(vib)   ...       0.00
freq.    1500.65  E(vib)   ...       0.00
freq.    1549.15  E(vib)   ...       0.00
freq.    1623.67  E(vib)   ...       0.00
freq.    1632.02  E(vib)   ...       0.00
freq.    1648.76  E(vib)   ...       0.00
freq.    3002.27  E(vib)   ...       0.00
freq.    3002.76  E(vib)   ...       0.00
freq.    3061.69  E(vib)   ...       0.00
freq.    3061.70  E(vib)   ...       0.00
freq.    3103.17  E(vib)   ...       0.00
freq.    3103.24  E(vib)   ...       0.00
freq.    3144.82  E(vib)   ...       0.00
freq.    3157.14  E(vib)   ...       0.00
freq.    3161.32  E(vib)   ...       0.00
freq.    3169.97  E(vib)   ...       0.00
freq.    3184.21  E(vib)   ...       0.00
freq.    3188.77  E(vib)   ...       0.00

------------
INNER ENERGY
------------

The inner energy is: U= E(el) + E(ZPE) + E(vib) + E(rot) + E(trans)
    E(el)   - is the total energy from the electronic structure calculation
              = E(kin-el) + E(nuc-el) + E(el-el) + E(nuc-nuc)
    E(ZPE)  - the the zero temperature vibrational energy from the frequency calculation
    E(vib)  - the the finite temperature correction to E(ZPE) due to population
              of excited vibrational states
    E(rot)  - is the rotational thermal energy
    E(trans)- is the translational thermal energy

Summary of contributions to the inner energy U:
Electronic energy                ...   -464.42847933 Eh
Zero point energy                ...      0.20186261 Eh     126.67 kcal/mol
Thermal vibrational correction   ...      0.00709496 Eh       4.45 kcal/mol
Thermal rotational correction    ...      0.00141627 Eh       0.89 kcal/mol
Thermal translational correction ...      0.00141627 Eh       0.89 kcal/mol
-----------------------------------------------------------------------
Total thermal energy                   -464.21668922 Eh

Summary of corrections to the electronic energy:
(perhaps to be used in another calculation)
Total thermal correction                  0.00992750 Eh       6.23 kcal/mol
Non-thermal (ZPE) correction              0.20186261 Eh     126.67 kcal/mol
-----------------------------------------------------------------------
Total correction                          0.21179011 Eh     132.90 kcal/mol

--------
ENTHALPY
--------

The enthalpy is H = U + kB*T
                kB is Boltzmann's constant
Total thermal energy              ...   -464.21668922 Eh
Thermal Enthalpy correction       ...      0.00094421 Eh       0.59 kcal/mol
-----------------------------------------------------------------------
Total Enthalpy                    ...   -464.21574501 Eh

Note: Only C1 symmetry has been detected, increase convergence thresholds
      if your molecule has a higher symmetry. Symmetry factor of 1.0 is
      used for the rotational entropy correction.

Note: Rotational entropy computed according to Herzberg
Infrared and Raman Spectra, Chapter V,1, Van Nostrand Reinhold, 1945
Point Group:  C1, Symmetry Number:   1
Rotational constants in cm-1:     0.039508     0.037335     0.019334

Vibrational entropy computed according to the QRRHO of S. Grimme
Chem.Eur.J. 2012 18 9955 using a reference frequency of 100.0 cm-1

-------
ENTROPY
-------

The entropy contributions are T*S = T*(S(el)+S(vib)+S(rot)+S(trans))
     S(el)   - electronic entropy
     S(vib)  - vibrational entropy
     S(rot)  - rotational entropy
     S(trans)- translational entropy
The entropies will be listed as multiplied by the temperature to get
units of energy

Electronic entropy                ...      0.00000000 Eh      0.00 kcal/mol
Vibrational entropy               ...      0.01146252 Eh      7.19 kcal/mol
Rotational entropy                ...      0.01445123 Eh      9.07 kcal/mol
Translational entropy             ...      0.01950311 Eh     12.24 kcal/mol
-----------------------------------------------------------------------
Final entropy term                ...      0.04541686 Eh     28.50 kcal/mol

                             ****ORCA TERMINATED NORMALLY****
TOTAL RUN TIME: 0 days 0 hours 35 minutes 9 seconds 30 msec
