                         Program Version 6.0.1  -  RELEASE   -
|  1> ! r2scan-3c def2/J RI DEFGRID2 scfconv6 printgap
|  2> %output
|  3>     printlevel normal
|  4> end
|  5> * xyz 0 1
|  6> C 3.7482443472 -0.2020492622 -0.0522772359
|  7> C 2.286591739 -0.171038454 0.3833095533
|  8> H 2.24627229 -0.0156425333 1.4677520317
|  9> C 1.5747451528 -1.4777334344 0.0508628571
| 10> C 0.1275922528 -1.4079967581 0.5181820417
| 11> C -0.6772654879 -0.2813651246 -0.1478617275
| 12> H -0.7080200884 -0.449937429 -1.2299647914
| 13> C 0.0570670131 1.0600716802 0.0669716365
| 14> H -0.0350035318 1.3508868069 1.127724614
| 15> C 1.5406979788 0.9611702471 -0.3081958585
| 16> O -0.4213285018 2.096609792 -0.767270879
| 17> C -2.1245710393 -0.3552815951 0.4064172788
| 18> C -2.9599736256 0.9236983623 0.3147925437
| 19> C -2.8961417399 -1.4678992185 -0.3082634069
| 20> H 4.277977598 -1.0109437665 0.4463255676
| 21> H 3.8203758276 -0.3552346785 -1.1268358386
| 22> H 4.2410395158 0.7356054601 0.1937448568
| 23> H 1.6101518746 -1.647148526 -1.0273910939
| 24> H 2.0755471633 -2.3164511507 0.5398146517
| 25> H -0.3579184434 -2.3652003286 0.3245483437
| 26> H 0.1192855138 -1.2470037376 1.5999820143
| 27> H 1.5899332066 0.8243860809 -1.3904106524
| 28> H 2.002341708 1.9234819014 -0.0809211636
| 29> H -1.3497002112 2.2608259842 -0.5818726609
| 30> H -2.0533534673 -0.6126559641 1.4701102952
| 31> H -3.9542257972 0.7231865492 0.7122765842
| 32> H -3.0813580839 1.241122751 -0.719720287
| 33> H -2.5355731062 1.7287150951 0.9117439075
| 34> H -3.8789441144 -1.5941985291 0.1409622404
| 35> H -2.3770332369 -2.4200915685 -0.250500339
| 36> H -3.0311801846 -1.2152693979 -1.3581469297
| 37> *
| 38>
| 39>                          ****END OF INPUT****

CARTESIAN COORDINATES (ANGSTROEM)
---------------------------------
  C      3.748244   -0.202049   -0.052277
  C      2.286592   -0.171038    0.383310
  H      2.246272   -0.015643    1.467752
  C      1.574745   -1.477733    0.050863
  C      0.127592   -1.407997    0.518182
  C     -0.677265   -0.281365   -0.147862
  H     -0.708020   -0.449937   -1.229965
  C      0.057067    1.060072    0.066972
  H     -0.035004    1.350887    1.127725
  C      1.540698    0.961170   -0.308196
  O     -0.421329    2.096610   -0.767271
  C     -2.124571   -0.355282    0.406417
  C     -2.959974    0.923698    0.314793
  C     -2.896142   -1.467899   -0.308263
  H      4.277978   -1.010944    0.446326
  H      3.820376   -0.355235   -1.126836
  H      4.241040    0.735605    0.193745
  H      1.610152   -1.647149   -1.027391
  H      2.075547   -2.316451    0.539815
  H     -0.357918   -2.365200    0.324548
  H      0.119286   -1.247004    1.599982
  H      1.589933    0.824386   -1.390411
  H      2.002342    1.923482   -0.080921
  H     -1.349700    2.260826   -0.581873
  H     -2.053353   -0.612656    1.470110
  H     -3.954226    0.723187    0.712277
  H     -3.081358    1.241123   -0.719720
  H     -2.535573    1.728715    0.911744
  H     -3.878944   -1.594199    0.140962
  H     -2.377033   -2.420092   -0.250500
  H     -3.031180   -1.215269   -1.358147

 Total Charge           Charge          ....    0
 Multiplicity           Mult            ....    1
 Number of Electrons    NEL             ....   88
 Basis Dimension        Dim             ....  314

ORBITAL ENERGIES
----------------

  NO   OCC          E(Eh)            E(eV)
   0   2.0000     -18.937649      -515.3196
   1   2.0000     -10.074819      -274.1498
   2   2.0000     -10.039751      -273.1955
   3   2.0000     -10.029737      -272.9230
   4   2.0000     -10.028971      -272.9022
   5   2.0000     -10.027976      -272.8751
   6   2.0000     -10.023929      -272.7650
   7   2.0000     -10.020013      -272.6584
   8   2.0000     -10.018654      -272.6214
   9   2.0000     -10.015062      -272.5237
  10   2.0000     -10.013045      -272.4688
  11   2.0000      -0.979971       -26.6664
  12   2.0000      -0.804878       -21.9019
  13   2.0000      -0.772149       -21.0112
  14   2.0000      -0.715738       -19.4762
  15   2.0000      -0.696676       -18.9575
  16   2.0000      -0.657119       -17.8811
  17   2.0000      -0.641849       -17.4656
  18   2.0000      -0.570209       -15.5162
  19   2.0000      -0.567332       -15.4379
  20   2.0000      -0.534039       -14.5319
  21   2.0000      -0.523611       -14.2482
  22   2.0000      -0.471826       -12.8390
  23   2.0000      -0.445411       -12.1202
  24   2.0000      -0.427758       -11.6399
  25   2.0000      -0.413311       -11.2468
  26   2.0000      -0.410290       -11.1646
  27   2.0000      -0.399303       -10.8656
  28   2.0000      -0.383602       -10.4383
  29   2.0000      -0.372599       -10.1389
  30   2.0000      -0.367306        -9.9949
  31   2.0000      -0.359671        -9.7872
  32   2.0000      -0.350078        -9.5261
  33   2.0000      -0.340999        -9.2790
  34   2.0000      -0.325798        -8.8654
  35   2.0000      -0.316876        -8.6226
  36   2.0000      -0.311484        -8.4759
  37   2.0000      -0.308205        -8.3867
  38   2.0000      -0.295059        -8.0290
  39   2.0000      -0.290880        -7.9152
  40   2.0000      -0.286505        -7.7962
  41   2.0000      -0.274002        -7.4560
  42   2.0000      -0.257636        -7.0106
  43   2.0000      -0.226188        -6.1549
  44   0.0000       0.069897         1.9020
  45   0.0000       0.077170         2.0999
  46   0.0000       0.092060         2.5051
  47   0.0000       0.098225         2.6728
  48   0.0000       0.111409         3.0316

MULLIKEN ATOMIC CHARGES
-----------------------
   0 C :   -0.500477
   1 C :   -0.047383
   2 H :    0.160804
   3 C :   -0.333171
   4 C :   -0.366688
   5 C :   -0.059906
   6 H :    0.190905
   7 C :   -0.086183
   8 H :    0.157792
   9 C :   -0.353111
  10 O :   -0.416259
  11 C :   -0.018429
  12 C :   -0.535903
  13 C :   -0.516851
  14 H :    0.146645
  15 H :    0.150534
  16 H :    0.148163
  17 H :    0.157418
  18 H :    0.147755
  19 H :    0.139336
  20 H :    0.163152
  21 H :    0.165499
  22 H :    0.153919
  23 H :    0.281662
  24 H :    0.153451
  25 H :    0.153815
  26 H :    0.165665
  27 H :    0.149187
  28 H :    0.147429
  29 H :    0.141358
  30 H :    0.159871
Sum of atomic charges:   -0.0000000

LOEWDIN ATOMIC CHARGES
----------------------
   0 C :   -0.411969
   1 C :   -0.234687
   2 H :    0.157744
   3 C :   -0.293615
   4 C :   -0.288107
   5 C :   -0.197493
   6 H :    0.173632
   7 C :    0.073348
   8 H :    0.165979
   9 C :   -0.248383
  10 O :   -0.620251
  11 C :   -0.231801
  12 C :   -0.417020
  13 C :   -0.412733
  14 H :    0.152569
  15 H :    0.154554
  16 H :    0.153992
  17 H :    0.159548
  18 H :    0.157854
  19 H :    0.158680
  20 H :    0.159420
  21 H :    0.172328
  22 H :    0.169237
  23 H :    0.261573
  24 H :    0.160442
  25 H :    0.158212
  26 H :    0.154869
  27 H :    0.152601
  28 H :    0.152229
  29 H :    0.152422
  30 H :    0.154827

  Mayer bond orders larger than 0.100000
B(  0-C ,  1-C ) :   0.8894 B(  0-C , 14-H ) :   0.9765 B(  0-C , 15-H ) :   0.9953
B(  0-C , 16-H ) :   0.9780 B(  1-C ,  2-H ) :   0.9648 B(  1-C ,  3-C ) :   0.9026
B(  1-C ,  9-C ) :   0.8895 B(  3-C ,  4-C ) :   0.8789 B(  3-C , 17-H ) :   1.0190
B(  3-C , 18-H ) :   0.9479 B(  4-C ,  5-C ) :   0.9046 B(  4-C , 19-H ) :   0.9286
B(  4-C , 20-H ) :   1.0097 B(  5-C ,  6-H ) :   0.9793 B(  5-C ,  7-C ) :   0.8447
B(  5-C , 11-C ) :   0.8593 B(  7-C ,  8-H ) :   0.9831 B(  7-C ,  9-C ) :   0.9195
B(  7-C , 10-O ) :   0.8527 B(  9-C , 21-H ) :   1.0216 B(  9-C , 22-H ) :   0.9405
B( 10-O , 23-H ) :   0.8748 B( 11-C , 12-C ) :   0.8445 B( 11-C , 13-C ) :   0.9102
B( 11-C , 24-H ) :   0.9658 B( 12-C , 25-H ) :   0.9622 B( 12-C , 26-H ) :   0.9905
B( 12-C , 27-H ) :   0.9634 B( 13-C , 28-H ) :   0.9750 B( 13-C , 29-H ) :   0.9674
B( 13-C , 30-H ) :   0.9933

Dispersion correction           -0.010738666
FINAL SINGLE POINT ENERGY      -468.204419294900

DIPOLE MOMENT
-------------

Method             : SCF
Type of density    : Electron Density
Multiplicity       :   1
Irrep              :   0
Energy             :  -468.2092839621896019 Eh
Relativity type    :
Basis              : AO
                                X                 Y                 Z
Electronic contribution:      0.920157282       3.753600930      -0.664263518
Nuclear contribution   :     -1.300341837      -4.154575145       1.085537569
                        -----------------------------------------
Total Dipole Moment    :     -0.380184556      -0.400974214       0.421274051
                        -----------------------------------------
Magnitude (a.u.)       :      0.694832673
Magnitude (Debye)      :      1.766124297

Rotational constants in cm-1:             0.063067             0.023048             0.018110
Rotational constants in MHz :          1890.698115           690.954494           542.934345

                             ****ORCA TERMINATED NORMALLY****
TOTAL RUN TIME: 0 days 0 hours 0 minutes 40 seconds 656 msec
