                         Program Version 6.0.1  -  RELEASE   -
|  1> ! pbe def2-sv(p) def2/J RI DEFGRID1 loosescf d4 GCP(DFT/SV(P)) printgap
|  2> %output
|  3>     printlevel normal
|  4> end
|  5> * xyz 0 1
|  6> C -3.0705162527 -0.0098079037 -0.7451846816
|  7> O -2.3315352853 -0.1688571697 0.4439868041
|  8> C -0.9579301638 -0.0815790949 0.2602711191
|  9> C -0.2120019685 -1.2258455544 0.008451411
| 10> C 1.1583231462 -1.1461222672 -0.1335124389
| 11> C 1.813433889 0.0817383226 -0.0351244899
| 12> C 1.055849016 1.2259457734 0.2166835263
| 13> C -0.3144165653 1.1454255661 0.3586135738
| 14> N 3.1747522445 0.1727562774 -0.2533129523
| 15> H -2.8911533366 0.9717817792 -1.1997928975
| 16> H -4.1201230182 -0.0954121768 -0.4686783916
| 17> H -2.8210407828 -0.7866172263 -1.4778539191
| 18> H -0.7140672515 -2.1793015394 -0.061084252
| 19> H 1.7350832395 -2.0401254439 -0.3237924485
| 20> H 1.5527469884 2.1821379073 0.2997913925
| 21> H -0.8956593523 2.0327039707 0.5609880338
| 22> H 3.6284249853 0.9948766273 0.1110428981
| 23> H 3.7005777111 -0.6782950698 -0.1363763028
| 24> *
| 25>
| 26>                          ****END OF INPUT****

CARTESIAN COORDINATES (ANGSTROEM)
---------------------------------
  C     -3.070516   -0.009808   -0.745185
  O     -2.331535   -0.168857    0.443987
  C     -0.957930   -0.081579    0.260271
  C     -0.212002   -1.225846    0.008451
  C      1.158323   -1.146122   -0.133512
  C      1.813434    0.081738   -0.035124
  C      1.055849    1.225946    0.216684
  C     -0.314417    1.145426    0.358614
  N      3.174752    0.172756   -0.253313
  H     -2.891153    0.971782   -1.199793
  H     -4.120123   -0.095412   -0.468678
  H     -2.821041   -0.786617   -1.477854
  H     -0.714067   -2.179302   -0.061084
  H      1.735083   -2.040125   -0.323792
  H      1.552747    2.182138    0.299791
  H     -0.895659    2.032704    0.560988
  H      3.628425    0.994877    0.111043
  H      3.700578   -0.678295   -0.136376

 Total Charge           Charge          ....    0
 Multiplicity           Mult            ....    1
 Number of Electrons    NEL             ....   66
 Basis Dimension        Dim             ....  144

ORBITAL ENERGIES
----------------

  NO   OCC          E(Eh)            E(eV)
   0   2.0000     -18.751701      -510.2597
   1   2.0000     -13.995066      -380.8251
   2   2.0000      -9.927823      -270.1498
   3   2.0000      -9.923899      -270.0430
   4   2.0000      -9.922599      -270.0076
   5   2.0000      -9.883270      -268.9374
   6   2.0000      -9.883236      -268.9365
   7   2.0000      -9.882691      -268.9217
   8   2.0000      -9.882613      -268.9196
   9   2.0000      -0.936757       -25.4904
  10   2.0000      -0.835129       -22.7250
  11   2.0000      -0.751850       -20.4589
  12   2.0000      -0.666650       -18.1405
  13   2.0000      -0.654037       -17.7973
  14   2.0000      -0.600100       -16.3296
  15   2.0000      -0.553339       -15.0571
  16   2.0000      -0.523126       -14.2350
  17   2.0000      -0.474901       -12.9227
  18   2.0000      -0.468497       -12.7485
  19   2.0000      -0.447192       -12.1687
  20   2.0000      -0.402263       -10.9461
  21   2.0000      -0.398254       -10.8370
  22   2.0000      -0.387023       -10.5314
  23   2.0000      -0.374163       -10.1815
  24   2.0000      -0.365526        -9.9465
  25   2.0000      -0.350454        -9.5363
  26   2.0000      -0.338513        -9.2114
  27   2.0000      -0.301507        -8.2044
  28   2.0000      -0.290185        -7.8963
  29   2.0000      -0.255657        -6.9568
  30   2.0000      -0.223644        -6.0857
  31   2.0000      -0.207535        -5.6473
  32   2.0000      -0.167095        -4.5469
  33   0.0000      -0.028005        -0.7621
  34   0.0000      -0.005667        -0.1542
  35   0.0000       0.032923         0.8959
  36   0.0000       0.054699         1.4884
  37   0.0000       0.065008         1.7689

MULLIKEN ATOMIC CHARGES
-----------------------
   0 C :   -0.075987
   1 O :   -0.310126
   2 C :    0.217989
   3 C :   -0.122557
   4 C :   -0.133276
   5 C :    0.179565
   6 C :   -0.133425
   7 C :   -0.122653
   8 N :   -0.342475
   9 H :    0.085717
  10 H :    0.111844
  11 H :    0.085758
  12 H :    0.036938
  13 H :    0.022019
  14 H :    0.021844
  15 H :    0.037066
  16 H :    0.220877
  17 H :    0.220883
Sum of atomic charges:   -0.0000000

LOEWDIN ATOMIC CHARGES
----------------------
   0 C :   -0.199214
   1 O :   -0.138060
   2 C :    0.000130
   3 C :   -0.131052
   4 C :   -0.158394
   5 C :   -0.012968
   6 C :   -0.158296
   7 C :   -0.131152
   8 N :   -0.319530
   9 H :    0.097522
  10 H :    0.113275
  11 H :    0.097635
  12 H :    0.127363
  13 H :    0.118675
  14 H :    0.118633
  15 H :    0.127321
  16 H :    0.224050
  17 H :    0.224061

  Mayer bond orders larger than 0.100000
B(  0-C ,  1-O ) :   0.9991 B(  0-C ,  9-H ) :   0.9428 B(  0-C , 10-H ) :   0.9620
B(  0-C , 11-H ) :   0.9428 B(  1-O ,  2-C ) :   1.0213 B(  2-C ,  3-C ) :   1.3700
B(  2-C ,  7-C ) :   1.3695 B(  3-C ,  4-C ) :   1.3426 B(  3-C , 12-H ) :   0.9620
B(  4-C ,  5-C ) :   1.3210 B(  4-C , 13-H ) :   0.9611 B(  5-C ,  6-C ) :   1.3203
B(  5-C ,  8-N ) :   1.2250 B(  6-C ,  7-C ) :   1.3431 B(  6-C , 14-H ) :   0.9613
B(  7-C , 15-H ) :   0.9616 B(  8-N , 16-H ) :   0.8840 B(  8-N , 17-H ) :   0.8841

Dispersion correction           -0.017641011
FINAL SINGLE POINT ENERGY      -401.244240513263

DIPOLE MOMENT
-------------

Method             : SCF
Type of density    : Electron Density
Multiplicity       :   1
Irrep              :   0
Energy             :  -401.3039149297598556 Eh
Relativity type    :
Basis              : AO
                                X                 Y                 Z
Electronic contribution:      1.613076643      -0.305275832       2.326958451
Nuclear contribution   :     -0.791316715       0.375354341      -2.523887296
                        -----------------------------------------
Total Dipole Moment    :      0.821759927       0.070078509      -0.196928846
                        -----------------------------------------
Magnitude (a.u.)       :      0.847927677
Magnitude (Debye)      :      2.155260874

Rotational constants in cm-1:             0.157137             0.033186             0.028975
Rotational constants in MHz :          4710.834762           994.900206           868.645613

                             ****ORCA TERMINATED NORMALLY****
TOTAL RUN TIME: 0 days 0 hours 0 minutes 10 seconds 574 msec
