                         Program Version 6.0.0  -   RELEASE  -
|  1> ! r2SCAN-3c DEF2-TZVP FREQ
|  2> * xyzfile 0 1 censo.xyz
|  3>
|  4>                          ****END OF INPUT****

CARTESIAN COORDINATES (ANGSTROEM)
---------------------------------
  C     -0.545943    1.352469    0.000045
  C      0.158850    0.196982    0.000041
  C     -0.517626   -1.082904    0.000042
  O      0.010291   -2.191423    0.000033
  N     -1.911376   -0.964105    0.000011
  C     -2.662772    0.191426   -0.000001
  O     -3.889929    0.195232   -0.000034
  N     -1.908300    1.345124    0.000029
  Br     2.048998    0.216645    0.000059
  H     -0.084192    2.332662    0.000058
  H     -2.437125   -1.832607   -0.000009
  H     -2.413589    2.223001    0.000023

 Total Charge           Charge          ....    0
 Multiplicity           Mult            ....    1
 Number of Electrons    NEL             ....   92
 Basis Dimension        Dim             ....  314

ORBITAL ENERGIES
----------------

  NO   OCC          E(Eh)            E(eV)
   0   2.0000    -482.246640    -13122.5982
   1   2.0000     -62.317048     -1695.7331
   2   2.0000     -56.098605     -1526.5206
   3   2.0000     -56.094234     -1526.4017
   4   2.0000     -56.093895     -1526.3925
   5   2.0000     -18.946751      -515.5673
   6   2.0000     -18.944959      -515.5186
   7   2.0000     -14.256956      -387.9515
   8   2.0000     -14.237021      -387.4090
   9   2.0000     -10.198892      -277.5260
  10   2.0000     -10.169328      -276.7215
  11   2.0000     -10.136094      -275.8171
  12   2.0000     -10.118163      -275.3292
  13   2.0000      -8.649957      -235.3773
  14   2.0000      -6.457144      -175.7078
  15   2.0000      -6.444101      -175.3529
  16   2.0000      -6.443555      -175.3380
  17   2.0000      -2.554676       -69.5163
  18   2.0000      -2.551796       -69.4379
  19   2.0000      -2.551348       -69.4257
  20   2.0000      -2.541246       -69.1508
  21   2.0000      -2.541235       -69.1505
  22   2.0000      -1.058146       -28.7936
  23   2.0000      -1.020260       -27.7627
  24   2.0000      -0.967566       -26.3288
  25   2.0000      -0.915707       -24.9177
  26   2.0000      -0.822714       -22.3872
  27   2.0000      -0.736790       -20.0491
  28   2.0000      -0.680386       -18.5143
  29   2.0000      -0.654796       -17.8179
  30   2.0000      -0.567615       -15.4456
  31   2.0000      -0.555785       -15.1237
  32   2.0000      -0.512491       -13.9456
  33   2.0000      -0.473296       -12.8790
  34   2.0000      -0.461522       -12.5586
  35   2.0000      -0.424248       -11.5444
  36   2.0000      -0.404620       -11.0103
  37   2.0000      -0.399115       -10.8605
  38   2.0000      -0.397413       -10.8142
  39   2.0000      -0.370660       -10.0862
  40   2.0000      -0.305942        -8.3251
  41   2.0000      -0.283843        -7.7238
  42   2.0000      -0.278933        -7.5901
  43   2.0000      -0.275823        -7.5055
  44   2.0000      -0.250325        -6.8117
  45   2.0000      -0.234274        -6.3749
  46   0.0000      -0.094937        -2.5834
  47   0.0000      -0.045243        -1.2311
  48   0.0000      -0.037399        -1.0177
  49   0.0000       0.020773         0.5653
  50   0.0000       0.050482         1.3737

MULLIKEN ATOMIC CHARGES
-----------------------
   0 C :    0.001307
   1 C :   -0.081124
   2 C :    0.242660
   3 O :   -0.342233
   4 N :   -0.220272
   5 C :    0.323362
   6 O :   -0.374245
   7 N :   -0.215694
   8 Br:   -0.017856
   9 H :    0.162701
  10 H :    0.261623
  11 H :    0.259773
Sum of atomic charges:   -0.0000000

LOEWDIN ATOMIC CHARGES
----------------------
   0 C :   -0.179405
   1 C :   -0.406421
   2 C :   -0.433356
   3 O :    0.088786
   4 N :    0.212447
   5 C :   -0.498708
   6 O :    0.055525
   7 N :    0.193739
   8 Br:    0.385997
   9 H :    0.153426
  10 H :    0.215415
  11 H :    0.212555

  Mayer bond orders larger than 0.100000
B(  0-C ,  1-C ) :   1.6343 B(  0-C ,  7-N ) :   1.1411 B(  0-C ,  9-H ) :   0.9261
B(  1-C ,  2-C ) :   1.0151 B(  1-C ,  8-Br) :   1.1304 B(  2-C ,  3-O ) :   2.0622
B(  2-C ,  4-N ) :   1.1020 B(  4-N ,  5-C ) :   1.1428 B(  4-N , 10-H ) :   0.8789
B(  5-C ,  6-O ) :   2.0329 B(  5-C ,  7-N ) :   1.0939 B(  7-N , 11-H ) :   0.8957

Dispersion correction           -0.004501020
FINAL SINGLE POINT ENERGY     -2988.317365095013

DIPOLE MOMENT
-------------

Method             : SCF
Type of density    : Electron Density
Multiplicity       :   1
Irrep              :   0
Energy             : -2988.3251032678244883 Eh
Relativity type    :
Basis              : AO
                                X                 Y                 Z
Electronic contribution:     23.647386919       1.084045933       0.000275130
Nuclear contribution   :    -23.722444344       0.561439820      -0.000251831
                        -----------------------------------------
Total Dipole Moment    :     -0.075057425       1.645485753       0.000023299
                        -----------------------------------------
Magnitude (a.u.)       :      1.647196704
Magnitude (Debye)      :      4.186841288

VIBRATIONAL FREQUENCIES
-----------------------

Scaling factor for frequencies =  1.000000000  (already applied!)

     0:       0.00 cm**-1
     1:       0.00 cm**-1
     2:       0.00 cm**-1
     3:       0.00 cm**-1
     4:       0.00 cm**-1
     5:       0.00 cm**-1
     6:      98.60 cm**-1
     7:     168.07 cm**-1
     8:     189.59 cm**-1
     9:     271.54 cm**-1
    10:     283.65 cm**-1
    11:     399.78 cm**-1
    12:     409.59 cm**-1
    13:     544.44 cm**-1
    14:     601.37 cm**-1
    15:     625.89 cm**-1
    16:     637.62 cm**-1
    17:     706.89 cm**-1
    18:     761.78 cm**-1
    19:     774.38 cm**-1
    20:     785.29 cm**-1
    21:     909.75 cm**-1
    22:     986.58 cm**-1
    23:    1063.17 cm**-1
    24:    1188.56 cm**-1
    25:    1214.13 cm**-1
    26:    1348.17 cm**-1
    27:    1393.93 cm**-1
    28:    1420.96 cm**-1
    29:    1499.40 cm**-1
    30:    1642.40 cm**-1
    31:    1690.91 cm**-1
    32:    1739.34 cm**-1
    33:    3204.58 cm**-1
    34:    3547.09 cm**-1
    35:    3571.99 cm**-1

IR SPECTRUM
-----------

 Mode   freq       eps      Int      T**2         TX        TY        TZ
       cm**-1   L/(mol*cm) km/mol    a.u.
----------------------------------------------------------------------------
  6:     98.60   0.000233    1.18  0.000739  (-0.000005  0.000001  0.027184)
  7:    168.07   0.000531    2.68  0.000985  ( 0.000003  0.000005 -0.031387)
  8:    189.59   0.000149    0.75  0.000245  ( 0.014693  0.005393  0.000000)
  9:    271.54   0.000031    0.15  0.000035  (-0.000001  0.000010 -0.005933)
 10:    283.65   0.000142    0.72  0.000157  ( 0.012364  0.001918  0.000001)
 11:    399.78   0.002418   12.22  0.001888  (-0.000001  0.000002  0.043447)
 12:    409.59   0.003858   19.49  0.002939  (-0.016585 -0.051614 -0.000000)
 13:    544.44   0.002150   10.86  0.001232  (-0.019179  0.029402  0.000000)
 14:    601.37   0.001176    5.94  0.000610  ( 0.024624  0.001942 -0.000002)
 15:    625.89   0.010589   53.51  0.005280  ( 0.000001  0.000001  0.072662)
 16:    637.62   0.008776   44.35  0.004295  ( 0.065068  0.007835 -0.000005)
 17:    706.89   0.012184   61.57  0.005379  (-0.000000  0.000000 -0.073340)
 18:    761.78   0.005806   29.34  0.002379  (-0.000003 -0.000004  0.048771)
 19:    774.38   0.006918   34.96  0.002788  ( 0.000006 -0.000005 -0.052801)
 20:    785.29   0.000537    2.71  0.000213  (-0.012637  0.007328  0.000000)
 21:    909.75   0.002472   12.49  0.000848  ( 0.000003 -0.000002 -0.029118)
 22:    986.58   0.002762   13.96  0.000874  (-0.028916 -0.006114 -0.000001)
 23:   1063.17   0.010549   53.31  0.003096  ( 0.053886 -0.013881  0.000000)
 24:   1188.56   0.002137   10.80  0.000561  ( 0.018797 -0.014411 -0.000000)
 25:   1214.13   0.018489   93.44  0.004752  ( 0.053933 -0.042936  0.000001)
 26:   1348.17   0.002187   11.05  0.000506  (-0.022307 -0.002943 -0.000000)
 27:   1393.93   0.000621    3.14  0.000139  (-0.010644  0.005083 -0.000000)
 28:   1420.96   0.018062   91.28  0.003967  (-0.047371 -0.041506 -0.000001)
 29:   1499.40   0.005891   29.77  0.001226  ( 0.032795  0.012269  0.000000)
 30:   1642.40   0.005812   29.37  0.001104  (-0.008403  0.032151  0.000000)
 31:   1690.91   0.088735  448.43  0.016376  (-0.046276  0.119310 -0.000001)
 32:   1739.34   0.158399  800.48  0.028419  (-0.168366  0.008480 -0.000004)
 33:   3204.58   0.000184    0.93  0.000018  ( 0.003101 -0.002875  0.000000)
 34:   3547.09   0.016158   81.66  0.001422  ( 0.019447  0.032302  0.000001)
 35:   3571.99   0.023979  121.18  0.002095  ( 0.022001 -0.040136  0.000000)

--------------------------
THERMOCHEMISTRY AT 298.15K
--------------------------

Temperature         ...   298.15 K
Pressure            ...     1.00 atm
Total Mass          ...   190.98 AMU
Quasi RRHO          ...     True
Cut-Off Frequency   ...     1.00 cm^-1

Throughout the following assumptions are being made:
  (1) The electronic state is orbitally nondegenerate
  (2) There are no thermally accessible electronically excited states
  (3) Hindered rotations indicated by low frequency modes are not
      treated as such but are treated as vibrations and this may
      cause some error
  (4) All equations used are the standard statistical mechanics
      equations for an ideal gas
  (5) All vibrations are strictly harmonic

freq.      98.60  E(vib)   ...       0.46
freq.     168.07  E(vib)   ...       0.38
freq.     189.59  E(vib)   ...       0.36
freq.     271.54  E(vib)   ...       0.29
freq.     283.65  E(vib)   ...       0.28
freq.     399.78  E(vib)   ...       0.19
freq.     409.59  E(vib)   ...       0.19
freq.     544.44  E(vib)   ...       0.12
freq.     601.37  E(vib)   ...       0.10
freq.     625.89  E(vib)   ...       0.09
freq.     637.62  E(vib)   ...       0.09
freq.     706.89  E(vib)   ...       0.07
freq.     761.78  E(vib)   ...       0.06
freq.     774.38  E(vib)   ...       0.05
freq.     785.29  E(vib)   ...       0.05
freq.     909.75  E(vib)   ...       0.03
freq.     986.58  E(vib)   ...       0.02
freq.    1063.17  E(vib)   ...       0.02
freq.    1188.56  E(vib)   ...       0.01
freq.    1214.13  E(vib)   ...       0.01
freq.    1348.17  E(vib)   ...       0.01
freq.    1393.93  E(vib)   ...       0.00
freq.    1420.96  E(vib)   ...       0.00
freq.    1499.40  E(vib)   ...       0.00
freq.    1642.40  E(vib)   ...       0.00
freq.    1690.91  E(vib)   ...       0.00
freq.    1739.34  E(vib)   ...       0.00
freq.    3204.58  E(vib)   ...       0.00
freq.    3547.09  E(vib)   ...       0.00
freq.    3571.99  E(vib)   ...       0.00

------------
INNER ENERGY
------------

The inner energy is: U= E(el) + E(ZPE) + E(vib) + E(rot) + E(trans)
    E(el)   - is the total energy from the electronic structure calculation
              = E(kin-el) + E(nuc-el) + E(el-el) + E(nuc-nuc)
    E(ZPE)  - the the zero temperature vibrational energy from the frequency calculation
    E(vib)  - the the finite temperature correction to E(ZPE) due to population
              of excited vibrational states
    E(rot)  - is the rotational thermal energy
    E(trans)- is the translational thermal energy

Summary of contributions to the inner energy U:
Electronic energy                ...  -2988.31736510 Eh
Zero point energy                ...      0.07672737 Eh      48.15 kcal/mol
Thermal vibrational correction   ...      0.00463134 Eh       2.91 kcal/mol
Thermal rotational correction    ...      0.00141627 Eh       0.89 kcal/mol
Thermal translational correction ...      0.00141627 Eh       0.89 kcal/mol
-----------------------------------------------------------------------
Total thermal energy                  -2988.23317383 Eh

Summary of corrections to the electronic energy:
(perhaps to be used in another calculation)
Total thermal correction                  0.00746389 Eh       4.68 kcal/mol
Non-thermal (ZPE) correction              0.07672737 Eh      48.15 kcal/mol
-----------------------------------------------------------------------
Total correction                          0.08419126 Eh      52.83 kcal/mol

--------
ENTHALPY
--------

The enthalpy is H = U + kB*T
                kB is Boltzmann's constant
Total thermal energy              ...  -2988.23317383 Eh
Thermal Enthalpy correction       ...      0.00094421 Eh       0.59 kcal/mol
-----------------------------------------------------------------------
Total Enthalpy                    ...  -2988.23222963 Eh

Note: Rotational entropy computed according to Herzberg
Infrared and Raman Spectra, Chapter V,1, Van Nostrand Reinhold, 1945
Point Group:  Cs, Symmetry Number:   1
Rotational constants in cm-1:     0.098968     0.021505     0.017667

Vibrational entropy computed according to the QRRHO of S. Grimme
Chem.Eur.J. 2012 18 9955 using a reference frequency of 100.0 cm-1

-------
ENTROPY
-------

The entropy contributions are T*S = T*(S(el)+S(vib)+S(rot)+S(trans))
     S(el)   - electronic entropy
     S(vib)  - vibrational entropy
     S(rot)  - rotational entropy
     S(trans)- translational entropy
The entropies will be listed as multiplied by the temperature to get
units of energy

Electronic entropy                ...      0.00000000 Eh      0.00 kcal/mol
Vibrational entropy               ...      0.00765335 Eh      4.80 kcal/mol
Rotational entropy                ...      0.01432070 Eh      8.99 kcal/mol
Translational entropy             ...      0.01978757 Eh     12.42 kcal/mol
-----------------------------------------------------------------------
Final entropy term                ...      0.04176162 Eh     26.21 kcal/mol

In case the symmetry of your molecule has not been determined correctly
or in case you have a reason to use a different symmetry number we print
out the resulting rotational entropy values for sn=1,12:

 non-linear molecules -----------------------------------
|  sn= 1 | S(rot)=       0.01432070 Eh      8.99 kcal/mol|
|  sn= 2 | S(rot)=       0.01366624 Eh      8.58 kcal/mol|
|  sn= 3 | S(rot)=       0.01328341 Eh      8.34 kcal/mol|
|  sn= 4 | S(rot)=       0.01301179 Eh      8.17 kcal/mol|
|  sn= 5 | S(rot)=       0.01280110 Eh      8.03 kcal/mol|
|  sn= 6 | S(rot)=       0.01262895 Eh      7.92 kcal/mol|
|  sn= 7 | S(rot)=       0.01248341 Eh      7.83 kcal/mol|
|  sn= 8 | S(rot)=       0.01235733 Eh      7.75 kcal/mol|
|  sn= 9 | S(rot)=       0.01224612 Eh      7.68 kcal/mol|
|  sn=10 | S(rot)=       0.01214664 Eh      7.62 kcal/mol|
|  sn=11 | S(rot)=       0.01205665 Eh      7.57 kcal/mol|
|  sn=12 | S(rot)=       0.01197450 Eh      7.51 kcal/mol|
 linear molecules ---------------------------------------
|  Dinfh | S(rot)=       0.00913660 Eh      5.73 kcal/mol|
|  Cinfv | S(rot)=       0.00979105 Eh      6.14 kcal/mol|
 --------------------------------------------------------

-------------------
GIBBS FREE ENERGY
-------------------

The Gibbs free energy is G = H - T*S

Total enthalpy                    ...  -2988.23222963 Eh
Total entropy correction          ...     -0.04176162 Eh    -26.21 kcal/mol
-----------------------------------------------------------------------
Final Gibbs free energy         ...  -2988.27399125 Eh

For completeness - the Gibbs free energy minus the electronic energy
G-E(el)                           ...      0.04337385 Eh     27.22 kcal/mol

                             ****ORCA TERMINATED NORMALLY****
TOTAL RUN TIME: 0 days 0 hours 9 minutes 49 seconds 318 msec
