                         Program Version 6.0.0  -   RELEASE  -
|  1> ! r2SCAN-3c DEF2-TZVP FREQ
|  2> * xyzfile 0 1 vacuum_censo.xyz
|  3>
|  4>                          ****END OF INPUT****

CARTESIAN COORDINATES (ANGSTROEM)
---------------------------------
  C     -0.537111    1.353174   -0.000519
  C      0.170665    0.203478   -0.000340
  C     -0.505613   -1.092134   -0.000025
  O      0.019343   -2.185243   -0.000017
  N     -1.910729   -0.964624    0.000241
  C     -2.679429    0.187302    0.000063
  O     -3.892935    0.201689    0.000275
  N     -1.907514    1.347007   -0.000381
  Br     2.054430    0.213209   -0.000533
  H     -0.062071    2.327552   -0.000788
  H     -2.430091   -1.833030    0.000476
  H     -2.426858    2.211023   -0.000482

 Total Charge           Charge          ....    0
 Multiplicity           Mult            ....    1
 Number of Electrons    NEL             ....   92
 Basis Dimension        Dim             ....  314

ORBITAL ENERGIES
----------------

  NO   OCC          E(Eh)            E(eV)
   0   2.0000    -482.246000    -13122.5808
   1   2.0000     -62.316429     -1695.7162
   2   2.0000     -56.097998     -1526.5041
   3   2.0000     -56.093601     -1526.3845
   4   2.0000     -56.093261     -1526.3752
   5   2.0000     -18.949680      -515.6470
   6   2.0000     -18.947335      -515.5832
   7   2.0000     -14.252963      -387.8428
   8   2.0000     -14.234580      -387.3426
   9   2.0000     -10.198936      -277.5271
  10   2.0000     -10.170255      -276.7467
  11   2.0000     -10.134219      -275.7661
  12   2.0000     -10.116678      -275.2888
  13   2.0000      -8.649402      -235.3622
  14   2.0000      -6.456503      -175.6904
  15   2.0000      -6.443592      -175.3391
  16   2.0000      -6.443048      -175.3243
  17   2.0000      -2.554087       -69.5002
  18   2.0000      -2.551219       -69.4222
  19   2.0000      -2.550780       -69.4103
  20   2.0000      -2.540757       -69.1375
  21   2.0000      -2.540745       -69.1372
  22   2.0000      -1.059556       -28.8320
  23   2.0000      -1.028550       -27.9883
  24   2.0000      -0.965752       -26.2795
  25   2.0000      -0.912739       -24.8369
  26   2.0000      -0.822168       -22.3723
  27   2.0000      -0.735431       -20.0121
  28   2.0000      -0.674228       -18.3467
  29   2.0000      -0.651631       -17.7318
  30   2.0000      -0.565406       -15.3855
  31   2.0000      -0.551542       -15.0082
  32   2.0000      -0.508384       -13.8338
  33   2.0000      -0.469995       -12.7892
  34   2.0000      -0.459772       -12.5110
  35   2.0000      -0.427068       -11.6211
  36   2.0000      -0.407806       -11.0970
  37   2.0000      -0.399804       -10.8792
  38   2.0000      -0.399253       -10.8642
  39   2.0000      -0.369629       -10.0581
  40   2.0000      -0.306706        -8.3459
  41   2.0000      -0.284367        -7.7380
  42   2.0000      -0.281187        -7.6515
  43   2.0000      -0.279168        -7.5965
  44   2.0000      -0.253808        -6.9065
  45   2.0000      -0.233302        -6.3485
  46   0.0000      -0.091933        -2.5016
  47   0.0000      -0.042255        -1.1498
  48   0.0000      -0.035583        -0.9683
  49   0.0000       0.024800         0.6748
  50   0.0000       0.051314         1.3963

MULLIKEN ATOMIC CHARGES
-----------------------
   0 C :   -0.002288
   1 C :   -0.083904
   2 C :    0.239912
   3 O :   -0.322101
   4 N :   -0.230890
   5 C :    0.319980
   6 O :   -0.355285
   7 N :   -0.223755
   8 Br:   -0.017308
   9 H :    0.161658
  10 H :    0.257367
  11 H :    0.256614
Sum of atomic charges:   -0.0000000

LOEWDIN ATOMIC CHARGES
----------------------
   0 C :   -0.181096
   1 C :   -0.413398
   2 C :   -0.437039
   3 O :    0.110222
   4 N :    0.203202
   5 C :   -0.503654
   6 O :    0.076023
   7 N :    0.185556
   8 Br:    0.389046
   9 H :    0.153381
  10 H :    0.210554
  11 H :    0.207204

  Mayer bond orders larger than 0.100000
B(  0-C ,  1-C ) :   1.6450 B(  0-C ,  7-N ) :   1.1396 B(  0-C ,  9-H ) :   0.9269
B(  1-C ,  2-C ) :   1.0041 B(  1-C ,  8-Br) :   1.1317 B(  2-C ,  3-O ) :   2.0797
B(  2-C ,  4-N ) :   1.0906 B(  4-N ,  5-C ) :   1.1373 B(  4-N , 10-H ) :   0.8821
B(  5-C ,  6-O ) :   2.0484 B(  5-C ,  7-N ) :   1.0829 B(  7-N , 11-H ) :   0.8977

Dispersion correction           -0.004494229
FINAL SINGLE POINT ENERGY     -2988.318483985550

DIPOLE MOMENT
-------------

Method             : SCF
Type of density    : Electron Density
Multiplicity       :   1
Irrep              :   0
Energy             : -2988.3261301006482427 Eh
Relativity type    :
Basis              : AO
                                X                 Y                 Z
Electronic contribution:     23.637254606       0.991645291      -0.002764981
Nuclear contribution   :    -23.732321564       0.572233834       0.002488557
                        -----------------------------------------
Total Dipole Moment    :     -0.095066959       1.563879125      -0.000276424
                        -----------------------------------------
Magnitude (a.u.)       :      1.566766007
Magnitude (Debye)      :      3.982402704

VIBRATIONAL FREQUENCIES
-----------------------

Scaling factor for frequencies =  1.000000000  (already applied!)

     0:       0.00 cm**-1
     1:       0.00 cm**-1
     2:       0.00 cm**-1
     3:       0.00 cm**-1
     4:       0.00 cm**-1
     5:       0.00 cm**-1
     6:      94.37 cm**-1
     7:     154.84 cm**-1
     8:     187.43 cm**-1
     9:     273.55 cm**-1
    10:     283.67 cm**-1
    11:     387.75 cm**-1
    12:     397.46 cm**-1
    13:     536.10 cm**-1
    14:     571.20 cm**-1
    15:     598.73 cm**-1
    16:     629.74 cm**-1
    17:     679.59 cm**-1
    18:     753.59 cm**-1
    19:     767.18 cm**-1
    20:     771.59 cm**-1
    21:     908.25 cm**-1
    22:     968.74 cm**-1
    23:    1052.98 cm**-1
    24:    1146.06 cm**-1
    25:    1186.68 cm**-1
    26:    1335.15 cm**-1
    27:    1387.81 cm**-1
    28:    1400.17 cm**-1
    29:    1480.61 cm**-1
    30:    1646.83 cm**-1
    31:    1755.25 cm**-1
    32:    1790.06 cm**-1
    33:    3199.83 cm**-1
    34:    3583.87 cm**-1
    35:    3627.22 cm**-1

IR SPECTRUM
-----------

 Mode   freq       eps      Int      T**2         TX        TY        TZ
       cm**-1   L/(mol*cm) km/mol    a.u.
----------------------------------------------------------------------------
  6:     94.37   0.000267    1.35  0.000883  (-0.000030 -0.000022 -0.029707)
  7:    154.84   0.000269    1.36  0.000542  (-0.000016 -0.000050 -0.023282)
  8:    187.43   0.000163    0.82  0.000271  (-0.015773 -0.004718  0.000008)
  9:    273.55   0.000013    0.07  0.000015  ( 0.000022 -0.000070 -0.003846)
 10:    283.67   0.000181    0.91  0.000199  (-0.013813 -0.002884  0.000002)
 11:    387.75   0.003754   18.97  0.003022  (-0.000053 -0.000029 -0.054969)
 12:    397.46   0.003748   18.94  0.002943  (-0.015949 -0.051851  0.000076)
 13:    536.10   0.001973    9.97  0.001149  ( 0.016112 -0.029819 -0.000020)
 14:    571.20   0.010392   52.52  0.005678  ( 0.000019 -0.000031  0.075351)
 15:    598.73   0.000575    2.91  0.000300  ( 0.017259  0.001345  0.000018)
 16:    629.74   0.008933   45.14  0.004427  (-0.065978 -0.008586 -0.000022)
 17:    679.59   0.013537   68.41  0.006216  (-0.000022  0.000005 -0.078843)
 18:    753.59   0.006561   33.16  0.002717  ( 0.000022 -0.000056  0.052125)
 19:    767.18   0.004094   20.69  0.001665  ( 0.000030 -0.000064 -0.040809)
 20:    771.59   0.000717    3.63  0.000290  ( 0.012161 -0.011927 -0.000001)
 21:    908.25   0.002626   13.27  0.000902  ( 0.000033 -0.000046  0.030036)
 22:    968.74   0.004719   23.85  0.001520  ( 0.038688  0.004824 -0.000012)
 23:   1052.98   0.011103   56.11  0.003290  (-0.055421  0.014799  0.000006)
 24:   1146.06   0.000115    0.58  0.000031  ( 0.005574 -0.000617  0.000004)
 25:   1186.68   0.022117  111.77  0.005816  (-0.059768  0.047372 -0.000001)
 26:   1335.15   0.003925   19.83  0.000917  ( 0.029157  0.008199 -0.000007)
 27:   1387.81   0.016481   83.29  0.003706  ( 0.042324  0.043758 -0.000018)
 28:   1400.17   0.006227   31.47  0.001388  ( 0.025680  0.026989 -0.000012)
 29:   1480.61   0.008811   44.53  0.001857  (-0.042092 -0.009234  0.000008)
 30:   1646.83   0.014146   71.49  0.002681  ( 0.015446 -0.049416  0.000008)
 31:   1755.25   0.093191  470.95  0.016568  ( 0.065521 -0.110794  0.000002)
 32:   1790.06   0.143839  726.90  0.025076  ( 0.158334  0.002462 -0.000025)
 33:   3199.83   0.000185    0.93  0.000018  (-0.003282  0.002692 -0.000000)
 34:   3583.87   0.014449   73.02  0.001258  (-0.018238 -0.030422  0.000009)
 35:   3627.22   0.023146  116.97  0.001991  (-0.022495  0.038539 -0.000005)

--------------------------
THERMOCHEMISTRY AT 298.15K
--------------------------

Temperature         ...   298.15 K
Pressure            ...     1.00 atm
Total Mass          ...   190.98 AMU
Quasi RRHO          ...     True
Cut-Off Frequency   ...     1.00 cm^-1

Throughout the following assumptions are being made:
  (1) The electronic state is orbitally nondegenerate
  (2) There are no thermally accessible electronically excited states
  (3) Hindered rotations indicated by low frequency modes are not
      treated as such but are treated as vibrations and this may
      cause some error
  (4) All equations used are the standard statistical mechanics
      equations for an ideal gas
  (5) All vibrations are strictly harmonic

freq.      94.37  E(vib)   ...       0.47
freq.     154.84  E(vib)   ...       0.40
freq.     187.43  E(vib)   ...       0.36
freq.     273.55  E(vib)   ...       0.29
freq.     283.67  E(vib)   ...       0.28
freq.     387.75  E(vib)   ...       0.20
freq.     397.46  E(vib)   ...       0.20
freq.     536.10  E(vib)   ...       0.12
freq.     571.20  E(vib)   ...       0.11
freq.     598.73  E(vib)   ...       0.10
freq.     629.74  E(vib)   ...       0.09
freq.     679.59  E(vib)   ...       0.08
freq.     753.59  E(vib)   ...       0.06
freq.     767.18  E(vib)   ...       0.06
freq.     771.59  E(vib)   ...       0.05
freq.     908.25  E(vib)   ...       0.03
freq.     968.74  E(vib)   ...       0.03
freq.    1052.98  E(vib)   ...       0.02
freq.    1146.06  E(vib)   ...       0.01
freq.    1186.68  E(vib)   ...       0.01
freq.    1335.15  E(vib)   ...       0.01
freq.    1387.81  E(vib)   ...       0.00
freq.    1400.17  E(vib)   ...       0.00
freq.    1480.61  E(vib)   ...       0.00
freq.    1646.83  E(vib)   ...       0.00
freq.    1755.25  E(vib)   ...       0.00
freq.    1790.06  E(vib)   ...       0.00
freq.    3199.83  E(vib)   ...       0.00
freq.    3583.87  E(vib)   ...       0.00
freq.    3627.22  E(vib)   ...       0.00

------------
INNER ENERGY
------------

The inner energy is: U= E(el) + E(ZPE) + E(vib) + E(rot) + E(trans)
    E(el)   - is the total energy from the electronic structure calculation
              = E(kin-el) + E(nuc-el) + E(el-el) + E(nuc-nuc)
    E(ZPE)  - the the zero temperature vibrational energy from the frequency calculation
    E(vib)  - the the finite temperature correction to E(ZPE) due to population
              of excited vibrational states
    E(rot)  - is the rotational thermal energy
    E(trans)- is the translational thermal energy

Summary of contributions to the inner energy U:
Electronic energy                ...  -2988.31848399 Eh
Zero point energy                ...      0.07644692 Eh      47.97 kcal/mol
Thermal vibrational correction   ...      0.00475797 Eh       2.99 kcal/mol
Thermal rotational correction    ...      0.00141627 Eh       0.89 kcal/mol
Thermal translational correction ...      0.00141627 Eh       0.89 kcal/mol
-----------------------------------------------------------------------
Total thermal energy                  -2988.23444656 Eh

Summary of corrections to the electronic energy:
(perhaps to be used in another calculation)
Total thermal correction                  0.00759051 Eh       4.76 kcal/mol
Non-thermal (ZPE) correction              0.07644692 Eh      47.97 kcal/mol
-----------------------------------------------------------------------
Total correction                          0.08403742 Eh      52.73 kcal/mol

--------
ENTHALPY
--------

The enthalpy is H = U + kB*T
                kB is Boltzmann's constant
Total thermal energy              ...  -2988.23444656 Eh
Thermal Enthalpy correction       ...      0.00094421 Eh       0.59 kcal/mol
-----------------------------------------------------------------------
Total Enthalpy                    ...  -2988.23350235 Eh

Note: Only C1 symmetry has been detected, increase convergence thresholds
      if your molecule has a higher symmetry. Symmetry factor of 1.0 is
      used for the rotational entropy correction.

Note: Rotational entropy computed according to Herzberg
Infrared and Raman Spectra, Chapter V,1, Van Nostrand Reinhold, 1945
Point Group:  C1, Symmetry Number:   1
Rotational constants in cm-1:     0.099090     0.021425     0.017616

Vibrational entropy computed according to the QRRHO of S. Grimme
Chem.Eur.J. 2012 18 9955 using a reference frequency of 100.0 cm-1

-------
ENTROPY
-------

The entropy contributions are T*S = T*(S(el)+S(vib)+S(rot)+S(trans))
     S(el)   - electronic entropy
     S(vib)  - vibrational entropy
     S(rot)  - rotational entropy
     S(trans)- translational entropy
The entropies will be listed as multiplied by the temperature to get
units of energy

Electronic entropy                ...      0.00000000 Eh      0.00 kcal/mol
Vibrational entropy               ...      0.00788498 Eh      4.95 kcal/mol
Rotational entropy                ...      0.01432324 Eh      8.99 kcal/mol
Translational entropy             ...      0.01978757 Eh     12.42 kcal/mol
-----------------------------------------------------------------------
Final entropy term                ...      0.04199578 Eh     26.35 kcal/mol

In case the symmetry of your molecule has not been determined correctly
or in case you have a reason to use a different symmetry number we print
out the resulting rotational entropy values for sn=1,12:

 non-linear molecules -----------------------------------
|  sn= 1 | S(rot)=       0.01432324 Eh      8.99 kcal/mol|
|  sn= 2 | S(rot)=       0.01366878 Eh      8.58 kcal/mol|
|  sn= 3 | S(rot)=       0.01328595 Eh      8.34 kcal/mol|
|  sn= 4 | S(rot)=       0.01301432 Eh      8.17 kcal/mol|
|  sn= 5 | S(rot)=       0.01280364 Eh      8.03 kcal/mol|
|  sn= 6 | S(rot)=       0.01263149 Eh      7.93 kcal/mol|
|  sn= 7 | S(rot)=       0.01248595 Eh      7.84 kcal/mol|
|  sn= 8 | S(rot)=       0.01235987 Eh      7.76 kcal/mol|
|  sn= 9 | S(rot)=       0.01224866 Eh      7.69 kcal/mol|
|  sn=10 | S(rot)=       0.01214918 Eh      7.62 kcal/mol|
|  sn=11 | S(rot)=       0.01205919 Eh      7.57 kcal/mol|
|  sn=12 | S(rot)=       0.01197704 Eh      7.52 kcal/mol|
 linear molecules ---------------------------------------
|  Dinfh | S(rot)=       0.00913930 Eh      5.73 kcal/mol|
|  Cinfv | S(rot)=       0.00979376 Eh      6.15 kcal/mol|
 --------------------------------------------------------

-------------------
GIBBS FREE ENERGY
-------------------

The Gibbs free energy is G = H - T*S

Total enthalpy                    ...  -2988.23350235 Eh
Total entropy correction          ...     -0.04199578 Eh    -26.35 kcal/mol
-----------------------------------------------------------------------
Final Gibbs free energy         ...  -2988.27549813 Eh

For completeness - the Gibbs free energy minus the electronic energy

                             ****ORCA TERMINATED NORMALLY****
TOTAL RUN TIME: 0 days 0 hours 9 minutes 53 seconds 661 msec
