                         Program Version 6.0.0  -   RELEASE  -
|  1> ! r2SCAN-3c DEF2-TZVP FREQ
|  2> * xyzfile 0 1 censo.xyz
|  3>
|  4>                          ****END OF INPUT****

CARTESIAN COORDINATES (ANGSTROEM)
---------------------------------
  C      1.037606    1.341506    0.000048
  C      0.346149    0.177412    0.000048
  C      1.048937   -1.086147    0.000017
  O      0.538580   -2.206623    0.000012
  N      2.439838   -0.952423   -0.000008
  C      3.173095    0.214644   -0.000014
  O      4.401025    0.235872   -0.000044
  N      2.401574    1.355852    0.000019
  I     -1.744007    0.153653    0.000085
  H      0.559947    2.314111    0.000071
  H      2.978576   -1.812873   -0.000028
  H      2.895841    2.239928    0.000014

 Total Charge           Charge          ....    0
 Multiplicity           Mult            ....    1
 Number of Electrons    NEL             ....   82
 Basis Dimension        Dim             ....  316

ORBITAL ENERGIES
----------------

  NO   OCC          E(Eh)            E(eV)
   0   2.0000     -18.945926      -515.5449
   1   2.0000     -18.942247      -515.4447
   2   2.0000     -14.256129      -387.9290
   3   2.0000     -14.236486      -387.3945
   4   2.0000     -10.197380      -277.4848
   5   2.0000     -10.167664      -276.6762
   6   2.0000     -10.135078      -275.7895
   7   2.0000     -10.107650      -275.0431
   8   2.0000      -6.797531      -184.9702
   9   2.0000      -4.820570      -131.1744
  10   2.0000      -4.805850      -130.7738
  11   2.0000      -4.805791      -130.7722
  12   2.0000      -1.870723       -50.9050
  13   2.0000      -1.867661       -50.8216
  14   2.0000      -1.867483       -50.8168
  15   2.0000      -1.855187       -50.4822
  16   2.0000      -1.855185       -50.4822
  17   2.0000      -1.056808       -28.7572
  18   2.0000      -1.017375       -27.6842
  19   2.0000      -0.965830       -26.2816
  20   2.0000      -0.914276       -24.8787
  21   2.0000      -0.797492       -21.7009
  22   2.0000      -0.693205       -18.8631
  23   2.0000      -0.667655       -18.1678
  24   2.0000      -0.652158       -17.7461
  25   2.0000      -0.562113       -15.2959
  26   2.0000      -0.552634       -15.0379
  27   2.0000      -0.511220       -13.9110
  28   2.0000      -0.471715       -12.8360
  29   2.0000      -0.458854       -12.4861
  30   2.0000      -0.419755       -11.4221
  31   2.0000      -0.401262       -10.9189
  32   2.0000      -0.394717       -10.7408
  33   2.0000      -0.373208       -10.1555
  34   2.0000      -0.366202        -9.9649
  35   2.0000      -0.285098        -7.7579
  36   2.0000      -0.277101        -7.5403
  37   2.0000      -0.276725        -7.5301
  38   2.0000      -0.257115        -6.9965
  39   2.0000      -0.246610        -6.7106
  40   2.0000      -0.228541        -6.2189
  41   0.0000      -0.094274        -2.5653
  42   0.0000      -0.071628        -1.9491
  43   0.0000      -0.037070        -1.0087
  44   0.0000       0.018409         0.5009
  45   0.0000       0.050926         1.3858

MULLIKEN ATOMIC CHARGES
-----------------------
   0 C :   -0.030740
   1 C :   -0.089673
   2 C :    0.225077
   3 O :   -0.351323
   4 N :   -0.216776
   5 C :    0.326824
   6 O :   -0.375348
   7 N :   -0.211238
   8 I :    0.040082
   9 H :    0.162813
  10 H :    0.260892
  11 H :    0.259409
Sum of atomic charges:    0.0000000

LOEWDIN ATOMIC CHARGES
----------------------
   0 C :   -0.187539
   1 C :   -0.396601
   2 C :   -0.439424
   3 O :    0.082807
   4 N :    0.212745
   5 C :   -0.497916
   6 O :    0.054217
   7 N :    0.193789
   8 I :    0.397184
   9 H :    0.152818
  10 H :    0.215452
  11 H :    0.212469

  Mayer bond orders larger than 0.100000
B(  0-C ,  1-C ) :   1.6221 B(  0-C ,  7-N ) :   1.1410 B(  0-C ,  9-H ) :   0.9258
B(  1-C ,  2-C ) :   1.0217 B(  1-C ,  8-I ) :   1.1191 B(  2-C ,  3-O ) :   2.0411
B(  2-C ,  4-N ) :   1.1032 B(  4-N ,  5-C ) :   1.1417 B(  4-N , 10-H ) :   0.8792
B(  5-C ,  6-O ) :   2.0324 B(  5-C ,  7-N ) :   1.0933 B(  7-N , 11-H ) :   0.8953

Dispersion correction           -0.004710411
FINAL SINGLE POINT ENERGY      -712.000411109228

DIPOLE MOMENT
-------------

Method             : SCF
Type of density    : Electron Density
Multiplicity       :   1
Irrep              :   0
Energy             :  -712.0077136675002976 Eh
Relativity type    :
Basis              : AO
                                X                 Y                 Z
Electronic contribution:   -132.537526491       9.000303343       0.002725901
Nuclear contribution   :    132.472399721      -7.384910759      -0.002701475
                        -----------------------------------------
Total Dipole Moment    :     -0.065126771       1.615392584       0.000024426
                        -----------------------------------------
Magnitude (a.u.)       :      1.616704889
Magnitude (Debye)      :      4.109337253

VIBRATIONAL FREQUENCIES
-----------------------

Scaling factor for frequencies =  1.000000000  (already applied!)

     0:       0.00 cm**-1
     1:       0.00 cm**-1
     2:       0.00 cm**-1
     3:       0.00 cm**-1
     4:       0.00 cm**-1
     5:       0.00 cm**-1
     6:      92.37 cm**-1
     7:     163.78 cm**-1
     8:     168.60 cm**-1
     9:     238.65 cm**-1
    10:     253.47 cm**-1
    11:     398.72 cm**-1
    12:     410.74 cm**-1
    13:     544.16 cm**-1
    14:     594.94 cm**-1
    15:     625.04 cm**-1
    16:     626.07 cm**-1
    17:     706.20 cm**-1
    18:     763.08 cm**-1
    19:     774.04 cm**-1
    20:     785.28 cm**-1
    21:     910.42 cm**-1
    22:     988.61 cm**-1
    23:    1047.33 cm**-1
    24:    1182.37 cm**-1
    25:    1214.88 cm**-1
    26:    1350.51 cm**-1
    27:    1390.55 cm**-1
    28:    1421.17 cm**-1
    29:    1493.36 cm**-1
    30:    1633.31 cm**-1
    31:    1674.17 cm**-1
    32:    1735.59 cm**-1
    33:    3202.00 cm**-1
    34:    3547.59 cm**-1
    35:    3572.23 cm**-1

IR SPECTRUM
-----------

 Mode   freq       eps      Int      T**2         TX        TY        TZ
       cm**-1   L/(mol*cm) km/mol    a.u.
----------------------------------------------------------------------------
  6:     92.37   0.000173    0.88  0.000586  ( 0.000000 -0.000003  0.024209)
  7:    163.78   0.000329    1.66  0.000628  ( 0.022706 -0.010587  0.000000)
  8:    168.60   0.000512    2.59  0.000947  ( 0.000000  0.000001 -0.030780)
  9:    238.65   0.000264    1.33  0.000345  ( 0.018580 -0.000096 -0.000001)
 10:    253.47   0.000156    0.79  0.000192  ( 0.000001  0.000003 -0.013839)
 11:    398.72   0.002484   12.55  0.001944  ( 0.000002  0.000003  0.044092)
 12:    410.74   0.003909   19.76  0.002970  ( 0.018515 -0.051258  0.000000)
 13:    544.16   0.002519   12.73  0.001445  ( 0.023593  0.029798 -0.000000)
 14:    594.94   0.002089   10.56  0.001096  ( 0.032801 -0.004474  0.000000)
 15:    625.04   0.006322   31.95  0.003157  ( 0.055853 -0.006089 -0.000006)
 16:    626.07   0.010369   52.40  0.005169  ( 0.000006 -0.000002  0.071892)
 17:    706.20   0.012793   64.65  0.005653  (-0.000003  0.000002 -0.075186)
 18:    763.08   0.004507   22.78  0.001843  ( 0.000001  0.000008  0.042931)
 19:    774.04   0.007536   38.09  0.003038  ( 0.000001  0.000003 -0.055122)
 20:    785.28   0.000220    1.11  0.000088  (-0.005051 -0.007880 -0.000004)
 21:    910.42   0.002131   10.77  0.000730  (-0.000002 -0.000003 -0.027026)
 22:    988.61   0.002483   12.55  0.000784  ( 0.027478 -0.005357 -0.000001)
 23:   1047.33   0.007479   37.80  0.002228  (-0.044646 -0.015337  0.000001)
 24:   1182.37   0.004006   20.24  0.001057  ( 0.025859  0.019713 -0.000000)
 25:   1214.88   0.016359   82.67  0.004202  ( 0.050741  0.040343 -0.000001)
 26:   1350.51   0.002843   14.37  0.000657  (-0.025619 -0.000835  0.000001)
 27:   1390.55   0.001152    5.82  0.000258  ( 0.015804  0.002955 -0.000000)
 28:   1421.17   0.020141  101.78  0.004423  ( 0.053367 -0.039681 -0.000002)
 29:   1493.36   0.006573   33.22  0.001374  (-0.035135  0.011792  0.000001)
 30:   1633.31   0.004365   22.06  0.000834  ( 0.014865  0.024761 -0.000000)
 31:   1674.17   0.083883  423.91  0.015636  (-0.035443 -0.119915 -0.000001)
 32:   1735.59   0.166725  842.56  0.029978  ( 0.172754  0.011565 -0.000004)
 33:   3202.00   0.000096    0.48  0.000009  ( 0.002216  0.002103 -0.000000)
 34:   3547.59   0.016346   82.61  0.001438  (-0.020566  0.031858  0.000001)
 35:   3572.23   0.024045  121.51  0.002100  ( 0.022442  0.039961 -0.000000)

--------------------------
THERMOCHEMISTRY AT 298.15K
--------------------------

Temperature         ...   298.15 K
Pressure            ...     1.00 atm
Total Mass          ...   237.98 AMU
Quasi RRHO          ...     True
Cut-Off Frequency   ...     1.00 cm^-1

Throughout the following assumptions are being made:
  (1) The electronic state is orbitally nondegenerate
  (2) There are no thermally accessible electronically excited states
  (3) Hindered rotations indicated by low frequency modes are not
      treated as such but are treated as vibrations and this may
      cause some error
  (4) All equations used are the standard statistical mechanics
      equations for an ideal gas
  (5) All vibrations are strictly harmonic

freq.      92.37  E(vib)   ...       0.47
freq.     163.78  E(vib)   ...       0.39
freq.     168.60  E(vib)   ...       0.38
freq.     238.65  E(vib)   ...       0.32
freq.     253.47  E(vib)   ...       0.30
freq.     398.72  E(vib)   ...       0.19
freq.     410.74  E(vib)   ...       0.19
freq.     544.16  E(vib)   ...       0.12
freq.     594.94  E(vib)   ...       0.10
freq.     625.04  E(vib)   ...       0.09
freq.     626.07  E(vib)   ...       0.09
freq.     706.20  E(vib)   ...       0.07
freq.     763.08  E(vib)   ...       0.06
freq.     774.04  E(vib)   ...       0.05
freq.     785.28  E(vib)   ...       0.05
freq.     910.42  E(vib)   ...       0.03
freq.     988.61  E(vib)   ...       0.02
freq.    1047.33  E(vib)   ...       0.02
freq.    1182.37  E(vib)   ...       0.01
freq.    1214.88  E(vib)   ...       0.01
freq.    1350.51  E(vib)   ...       0.01
freq.    1390.55  E(vib)   ...       0.00
freq.    1421.17  E(vib)   ...       0.00
freq.    1493.36  E(vib)   ...       0.00
freq.    1633.31  E(vib)   ...       0.00
freq.    1674.17  E(vib)   ...       0.00
freq.    1735.59  E(vib)   ...       0.00
freq.    3202.00  E(vib)   ...       0.00
freq.    3547.59  E(vib)   ...       0.00
freq.    3572.23  E(vib)   ...       0.00

------------
INNER ENERGY
------------

The inner energy is: U= E(el) + E(ZPE) + E(vib) + E(rot) + E(trans)
    E(el)   - is the total energy from the electronic structure calculation
              = E(kin-el) + E(nuc-el) + E(el-el) + E(nuc-nuc)
    E(ZPE)  - the the zero temperature vibrational energy from the frequency calculation
    E(vib)  - the the finite temperature correction to E(ZPE) due to population
              of excited vibrational states
    E(rot)  - is the rotational thermal energy
    E(trans)- is the translational thermal energy

Summary of contributions to the inner energy U:
Electronic energy                ...   -712.00041111 Eh
Zero point energy                ...      0.07633963 Eh      47.90 kcal/mol
Thermal vibrational correction   ...      0.00478331 Eh       3.00 kcal/mol
Thermal rotational correction    ...      0.00141627 Eh       0.89 kcal/mol
Thermal translational correction ...      0.00141627 Eh       0.89 kcal/mol
-----------------------------------------------------------------------
Total thermal energy                   -711.91645562 Eh

Summary of corrections to the electronic energy:
(perhaps to be used in another calculation)
Total thermal correction                  0.00761585 Eh       4.78 kcal/mol
Non-thermal (ZPE) correction              0.07633963 Eh      47.90 kcal/mol
-----------------------------------------------------------------------
Total correction                          0.08395549 Eh      52.68 kcal/mol

--------
ENTHALPY
--------

The enthalpy is H = U + kB*T
                kB is Boltzmann's constant
Total thermal energy              ...   -711.91645562 Eh
Thermal Enthalpy correction       ...      0.00094421 Eh       0.59 kcal/mol
-----------------------------------------------------------------------
Total Enthalpy                    ...   -711.91551141 Eh

Note: Rotational entropy computed according to Herzberg
Infrared and Raman Spectra, Chapter V,1, Van Nostrand Reinhold, 1945
Point Group:  Cs, Symmetry Number:   1
Rotational constants in cm-1:     0.098836     0.016351     0.014030

Vibrational entropy computed according to the QRRHO of S. Grimme
Chem.Eur.J. 2012 18 9955 using a reference frequency of 100.0 cm-1

-------
ENTROPY
-------

The entropy contributions are T*S = T*(S(el)+S(vib)+S(rot)+S(trans))
     S(el)   - electronic entropy
     S(vib)  - vibrational entropy
     S(rot)  - rotational entropy
     S(trans)- translational entropy
The entropies will be listed as multiplied by the temperature to get
units of energy

Electronic entropy                ...      0.00000000 Eh      0.00 kcal/mol
Vibrational entropy               ...      0.00801543 Eh      5.03 kcal/mol
Rotational entropy                ...      0.01455950 Eh      9.14 kcal/mol
Translational entropy             ...      0.02009917 Eh     12.61 kcal/mol
-----------------------------------------------------------------------
Final entropy term                ...      0.04267411 Eh     26.78 kcal/mol

In case the symmetry of your molecule has not been determined correctly
or in case you have a reason to use a different symmetry number we print
out the resulting rotational entropy values for sn=1,12:

 non-linear molecules -----------------------------------
|  sn= 1 | S(rot)=       0.01455950 Eh      9.14 kcal/mol|
|  sn= 2 | S(rot)=       0.01390504 Eh      8.73 kcal/mol|
|  sn= 3 | S(rot)=       0.01352221 Eh      8.49 kcal/mol|
|  sn= 4 | S(rot)=       0.01325059 Eh      8.31 kcal/mol|
|  sn= 5 | S(rot)=       0.01303990 Eh      8.18 kcal/mol|
|  sn= 6 | S(rot)=       0.01286776 Eh      8.07 kcal/mol|
|  sn= 7 | S(rot)=       0.01272221 Eh      7.98 kcal/mol|
|  sn= 8 | S(rot)=       0.01259613 Eh      7.90 kcal/mol|
|  sn= 9 | S(rot)=       0.01248492 Eh      7.83 kcal/mol|
|  sn=10 | S(rot)=       0.01238544 Eh      7.77 kcal/mol|
|  sn=11 | S(rot)=       0.01229545 Eh      7.72 kcal/mol|
|  sn=12 | S(rot)=       0.01221330 Eh      7.66 kcal/mol|
 linear molecules ---------------------------------------
|  Dinfh | S(rot)=       0.00935422 Eh      5.87 kcal/mol|
|  Cinfv | S(rot)=       0.01000867 Eh      6.28 kcal/mol|
 --------------------------------------------------------

-------------------
GIBBS FREE ENERGY
-------------------

The Gibbs free energy is G = H - T*S

Total enthalpy                    ...   -711.91551141 Eh
Total entropy correction          ...     -0.04267411 Eh    -26.78 kcal/mol
-----------------------------------------------------------------------
Final Gibbs free energy         ...   -711.95818552 Eh

For completeness - the Gibbs free energy minus the electronic energy
G-E(el)                           ...      0.04222559 Eh     26.50 kcal/mol

                             ****ORCA TERMINATED NORMALLY****
TOTAL RUN TIME: 0 days 0 hours 11 minutes 33 seconds 357 msec
