                         Program Version 6.0.0  -   RELEASE  -
|  1> ! r2SCAN-3c DEF2-TZVP FREQ
|  2> * xyzfile 0 1 vacuum_censo.xyz
|  3>
|  4>                          ****END OF INPUT****

CARTESIAN COORDINATES (ANGSTROEM)
---------------------------------
  C      1.030741    1.343204    0.000222
  C      0.335990    0.184818    0.000114
  C      1.034023   -1.098139   -0.000042
  O      0.527170   -2.200919   -0.000017
  N      2.437344   -0.953642   -0.000258
  C      3.189333    0.208384   -0.000117
  O      4.402507    0.240172   -0.000216
  N      2.400991    1.357205    0.000147
  I     -1.750725    0.154797    0.000263
  H      0.547370    2.313702    0.000387
  H      2.968288   -1.815058   -0.000359
  H      2.908221    2.228499    0.000185

 Total Charge           Charge          ....    0
 Multiplicity           Mult            ....    1
 Number of Electrons    NEL             ....   82
 Basis Dimension        Dim             ....  316

ORBITAL ENERGIES
----------------

  NO   OCC          E(Eh)            E(eV)
   0   2.0000     -18.949032      -515.6294
   1   2.0000     -18.945624      -515.5366
   2   2.0000     -14.252309      -387.8251
   3   2.0000     -14.233957      -387.3257
   4   2.0000     -10.197301      -277.4827
   5   2.0000     -10.168709      -276.7047
   6   2.0000     -10.133453      -275.7453
   7   2.0000     -10.106218      -275.0042
   8   2.0000      -6.796549      -184.9435
   9   2.0000      -4.819445      -131.1438
  10   2.0000      -4.804942      -130.7491
  11   2.0000      -4.804893      -130.7478
  12   2.0000      -1.869660       -50.8760
  13   2.0000      -1.866648       -50.7941
  14   2.0000      -1.866492       -50.7898
  15   2.0000      -1.854319       -50.4586
  16   2.0000      -1.854317       -50.4585
  17   2.0000      -1.058611       -28.8063
  18   2.0000      -1.027015       -27.9465
  19   2.0000      -0.964559       -26.2470
  20   2.0000      -0.911675       -24.8079
  21   2.0000      -0.795407       -21.6441
  22   2.0000      -0.689951       -18.7745
  23   2.0000      -0.663749       -18.0615
  24   2.0000      -0.649260       -17.6673
  25   2.0000      -0.559742       -15.2313
  26   2.0000      -0.548277       -14.9194
  27   2.0000      -0.507095       -13.7988
  28   2.0000      -0.468562       -12.7502
  29   2.0000      -0.457610       -12.4522
  30   2.0000      -0.423203       -11.5159
  31   2.0000      -0.405639       -11.0380
  32   2.0000      -0.397045       -10.8042
  33   2.0000      -0.372397       -10.1334
  34   2.0000      -0.365598        -9.9484
  35   2.0000      -0.285596        -7.7715
  36   2.0000      -0.281152        -7.6505
  37   2.0000      -0.279738        -7.6121
  38   2.0000      -0.257387        -7.0039
  39   2.0000      -0.250074        -6.8049
  40   2.0000      -0.227476        -6.1899
  41   0.0000      -0.091207        -2.4819
  42   0.0000      -0.069560        -1.8928
  43   0.0000      -0.035185        -0.9574
  44   0.0000       0.022081         0.6009
  45   0.0000       0.051555         1.4029

MULLIKEN ATOMIC CHARGES
-----------------------
   0 C :   -0.034108
   1 C :   -0.093282
   2 C :    0.224035
   3 O :   -0.328298
   4 N :   -0.228259
   5 C :    0.323288
   6 O :   -0.355429
   7 N :   -0.219256
   8 I :    0.036680
   9 H :    0.162083
  10 H :    0.256405
  11 H :    0.256140
Sum of atomic charges:   -0.0000000

LOEWDIN ATOMIC CHARGES
----------------------
   0 C :   -0.190265
   1 C :   -0.400740
   2 C :   -0.444310
   3 O :    0.107634
   4 N :    0.203265
   5 C :   -0.503290
   6 O :    0.075984
   7 N :    0.185520
   8 I :    0.395668
   9 H :    0.152893
  10 H :    0.210504
  11 H :    0.207139

  Mayer bond orders larger than 0.100000
B(  0-C ,  1-C ) :   1.6327 B(  0-C ,  7-N ) :   1.1418 B(  0-C ,  9-H ) :   0.9262
B(  1-C ,  2-C ) :   1.0100 B(  1-C ,  8-I ) :   1.1177 B(  2-C ,  3-O ) :   2.0619
B(  2-C ,  4-N ) :   1.0891 B(  4-N ,  5-C ) :   1.1377 B(  4-N , 10-H ) :   0.8825
B(  5-C ,  6-O ) :   2.0488 B(  5-C ,  7-N ) :   1.0800 B(  7-N , 11-H ) :   0.8974

Dispersion correction           -0.004702953
FINAL SINGLE POINT ENERGY      -712.001625672223

DIPOLE MOMENT
-------------

Method             : SCF
Type of density    : Electron Density
Multiplicity       :   1
Irrep              :   0
Energy             :  -712.0088462797581315 Eh
Relativity type    :
Basis              : AO
                                X                 Y                 Z
Electronic contribution:   -132.609833131       8.956783457       0.010090998
Nuclear contribution   :    132.582662653      -7.427302807      -0.009956753
                        -----------------------------------------
Total Dipole Moment    :     -0.027170479       1.529480649       0.000134244
                        -----------------------------------------
Magnitude (a.u.)       :      1.529721971
Magnitude (Debye)      :      3.888244247

VIBRATIONAL FREQUENCIES
-----------------------

Scaling factor for frequencies =  1.000000000  (already applied!)

     0:       0.00 cm**-1
     1:       0.00 cm**-1
     2:       0.00 cm**-1
     3:       0.00 cm**-1
     4:       0.00 cm**-1
     5:       0.00 cm**-1
     6:      88.63 cm**-1
     7:     153.29 cm**-1
     8:     161.60 cm**-1
     9:     238.47 cm**-1
    10:     254.38 cm**-1
    11:     387.05 cm**-1
    12:     397.11 cm**-1
    13:     535.67 cm**-1
    14:     573.86 cm**-1
    15:     592.06 cm**-1
    16:     614.20 cm**-1
    17:     679.57 cm**-1
    18:     754.59 cm**-1
    19:     765.35 cm**-1
    20:     770.51 cm**-1
    21:     909.97 cm**-1
    22:     969.15 cm**-1
    23:    1035.76 cm**-1
    24:    1142.21 cm**-1
    25:    1186.35 cm**-1
    26:    1336.97 cm**-1
    27:    1386.35 cm**-1
    28:    1398.30 cm**-1
    29:    1477.56 cm**-1
    30:    1638.52 cm**-1
    31:    1747.94 cm**-1
    32:    1789.81 cm**-1
    33:    3195.93 cm**-1
    34:    3583.05 cm**-1
    35:    3625.77 cm**-1

IR SPECTRUM
-----------

 Mode   freq       eps      Int      T**2         TX        TY        TZ
       cm**-1   L/(mol*cm) km/mol    a.u.
----------------------------------------------------------------------------
  6:     88.63   0.000215    1.09  0.000757  ( 0.000001  0.000004 -0.027519)
  7:    153.29   0.000261    1.32  0.000532  (-0.000002  0.000020 -0.023061)
  8:    161.60   0.000335    1.69  0.000646  ( 0.023550 -0.009575 -0.000003)
  9:    238.47   0.000280    1.42  0.000367  (-0.019148  0.000561  0.000003)
 10:    254.38   0.000111    0.56  0.000136  (-0.000004 -0.000024  0.011649)
 11:    387.05   0.003774   19.07  0.003043  (-0.000036  0.000019 -0.055162)
 12:    397.11   0.003813   19.27  0.002997  (-0.018048  0.051681  0.000051)
 13:    535.67   0.002218   11.21  0.001292  ( 0.019938  0.029906  0.000001)
 14:    573.86   0.010229   51.69  0.005562  ( 0.000002  0.000010  0.074581)
 15:    592.06   0.001619    8.18  0.000853  (-0.028959  0.003813 -0.000003)
 16:    614.20   0.006683   33.77  0.003396  (-0.057916  0.006421 -0.000023)
 17:    679.57   0.013806   69.77  0.006340  ( 0.000001 -0.000010 -0.079623)
 18:    754.59   0.005673   28.67  0.002346  ( 0.000014  0.000036  0.048438)
 19:    765.35   0.004657   23.54  0.001899  ( 0.000013  0.000038 -0.043577)
 20:    770.51   0.000448    2.27  0.000182  (-0.003545 -0.012999 -0.000010)
 21:    909.97   0.002250   11.37  0.000771  (-0.000011 -0.000016 -0.027775)
 22:    969.15   0.004549   22.99  0.001465  ( 0.038147 -0.003065 -0.000006)
 23:   1035.76   0.007800   39.42  0.002350  (-0.045600 -0.016453  0.000002)
 24:   1142.21   0.000173    0.88  0.000047  (-0.006188 -0.003004 -0.000003)
 25:   1186.35   0.021154  106.91  0.005565  ( 0.058788  0.045919  0.000001)
 26:   1336.97   0.005205   26.31  0.001215  ( 0.034584 -0.004347 -0.000004)
 27:   1386.35   0.019836  100.24  0.004465  ( 0.049920 -0.044417 -0.000011)
 28:   1398.30   0.006459   32.64  0.001441  ( 0.028732 -0.024818 -0.000007)
 29:   1477.56   0.009351   47.26  0.001975  (-0.043787  0.007588  0.000005)
 30:   1638.52   0.016048   81.10  0.003056  ( 0.021634  0.050876  0.000005)
 31:   1747.94   0.081683  412.79  0.014583  (-0.050953 -0.109484  0.000001)
 32:   1789.81   0.156143  789.08  0.027224  ( 0.164965  0.003307 -0.000013)
 33:   3195.93   0.000088    0.44  0.000009  ( 0.002147  0.001993  0.000000)
 34:   3583.05   0.014444   73.00  0.001258  (-0.019046  0.029921  0.000005)
 35:   3625.77   0.023221  117.35  0.001999  ( 0.022901  0.038394  0.000002)

--------------------------
THERMOCHEMISTRY AT 298.15K
--------------------------

Temperature         ...   298.15 K
Pressure            ...     1.00 atm
Total Mass          ...   237.98 AMU
Quasi RRHO          ...     True
Cut-Off Frequency   ...     1.00 cm^-1

Throughout the following assumptions are being made:
  (1) The electronic state is orbitally nondegenerate
  (2) There are no thermally accessible electronically excited states
  (3) Hindered rotations indicated by low frequency modes are not
      treated as such but are treated as vibrations and this may
      cause some error
  (4) All equations used are the standard statistical mechanics
      equations for an ideal gas
  (5) All vibrations are strictly harmonic

freq.      88.63  E(vib)   ...       0.47
freq.     153.29  E(vib)   ...       0.40
freq.     161.60  E(vib)   ...       0.39
freq.     238.47  E(vib)   ...       0.32
freq.     254.38  E(vib)   ...       0.30
freq.     387.05  E(vib)   ...       0.20
freq.     397.11  E(vib)   ...       0.20
freq.     535.67  E(vib)   ...       0.12
freq.     573.86  E(vib)   ...       0.11
freq.     592.06  E(vib)   ...       0.10
freq.     614.20  E(vib)   ...       0.10
freq.     679.57  E(vib)   ...       0.08
freq.     754.59  E(vib)   ...       0.06
freq.     765.35  E(vib)   ...       0.06
freq.     770.51  E(vib)   ...       0.05
freq.     909.97  E(vib)   ...       0.03
freq.     969.15  E(vib)   ...       0.03
freq.    1035.76  E(vib)   ...       0.02
freq.    1142.21  E(vib)   ...       0.01
freq.    1186.35  E(vib)   ...       0.01
freq.    1336.97  E(vib)   ...       0.01
freq.    1386.35  E(vib)   ...       0.00
freq.    1398.30  E(vib)   ...       0.00
freq.    1477.56  E(vib)   ...       0.00
freq.    1638.52  E(vib)   ...       0.00
freq.    1747.94  E(vib)   ...       0.00
freq.    1789.81  E(vib)   ...       0.00
freq.    3195.93  E(vib)   ...       0.00
freq.    3583.05  E(vib)   ...       0.00
freq.    3625.77  E(vib)   ...       0.00

------------
INNER ENERGY
------------

The inner energy is: U= E(el) + E(ZPE) + E(vib) + E(rot) + E(trans)
    E(el)   - is the total energy from the electronic structure calculation
              = E(kin-el) + E(nuc-el) + E(el-el) + E(nuc-nuc)
    E(ZPE)  - the the zero temperature vibrational energy from the frequency calculation
    E(vib)  - the the finite temperature correction to E(ZPE) due to population
              of excited vibrational states
    E(rot)  - is the rotational thermal energy
    E(trans)- is the translational thermal energy

Summary of contributions to the inner energy U:
Electronic energy                ...   -712.00162567 Eh
Zero point energy                ...      0.07606800 Eh      47.73 kcal/mol
Thermal vibrational correction   ...      0.00491685 Eh       3.09 kcal/mol
Thermal rotational correction    ...      0.00141627 Eh       0.89 kcal/mol
Thermal translational correction ...      0.00141627 Eh       0.89 kcal/mol
-----------------------------------------------------------------------
Total thermal energy                   -711.91780828 Eh

Summary of corrections to the electronic energy:
(perhaps to be used in another calculation)
Total thermal correction                  0.00774939 Eh       4.86 kcal/mol
Non-thermal (ZPE) correction              0.07606800 Eh      47.73 kcal/mol
-----------------------------------------------------------------------
Total correction                          0.08381739 Eh      52.60 kcal/mol

--------
ENTHALPY
--------

The enthalpy is H = U + kB*T
                kB is Boltzmann's constant
Total thermal energy              ...   -711.91780828 Eh
Thermal Enthalpy correction       ...      0.00094421 Eh       0.59 kcal/mol
-----------------------------------------------------------------------
Total Enthalpy                    ...   -711.91686408 Eh

Note: Only C1 symmetry has been detected, increase convergence thresholds
      if your molecule has a higher symmetry. Symmetry factor of 1.0 is
      used for the rotational entropy correction.

Note: Rotational entropy computed according to Herzberg
Infrared and Raman Spectra, Chapter V,1, Van Nostrand Reinhold, 1945
Point Group:  C1, Symmetry Number:   1
Rotational constants in cm-1:     0.098789     0.016298     0.013990

Vibrational entropy computed according to the QRRHO of S. Grimme
Chem.Eur.J. 2012 18 9955 using a reference frequency of 100.0 cm-1

-------
ENTROPY
-------

The entropy contributions are T*S = T*(S(el)+S(vib)+S(rot)+S(trans))
     S(el)   - electronic entropy
     S(vib)  - vibrational entropy
     S(rot)  - rotational entropy
     S(trans)- translational entropy
The entropies will be listed as multiplied by the temperature to get
units of energy

Electronic entropy                ...      0.00000000 Eh      0.00 kcal/mol
Vibrational entropy               ...      0.00826336 Eh      5.19 kcal/mol
Rotational entropy                ...      0.01456263 Eh      9.14 kcal/mol
Translational entropy             ...      0.02009917 Eh     12.61 kcal/mol
-----------------------------------------------------------------------
Final entropy term                ...      0.04292516 Eh     26.94 kcal/mol

In case the symmetry of your molecule has not been determined correctly
or in case you have a reason to use a different symmetry number we print
out the resulting rotational entropy values for sn=1,12:

 non-linear molecules -----------------------------------
|  sn= 1 | S(rot)=       0.01456263 Eh      9.14 kcal/mol|
|  sn= 2 | S(rot)=       0.01390817 Eh      8.73 kcal/mol|
|  sn= 3 | S(rot)=       0.01352534 Eh      8.49 kcal/mol|
|  sn= 4 | S(rot)=       0.01325371 Eh      8.32 kcal/mol|
|  sn= 5 | S(rot)=       0.01304302 Eh      8.18 kcal/mol|
|  sn= 6 | S(rot)=       0.01287088 Eh      8.08 kcal/mol|
|  sn= 7 | S(rot)=       0.01272533 Eh      7.99 kcal/mol|
|  sn= 8 | S(rot)=       0.01259926 Eh      7.91 kcal/mol|
|  sn= 9 | S(rot)=       0.01248805 Eh      7.84 kcal/mol|
|  sn=10 | S(rot)=       0.01238857 Eh      7.77 kcal/mol|
|  sn=11 | S(rot)=       0.01229858 Eh      7.72 kcal/mol|
|  sn=12 | S(rot)=       0.01221642 Eh      7.67 kcal/mol|
 linear molecules ---------------------------------------
|  Dinfh | S(rot)=       0.00935693 Eh      5.87 kcal/mol|
|  Cinfv | S(rot)=       0.01001139 Eh      6.28 kcal/mol|
 --------------------------------------------------------

-------------------
GIBBS FREE ENERGY
-------------------

The Gibbs free energy is G = H - T*S

Total enthalpy                    ...   -711.91686408 Eh
Total entropy correction          ...     -0.04292516 Eh    -26.94 kcal/mol
-----------------------------------------------------------------------
Final Gibbs free energy         ...   -711.95978924 Eh

For completeness - the Gibbs free energy minus the electronic energy

                             ****ORCA TERMINATED NORMALLY****
TOTAL RUN TIME: 0 days 0 hours 11 minutes 25 seconds 719 msec
