                         Program Version 6.0.1  -  RELEASE   -
|  1> ! pbe def2-sv(p) def2/J RI DEFGRID1 loosescf d4 GCP(DFT/SV(P)) printgap
|  2> %output
|  3>     printlevel normal
|  4> end
|  5> * xyz 0 1
|  6> C -2.1394320302 -1.3188004329 -0.0040919436
|  7> C -0.9346275384 -0.5415955863 0.5550684942
|  8> H -1.2108853841 -0.1578792776 1.5471402839
|  9> C -0.5896250901 0.6485781579 -0.3452494178
| 10> H -0.5065704524 0.3086963303 -1.3912329444
| 11> C 0.7519609413 1.2738251632 0.0675239853
| 12> H 0.6339314074 1.7362482104 1.0555014624
| 13> C 1.8713065105 0.2100350455 0.1522623708
| 14> H 2.6197947491 0.4022878309 -0.6231050462
| 15> C 1.29645275 -1.203858439 -0.0615950383
| 16> H 2.0328329018 -1.9345685534 0.3105519446
| 17> O 0.1714606494 -1.4243585228 0.7413133205
| 18> O 1.0515850623 -1.3960534799 -1.4228382953
| 19> O 2.5586699698 0.2616715636 1.3714347983
| 20> O 1.0544323715 2.3421191584 -0.7958478115
| 21> O -1.6213393108 1.6045762653 -0.2462590845
| 22> O -3.3384986206 -0.6217157576 0.1658481616
| 23> H -2.2369610548 -2.2605499264 0.5422380892
| 24> H -1.9610323177 -1.5456055302 -1.067856349
| 25> H 0.713128203 -2.2897951751 -1.5576460914
| 26> H 1.9772051435 -0.0650164113 2.0698907048
| 27> H 1.2879052517 1.9902971955 -1.6636202254
| 28> H -1.2474621895 2.4582562792 -0.5061628576
| 29> H -3.1895726048 0.298669992 -0.0943612834
| 30> *
| 31>
| 32>                          ****END OF INPUT****

CARTESIAN COORDINATES (ANGSTROEM)
---------------------------------
  C     -2.139432   -1.318800   -0.004092
  C     -0.934628   -0.541596    0.555068
  H     -1.210885   -0.157879    1.547140
  C     -0.589625    0.648578   -0.345249
  H     -0.506570    0.308696   -1.391233
  C      0.751961    1.273825    0.067524
  H      0.633931    1.736248    1.055501
  C      1.871307    0.210035    0.152262
  H      2.619795    0.402288   -0.623105
  C      1.296453   -1.203858   -0.061595
  H      2.032833   -1.934569    0.310552
  O      0.171461   -1.424359    0.741313
  O      1.051585   -1.396053   -1.422838
  O      2.558670    0.261672    1.371435
  O      1.054432    2.342119   -0.795848
  O     -1.621339    1.604576   -0.246259
  O     -3.338499   -0.621716    0.165848
  H     -2.236961   -2.260550    0.542238
  H     -1.961032   -1.545606   -1.067856
  H      0.713128   -2.289795   -1.557646
  H      1.977205   -0.065016    2.069891
  H      1.287905    1.990297   -1.663620
  H     -1.247462    2.458256   -0.506163
  H     -3.189573    0.298670   -0.094361

 Total Charge           Charge          ....    0
 Multiplicity           Mult            ....    1
 Number of Electrons    NEL             ....   96
 Basis Dimension        Dim             ....  192

ORBITAL ENERGIES
----------------

  NO   OCC          E(Eh)            E(eV)
   0   2.0000     -18.785530      -511.1803
   1   2.0000     -18.779379      -511.0129
   2   2.0000     -18.771167      -510.7894
   3   2.0000     -18.768358      -510.7130
   4   2.0000     -18.759734      -510.4783
   5   2.0000     -18.734706      -509.7973
   6   2.0000      -9.997313      -272.0407
   7   2.0000      -9.953259      -270.8419
   8   2.0000      -9.952997      -270.8348
   9   2.0000      -9.949803      -270.7479
  10   2.0000      -9.949477      -270.7390
  11   2.0000      -9.928200      -270.1601
  12   2.0000      -0.997186       -27.1348
  13   2.0000      -0.961206       -26.1557
  14   2.0000      -0.942370       -25.6432
  15   2.0000      -0.935747       -25.4630
  16   2.0000      -0.926505       -25.2115
  17   2.0000      -0.913437       -24.8559
  18   2.0000      -0.711897       -19.3717
  19   2.0000      -0.698491       -19.0069
  20   2.0000      -0.621865       -16.9218
  21   2.0000      -0.600295       -16.3348
  22   2.0000      -0.577169       -15.7056
  23   2.0000      -0.535687       -14.5768
  24   2.0000      -0.519981       -14.1494
  25   2.0000      -0.495214       -13.4755
  26   2.0000      -0.474491       -12.9116
  27   2.0000      -0.465350       -12.6628
  28   2.0000      -0.454627       -12.3710
  29   2.0000      -0.435751       -11.8574
  30   2.0000      -0.430298       -11.7090
  31   2.0000      -0.400205       -10.8901
  32   2.0000      -0.395848       -10.7716
  33   2.0000      -0.379336       -10.3223
  34   2.0000      -0.368890       -10.0380
  35   2.0000      -0.361913        -9.8481
  36   2.0000      -0.345628        -9.4050
  37   2.0000      -0.324704        -8.8356
  38   2.0000      -0.316939        -8.6243
  39   2.0000      -0.304664        -8.2903
  40   2.0000      -0.286996        -7.8095
  41   2.0000      -0.275690        -7.5019
  42   2.0000      -0.268830        -7.3152
  43   2.0000      -0.252663        -6.8753
  44   2.0000      -0.243463        -6.6250
  45   2.0000      -0.232451        -6.3253
  46   2.0000      -0.214698        -5.8422
  47   2.0000      -0.206894        -5.6299
  48   0.0000       0.006458         0.1757
  49   0.0000       0.015375         0.4184
  50   0.0000       0.032113         0.8738
  51   0.0000       0.039811         1.0833
  52   0.0000       0.050322         1.3693

MULLIKEN ATOMIC CHARGES
-----------------------
   0 C :    0.096999
   1 C :   -0.010607
   2 H :    0.077371
   3 C :    0.065074
   4 H :    0.059412
   5 C :    0.038663
   6 H :    0.063616
   7 C :    0.100830
   8 H :    0.070427
   9 C :    0.103080
  10 H :    0.076767
  11 O :   -0.309885
  12 O :   -0.393006
  13 O :   -0.414251
  14 O :   -0.419032
  15 O :   -0.426299
  16 O :   -0.441959
  17 H :    0.086448
  18 H :    0.047207
  19 H :    0.309201
  20 H :    0.300254
  21 H :    0.305730
  22 H :    0.310235
  23 H :    0.303727
Sum of atomic charges:    0.0000000

LOEWDIN ATOMIC CHARGES
----------------------
   0 C :   -0.125227
   1 C :   -0.069764
   2 H :    0.115733
   3 C :   -0.092570
   4 H :    0.104075
   5 C :   -0.077995
   6 H :    0.120589
   7 C :   -0.078395
   8 H :    0.122569
   9 C :   -0.018404
  10 H :    0.102570
  11 O :   -0.141904
  12 O :   -0.312393
  13 O :   -0.305151
  14 O :   -0.307147
  15 O :   -0.319007
  16 O :   -0.337745
  17 H :    0.111640
  18 H :    0.087819
  19 H :    0.288853
  20 H :    0.283199
  21 H :    0.287553
  22 H :    0.286947
  23 H :    0.274156

  Mayer bond orders larger than 0.100000
B(  0-C ,  1-C ) :   1.0497 B(  0-C , 16-O ) :   1.0950 B(  0-C , 17-H ) :   0.9211
B(  0-C , 18-H ) :   0.8993 B(  1-C ,  2-H ) :   0.8849 B(  1-C ,  3-C ) :   0.9872
B(  1-C , 11-O ) :   0.9529 B(  3-C ,  4-H ) :   0.8450 B(  3-C ,  5-C ) :   1.0688
B(  3-C , 15-O ) :   1.0316 B(  5-C ,  6-H ) :   0.8590 B(  5-C ,  7-C ) :   0.9596
B(  5-C , 14-O ) :   1.0112 B(  7-C ,  8-H ) :   0.8699 B(  7-C ,  9-C ) :   1.0325
B(  7-C , 13-O ) :   1.0488 B(  9-C , 10-H ) :   0.8995 B(  9-C , 11-O ) :   1.0636
B(  9-C , 12-O ) :   1.0971 B( 12-O , 19-H ) :   0.8344 B( 13-O , 20-H ) :   0.8446
B( 14-O , 21-H ) :   0.8479 B( 15-O , 22-H ) :   0.8202 B( 16-O , 23-H ) :   0.8198

Dispersion correction           -0.024775694
FINAL SINGLE POINT ENERGY      -685.692578220696

DIPOLE MOMENT
-------------

Method             : SCF
Type of density    : Electron Density
Multiplicity       :   1
Irrep              :   0
Energy             :  -685.8251237585286617 Eh
Relativity type    :
Basis              : AO
                                X                 Y                 Z
Electronic contribution:      1.583395877       0.762445949       0.673310188
Nuclear contribution   :     -1.022267231      -0.982132279      -1.296180449
                        -----------------------------------------
Total Dipole Moment    :      0.561128646      -0.219686330      -0.622870261
                        -----------------------------------------
Magnitude (a.u.)       :      0.866657258
Magnitude (Debye)      :      2.202867685

Rotational constants in cm-1:             0.043010             0.025849             0.020056
Rotational constants in MHz :          1289.418113           774.945326           601.276657

                             ****ORCA TERMINATED NORMALLY****
TOTAL RUN TIME: 0 days 0 hours 26 minutes 7 seconds 929 msec
