                         Program Version 6.0.0  -   RELEASE  -
|  1> ! r2SCAN-3c DEF2-TZVP FREQ
|  2> * xyzfile 0 1 censo.xyz
|  3>
|  4>                          ****END OF INPUT****

CARTESIAN COORDINATES (ANGSTROEM)
---------------------------------
  C     -2.936289   -0.000263    0.000113
  C     -1.432762   -0.006489   -0.000726
  C     -0.707924   -1.199857   -0.000795
  C      0.685921   -1.206498   -0.000439
  C      1.377480    0.001601   -0.000094
  C      0.678424    1.208349   -0.000156
  C     -0.711213    1.193788   -0.000470
  O      2.757312    0.061081   -0.000029
  H     -3.331402    0.528470   -0.874250
  H     -3.333514   -1.018353   -0.011336
  H     -3.330348    0.507773    0.887238
  H     -1.238591   -2.148088   -0.001270
  H      1.235547   -2.144044   -0.000720
  H      1.226308    2.145350   -0.000215
  H     -1.248681    2.138617   -0.000615
  H      3.105716   -0.841318   -0.000381

 Total Charge           Charge          ....    0
 Multiplicity           Mult            ....    1
 Number of Electrons    NEL             ....   58
 Basis Dimension        Dim             ....  296

ORBITAL ENERGIES
----------------

  NO   OCC          E(Eh)            E(eV)
   0   2.0000     -18.983651      -516.5714
   1   2.0000     -10.093569      -274.6600
   2   2.0000     -10.039181      -273.1800
   3   2.0000     -10.036561      -273.1087
   4   2.0000     -10.035909      -273.0910
   5   2.0000     -10.034719      -273.0586
   6   2.0000     -10.031177      -272.9622
   7   2.0000     -10.028529      -272.8901
   8   2.0000      -1.020109       -27.7586
   9   2.0000      -0.819904       -22.3107
  10   2.0000      -0.733424       -19.9575
  11   2.0000      -0.715201       -19.4616
  12   2.0000      -0.648636       -17.6503
  13   2.0000      -0.588426       -16.0119
  14   2.0000      -0.556727       -15.1493
  15   2.0000      -0.510522       -13.8920
  16   2.0000      -0.453046       -12.3280
  17   2.0000      -0.433619       -11.7994
  18   2.0000      -0.404168       -10.9980
  19   2.0000      -0.391651       -10.6574
  20   2.0000      -0.390411       -10.6236
  21   2.0000      -0.370817       -10.0905
  22   2.0000      -0.369851       -10.0642
  23   2.0000      -0.341382        -9.2895
  24   2.0000      -0.324666        -8.8346
  25   2.0000      -0.305748        -8.3198
  26   2.0000      -0.299619        -8.1530
  27   2.0000      -0.236847        -6.4449
  28   2.0000      -0.199521        -5.4292
  29   0.0000      -0.036274        -0.9871
  30   0.0000      -0.015748        -0.4285
  31   0.0000       0.037399         1.0177
  32   0.0000       0.056385         1.5343
  33   0.0000       0.075086         2.0432

MULLIKEN ATOMIC CHARGES
-----------------------
   0 C :   -0.344302
   1 C :    0.156528
   2 C :   -0.190843
   3 C :   -0.196806
   4 C :    0.289813
   5 C :   -0.197903
   6 C :   -0.164814
   7 O :   -0.403919
   8 H :    0.115367
   9 H :    0.105502
  10 H :    0.115533
  11 H :    0.099954
  12 H :    0.093325
  13 H :    0.109088
  14 H :    0.101916
  15 H :    0.311563
Sum of atomic charges:    0.0000000

LOEWDIN ATOMIC CHARGES
----------------------
   0 C :   -0.257614
   1 C :   -0.186141
   2 C :   -0.120074
   3 C :   -0.148272
   4 C :   -0.267587
   5 C :   -0.120586
   6 C :   -0.111966
   7 O :    0.065687
   8 H :    0.127986
   9 H :    0.124864
  10 H :    0.128051
  11 H :    0.144413
  12 H :    0.140298
  13 H :    0.148723
  14 H :    0.146223
  15 H :    0.185995

  Mayer bond orders larger than 0.100000
B(  0-C ,  1-C ) :   0.9040 B(  0-C ,  8-H ) :   0.9676 B(  0-C ,  9-H ) :   0.9900
B(  0-C , 10-H ) :   0.9667 B(  1-C ,  2-C ) :   1.3813 B(  1-C ,  6-C ) :   1.3147
B(  2-C ,  3-C ) :   1.3875 B(  2-C , 11-H ) :   0.9619 B(  3-C ,  4-C ) :   1.3359
B(  3-C , 12-H ) :   0.9659 B(  4-C ,  5-C ) :   1.3614 B(  4-C ,  7-O ) :   1.0981
B(  5-C ,  6-C ) :   1.4266 B(  5-C , 13-H ) :   0.9814 B(  6-C , 14-H ) :   0.9861
B(  7-O , 15-H ) :   0.8874

Dispersion correction           -0.004879352
FINAL SINGLE POINT ENERGY      -346.727357200423

DIPOLE MOMENT
-------------

Method             : SCF
Type of density    : Electron Density
Multiplicity       :   1
Irrep              :   0
Energy             :  -346.7278607561913759 Eh
Relativity type    :
Basis              : AO
                                X                 Y                 Z
Electronic contribution:      6.347559312       0.288652367      -0.000662784
Nuclear contribution   :     -6.485210455      -0.781117218       0.000832390
                        -----------------------------------------
Total Dipole Moment    :     -0.137651143      -0.492464851       0.000169606
                        -----------------------------------------
Magnitude (a.u.)       :      0.511340880
Magnitude (Debye)      :      1.299725227

VIBRATIONAL FREQUENCIES
-----------------------

Scaling factor for frequencies =  1.000000000  (already applied!)

     0:       0.00 cm**-1
     1:       0.00 cm**-1
     2:       0.00 cm**-1
     3:       0.00 cm**-1
     4:       0.00 cm**-1
     5:       0.00 cm**-1
     6:      76.37 cm**-1
     7:     151.93 cm**-1
     8:     314.18 cm**-1
     9:     336.49 cm**-1
    10:     413.19 cm**-1
    11:     424.42 cm**-1
    12:     437.98 cm**-1
    13:     468.31 cm**-1
    14:     511.51 cm**-1
    15:     660.39 cm**-1
    16:     712.77 cm**-1
    17:     745.57 cm**-1
    18:     799.95 cm**-1
    19:     828.85 cm**-1
    20:     847.58 cm**-1
    21:     906.28 cm**-1
    22:     942.76 cm**-1
    23:    1004.13 cm**-1
    24:    1035.21 cm**-1
    25:    1055.05 cm**-1
    26:    1127.61 cm**-1
    27:    1190.41 cm**-1
    28:    1196.92 cm**-1
    29:    1232.14 cm**-1
    30:    1255.50 cm**-1
    31:    1333.95 cm**-1
    32:    1366.92 cm**-1
    33:    1403.01 cm**-1
    34:    1452.92 cm**-1
    35:    1476.53 cm**-1
    36:    1496.25 cm**-1
    37:    1535.64 cm**-1
    38:    1628.57 cm**-1
    39:    1644.13 cm**-1
    40:    3004.88 cm**-1
    41:    3065.01 cm**-1
    42:    3098.53 cm**-1
    43:    3144.84 cm**-1
    44:    3149.05 cm**-1
    45:    3161.35 cm**-1
    46:    3178.06 cm**-1
    47:    3760.98 cm**-1

IR SPECTRUM
-----------

 Mode   freq       eps      Int      T**2         TX        TY        TZ
       cm**-1   L/(mol*cm) km/mol    a.u.
----------------------------------------------------------------------------
  6:     76.37   0.000047    0.24  0.000190  (-0.000514 -0.000837  0.013753)
  7:    151.93   0.000180    0.91  0.000369  (-0.000286 -0.000145 -0.019218)
  8:    314.18   0.000297    1.50  0.000295  ( 0.015177  0.008054 -0.000002)
  9:    336.49   0.000208    1.05  0.000193  (-0.000131 -0.000065 -0.013887)
 10:    413.19   0.013218   66.80  0.009983  ( 0.000102  0.000021 -0.099916)
 11:    424.42   0.005772   29.17  0.004244  ( 0.000132 -0.000111  0.065146)
 12:    437.98   0.001802    9.11  0.001284  (-0.035489  0.004975  0.000121)
 13:    468.31   0.000547    2.76  0.000364  ( 0.018795  0.003321 -0.000019)
 14:    511.51   0.004497   22.73  0.002743  (-0.000108  0.000028  0.052378)
 15:    660.39   0.000111    0.56  0.000052  ( 0.006979  0.001897 -0.000008)
 16:    712.77   0.000343    1.73  0.000150  (-0.000054  0.000007 -0.012254)
 17:    745.57   0.002961   14.96  0.001239  (-0.035199 -0.000656 -0.000044)
 18:    799.95   0.004881   24.66  0.001904  ( 0.000112 -0.000086 -0.043634)
 19:    828.85   0.005094   25.74  0.001918  (-0.000085 -0.000019  0.043793)
 20:    847.58   0.001933    9.77  0.000712  (-0.026628  0.001677 -0.000096)
 21:    906.28   0.000004    0.02  0.000001  (-0.000052 -0.000028  0.001113)
 22:    942.76   0.000095    0.48  0.000031  ( 0.000034 -0.000029 -0.005605)
 23:   1004.13   0.000136    0.69  0.000042  (-0.006208  0.001914  0.000004)
 24:   1035.21   0.000014    0.07  0.000004  ( 0.002076  0.000202  0.000078)
 25:   1055.05   0.000599    3.03  0.000177  (-0.000621  0.000068  0.013299)
 26:   1127.61   0.003060   15.46  0.000847  (-0.013095  0.025986  0.000005)
 27:   1190.41   0.013258   67.00  0.003475  (-0.058918  0.002034 -0.000012)
 28:   1196.92   0.027381  138.37  0.007139  (-0.084272 -0.006099 -0.000019)
 29:   1232.14   0.002204   11.14  0.000558  ( 0.023370 -0.003479 -0.000073)
 30:   1255.50   0.009921   50.14  0.002466  (-0.049581  0.002782  0.000001)
 31:   1333.95   0.001053    5.32  0.000246  ( 0.012493  0.009501 -0.000003)
 32:   1366.92   0.005337   26.97  0.001218  ( 0.034264 -0.006667 -0.000001)
 33:   1403.01   0.000189    0.96  0.000042  (-0.006450  0.000730  0.000014)
 34:   1452.92   0.002676   13.52  0.000575  (-0.023456 -0.004961  0.000040)
 35:   1476.53   0.001301    6.57  0.000275  ( 0.000401  0.000021  0.016575)
 36:   1496.25   0.002860   14.45  0.000597  (-0.015692  0.018715  0.000078)
 37:   1535.64   0.018561   93.80  0.003772  (-0.061342 -0.003009  0.000027)
 38:   1628.57   0.004093   20.69  0.000784  ( 0.025279  0.012057  0.000008)
 39:   1644.13   0.003605   18.22  0.000684  ( 0.025537 -0.005661  0.000013)
 40:   3004.88   0.007879   39.82  0.000818  (-0.028494  0.002510  0.000205)
 41:   3065.01   0.003336   16.86  0.000340  ( 0.000248 -0.000044  0.018428)
 42:   3098.53   0.003277   16.56  0.000330  ( 0.003773  0.017771  0.000011)
 43:   3144.84   0.003042   15.37  0.000302  (-0.017369 -0.000397 -0.000003)
 44:   3149.05   0.002827   14.29  0.000280  (-0.011128  0.012503 -0.000001)
 45:   3161.35   0.002930   14.81  0.000289  ( 0.000748 -0.016991 -0.000005)
 46:   3178.06   0.001054    5.33  0.000104  ( 0.004943  0.008893 -0.000000)
 47:   3760.98   0.010234   51.72  0.000849  ( 0.023579 -0.017123 -0.000008)

--------------------------
THERMOCHEMISTRY AT 298.15K
--------------------------

Temperature         ...   298.15 K
Pressure            ...     1.00 atm
Total Mass          ...   108.14 AMU
Quasi RRHO          ...     True
Cut-Off Frequency   ...     1.00 cm^-1

Throughout the following assumptions are being made:
  (1) The electronic state is orbitally nondegenerate
  (2) There are no thermally accessible electronically excited states
  (3) Hindered rotations indicated by low frequency modes are not
      treated as such but are treated as vibrations and this may
      cause some error
  (4) All equations used are the standard statistical mechanics
      equations for an ideal gas
  (5) All vibrations are strictly harmonic

freq.      76.37  E(vib)   ...       0.49
freq.     151.93  E(vib)   ...       0.40
freq.     314.18  E(vib)   ...       0.25
freq.     336.49  E(vib)   ...       0.24
freq.     413.19  E(vib)   ...       0.19
freq.     424.42  E(vib)   ...       0.18
freq.     437.98  E(vib)   ...       0.17
freq.     468.31  E(vib)   ...       0.16
freq.     511.51  E(vib)   ...       0.14
freq.     660.39  E(vib)   ...       0.08
freq.     712.77  E(vib)   ...       0.07
freq.     745.57  E(vib)   ...       0.06
freq.     799.95  E(vib)   ...       0.05
freq.     828.85  E(vib)   ...       0.04
freq.     847.58  E(vib)   ...       0.04
freq.     906.28  E(vib)   ...       0.03
freq.     942.76  E(vib)   ...       0.03
freq.    1004.13  E(vib)   ...       0.02
freq.    1035.21  E(vib)   ...       0.02
freq.    1055.05  E(vib)   ...       0.02
freq.    1127.61  E(vib)   ...       0.01
freq.    1190.41  E(vib)   ...       0.01
freq.    1196.92  E(vib)   ...       0.01
freq.    1232.14  E(vib)   ...       0.01
freq.    1255.50  E(vib)   ...       0.01
freq.    1333.95  E(vib)   ...       0.01
freq.    1366.92  E(vib)   ...       0.01
freq.    1403.01  E(vib)   ...       0.00
freq.    1452.92  E(vib)   ...       0.00
freq.    1476.53  E(vib)   ...       0.00
freq.    1496.25  E(vib)   ...       0.00
freq.    1535.64  E(vib)   ...       0.00
freq.    1628.57  E(vib)   ...       0.00
freq.    1644.13  E(vib)   ...       0.00
freq.    3004.88  E(vib)   ...       0.00
freq.    3065.01  E(vib)   ...       0.00
freq.    3098.53  E(vib)   ...       0.00
freq.    3144.84  E(vib)   ...       0.00
freq.    3149.05  E(vib)   ...       0.00
freq.    3161.35  E(vib)   ...       0.00
freq.    3178.06  E(vib)   ...       0.00
freq.    3760.98  E(vib)   ...       0.00

------------
INNER ENERGY
------------

The inner energy is: U= E(el) + E(ZPE) + E(vib) + E(rot) + E(trans)
    E(el)   - is the total energy from the electronic structure calculation
              = E(kin-el) + E(nuc-el) + E(el-el) + E(nuc-nuc)
    E(ZPE)  - the the zero temperature vibrational energy from the frequency calculation
    E(vib)  - the the finite temperature correction to E(ZPE) due to population
              of excited vibrational states
    E(rot)  - is the rotational thermal energy
    E(trans)- is the translational thermal energy

Summary of contributions to the inner energy U:
Electronic energy                ...   -346.72735720 Eh
Zero point energy                ...      0.13116803 Eh      82.31 kcal/mol
Thermal vibrational correction   ...      0.00440295 Eh       2.76 kcal/mol
Thermal rotational correction    ...      0.00141627 Eh       0.89 kcal/mol
Thermal translational correction ...      0.00141627 Eh       0.89 kcal/mol
-----------------------------------------------------------------------
Total thermal energy                   -346.58895367 Eh

Summary of corrections to the electronic energy:
(perhaps to be used in another calculation)
Total thermal correction                  0.00723550 Eh       4.54 kcal/mol
Non-thermal (ZPE) correction              0.13116803 Eh      82.31 kcal/mol
-----------------------------------------------------------------------
Total correction                          0.13840353 Eh      86.85 kcal/mol

--------
ENTHALPY
--------

The enthalpy is H = U + kB*T
                kB is Boltzmann's constant
Total thermal energy              ...   -346.58895367 Eh
Thermal Enthalpy correction       ...      0.00094421 Eh       0.59 kcal/mol
-----------------------------------------------------------------------
Total Enthalpy                    ...   -346.58800946 Eh

Note: Only C1 symmetry has been detected, increase convergence thresholds
      if your molecule has a higher symmetry. Symmetry factor of 1.0 is
      used for the rotational entropy correction.

Note: Rotational entropy computed according to Herzberg
Infrared and Raman Spectra, Chapter V,1, Van Nostrand Reinhold, 1945
Point Group:  C1, Symmetry Number:   1
Rotational constants in cm-1:     0.183457     0.048590     0.038691

Vibrational entropy computed according to the QRRHO of S. Grimme
Chem.Eur.J. 2012 18 9955 using a reference frequency of 100.0 cm-1

-------
ENTROPY
-------

The entropy contributions are T*S = T*(S(el)+S(vib)+S(rot)+S(trans))
     S(el)   - electronic entropy
     S(vib)  - vibrational entropy
     S(rot)  - rotational entropy
     S(trans)- translational entropy
The entropies will be listed as multiplied by the temperature to get
units of energy

Electronic entropy                ...      0.00000000 Eh      0.00 kcal/mol
Vibrational entropy               ...      0.00705254 Eh      4.43 kcal/mol
Rotational entropy                ...      0.01327444 Eh      8.33 kcal/mol
Translational entropy             ...      0.01898207 Eh     11.91 kcal/mol
-----------------------------------------------------------------------
Final entropy term                ...      0.03930906 Eh     24.67 kcal/mol

In case the symmetry of your molecule has not been determined correctly
or in case you have a reason to use a different symmetry number we print
out the resulting rotational entropy values for sn=1,12:

 non-linear molecules -----------------------------------
|  sn= 1 | S(rot)=       0.01327444 Eh      8.33 kcal/mol|
|  sn= 2 | S(rot)=       0.01261999 Eh      7.92 kcal/mol|
|  sn= 3 | S(rot)=       0.01223715 Eh      7.68 kcal/mol|
|  sn= 4 | S(rot)=       0.01196553 Eh      7.51 kcal/mol|
|  sn= 5 | S(rot)=       0.01175484 Eh      7.38 kcal/mol|
|  sn= 6 | S(rot)=       0.01158270 Eh      7.27 kcal/mol|
|  sn= 7 | S(rot)=       0.01143715 Eh      7.18 kcal/mol|
|  sn= 8 | S(rot)=       0.01131107 Eh      7.10 kcal/mol|
|  sn= 9 | S(rot)=       0.01119986 Eh      7.03 kcal/mol|
|  sn=10 | S(rot)=       0.01110039 Eh      6.97 kcal/mol|
|  sn=11 | S(rot)=       0.01101040 Eh      6.91 kcal/mol|
|  sn=12 | S(rot)=       0.01092824 Eh      6.86 kcal/mol|
 linear molecules ---------------------------------------
|  Dinfh | S(rot)=       0.00839642 Eh      5.27 kcal/mol|
|  Cinfv | S(rot)=       0.00905088 Eh      5.68 kcal/mol|
 --------------------------------------------------------

                             ****ORCA TERMINATED NORMALLY****
TOTAL RUN TIME: 0 days 0 hours 10 minutes 54 seconds 125 msec
