                         Program Version 6.0.0  -   RELEASE  -
|  1> ! r2SCAN-3c DEF2-TZVP FREQ
|  2> * xyzfile 0 1 vacuum_censo.xyz
|  3>
|  4>                          ****END OF INPUT****

CARTESIAN COORDINATES (ANGSTROEM)
---------------------------------
  C     -2.936750    0.000129   -0.001860
  C     -1.431720   -0.009176    0.001376
  C     -0.708159   -1.200613    0.001199
  C      0.684700   -1.205665    0.000155
  C      1.380060    0.000566   -0.000601
  C      0.677668    1.205135   -0.000061
  C     -0.709445    1.189350    0.001091
  O      2.748494    0.069227   -0.001167
  H     -3.338972   -1.015279    0.037776
  H     -3.332443    0.552035    0.857685
  H     -3.328827    0.480923   -0.905034
  H     -1.238112   -2.149164    0.002051
  H      1.226171   -2.148949    0.000526
  H      1.230580    2.138331    0.000060
  H     -1.247149    2.134137    0.001868
  H      3.106256   -0.825470   -0.001325

 Total Charge           Charge          ....    0
 Multiplicity           Mult            ....    1
 Number of Electrons    NEL             ....   58
 Basis Dimension        Dim             ....  296

ORBITAL ENERGIES
----------------

  NO   OCC          E(Eh)            E(eV)
   0   2.0000     -18.984589      -516.5969
   1   2.0000     -10.092976      -274.6438
   2   2.0000     -10.038201      -273.1533
   3   2.0000     -10.035634      -273.0835
   4   2.0000     -10.035067      -273.0681
   5   2.0000     -10.033724      -273.0315
   6   2.0000     -10.029860      -272.9264
   7   2.0000     -10.028168      -272.8803
   8   2.0000      -1.025209       -27.8974
   9   2.0000      -0.819876       -22.3099
  10   2.0000      -0.732998       -19.9459
  11   2.0000      -0.714931       -19.4543
  12   2.0000      -0.648850       -17.6561
  13   2.0000      -0.588908       -16.0250
  14   2.0000      -0.557371       -15.1668
  15   2.0000      -0.512174       -13.9370
  16   2.0000      -0.452808       -12.3215
  17   2.0000      -0.433781       -11.8038
  18   2.0000      -0.403833       -10.9889
  19   2.0000      -0.391833       -10.6623
  20   2.0000      -0.389593       -10.6014
  21   2.0000      -0.372689       -10.1414
  22   2.0000      -0.369997       -10.0681
  23   2.0000      -0.341119        -9.2823
  24   2.0000      -0.324462        -8.8291
  25   2.0000      -0.304917        -8.2972
  26   2.0000      -0.300409        -8.1746
  27   2.0000      -0.236473        -6.4347
  28   2.0000      -0.198938        -5.4134
  29   0.0000      -0.035358        -0.9621
  30   0.0000      -0.014800        -0.4027
  31   0.0000       0.038035         1.0350
  32   0.0000       0.056991         1.5508
  33   0.0000       0.075453         2.0532

MULLIKEN ATOMIC CHARGES
-----------------------
   0 C :   -0.345178
   1 C :    0.156577
   2 C :   -0.190616
   3 C :   -0.198307
   4 C :    0.288509
   5 C :   -0.193632
   6 C :   -0.166239
   7 O :   -0.401591
   8 H :    0.105468
   9 H :    0.115076
  10 H :    0.115665
  11 H :    0.099928
  12 H :    0.093310
  13 H :    0.108194
  14 H :    0.101100
  15 H :    0.311735
Sum of atomic charges:   -0.0000000

LOEWDIN ATOMIC CHARGES
----------------------
   0 C :   -0.257557
   1 C :   -0.186592
   2 C :   -0.121010
   3 C :   -0.148672
   4 C :   -0.276102
   5 C :   -0.120882
   6 C :   -0.112628
   7 O :    0.078167
   8 H :    0.124588
   9 H :    0.127709
  10 H :    0.127912
  11 H :    0.144546
  12 H :    0.140442
  13 H :    0.148510
  14 H :    0.146404
  15 H :    0.185164

  Mayer bond orders larger than 0.100000
B(  0-C ,  1-C ) :   0.9042 B(  0-C ,  8-H ) :   0.9901 B(  0-C ,  9-H ) :   0.9689
B(  0-C , 10-H ) :   0.9658 B(  1-C ,  2-C ) :   1.3844 B(  1-C ,  6-C ) :   1.3132
B(  2-C ,  3-C ) :   1.3879 B(  2-C , 11-H ) :   0.9617 B(  3-C ,  4-C ) :   1.3344
B(  3-C , 12-H ) :   0.9650 B(  4-C ,  5-C ) :   1.3577 B(  4-C ,  7-O ) :   1.1063
B(  5-C ,  6-C ) :   1.4303 B(  5-C , 13-H ) :   0.9818 B(  6-C , 14-H ) :   0.9868
B(  7-O , 15-H ) :   0.8873

Dispersion correction           -0.004881984
FINAL SINGLE POINT ENERGY      -346.727572537675

DIPOLE MOMENT
-------------

Method             : SCF
Type of density    : Electron Density
Multiplicity       :   1
Irrep              :   0
Energy             :  -346.7280693409981609 Eh
Relativity type    :
Basis              : AO
                                X                 Y                 Z
Electronic contribution:      6.381900751       0.289098395       0.003708982
Nuclear contribution   :     -6.484336287      -0.782551509      -0.005354598
                        -----------------------------------------
Total Dipole Moment    :     -0.102435537      -0.493453114      -0.001645617
                        -----------------------------------------
Magnitude (a.u.)       :      0.503975915
Magnitude (Debye)      :      1.281004973

VIBRATIONAL FREQUENCIES
-----------------------

Scaling factor for frequencies =  1.000000000  (already applied!)

     0:       0.00 cm**-1
     1:       0.00 cm**-1
     2:       0.00 cm**-1
     3:       0.00 cm**-1
     4:       0.00 cm**-1
     5:       0.00 cm**-1
     6:      65.67 cm**-1
     7:     148.36 cm**-1
     8:     311.60 cm**-1
     9:     333.25 cm**-1
    10:     357.23 cm**-1
    11:     419.42 cm**-1
    12:     432.89 cm**-1
    13:     469.47 cm**-1
    14:     508.92 cm**-1
    15:     661.29 cm**-1
    16:     711.99 cm**-1
    17:     749.71 cm**-1
    18:     801.97 cm**-1
    19:     828.34 cm**-1
    20:     852.81 cm**-1
    21:     907.90 cm**-1
    22:     942.68 cm**-1
    23:    1002.68 cm**-1
    24:    1035.97 cm**-1
    25:    1055.19 cm**-1
    26:    1128.97 cm**-1
    27:    1189.69 cm**-1
    28:    1194.27 cm**-1
    29:    1231.11 cm**-1
    30:    1277.32 cm**-1
    31:    1337.12 cm**-1
    32:    1369.17 cm**-1
    33:    1402.73 cm**-1
    34:    1454.87 cm**-1
    35:    1477.67 cm**-1
    36:    1495.90 cm**-1
    37:    1541.85 cm**-1
    38:    1630.36 cm**-1
    39:    1651.49 cm**-1
    40:    3004.86 cm**-1
    41:    3065.64 cm**-1
    42:    3097.71 cm**-1
    43:    3138.89 cm**-1
    44:    3148.25 cm**-1
    45:    3159.32 cm**-1
    46:    3183.82 cm**-1
    47:    3809.64 cm**-1

IR SPECTRUM
-----------

 Mode   freq       eps      Int      T**2         TX        TY        TZ
       cm**-1   L/(mol*cm) km/mol    a.u.
----------------------------------------------------------------------------
  6:     65.67   0.000055    0.28  0.000260  ( 0.000685  0.002057  0.015988)
  7:    148.36   0.000230    1.16  0.000485  (-0.000517 -0.000239  0.022011)
  8:    311.60   0.000349    1.76  0.000349  ( 0.016647  0.008498  0.000117)
  9:    333.25   0.000000    0.00  0.000000  (-0.000091 -0.000097 -0.000575)
 10:    357.23   0.019523   98.66  0.017055  (-0.000009 -0.000002  0.130593)
 11:    419.42   0.000191    0.96  0.000142  (-0.000705 -0.000000  0.011896)
 12:    432.89   0.001850    9.35  0.001334  ( 0.036241 -0.004500  0.000205)
 13:    469.47   0.000489    2.47  0.000325  (-0.017733 -0.003209  0.000028)
 14:    508.92   0.004126   20.85  0.002530  (-0.000343  0.000059 -0.050296)
 15:    661.29   0.000108    0.54  0.000051  ( 0.006853  0.001968  0.000011)
 16:    711.99   0.000284    1.44  0.000125  (-0.000340 -0.000007  0.011154)
 17:    749.71   0.002484   12.55  0.001034  ( 0.032145  0.000793 -0.000241)
 18:    801.97   0.004767   24.09  0.001855  ( 0.000302  0.000047  0.043068)
 19:    828.34   0.005265   26.61  0.001983  (-0.000278  0.000049 -0.044535)
 20:    852.81   0.001709    8.64  0.000625  ( 0.024970 -0.001353 -0.000274)
 21:    907.90   0.000009    0.04  0.000003  (-0.000225 -0.000112 -0.001731)
 22:    942.68   0.000081    0.41  0.000027  ( 0.000255 -0.000146  0.005168)
 23:   1002.68   0.000122    0.62  0.000038  (-0.005752  0.002198 -0.000018)
 24:   1035.97   0.000008    0.04  0.000002  (-0.001480 -0.000040  0.000281)
 25:   1055.19   0.000615    3.11  0.000182  (-0.002225  0.000098 -0.013306)
 26:   1128.97   0.003398   17.17  0.000939  (-0.016868  0.025590 -0.000001)
 27:   1189.69   0.035070  177.23  0.009199  (-0.095720 -0.006058  0.000088)
 28:   1194.27   0.000106    0.53  0.000028  (-0.001124 -0.005135 -0.000006)
 29:   1231.11   0.001437    7.26  0.000364  (-0.018735  0.003621 -0.000247)
 30:   1277.32   0.016054   81.13  0.003922  ( 0.062608 -0.001533 -0.000029)
 31:   1337.12   0.001064    5.38  0.000248  ( 0.012873  0.009093  0.000008)
 32:   1369.17   0.005183   26.19  0.001181  ( 0.033525 -0.007581 -0.000006)
 33:   1402.73   0.000207    1.04  0.000046  ( 0.006725 -0.000850  0.000032)
 34:   1454.87   0.002286   11.55  0.000490  (-0.021198 -0.006392 -0.000150)
 35:   1477.67   0.001325    6.70  0.000280  ( 0.001003 -0.000162 -0.016700)
 36:   1495.90   0.002717   13.73  0.000567  ( 0.015371 -0.018181  0.000282)
 37:   1541.85   0.020243  102.30  0.004097  ( 0.063949  0.002772  0.000086)
 38:   1630.36   0.003944   19.93  0.000755  ( 0.024269  0.012884 -0.000023)
 39:   1651.49   0.004982   25.18  0.000941  ( 0.030326 -0.004668 -0.000056)
 40:   3004.86   0.007903   39.94  0.000821  ( 0.028517 -0.002663  0.000663)
 41:   3065.64   0.003356   16.96  0.000342  ( 0.000750 -0.000231 -0.018465)
 42:   3097.71   0.003358   16.97  0.000338  ( 0.004052  0.017939 -0.000109)
 43:   3138.89   0.003440   17.39  0.000342  ( 0.017999 -0.004251 -0.000006)
 44:   3148.25   0.002808   14.19  0.000278  (-0.010044  0.013321  0.000009)
 45:   3159.32   0.002804   14.17  0.000277  (-0.002928 -0.016384  0.000013)
 46:   3183.82   0.001145    5.79  0.000112  ( 0.005600  0.008991  0.000004)
 47:   3809.64   0.010591   53.52  0.000868  (-0.023941  0.017158  0.000002)

--------------------------
THERMOCHEMISTRY AT 298.15K
--------------------------

Temperature         ...   298.15 K
Pressure            ...     1.00 atm
Total Mass          ...   108.14 AMU
Quasi RRHO          ...     True
Cut-Off Frequency   ...     1.00 cm^-1

Throughout the following assumptions are being made:
  (1) The electronic state is orbitally nondegenerate
  (2) There are no thermally accessible electronically excited states
  (3) Hindered rotations indicated by low frequency modes are not
      treated as such but are treated as vibrations and this may
      cause some error
  (4) All equations used are the standard statistical mechanics
      equations for an ideal gas
  (5) All vibrations are strictly harmonic

freq.      65.67  E(vib)   ...       0.50
freq.     148.36  E(vib)   ...       0.41
freq.     311.60  E(vib)   ...       0.25
freq.     333.25  E(vib)   ...       0.24
freq.     357.23  E(vib)   ...       0.22
freq.     419.42  E(vib)   ...       0.18
freq.     432.89  E(vib)   ...       0.17
freq.     469.47  E(vib)   ...       0.16
freq.     508.92  E(vib)   ...       0.14
freq.     661.29  E(vib)   ...       0.08
freq.     711.99  E(vib)   ...       0.07
freq.     749.71  E(vib)   ...       0.06
freq.     801.97  E(vib)   ...       0.05
freq.     828.34  E(vib)   ...       0.04
freq.     852.81  E(vib)   ...       0.04
freq.     907.90  E(vib)   ...       0.03
freq.     942.68  E(vib)   ...       0.03
freq.    1002.68  E(vib)   ...       0.02
freq.    1035.97  E(vib)   ...       0.02
freq.    1055.19  E(vib)   ...       0.02
freq.    1128.97  E(vib)   ...       0.01
freq.    1189.69  E(vib)   ...       0.01
freq.    1194.27  E(vib)   ...       0.01
freq.    1231.11  E(vib)   ...       0.01
freq.    1277.32  E(vib)   ...       0.01
freq.    1337.12  E(vib)   ...       0.01
freq.    1369.17  E(vib)   ...       0.01
freq.    1402.73  E(vib)   ...       0.00
freq.    1454.87  E(vib)   ...       0.00
freq.    1477.67  E(vib)   ...       0.00
freq.    1495.90  E(vib)   ...       0.00
freq.    1541.85  E(vib)   ...       0.00
freq.    1630.36  E(vib)   ...       0.00
freq.    1651.49  E(vib)   ...       0.00
freq.    3004.86  E(vib)   ...       0.00
freq.    3065.64  E(vib)   ...       0.00
freq.    3097.71  E(vib)   ...       0.00
freq.    3138.89  E(vib)   ...       0.00
freq.    3148.25  E(vib)   ...       0.00
freq.    3159.32  E(vib)   ...       0.00
freq.    3183.82  E(vib)   ...       0.00
freq.    3809.64  E(vib)   ...       0.00

------------
INNER ENERGY
------------

The inner energy is: U= E(el) + E(ZPE) + E(vib) + E(rot) + E(trans)
    E(el)   - is the total energy from the electronic structure calculation
              = E(kin-el) + E(nuc-el) + E(el-el) + E(nuc-nuc)
    E(ZPE)  - the the zero temperature vibrational energy from the frequency calculation
    E(vib)  - the the finite temperature correction to E(ZPE) due to population
              of excited vibrational states
    E(rot)  - is the rotational thermal energy
    E(trans)- is the translational thermal energy

Summary of contributions to the inner energy U:
Electronic energy                ...   -346.72757254 Eh
Zero point energy                ...      0.13119509 Eh      82.33 kcal/mol
Thermal vibrational correction   ...      0.00449936 Eh       2.82 kcal/mol
Thermal rotational correction    ...      0.00141627 Eh       0.89 kcal/mol
Thermal translational correction ...      0.00141627 Eh       0.89 kcal/mol
-----------------------------------------------------------------------
Total thermal energy                   -346.58904554 Eh

Summary of corrections to the electronic energy:
(perhaps to be used in another calculation)
Total thermal correction                  0.00733190 Eh       4.60 kcal/mol
Non-thermal (ZPE) correction              0.13119509 Eh      82.33 kcal/mol
-----------------------------------------------------------------------
Total correction                          0.13852699 Eh      86.93 kcal/mol

--------
ENTHALPY
--------

The enthalpy is H = U + kB*T
                kB is Boltzmann's constant
Total thermal energy              ...   -346.58904554 Eh
Thermal Enthalpy correction       ...      0.00094421 Eh       0.59 kcal/mol
-----------------------------------------------------------------------
Total Enthalpy                    ...   -346.58810133 Eh

Note: Only C1 symmetry has been detected, increase convergence thresholds
      if your molecule has a higher symmetry. Symmetry factor of 1.0 is
      used for the rotational entropy correction.

Note: Rotational entropy computed according to Herzberg
Infrared and Raman Spectra, Chapter V,1, Van Nostrand Reinhold, 1945
Point Group:  C1, Symmetry Number:   1
Rotational constants in cm-1:     0.183976     0.048692     0.038780

Vibrational entropy computed according to the QRRHO of S. Grimme
Chem.Eur.J. 2012 18 9955 using a reference frequency of 100.0 cm-1

-------
ENTROPY
-------

The entropy contributions are T*S = T*(S(el)+S(vib)+S(rot)+S(trans))
     S(el)   - electronic entropy
     S(vib)  - vibrational entropy
     S(rot)  - rotational entropy
     S(trans)- translational entropy
The entropies will be listed as multiplied by the temperature to get
units of energy

Electronic entropy                ...      0.00000000 Eh      0.00 kcal/mol
Vibrational entropy               ...      0.00724271 Eh      4.54 kcal/mol
Rotational entropy                ...      0.01327104 Eh      8.33 kcal/mol
Translational entropy             ...      0.01898207 Eh     11.91 kcal/mol
-----------------------------------------------------------------------
Final entropy term                ...      0.03949582 Eh     24.78 kcal/mol

In case the symmetry of your molecule has not been determined correctly
or in case you have a reason to use a different symmetry number we print
out the resulting rotational entropy values for sn=1,12:

 non-linear molecules -----------------------------------
|  sn= 1 | S(rot)=       0.01327104 Eh      8.33 kcal/mol|
|  sn= 2 | S(rot)=       0.01261658 Eh      7.92 kcal/mol|
|  sn= 3 | S(rot)=       0.01223375 Eh      7.68 kcal/mol|
|  sn= 4 | S(rot)=       0.01196212 Eh      7.51 kcal/mol|
|  sn= 5 | S(rot)=       0.01175144 Eh      7.37 kcal/mol|
|  sn= 6 | S(rot)=       0.01157929 Eh      7.27 kcal/mol|
|  sn= 7 | S(rot)=       0.01143375 Eh      7.17 kcal/mol|
|  sn= 8 | S(rot)=       0.01130767 Eh      7.10 kcal/mol|
|  sn= 9 | S(rot)=       0.01119646 Eh      7.03 kcal/mol|
|  sn=10 | S(rot)=       0.01109698 Eh      6.96 kcal/mol|
|  sn=11 | S(rot)=       0.01100699 Eh      6.91 kcal/mol|
|  sn=12 | S(rot)=       0.01092484 Eh      6.86 kcal/mol|
 linear molecules ---------------------------------------
|  Dinfh | S(rot)=       0.00839426 Eh      5.27 kcal/mol|
|  Cinfv | S(rot)=       0.00904872 Eh      5.68 kcal/mol|
 --------------------------------------------------------

                             ****ORCA TERMINATED NORMALLY****
TOTAL RUN TIME: 0 days 0 hours 10 minutes 57 seconds 581 msec
