                         Program Version 6.0.1  -  RELEASE   -
|  1> ! pbe def2-sv(p) def2/J RI DEFGRID1 loosescf d4 GCP(DFT/SV(P)) printgap
|  2> %output
|  3>     printlevel normal
|  4> end
|  5> * xyz 0 1
|  6> C -2.0878462188 -1.3621908461 -0.1846775493
|  7> C -1.0362234904 -0.5144612954 0.5526050406
|  8> H -1.4973561734 -0.1715887055 1.4884059778
|  9> C -0.6588094421 0.7326987671 -0.2597858712
| 10> H -0.5544462423 0.4885254673 -1.3337509777
| 11> C 0.6979948846 1.2344711602 0.2365684372
| 12> H 0.68047797 1.3270247809 1.3324395204
| 13> C 1.7564976793 0.1959957176 -0.1453776831
| 14> H 1.9418961694 0.2679946049 -1.2308137326
| 15> C 1.2380880487 -1.2425317686 0.1533084349
| 16> H 1.9929638829 -1.7757247716 0.7460498013
| 17> O 0.1007301076 -1.2628187688 0.9611275457
| 18> O 1.1057699918 -1.986624351 -1.020668355
| 19> O 2.9269527513 0.5174465297 0.5652947345
| 20> O 0.9452353573 2.4847362105 -0.3587659555
| 21> O -1.6700896003 1.6935648782 -0.1072902649
| 22> O -3.3335887373 -0.7248844277 -0.1917257531
| 23> H -2.213478385 -2.3151581357 0.3352321425
| 24> H -1.760094308 -1.5712919984 -1.217912129
| 25> H 0.322503669 -1.7048979304 -1.5079272723
| 26> H 3.6110458709 -0.1321162601 0.3692111444
| 27> H 1.8372422135 2.7538654266 -0.112041664
| 28> H -1.2806821843 2.5527962287 -0.3197651696
| 29> H -3.1947040644 0.2214851737 -0.3382051312
| 30> *
| 31>
| 32>                          ****END OF INPUT****

CARTESIAN COORDINATES (ANGSTROEM)
---------------------------------
  C     -2.087846   -1.362191   -0.184678
  C     -1.036223   -0.514461    0.552605
  H     -1.497356   -0.171589    1.488406
  C     -0.658809    0.732699   -0.259786
  H     -0.554446    0.488525   -1.333751
  C      0.697995    1.234471    0.236568
  H      0.680478    1.327025    1.332440
  C      1.756498    0.195996   -0.145378
  H      1.941896    0.267995   -1.230814
  C      1.238088   -1.242532    0.153308
  H      1.992964   -1.775725    0.746050
  O      0.100730   -1.262819    0.961128
  O      1.105770   -1.986624   -1.020668
  O      2.926953    0.517447    0.565295
  O      0.945235    2.484736   -0.358766
  O     -1.670090    1.693565   -0.107290
  O     -3.333589   -0.724884   -0.191726
  H     -2.213478   -2.315158    0.335232
  H     -1.760094   -1.571292   -1.217912
  H      0.322504   -1.704898   -1.507927
  H      3.611046   -0.132116    0.369211
  H      1.837242    2.753865   -0.112042
  H     -1.280682    2.552796   -0.319765
  H     -3.194704    0.221485   -0.338205

 Total Charge           Charge          ....    0
 Multiplicity           Mult            ....    1
 Number of Electrons    NEL             ....   96
 Basis Dimension        Dim             ....  192

ORBITAL ENERGIES
----------------

  NO   OCC          E(Eh)            E(eV)
   0   2.0000     -18.778665      -510.9934
   1   2.0000     -18.772811      -510.8342
   2   2.0000     -18.771837      -510.8077
   3   2.0000     -18.771347      -510.7943
   4   2.0000     -18.763504      -510.5809
   5   2.0000     -18.743060      -510.0246
   6   2.0000      -9.993933      -271.9487
   7   2.0000      -9.961225      -271.0587
   8   2.0000      -9.955148      -270.8933
   9   2.0000      -9.952476      -270.8206
  10   2.0000      -9.951670      -270.7987
  11   2.0000      -9.934644      -270.3354
  12   2.0000      -0.990405       -26.9503
  13   2.0000      -0.964246       -26.2385
  14   2.0000      -0.950177       -25.8556
  15   2.0000      -0.934518       -25.4295
  16   2.0000      -0.923316       -25.1247
  17   2.0000      -0.917703       -24.9720
  18   2.0000      -0.720608       -19.6087
  19   2.0000      -0.700372       -19.0581
  20   2.0000      -0.619859       -16.8672
  21   2.0000      -0.602379       -16.3916
  22   2.0000      -0.577558       -15.7161
  23   2.0000      -0.539882       -14.6909
  24   2.0000      -0.518830       -14.1181
  25   2.0000      -0.496762       -13.5176
  26   2.0000      -0.477689       -12.9986
  27   2.0000      -0.471363       -12.8264
  28   2.0000      -0.453474       -12.3396
  29   2.0000      -0.440482       -11.9861
  30   2.0000      -0.424991       -11.5646
  31   2.0000      -0.406560       -11.0630
  32   2.0000      -0.402798       -10.9607
  33   2.0000      -0.385919       -10.5014
  34   2.0000      -0.365614        -9.9489
  35   2.0000      -0.352455        -9.5908
  36   2.0000      -0.340134        -9.2555
  37   2.0000      -0.327929        -8.9234
  38   2.0000      -0.322041        -8.7632
  39   2.0000      -0.311777        -8.4839
  40   2.0000      -0.295058        -8.0289
  41   2.0000      -0.274579        -7.4717
  42   2.0000      -0.262458        -7.1418
  43   2.0000      -0.246509        -6.7078
  44   2.0000      -0.241106        -6.5608
  45   2.0000      -0.235484        -6.4079
  46   2.0000      -0.221896        -6.0381
  47   2.0000      -0.210298        -5.7225
  48   0.0000       0.000339         0.0092
  49   0.0000       0.013254         0.3607
  50   0.0000       0.025607         0.6968
  51   0.0000       0.041105         1.1185
  52   0.0000       0.054381         1.4798

MULLIKEN ATOMIC CHARGES
-----------------------
   0 C :    0.091196
   1 C :    0.004860
   2 H :    0.090843
   3 C :   -0.012605
   4 H :    0.048309
   5 C :    0.081674
   6 H :    0.073959
   7 C :    0.021874
   8 H :    0.063265
   9 C :    0.186518
  10 H :    0.060738
  11 O :   -0.293245
  12 O :   -0.403716
  13 O :   -0.418966
  14 O :   -0.428438
  15 O :   -0.421626
  16 O :   -0.438351
  17 H :    0.098878
  18 H :    0.046308
  19 H :    0.297885
  20 H :    0.309074
  21 H :    0.316632
  22 H :    0.318253
  23 H :    0.306681
Sum of atomic charges:   -0.0000000

LOEWDIN ATOMIC CHARGES
----------------------
   0 C :   -0.125570
   1 C :   -0.074210
   2 H :    0.126699
   3 C :   -0.075633
   4 H :    0.094828
   5 C :   -0.073596
   6 H :    0.114922
   7 C :   -0.096257
   8 H :    0.103672
   9 C :   -0.006713
  10 H :    0.110587
  11 O :   -0.127985
  12 O :   -0.310967
  13 O :   -0.320586
  14 O :   -0.322117
  15 O :   -0.310608
  16 O :   -0.332108
  17 H :    0.117622
  18 H :    0.082651
  19 H :    0.269773
  20 H :    0.290441
  21 H :    0.296119
  22 H :    0.292044
  23 H :    0.276992

  Mayer bond orders larger than 0.100000
B(  0-C ,  1-C ) :   1.0661 B(  0-C , 16-O ) :   1.0839 B(  0-C , 17-H ) :   0.9178
B(  0-C , 18-H ) :   0.8921 B(  1-C ,  2-H ) :   0.8779 B(  1-C ,  3-C ) :   0.9778
B(  1-C , 11-O ) :   0.9775 B(  3-C ,  4-H ) :   0.8800 B(  3-C ,  5-C ) :   1.0213
B(  3-C , 15-O ) :   1.0603 B(  5-C ,  6-H ) :   0.8667 B(  5-C ,  7-C ) :   1.0356
B(  5-C , 14-O ) :   1.0723 B(  7-C ,  8-H ) :   0.8836 B(  7-C ,  9-C ) :   0.9617
B(  7-C , 13-O ) :   1.0769 B(  9-C , 10-H ) :   0.8944 B(  9-C , 11-O ) :   1.0938
B(  9-C , 12-O ) :   1.0919 B( 12-O , 19-H ) :   0.8280 B( 13-O , 20-H ) :   0.8443
B( 14-O , 21-H ) :   0.8376 B( 15-O , 22-H ) :   0.8207 B( 16-O , 23-H ) :   0.8227

Dispersion correction           -0.024584677
FINAL SINGLE POINT ENERGY      -685.688266751967

DIPOLE MOMENT
-------------

Method             : SCF
Type of density    : Electron Density
Multiplicity       :   1
Irrep              :   0
Energy             :  -685.8203214863044650 Eh
Relativity type    :
Basis              : AO
                                X                 Y                 Z
Electronic contribution:      1.274212129       0.748744767       1.298922640
Nuclear contribution   :     -0.106432692      -0.044745360      -1.680711258
                        -----------------------------------------
Total Dipole Moment    :      1.167779437       0.703999406      -0.381788618
                        -----------------------------------------
Magnitude (a.u.)       :      1.416010779
Magnitude (Debye)      :      3.599213366

Rotational constants in cm-1:             0.043224             0.026221             0.018339
Rotational constants in MHz :          1295.835180           786.090065           549.774844

                             ****ORCA TERMINATED NORMALLY****
TOTAL RUN TIME: 0 days 0 hours 0 minutes 8 seconds 399 msec
