                         Program Version 6.0.0  -   RELEASE  -
|  1> ! r2SCAN-3c DEF2-TZVP FREQ
|  2> * xyzfile 0 1 censo.xyz
|  3>
|  4>                          ****END OF INPUT****

CARTESIAN COORDINATES (ANGSTROEM)
---------------------------------
  C     -2.210992    0.697534    0.059198
  C     -2.211038   -0.697409    0.059446
  C     -1.007919   -1.405287   -0.000915
  C      0.188957   -0.700404   -0.054805
  C      0.189006    0.700335   -0.054959
  C     -1.007828    1.405314   -0.001344
  C      1.601177    1.221814   -0.141460
  C      2.444467   -0.000105    0.280739
  C      1.601082   -1.221973   -0.141364
  H     -3.152171    1.236587    0.111766
  H     -3.152249   -1.236381    0.112242
  H     -1.011233   -2.491991    0.001577
  H     -1.011061    2.492019    0.000801
  H      1.825427    1.509382   -1.177761
  H      1.773272    2.102412    0.483943
  H      3.444076   -0.000163   -0.160198
  H      2.555395   -0.000063    1.370363
  H      1.825210   -1.509494   -1.177689
  H      1.773194   -2.102588    0.483975

 Total Charge           Charge          ....    0
 Multiplicity           Mult            ....    1
 Number of Electrons    NEL             ....   64
 Basis Dimension        Dim             ....  339

ORBITAL ENERGIES
----------------

  NO   OCC          E(Eh)            E(eV)
   0   2.0000     -10.034222      -273.0451
   1   2.0000     -10.033843      -273.0348
   2   2.0000     -10.033097      -273.0145
   3   2.0000     -10.033091      -273.0143
   4   2.0000     -10.032039      -272.9856
   5   2.0000     -10.031067      -272.9592
   6   2.0000     -10.030974      -272.9567
   7   2.0000     -10.030652      -272.9479
   8   2.0000     -10.030330      -272.9392
   9   2.0000      -0.834276       -22.7018
  10   2.0000      -0.774006       -21.0618
  11   2.0000      -0.719524       -19.5792
  12   2.0000      -0.679753       -18.4970
  13   2.0000      -0.657248       -17.8846
  14   2.0000      -0.575063       -15.6483
  15   2.0000      -0.546335       -14.8665
  16   2.0000      -0.536620       -14.6022
  17   2.0000      -0.469966       -12.7884
  18   2.0000      -0.444666       -12.1000
  19   2.0000      -0.425309       -11.5733
  20   2.0000      -0.412606       -11.2276
  21   2.0000      -0.379341       -10.3224
  22   2.0000      -0.373739       -10.1700
  23   2.0000      -0.373440       -10.1618
  24   2.0000      -0.344094        -9.3633
  25   2.0000      -0.320564        -8.7230
  26   2.0000      -0.319190        -8.6856
  27   2.0000      -0.305204        -8.3050
  28   2.0000      -0.302463        -8.2304
  29   2.0000      -0.294831        -8.0227
  30   2.0000      -0.228186        -6.2093
  31   2.0000      -0.214896        -5.8476
  32   0.0000      -0.032292        -0.8787
  33   0.0000      -0.023158        -0.6302
  34   0.0000       0.048803         1.3280
  35   0.0000       0.065441         1.7807
  36   0.0000       0.083584         2.2744

MULLIKEN ATOMIC CHARGES
-----------------------
   0 C :   -0.091319
   1 C :   -0.091269
   2 C :   -0.229620
   3 C :    0.061328
   4 C :    0.061252
   5 C :   -0.229562
   6 C :   -0.134125
   7 C :   -0.165903
   8 C :   -0.134105
   9 H :    0.105208
  10 H :    0.105210
  11 H :    0.097896
  12 H :    0.097899
  13 H :    0.087104
  14 H :    0.097621
  15 H :    0.094007
  16 H :    0.083658
  17 H :    0.087096
  18 H :    0.097623
Sum of atomic charges:   -0.0000000

LOEWDIN ATOMIC CHARGES
----------------------
   0 C :   -0.145340
   1 C :   -0.145338
   2 C :   -0.117069
   3 C :   -0.115388
   4 C :   -0.115386
   5 C :   -0.117069
   6 C :   -0.200392
   7 C :   -0.230879
   8 C :   -0.200394
   9 H :    0.141116
  10 H :    0.141115
  11 H :    0.142965
  12 H :    0.142965
  13 H :    0.142337
  14 H :    0.135921
  15 H :    0.126936
  16 H :    0.135645
  17 H :    0.142341
  18 H :    0.135914

  Mayer bond orders larger than 0.100000
B(  0-C ,  1-C ) :   1.3938 B(  0-C ,  5-C ) :   1.3952 B(  0-C ,  9-H ) :   0.9716
B(  1-C ,  2-C ) :   1.3952 B(  1-C , 10-H ) :   0.9716 B(  2-C ,  3-C ) :   1.3478
B(  2-C , 11-H ) :   0.9910 B(  3-C ,  4-C ) :   1.3296 B(  3-C ,  8-C ) :   0.9670
B(  4-C ,  5-C ) :   1.3477 B(  4-C ,  6-C ) :   0.9670 B(  5-C , 12-H ) :   0.9910
B(  6-C ,  7-C ) :   1.0094 B(  6-C , 13-H ) :   0.9340 B(  6-C , 14-H ) :   0.9602
B(  7-C ,  8-C ) :   1.0094 B(  7-C , 15-H ) :   0.9730 B(  7-C , 16-H ) :   0.9645
B(  8-C , 17-H ) :   0.9340 B(  8-C , 18-H ) :   0.9602

Dispersion correction           -0.006505680
FINAL SINGLE POINT ENERGY      -348.910592825858

DIPOLE MOMENT
-------------

Method             : SCF
Type of density    : Electron Density
Multiplicity       :   1
Irrep              :   0
Energy             :  -348.9092984594767586 Eh
Relativity type    :
Basis              : AO
                                X                 Y                 Z
Electronic contribution:     -4.302421826       0.000055875      -0.061645915
Nuclear contribution   :      4.572976874      -0.000068168       0.037739944
                        -----------------------------------------
Total Dipole Moment    :      0.270555048      -0.000012292      -0.023905971
                        -----------------------------------------
Magnitude (a.u.)       :      0.271609148
Magnitude (Debye)      :      0.690375590

VIBRATIONAL FREQUENCIES
-----------------------

Scaling factor for frequencies =  1.000000000  (already applied!)

     0:       0.00 cm**-1
     1:       0.00 cm**-1
     2:       0.00 cm**-1
     3:       0.00 cm**-1
     4:       0.00 cm**-1
     5:       0.00 cm**-1
     6:     149.77 cm**-1
     7:     184.72 cm**-1
     8:     258.76 cm**-1
     9:     380.31 cm**-1
    10:     422.73 cm**-1
    11:     511.78 cm**-1
    12:     523.72 cm**-1
    13:     597.12 cm**-1
    14:     619.34 cm**-1
    15:     724.51 cm**-1
    16:     745.08 cm**-1
    17:     762.29 cm**-1
    18:     844.11 cm**-1
    19:     867.27 cm**-1
    20:     872.56 cm**-1
    21:     902.15 cm**-1
    22:     915.31 cm**-1
    23:     925.95 cm**-1
    24:     962.86 cm**-1
    25:    1004.70 cm**-1
    26:    1040.57 cm**-1
    27:    1055.07 cm**-1
    28:    1104.71 cm**-1
    29:    1145.67 cm**-1
    30:    1174.44 cm**-1
    31:    1176.46 cm**-1
    32:    1194.21 cm**-1
    33:    1220.30 cm**-1
    34:    1242.99 cm**-1
    35:    1288.92 cm**-1
    36:    1294.73 cm**-1
    37:    1324.96 cm**-1
    38:    1335.72 cm**-1
    39:    1359.95 cm**-1
    40:    1468.32 cm**-1
    41:    1470.73 cm**-1
    42:    1484.39 cm**-1
    43:    1492.26 cm**-1
    44:    1503.26 cm**-1
    45:    1614.52 cm**-1
    46:    1634.84 cm**-1
    47:    2995.05 cm**-1
    48:    2997.54 cm**-1
    49:    3028.24 cm**-1
    50:    3067.34 cm**-1
    51:    3068.81 cm**-1
    52:    3091.02 cm**-1
    53:    3146.02 cm**-1
    54:    3150.78 cm**-1
    55:    3161.95 cm**-1
    56:    3175.33 cm**-1

IR SPECTRUM
-----------

 Mode   freq       eps      Int      T**2         TX        TY        TZ
       cm**-1   L/(mol*cm) km/mol    a.u.
----------------------------------------------------------------------------
  6:    149.77   0.000153    0.77  0.000320  ( 0.002693  0.000003  0.017671)
  7:    184.72   0.000004    0.02  0.000006  ( 0.000002  0.002459 -0.000012)
  8:    258.76   0.000917    4.63  0.001106  ( 0.002906  0.000004  0.033124)
  9:    380.31   0.000165    0.84  0.000136  ( 0.000002  0.011648 -0.000005)
 10:    422.73   0.000968    4.89  0.000714  ( 0.000486 -0.000002 -0.026722)
 11:    511.78   0.000006    0.03  0.000004  (-0.000004 -0.001933 -0.000006)
 12:    523.72   0.000262    1.32  0.000156  (-0.011557  0.000000 -0.004749)
 13:    597.12   0.000091    0.46  0.000047  (-0.000001 -0.006885 -0.000006)
 14:    619.34   0.000260    1.31  0.000131  ( 0.006513  0.000002  0.009414)
 15:    724.51   0.000004    0.02  0.000002  (-0.000006 -0.001280 -0.000000)
 16:    745.08   0.008634   43.63  0.003616  (-0.006829 -0.000011 -0.059747)
 17:    762.29   0.003467   17.52  0.001420  (-0.005781  0.000007  0.037230)
 18:    844.11   0.000069    0.35  0.000026  (-0.000004  0.005066  0.000003)
 19:    867.27   0.000052    0.26  0.000019  ( 0.000002  0.004318  0.000007)
 20:    872.56   0.000208    1.05  0.000074  ( 0.001852  0.000002 -0.008416)
 21:    902.15   0.000004    0.02  0.000001  (-0.000000  0.001101  0.000003)
 22:    915.31   0.000078    0.40  0.000027  (-0.004862  0.000002 -0.001744)
 23:    925.95   0.000112    0.57  0.000038  (-0.003094 -0.000001  0.005303)
 24:    962.86   0.000000    0.00  0.000000  ( 0.000000  0.000124  0.000000)
 25:   1004.70   0.000032    0.16  0.000010  (-0.000002 -0.003130  0.000001)
 26:   1040.57   0.000639    3.23  0.000192  ( 0.013842  0.000001 -0.000213)
 27:   1055.07   0.000766    3.87  0.000227  ( 0.014197 -0.000007 -0.005008)
 28:   1104.71   0.000544    2.75  0.000154  ( 0.000000  0.012396 -0.000002)
 29:   1145.67   0.000093    0.47  0.000025  ( 0.000004 -0.005041 -0.000000)
 30:   1174.44   0.000193    0.98  0.000051  ( 0.000000 -0.007162  0.000002)
 31:   1176.46   0.000002    0.01  0.000001  (-0.000505 -0.000005  0.000536)
 32:   1194.21   0.000002    0.01  0.000001  ( 0.000001  0.000736  0.000002)
 33:   1220.30   0.000090    0.46  0.000023  (-0.004335  0.000001  0.002075)
 34:   1242.99   0.000922    4.66  0.000232  ( 0.015213 -0.000000 -0.000390)
 35:   1288.92   0.000475    2.40  0.000115  ( 0.000003 -0.010728  0.000001)
 36:   1294.73   0.000035    0.18  0.000008  (-0.002903 -0.000001 -0.000138)
 37:   1324.96   0.000079    0.40  0.000019  ( 0.000000 -0.004325  0.000001)
 38:   1335.72   0.000139    0.70  0.000032  ( 0.000000 -0.005689  0.000001)
 39:   1359.95   0.000420    2.12  0.000096  (-0.009804 -0.000001  0.000571)
 40:   1468.32   0.000685    3.46  0.000146  (-0.000020  0.012069  0.000034)
 41:   1470.73   0.000799    4.04  0.000170  ( 0.007075  0.000035 -0.010931)
 42:   1484.39   0.001188    6.00  0.000250  (-0.000003 -0.015801  0.000002)
 43:   1492.26   0.000721    3.64  0.000151  ( 0.011928  0.000005  0.002917)
 44:   1503.26   0.003253   16.44  0.000675  ( 0.025980 -0.000004  0.000539)
 45:   1614.52   0.000121    0.61  0.000023  (-0.004835  0.000001 -0.000318)
 46:   1634.84   0.000221    1.12  0.000042  (-0.000000  0.006498  0.000003)
 47:   2995.05   0.006314   31.91  0.000658  ( 0.015196  0.000682 -0.020651)
 48:   2997.54   0.006634   33.53  0.000691  (-0.000391  0.026273  0.000530)
 49:   3028.24   0.005946   30.05  0.000613  (-0.019316  0.000008 -0.015480)
 50:   3067.34   0.005552   28.06  0.000565  ( 0.001249  0.023713  0.000987)
 51:   3068.81   0.006407   32.38  0.000652  ( 0.020298 -0.001475  0.015406)
 52:   3091.02   0.008548   43.20  0.000863  ( 0.020573  0.000021 -0.020969)
 53:   3146.02   0.001224    6.19  0.000121  (-0.000003 -0.011020  0.000001)
 54:   3150.78   0.000407    2.06  0.000040  (-0.006333  0.000005  0.000442)
 55:   3161.95   0.005745   29.03  0.000567  (-0.000003  0.023811 -0.000004)
 56:   3175.33   0.004384   22.15  0.000431  (-0.020742 -0.000003  0.000790)

--------------------------
THERMOCHEMISTRY AT 298.15K
--------------------------

Temperature         ...   298.15 K
Pressure            ...     1.00 atm
Total Mass          ...   118.18 AMU
Quasi RRHO          ...     True
Cut-Off Frequency   ...     1.00 cm^-1

Throughout the following assumptions are being made:
  (1) The electronic state is orbitally nondegenerate
  (2) There are no thermally accessible electronically excited states
  (3) Hindered rotations indicated by low frequency modes are not
      treated as such but are treated as vibrations and this may
      cause some error
  (4) All equations used are the standard statistical mechanics
      equations for an ideal gas
  (5) All vibrations are strictly harmonic

freq.     149.77  E(vib)   ...       0.40
freq.     184.72  E(vib)   ...       0.37
freq.     258.76  E(vib)   ...       0.30
freq.     380.31  E(vib)   ...       0.21
freq.     422.73  E(vib)   ...       0.18
freq.     511.78  E(vib)   ...       0.14
freq.     523.72  E(vib)   ...       0.13
freq.     597.12  E(vib)   ...       0.10
freq.     619.34  E(vib)   ...       0.09
freq.     724.51  E(vib)   ...       0.06
freq.     745.08  E(vib)   ...       0.06
freq.     762.29  E(vib)   ...       0.06
freq.     844.11  E(vib)   ...       0.04
freq.     867.27  E(vib)   ...       0.04
freq.     872.56  E(vib)   ...       0.04
freq.     902.15  E(vib)   ...       0.03
freq.     915.31  E(vib)   ...       0.03
freq.     925.95  E(vib)   ...       0.03
freq.     962.86  E(vib)   ...       0.03
freq.    1004.70  E(vib)   ...       0.02
freq.    1040.57  E(vib)   ...       0.02
freq.    1055.07  E(vib)   ...       0.02
freq.    1104.71  E(vib)   ...       0.02
freq.    1145.67  E(vib)   ...       0.01
freq.    1174.44  E(vib)   ...       0.01
freq.    1176.46  E(vib)   ...       0.01
freq.    1194.21  E(vib)   ...       0.01
freq.    1220.30  E(vib)   ...       0.01
freq.    1242.99  E(vib)   ...       0.01
freq.    1288.92  E(vib)   ...       0.01
freq.    1294.73  E(vib)   ...       0.01
freq.    1324.96  E(vib)   ...       0.01
freq.    1335.72  E(vib)   ...       0.01
freq.    1359.95  E(vib)   ...       0.01
freq.    1468.32  E(vib)   ...       0.00
freq.    1470.73  E(vib)   ...       0.00
freq.    1484.39  E(vib)   ...       0.00
freq.    1492.26  E(vib)   ...       0.00
freq.    1503.26  E(vib)   ...       0.00
freq.    1614.52  E(vib)   ...       0.00
freq.    1634.84  E(vib)   ...       0.00
freq.    2995.05  E(vib)   ...       0.00
freq.    2997.54  E(vib)   ...       0.00
freq.    3028.24  E(vib)   ...       0.00
freq.    3067.34  E(vib)   ...       0.00
freq.    3068.81  E(vib)   ...       0.00
freq.    3091.02  E(vib)   ...       0.00
freq.    3146.02  E(vib)   ...       0.00
freq.    3150.78  E(vib)   ...       0.00
freq.    3161.95  E(vib)   ...       0.00
freq.    3175.33  E(vib)   ...       0.00

------------
INNER ENERGY
------------

The inner energy is: U= E(el) + E(ZPE) + E(vib) + E(rot) + E(trans)
    E(el)   - is the total energy from the electronic structure calculation
              = E(kin-el) + E(nuc-el) + E(el-el) + E(nuc-nuc)
    E(ZPE)  - the the zero temperature vibrational energy from the frequency calculation
    E(vib)  - the the finite temperature correction to E(ZPE) due to population
              of excited vibrational states
    E(rot)  - is the rotational thermal energy
    E(trans)- is the translational thermal energy

Summary of contributions to the inner energy U:
Electronic energy                ...   -348.91059283 Eh
Zero point energy                ...      0.16330846 Eh     102.48 kcal/mol
Thermal vibrational correction   ...      0.00403686 Eh       2.53 kcal/mol
Thermal rotational correction    ...      0.00141627 Eh       0.89 kcal/mol
Thermal translational correction ...      0.00141627 Eh       0.89 kcal/mol
-----------------------------------------------------------------------
Total thermal energy                   -348.74041496 Eh

Summary of corrections to the electronic energy:
(perhaps to be used in another calculation)
Total thermal correction                  0.00686940 Eh       4.31 kcal/mol
Non-thermal (ZPE) correction              0.16330846 Eh     102.48 kcal/mol
-----------------------------------------------------------------------
Total correction                          0.17017786 Eh     106.79 kcal/mol

--------
ENTHALPY
--------

The enthalpy is H = U + kB*T
                kB is Boltzmann's constant
Total thermal energy              ...   -348.74041496 Eh
Thermal Enthalpy correction       ...      0.00094421 Eh       0.59 kcal/mol
-----------------------------------------------------------------------
Total Enthalpy                    ...   -348.73947076 Eh

Note: Only C1 symmetry has been detected, increase convergence thresholds
      if your molecule has a higher symmetry. Symmetry factor of 1.0 is
      used for the rotational entropy correction.

Note: Rotational entropy computed according to Herzberg
Infrared and Raman Spectra, Chapter V,1, Van Nostrand Reinhold, 1945
Point Group:  C1, Symmetry Number:   1
Rotational constants in cm-1:     0.118154     0.050092     0.036205

Vibrational entropy computed according to the QRRHO of S. Grimme
Chem.Eur.J. 2012 18 9955 using a reference frequency of 100.0 cm-1

-------
ENTROPY
-------

The entropy contributions are T*S = T*(S(el)+S(vib)+S(rot)+S(trans))
     S(el)   - electronic entropy
     S(vib)  - vibrational entropy
     S(rot)  - rotational entropy
     S(trans)- translational entropy
The entropies will be listed as multiplied by the temperature to get
units of energy

Electronic entropy                ...      0.00000000 Eh      0.00 kcal/mol
Vibrational entropy               ...      0.00625305 Eh      3.92 kcal/mol
Rotational entropy                ...      0.01349913 Eh      8.47 kcal/mol
Translational entropy             ...      0.01910780 Eh     11.99 kcal/mol
-----------------------------------------------------------------------
Final entropy term                ...      0.03885998 Eh     24.38 kcal/mol

In case the symmetry of your molecule has not been determined correctly
or in case you have a reason to use a different symmetry number we print
out the resulting rotational entropy values for sn=1,12:

 non-linear molecules -----------------------------------
|  sn= 1 | S(rot)=       0.01349913 Eh      8.47 kcal/mol|
|  sn= 2 | S(rot)=       0.01284468 Eh      8.06 kcal/mol|
|  sn= 3 | S(rot)=       0.01246185 Eh      7.82 kcal/mol|
|  sn= 4 | S(rot)=       0.01219022 Eh      7.65 kcal/mol|
|  sn= 5 | S(rot)=       0.01197953 Eh      7.52 kcal/mol|
|  sn= 6 | S(rot)=       0.01180739 Eh      7.41 kcal/mol|
|  sn= 7 | S(rot)=       0.01166184 Eh      7.32 kcal/mol|
|  sn= 8 | S(rot)=       0.01153576 Eh      7.24 kcal/mol|
|  sn= 9 | S(rot)=       0.01142456 Eh      7.17 kcal/mol|

                             ****ORCA TERMINATED NORMALLY****
TOTAL RUN TIME: 0 days 0 hours 17 minutes 40 seconds 622 msec
