                         Program Version 6.0.0  -   RELEASE  -
|  1> ! r2SCAN-3c DEF2-TZVP FREQ
|  2> * xyzfile 0 1 vacuum_censo.xyz
|  3>
|  4>                          ****END OF INPUT****

CARTESIAN COORDINATES (ANGSTROEM)
---------------------------------
  C     -2.209937    0.696845   -0.057118
  C     -2.209951   -0.696795   -0.057412
  C     -1.008658   -1.403458    0.000334
  C      0.187334   -0.699284    0.052479
  C      0.187355    0.699227    0.052666
  C     -1.008621    1.403456    0.000840
  C      1.599871    1.222496    0.140455
  C      2.445726   -0.000049   -0.278343
  C      1.599828   -1.222580    0.140366
  H     -3.151015    1.235413   -0.108017
  H     -3.151041   -1.235318   -0.108558
  H     -1.011723   -2.489957   -0.002414
  H     -1.011647    2.489958   -0.001527
  H      1.775053    2.100342   -0.489067
  H      1.824631    1.516187    1.175587
  H      2.559342    0.000000   -1.367923
  H      3.445879   -0.000084    0.162947
  H      1.775092   -2.100459   -0.489068
  H      1.824453   -1.516196    1.175545

 Total Charge           Charge          ....    0
 Multiplicity           Mult            ....    1
 Number of Electrons    NEL             ....   64
 Basis Dimension        Dim             ....  339

ORBITAL ENERGIES
----------------

  NO   OCC          E(Eh)            E(eV)
   0   2.0000     -10.033932      -273.0372
   1   2.0000     -10.033553      -273.0269
   2   2.0000     -10.033219      -273.0178
   3   2.0000     -10.033207      -273.0174
   4   2.0000     -10.032077      -272.9867
   5   2.0000     -10.030635      -272.9475
   6   2.0000     -10.030546      -272.9450
   7   2.0000     -10.030209      -272.9359
   8   2.0000     -10.029877      -272.9268
   9   2.0000      -0.834601       -22.7106
  10   2.0000      -0.774181       -21.0665
  11   2.0000      -0.719729       -19.5848
  12   2.0000      -0.679995       -18.5036
  13   2.0000      -0.657120       -17.8811
  14   2.0000      -0.575092       -15.6490
  15   2.0000      -0.546366       -14.8674
  16   2.0000      -0.536842       -14.6082
  17   2.0000      -0.470232       -12.7957
  18   2.0000      -0.444259       -12.0889
  19   2.0000      -0.425545       -11.5797
  20   2.0000      -0.412378       -11.2214
  21   2.0000      -0.379441       -10.3251
  22   2.0000      -0.373713       -10.1692
  23   2.0000      -0.373447       -10.1620
  24   2.0000      -0.344325        -9.3696
  25   2.0000      -0.320685        -8.7263
  26   2.0000      -0.318671        -8.6715
  27   2.0000      -0.305053        -8.3009
  28   2.0000      -0.302403        -8.2288
  29   2.0000      -0.294914        -8.0250
  30   2.0000      -0.228458        -6.2167
  31   2.0000      -0.215200        -5.8559
  32   0.0000      -0.032066        -0.8726
  33   0.0000      -0.022875        -0.6225
  34   0.0000       0.048813         1.3283
  35   0.0000       0.065347         1.7782
  36   0.0000       0.083486         2.2718

MULLIKEN ATOMIC CHARGES
-----------------------
   0 C :   -0.090807
   1 C :   -0.090814
   2 C :   -0.229436
   3 C :    0.061839
   4 C :    0.061829
   5 C :   -0.229449
   6 C :   -0.134507
   7 C :   -0.167075
   8 C :   -0.134486
   9 H :    0.104991
  10 H :    0.104992
  11 H :    0.097700
  12 H :    0.097694
  13 H :    0.097426
  14 H :    0.087320
  15 H :    0.083582
  16 H :    0.094457
  17 H :    0.097429
  18 H :    0.087313
Sum of atomic charges:   -0.0000000

LOEWDIN ATOMIC CHARGES
----------------------
   0 C :   -0.145368
   1 C :   -0.145368
   2 C :   -0.117068
   3 C :   -0.115600
   4 C :   -0.115598
   5 C :   -0.117066
   6 C :   -0.200090
   7 C :   -0.230984
   8 C :   -0.200092
   9 H :    0.141253
  10 H :    0.141253
  11 H :    0.143167
  12 H :    0.143167
  13 H :    0.135898
  14 H :    0.142090
  15 H :    0.135549
  16 H :    0.126866
  17 H :    0.135891
  18 H :    0.142096

  Mayer bond orders larger than 0.100000
B(  0-C ,  1-C ) :   1.3923 B(  0-C ,  5-C ) :   1.3974 B(  0-C ,  9-H ) :   0.9717
B(  1-C ,  2-C ) :   1.3974 B(  1-C , 10-H ) :   0.9717 B(  2-C ,  3-C ) :   1.3460
B(  2-C , 11-H ) :   0.9913 B(  3-C ,  4-C ) :   1.3325 B(  3-C ,  8-C ) :   0.9679
B(  4-C ,  5-C ) :   1.3460 B(  4-C ,  6-C ) :   0.9679 B(  5-C , 12-H ) :   0.9914
B(  6-C ,  7-C ) :   1.0094 B(  6-C , 13-H ) :   0.9602 B(  6-C , 14-H ) :   0.9337
B(  7-C ,  8-C ) :   1.0094 B(  7-C , 15-H ) :   0.9647 B(  7-C , 16-H ) :   0.9728
B(  8-C , 17-H ) :   0.9602 B(  8-C , 18-H ) :   0.9337

Dispersion correction           -0.006506667
FINAL SINGLE POINT ENERGY      -348.910639123893

DIPOLE MOMENT
-------------

Method             : SCF
Type of density    : Electron Density
Multiplicity       :   1
Irrep              :   0
Energy             :  -348.9093451344585333 Eh
Relativity type    :
Basis              : AO
                                X                 Y                 Z
Electronic contribution:     -4.317852854      -0.000038538       0.063277138
Nuclear contribution   :      4.584622169       0.000038274      -0.039582022
                        -----------------------------------------
Total Dipole Moment    :      0.266769315      -0.000000265       0.023695116
                        -----------------------------------------
Magnitude (a.u.)       :      0.267819577
Magnitude (Debye)      :      0.680743266

VIBRATIONAL FREQUENCIES
-----------------------

Scaling factor for frequencies =  1.000000000  (already applied!)

     0:       0.00 cm**-1
     1:       0.00 cm**-1
     2:       0.00 cm**-1
     3:       0.00 cm**-1
     4:       0.00 cm**-1
     5:       0.00 cm**-1
     6:     151.45 cm**-1
     7:     185.18 cm**-1
     8:     260.13 cm**-1
     9:     380.08 cm**-1
    10:     421.11 cm**-1
    11:     510.58 cm**-1
    12:     523.85 cm**-1
    13:     597.20 cm**-1
    14:     620.37 cm**-1
    15:     724.11 cm**-1
    16:     744.23 cm**-1
    17:     762.71 cm**-1
    18:     844.10 cm**-1
    19:     866.94 cm**-1
    20:     872.96 cm**-1
    21:     902.69 cm**-1
    22:     914.61 cm**-1
    23:     925.89 cm**-1
    24:     962.80 cm**-1
    25:    1003.69 cm**-1
    26:    1043.97 cm**-1
    27:    1055.44 cm**-1
    28:    1106.46 cm**-1
    29:    1146.28 cm**-1
    30:    1175.76 cm**-1
    31:    1177.69 cm**-1
    32:    1194.30 cm**-1
    33:    1221.42 cm**-1
    34:    1243.48 cm**-1
    35:    1289.61 cm**-1
    36:    1297.38 cm**-1
    37:    1325.49 cm**-1
    38:    1336.25 cm**-1
    39:    1365.96 cm**-1
    40:    1469.54 cm**-1
    41:    1471.90 cm**-1
    42:    1487.31 cm**-1
    43:    1493.15 cm**-1
    44:    1506.34 cm**-1
    45:    1620.66 cm**-1
    46:    1640.23 cm**-1
    47:    2990.09 cm**-1
    48:    2992.44 cm**-1
    49:    3025.35 cm**-1
    50:    3061.07 cm**-1
    51:    3062.74 cm**-1
    52:    3085.92 cm**-1
    53:    3148.34 cm**-1
    54:    3152.62 cm**-1
    55:    3164.69 cm**-1
    56:    3178.61 cm**-1

IR SPECTRUM
-----------

 Mode   freq       eps      Int      T**2         TX        TY        TZ
       cm**-1   L/(mol*cm) km/mol    a.u.
----------------------------------------------------------------------------
  6:    151.45   0.000166    0.84  0.000341  ( 0.002702  0.000002 -0.018269)
  7:    185.18   0.000003    0.02  0.000006  (-0.000003 -0.002395  0.000004)
  8:    260.13   0.000890    4.50  0.001067  (-0.003042 -0.000004  0.032528)
  9:    380.08   0.000167    0.84  0.000137  (-0.000001 -0.011710 -0.000007)
 10:    421.11   0.001000    5.05  0.000741  (-0.000324  0.000002 -0.027221)
 11:    510.58   0.000006    0.03  0.000004  ( 0.000000  0.001968 -0.000002)
 12:    523.85   0.000254    1.29  0.000152  (-0.011468 -0.000000  0.004472)
 13:    597.20   0.000091    0.46  0.000048  ( 0.000001  0.006900 -0.000007)
 14:    620.37   0.000251    1.27  0.000127  (-0.006297 -0.000002  0.009320)
 15:    724.11   0.000003    0.01  0.000001  ( 0.000008  0.001106 -0.000007)
 16:    744.23   0.009006   45.51  0.003776  ( 0.006468  0.000012 -0.061109)
 17:    762.71   0.003039   15.36  0.001243  ( 0.006329 -0.000007  0.034689)
 18:    844.10   0.000071    0.36  0.000026  ( 0.000004 -0.005120  0.000003)
 19:    866.94   0.000053    0.27  0.000019  ( 0.000001  0.004366 -0.000010)
 20:    872.96   0.000203    1.03  0.000073  (-0.001402 -0.000003 -0.008405)
 21:    902.69   0.000003    0.01  0.000001  ( 0.000001  0.000995 -0.000001)
 22:    914.61   0.000075    0.38  0.000026  ( 0.004875 -0.000003 -0.001343)
 23:    925.89   0.000117    0.59  0.000039  ( 0.002845  0.000001  0.005595)
 24:    962.80   0.000000    0.00  0.000000  ( 0.000003  0.000061  0.000001)
 25:   1003.69   0.000030    0.15  0.000009  ( 0.000002  0.003053  0.000000)
 26:   1043.97   0.000598    3.02  0.000179  (-0.013375 -0.000001 -0.000010)
 27:   1055.44   0.000787    3.98  0.000233  ( 0.014433 -0.000007  0.004934)
 28:   1106.46   0.000529    2.67  0.000149  ( 0.000001 -0.012216 -0.000002)
 29:   1146.28   0.000095    0.48  0.000026  (-0.000006  0.005079 -0.000000)
 30:   1175.76   0.000200    1.01  0.000053  ( 0.000000  0.007280  0.000003)
 31:   1177.69   0.000003    0.01  0.000001  ( 0.000632  0.000001  0.000550)
 32:   1194.30   0.000002    0.01  0.000000  (-0.000001 -0.000675  0.000002)
 33:   1221.42   0.000076    0.38  0.000019  (-0.003910 -0.000000 -0.002028)
 34:   1243.48   0.000904    4.57  0.000227  ( 0.015051  0.000000  0.000482)
 35:   1289.61   0.000468    2.36  0.000113  ( 0.000006 -0.010641 -0.000001)
 36:   1297.38   0.000026    0.13  0.000006  (-0.002507 -0.000007  0.000135)
 37:   1325.49   0.000084    0.42  0.000020  ( 0.000000  0.004439  0.000001)
 38:   1336.25   0.000139    0.70  0.000032  ( 0.000000  0.005699  0.000001)
 39:   1365.96   0.000477    2.41  0.000109  ( 0.010426  0.000001  0.000562)
 40:   1469.54   0.000700    3.54  0.000149  (-0.000001  0.012189 -0.000007)
 41:   1471.90   0.000743    3.75  0.000157  ( 0.006409  0.000006  0.010787)
 42:   1487.31   0.001172    5.92  0.000246  (-0.000000 -0.015680 -0.000001)
 43:   1493.15   0.000703    3.55  0.000147  ( 0.011742  0.000004 -0.003022)
 44:   1506.34   0.003256   16.46  0.000675  ( 0.025971 -0.000002 -0.000313)
 45:   1620.66   0.000143    0.72  0.000028  ( 0.005241 -0.000000 -0.000262)
 46:   1640.23   0.000217    1.10  0.000041  ( 0.000000 -0.006423  0.000003)
 47:   2990.09   0.006332   32.00  0.000661  ( 0.015008  0.000146  0.020871)
 48:   2992.44   0.006721   33.96  0.000701  (-0.000078  0.026473 -0.000113)
 49:   3025.35   0.005736   28.99  0.000592  (-0.019456  0.000006  0.014598)
 50:   3061.07   0.005621   28.40  0.000573  (-0.000603 -0.023925  0.000478)
 51:   3062.74   0.006681   33.76  0.000681  (-0.020795  0.000705  0.015742)
 52:   3085.92   0.008507   42.99  0.000860  (-0.020068 -0.000010 -0.021392)
 53:   3148.34   0.001524    7.70  0.000151  ( 0.000014  0.012291  0.000003)
 54:   3152.62   0.000345    1.75  0.000034  ( 0.005833 -0.000018  0.000404)
 55:   3164.69   0.005469   27.64  0.000539  ( 0.000012 -0.023223 -0.000004)
 56:   3178.61   0.004480   22.64  0.000440  ( 0.020958  0.000010  0.000772)

--------------------------
THERMOCHEMISTRY AT 298.15K
--------------------------

Temperature         ...   298.15 K
Pressure            ...     1.00 atm
Total Mass          ...   118.18 AMU
Quasi RRHO          ...     True
Cut-Off Frequency   ...     1.00 cm^-1

Throughout the following assumptions are being made:
  (1) The electronic state is orbitally nondegenerate
  (2) There are no thermally accessible electronically excited states
  (3) Hindered rotations indicated by low frequency modes are not
      treated as such but are treated as vibrations and this may
      cause some error
  (4) All equations used are the standard statistical mechanics
      equations for an ideal gas
  (5) All vibrations are strictly harmonic

freq.     151.45  E(vib)   ...       0.40
freq.     185.18  E(vib)   ...       0.37
freq.     260.13  E(vib)   ...       0.30
freq.     380.08  E(vib)   ...       0.21
freq.     421.11  E(vib)   ...       0.18
freq.     510.58  E(vib)   ...       0.14
freq.     523.85  E(vib)   ...       0.13
freq.     597.20  E(vib)   ...       0.10
freq.     620.37  E(vib)   ...       0.09
freq.     724.11  E(vib)   ...       0.06
freq.     744.23  E(vib)   ...       0.06
freq.     762.71  E(vib)   ...       0.06
freq.     844.10  E(vib)   ...       0.04
freq.     866.94  E(vib)   ...       0.04
freq.     872.96  E(vib)   ...       0.04
freq.     902.69  E(vib)   ...       0.03
freq.     914.61  E(vib)   ...       0.03
freq.     925.89  E(vib)   ...       0.03
freq.     962.80  E(vib)   ...       0.03
freq.    1003.69  E(vib)   ...       0.02
freq.    1043.97  E(vib)   ...       0.02
freq.    1055.44  E(vib)   ...       0.02
freq.    1106.46  E(vib)   ...       0.02
freq.    1146.28  E(vib)   ...       0.01
freq.    1175.76  E(vib)   ...       0.01
freq.    1177.69  E(vib)   ...       0.01
freq.    1194.30  E(vib)   ...       0.01
freq.    1221.42  E(vib)   ...       0.01
freq.    1243.48  E(vib)   ...       0.01
freq.    1289.61  E(vib)   ...       0.01
freq.    1297.38  E(vib)   ...       0.01
freq.    1325.49  E(vib)   ...       0.01
freq.    1336.25  E(vib)   ...       0.01
freq.    1365.96  E(vib)   ...       0.01
freq.    1469.54  E(vib)   ...       0.00
freq.    1471.90  E(vib)   ...       0.00
freq.    1487.31  E(vib)   ...       0.00
freq.    1493.15  E(vib)   ...       0.00
freq.    1506.34  E(vib)   ...       0.00
freq.    1620.66  E(vib)   ...       0.00
freq.    1640.23  E(vib)   ...       0.00
freq.    2990.09  E(vib)   ...       0.00
freq.    2992.44  E(vib)   ...       0.00
freq.    3025.35  E(vib)   ...       0.00
freq.    3061.07  E(vib)   ...       0.00
freq.    3062.74  E(vib)   ...       0.00
freq.    3085.92  E(vib)   ...       0.00
freq.    3148.34  E(vib)   ...       0.00
freq.    3152.62  E(vib)   ...       0.00
freq.    3164.69  E(vib)   ...       0.00
freq.    3178.61  E(vib)   ...       0.00

------------
INNER ENERGY
------------

The inner energy is: U= E(el) + E(ZPE) + E(vib) + E(rot) + E(trans)
    E(el)   - is the total energy from the electronic structure calculation
              = E(kin-el) + E(nuc-el) + E(el-el) + E(nuc-nuc)
    E(ZPE)  - the the zero temperature vibrational energy from the frequency calculation
    E(vib)  - the the finite temperature correction to E(ZPE) due to population
              of excited vibrational states
    E(rot)  - is the rotational thermal energy
    E(trans)- is the translational thermal energy

Summary of contributions to the inner energy U:
Electronic energy                ...   -348.91063912 Eh
Zero point energy                ...      0.16335640 Eh     102.51 kcal/mol
Thermal vibrational correction   ...      0.00403200 Eh       2.53 kcal/mol
Thermal rotational correction    ...      0.00141627 Eh       0.89 kcal/mol
Thermal translational correction ...      0.00141627 Eh       0.89 kcal/mol
-----------------------------------------------------------------------
Total thermal energy                   -348.74041818 Eh

Summary of corrections to the electronic energy:
(perhaps to be used in another calculation)
Total thermal correction                  0.00686454 Eh       4.31 kcal/mol
Non-thermal (ZPE) correction              0.16335640 Eh     102.51 kcal/mol
-----------------------------------------------------------------------
Total correction                          0.17022094 Eh     106.82 kcal/mol

--------
ENTHALPY
--------

The enthalpy is H = U + kB*T
                kB is Boltzmann's constant
Total thermal energy              ...   -348.74041818 Eh
Thermal Enthalpy correction       ...      0.00094421 Eh       0.59 kcal/mol
-----------------------------------------------------------------------
Total Enthalpy                    ...   -348.73947397 Eh

Note: Only C1 symmetry has been detected, increase convergence thresholds
      if your molecule has a higher symmetry. Symmetry factor of 1.0 is
      used for the rotational entropy correction.

Note: Rotational entropy computed according to Herzberg
Infrared and Raman Spectra, Chapter V,1, Van Nostrand Reinhold, 1945
Point Group:  C1, Symmetry Number:   1
Rotational constants in cm-1:     0.118312     0.050112     0.036223

Vibrational entropy computed according to the QRRHO of S. Grimme
Chem.Eur.J. 2012 18 9955 using a reference frequency of 100.0 cm-1

-------
ENTROPY
-------

The entropy contributions are T*S = T*(S(el)+S(vib)+S(rot)+S(trans))
     S(el)   - electronic entropy
     S(vib)  - vibrational entropy
     S(rot)  - rotational entropy
     S(trans)- translational entropy
The entropies will be listed as multiplied by the temperature to get
units of energy

Electronic entropy                ...      0.00000000 Eh      0.00 kcal/mol
Vibrational entropy               ...      0.00623989 Eh      3.92 kcal/mol
Rotational entropy                ...      0.01349808 Eh      8.47 kcal/mol
Translational entropy             ...      0.01910780 Eh     11.99 kcal/mol
-----------------------------------------------------------------------
Final entropy term                ...      0.03884577 Eh     24.38 kcal/mol

In case the symmetry of your molecule has not been determined correctly
or in case you have a reason to use a different symmetry number we print
out the resulting rotational entropy values for sn=1,12:

 non-linear molecules -----------------------------------
|  sn= 1 | S(rot)=       0.01349808 Eh      8.47 kcal/mol|
|  sn= 2 | S(rot)=       0.01284362 Eh      8.06 kcal/mol|
|  sn= 3 | S(rot)=       0.01246079 Eh      7.82 kcal/mol|
|  sn= 4 | S(rot)=       0.01218917 Eh      7.65 kcal/mol|
|  sn= 5 | S(rot)=       0.01197848 Eh      7.52 kcal/mol|
|  sn= 6 | S(rot)=       0.01180633 Eh      7.41 kcal/mol|
|  sn= 7 | S(rot)=       0.01166079 Eh      7.32 kcal/mol|
|  sn= 8 | S(rot)=       0.01153471 Eh      7.24 kcal/mol|
|  sn= 9 | S(rot)=       0.01142350 Eh      7.17 kcal/mol|

                             ****ORCA TERMINATED NORMALLY****
TOTAL RUN TIME: 0 days 0 hours 17 minutes 16 seconds 221 msec
