                         Program Version 6.0.1  -  RELEASE   -
|  1> ! r2scan-3c def2/J RI DEFGRID2 scfconv6 printgap
|  2> %output
|  3>     printlevel normal
|  4> end
|  5> * xyz 0 1
|  6> C -2.292219761 0.1994656075 0.2979113181
|  7> C -0.9570913767 0.3114940371 -0.4333040909
|  8> C 0.001180097 -0.753292021 0.0039881373
|  9> C 1.3052814001 -0.5977351749 0.1732843236
| 10> C 2.0555640211 0.6813142804 -0.0451206343
| 11> H -2.1462763011 0.3057090713 1.3707721674
| 12> H -2.7524173245 -0.7681982344 0.1090781598
| 13> H -2.9771081249 0.9762574894 -0.035051262
| 14> H -1.1309831551 0.2100591783 -1.5101281141
| 15> H -0.5265296497 1.2988463258 -0.2612237228
| 16> H -0.444900676 -1.7236886212 0.1796056644
| 17> H 1.8984387782 -1.444805961 0.4898909252
| 18> H 3.1175538215 0.5402389477 0.1359720748
| 19> H 1.69471421 1.4607229193 0.6263548532
| 20> H 1.9243072868 1.036698885 -1.0666488549
| 21> *
| 22>
| 23>                          ****END OF INPUT****

CARTESIAN COORDINATES (ANGSTROEM)
---------------------------------
  C     -2.292220    0.199466    0.297911
  C     -0.957091    0.311494   -0.433304
  C      0.001180   -0.753292    0.003988
  C      1.305281   -0.597735    0.173284
  C      2.055564    0.681314   -0.045121
  H     -2.146276    0.305709    1.370772
  H     -2.752417   -0.768198    0.109078
  H     -2.977108    0.976257   -0.035051
  H     -1.130983    0.210059   -1.510128
  H     -0.526530    1.298846   -0.261224
  H     -0.444901   -1.723689    0.179606
  H      1.898439   -1.444806    0.489891
  H      3.117554    0.540239    0.135972
  H      1.694714    1.460723    0.626355
  H      1.924307    1.036699   -1.066649

 Total Charge           Charge          ....    0
 Multiplicity           Mult            ....    1
 Number of Electrons    NEL             ....   40
 Basis Dimension        Dim             ....  145

ORBITAL ENERGIES
----------------

  NO   OCC          E(Eh)            E(eV)
   0   2.0000     -10.028169      -272.8804
   1   2.0000     -10.022155      -272.7167
   2   2.0000     -10.021486      -272.6985
   3   2.0000     -10.018964      -272.6299
   4   2.0000     -10.018073      -272.6056
   5   2.0000      -0.772445       -21.0193
   6   2.0000      -0.717866       -19.5341
   7   2.0000      -0.646400       -17.5894
   8   2.0000      -0.581959       -15.8359
   9   2.0000      -0.494650       -13.4601
  10   2.0000      -0.444563       -12.0972
  11   2.0000      -0.408528       -11.1166
  12   2.0000      -0.397456       -10.8153
  13   2.0000      -0.379384       -10.3236
  14   2.0000      -0.349363        -9.5067
  15   2.0000      -0.338571        -9.2130
  16   2.0000      -0.328536        -8.9399
  17   2.0000      -0.311463        -8.4753
  18   2.0000      -0.290455        -7.9037
  19   2.0000      -0.217201        -5.9104
  20   0.0000      -0.004823        -0.1313
  21   0.0000       0.094024         2.5585
  22   0.0000       0.116128         3.1600
  23   0.0000       0.130660         3.5554
  24   0.0000       0.145737         3.9657

MULLIKEN ATOMIC CHARGES
-----------------------
   0 C :   -0.458414
   1 C :   -0.248141
   2 C :   -0.149110
   3 C :   -0.144965
   4 C :   -0.495491
   5 H :    0.149003
   6 H :    0.140063
   7 H :    0.144194
   8 H :    0.153569
   9 H :    0.141701
  10 H :    0.147472
  11 H :    0.152769
  12 H :    0.145414
  13 H :    0.161321
  14 H :    0.160615
Sum of atomic charges:    0.0000000

LOEWDIN ATOMIC CHARGES
----------------------
   0 C :   -0.418380
   1 C :   -0.305342
   2 C :   -0.209987
   3 C :   -0.216619
   4 C :   -0.422733
   5 H :    0.152742
   6 H :    0.150027
   7 H :    0.149579
   8 H :    0.162623
   9 H :    0.158014
  10 H :    0.162790
  11 H :    0.160139
  12 H :    0.155119
  13 H :    0.160980
  14 H :    0.161049

  Mayer bond orders larger than 0.100000
B(  0-C ,  1-C ) :   0.8912 B(  0-C ,  5-H ) :   0.9817 B(  0-C ,  6-H ) :   0.9757
B(  0-C ,  7-H ) :   0.9739 B(  1-C ,  2-C ) :   0.9291 B(  1-C ,  8-H ) :   0.9671
B(  1-C ,  9-H ) :   0.9827 B(  2-C ,  3-C ) :   1.9473 B(  2-C , 10-H ) :   0.9407
B(  3-C ,  4-C ) :   0.8928 B(  3-C , 11-H ) :   0.9501 B(  4-C , 12-H ) :   0.9742
B(  4-C , 13-H ) :   0.9778 B(  4-C , 14-H ) :   0.9784

Dispersion correction           -0.003248639
FINAL SINGLE POINT ENERGY      -196.458980891107

DIPOLE MOMENT
-------------

Method             : SCF
Type of density    : Electron Density
Multiplicity       :   1
Irrep              :   0
Energy             :  -196.4618678096889539 Eh
Relativity type    :
Basis              : AO
                                X                 Y                 Z
Electronic contribution:      1.241491136      -1.637999088      -0.091108414
Nuclear contribution   :     -1.260141659       1.774854365       0.036233631
                        -----------------------------------------
Total Dipole Moment    :     -0.018650524       0.136855277      -0.054874783
                        -----------------------------------------
Magnitude (a.u.)       :      0.148621838
Magnitude (Debye)      :      0.377766690

Rotational constants in cm-1:             0.420128             0.085393             0.076792
Rotational constants in MHz :         12595.125456          2560.028876          2302.171951

                             ****ORCA TERMINATED NORMALLY****
TOTAL RUN TIME: 0 days 0 hours 0 minutes 9 seconds 712 msec
