                         Program Version 6.0.1  -  RELEASE   -
|  1> ! pbe def2-sv(p) def2/J RI DEFGRID1 loosescf d4 GCP(DFT/SV(P)) printgap
|  2> %output
|  3>     printlevel normal
|  4> end
|  5> * xyz 0 1
|  6> C -4.7672155017 -0.8511301758 0.1335494817
|  7> N -3.3995214859 -0.9084088246 -0.3146571513
|  8> C -2.4652110031 -0.0224048465 0.0929574978
|  9> O -2.6605296049 0.903887459 0.8344788174
| 10> O -1.2681804173 -0.364498255 -0.4597540592
| 11> C -0.1503744044 0.4358772131 -0.2711611675
| 12> C -0.2044334809 1.8040453395 -0.2973798728
| 13> C 0.9715554655 2.5535261912 -0.1466445034
| 14> C 2.1788399399 1.9365834591 0.0141930744
| 15> C 2.2669294816 0.5288676844 0.0348135156
| 16> C 1.0853678798 -0.2440387344 -0.1068427531
| 17> C 1.1766955279 -1.6503239137 -0.0781665765
| 18> C 2.3860340243 -2.2670255349 0.0823957725
| 19> C 3.5567826236 -1.5063636329 0.2188576428
| 20> C 3.4976607609 -0.1411455234 0.196055362
| 21> H -4.8578616982 0.0112961752 0.7915585083
| 22> H -5.0341561132 -1.7551256238 0.6846271404
| 23> H -5.4459900497 -0.7333602036 -0.7132740455
| 24> H -3.1142500518 -1.6519331879 -0.9309492511
| 25> H -1.148772091 2.308699599 -0.4205527529
| 26> H 0.9050449133 3.6309602995 -0.1639760721
| 27> H 3.0837828475 2.5154944603 0.1281004698
| 28> H 0.271526888 -2.2287476704 -0.1844509463
| 29> H 2.4479690341 -3.3452087442 0.1056643685
| 30> H 4.5045367791 -2.0095549212 0.343525275
| 31> H 4.3963509295 0.4496167367 0.3019918563
| 32> *
| 33>
| 34>                          ****END OF INPUT****

CARTESIAN COORDINATES (ANGSTROEM)
---------------------------------
  C     -4.767216   -0.851130    0.133549
  N     -3.399521   -0.908409   -0.314657
  C     -2.465211   -0.022405    0.092957
  O     -2.660530    0.903887    0.834479
  O     -1.268180   -0.364498   -0.459754
  C     -0.150374    0.435877   -0.271161
  C     -0.204433    1.804045   -0.297380
  C      0.971555    2.553526   -0.146645
  C      2.178840    1.936583    0.014193
  C      2.266929    0.528868    0.034814
  C      1.085368   -0.244039   -0.106843
  C      1.176696   -1.650324   -0.078167
  C      2.386034   -2.267026    0.082396
  C      3.556783   -1.506364    0.218858
  C      3.497661   -0.141146    0.196055
  H     -4.857862    0.011296    0.791559
  H     -5.034156   -1.755126    0.684627
  H     -5.445990   -0.733360   -0.713274
  H     -3.114250   -1.651933   -0.930949
  H     -1.148772    2.308700   -0.420553
  H      0.905045    3.630960   -0.163976
  H      3.083783    2.515494    0.128100
  H      0.271527   -2.228748   -0.184451
  H      2.447969   -3.345209    0.105664
  H      4.504537   -2.009555    0.343525
  H      4.396351    0.449617    0.301992

 Total Charge           Charge          ....    0
 Multiplicity           Mult            ....    1
 Number of Electrons    NEL             ....  106
 Basis Dimension        Dim             ....  232

ORBITAL ENERGIES
----------------

  NO   OCC          E(Eh)            E(eV)
   0   2.0000     -18.809154      -511.8231
   1   2.0000     -18.726138      -509.5641
   2   2.0000     -14.023660      -381.6032
   3   2.0000     -10.028959      -272.9019
   4   2.0000      -9.956287      -270.9243
   5   2.0000      -9.924985      -270.0726
   6   2.0000      -9.904350      -269.5111
   7   2.0000      -9.903307      -269.4827
   8   2.0000      -9.893422      -269.2137
   9   2.0000      -9.893357      -269.2119
  10   2.0000      -9.893306      -269.2105
  11   2.0000      -9.893024      -269.2029
  12   2.0000      -9.892838      -269.1978
  13   2.0000      -9.889647      -269.1110
  14   2.0000      -9.889535      -269.1079
  15   2.0000      -1.016252       -27.6536
  16   2.0000      -0.925442       -25.1826
  17   2.0000      -0.848787       -23.0967
  18   2.0000      -0.794311       -21.6143
  19   2.0000      -0.744713       -20.2647
  20   2.0000      -0.703070       -19.1315
  21   2.0000      -0.668819       -18.1995
  22   2.0000      -0.663051       -18.0425
  23   2.0000      -0.634233       -17.2584
  24   2.0000      -0.579658       -15.7733
  25   2.0000      -0.557277       -15.1643
  26   2.0000      -0.552877       -15.0446
  27   2.0000      -0.532550       -14.4914
  28   2.0000      -0.501056       -13.6344
  29   2.0000      -0.467569       -12.7232
  30   2.0000      -0.449061       -12.2196
  31   2.0000      -0.438612       -11.9352
  32   2.0000      -0.435553       -11.8520
  33   2.0000      -0.425760       -11.5855
  34   2.0000      -0.401534       -10.9263
  35   2.0000      -0.395629       -10.7656
  36   2.0000      -0.384793       -10.4707
  37   2.0000      -0.381069       -10.3694
  38   2.0000      -0.374910       -10.2018
  39   2.0000      -0.361826        -9.8458
  40   2.0000      -0.356357        -9.6970
  41   2.0000      -0.352607        -9.5949
  42   2.0000      -0.343369        -9.3436
  43   2.0000      -0.328138        -8.9291
  44   2.0000      -0.307614        -8.3706
  45   2.0000      -0.298435        -8.1208
  46   2.0000      -0.292841        -7.9686
  47   2.0000      -0.280379        -7.6295
  48   2.0000      -0.245385        -6.6773
  49   2.0000      -0.233601        -6.3566
  50   2.0000      -0.223017        -6.0686
  51   2.0000      -0.222288        -6.0488
  52   2.0000      -0.189892        -5.1672
  53   0.0000      -0.066985        -1.8228
  54   0.0000      -0.038806        -1.0560
  55   0.0000      -0.004596        -0.1251
  56   0.0000       0.024235         0.6595
  57   0.0000       0.029314         0.7977

MULLIKEN ATOMIC CHARGES
-----------------------
   0 C :   -0.179089
   1 N :   -0.292755
   2 C :    0.197767
   3 O :   -0.213121
   4 O :   -0.250606
   5 C :    0.198737
   6 C :   -0.135104
   7 C :   -0.043951
   8 C :   -0.113535
   9 C :    0.135940
  10 C :    0.095189
  11 C :   -0.127748
  12 C :   -0.038155
  13 C :   -0.038143
  14 C :   -0.130623
  15 H :    0.140589
  16 H :    0.115949
  17 H :    0.115580
  18 H :    0.232562
  19 H :    0.058543
  20 H :    0.055395
  21 H :    0.036336
  22 H :    0.036722
  23 H :    0.051300
  24 H :    0.052341
  25 H :    0.039879
Sum of atomic charges:    0.0000000

LOEWDIN ATOMIC CHARGES
----------------------
   0 C :   -0.258388
   1 N :   -0.175231
   2 C :    0.033959
   3 O :   -0.182728
   4 O :   -0.053114
   5 C :    0.050348
   6 C :   -0.139865
   7 C :   -0.117601
   8 C :   -0.121376
   9 C :   -0.022797
  10 C :   -0.036230
  11 C :   -0.112159
  12 C :   -0.124152
  13 C :   -0.124847
  14 C :   -0.109452
  15 H :    0.138968
  16 H :    0.117664
  17 H :    0.117659
  18 H :    0.236776
  19 H :    0.136365
  20 H :    0.126763
  21 H :    0.123678
  22 H :    0.123460
  23 H :    0.123725
  24 H :    0.124148
  25 H :    0.124427

  Mayer bond orders larger than 0.100000
B(  0-C ,  1-N ) :   1.0253 B(  0-C , 15-H ) :   0.9369 B(  0-C , 16-H ) :   0.9580
B(  0-C , 17-H ) :   0.9580 B(  1-N ,  2-C ) :   1.2188 B(  1-N , 18-H ) :   0.8609
B(  2-C ,  3-O ) :   2.0381 B(  2-C ,  4-O ) :   1.0547 B(  4-O ,  5-C ) :   1.0453
B(  5-C ,  6-C ) :   1.4528 B(  5-C , 10-C ) :   1.2431 B(  6-C ,  7-C ) :   1.2250
B(  6-C , 19-H ) :   0.9535 B(  7-C ,  8-C ) :   1.4403 B(  7-C , 20-H ) :   0.9620
B(  8-C ,  9-C ) :   1.2347 B(  8-C , 21-H ) :   0.9680 B(  9-C , 10-C ) :   1.2652
B(  9-C , 14-C ) :   1.2437 B( 10-C , 11-C ) :   1.2642 B( 11-C , 12-C ) :   1.4426
B( 11-C , 22-H ) :   0.9598 B( 12-C , 13-C ) :   1.2590 B( 12-C , 23-H ) :   0.9631
B( 13-C , 14-C ) :   1.4600 B( 13-C , 24-H ) :   0.9623 B( 14-C , 25-H ) :   0.9644

Dispersion correction           -0.031943434
FINAL SINGLE POINT ENERGY      -667.736896232865

DIPOLE MOMENT
-------------

Method             : SCF
Type of density    : Electron Density
Multiplicity       :   1
Irrep              :   0
Energy             :  -667.8136377415571587 Eh
Relativity type    :
Basis              : AO
                                X                 Y                 Z
Electronic contribution:      3.414934479       1.833921748      -0.491642537
Nuclear contribution   :     -3.821860775      -2.631256451      -0.050343961
                        -----------------------------------------
Total Dipole Moment    :     -0.406926296      -0.797334704      -0.541986497
                        -----------------------------------------
Magnitude (a.u.)       :      1.046461181
Magnitude (Debye)      :      2.659892937

Rotational constants in cm-1:             0.042044             0.012531             0.009912
Rotational constants in MHz :          1260.438263           375.674452           297.155775

                             ****ORCA TERMINATED NORMALLY****
TOTAL RUN TIME: 0 days 0 hours 0 minutes 18 seconds 633 msec
