                         Program Version 6.0.1  -  RELEASE   -
|  1> ! pbe def2-sv(p) def2/J RI DEFGRID1 loosescf d4 GCP(DFT/SV(P)) printgap
|  2> %output
|  3>     printlevel normal
|  4> end
|  5> * xyz 0 1
|  6> C -2.3001452454 -1.0794127313 -0.2146219
|  7> C -0.9178957841 -0.578006545 0.2322590833
|  8> H -0.8207517769 -0.718581387 1.3216258911
|  9> C -0.735162237 0.9255770361 -0.0720692234
| 10> H -1.3407697595 1.2170179048 -0.9447691823
| 11> C 0.7398182216 1.2327803651 -0.4328269029
| 12> H 0.9162803103 2.2896572831 -0.2004172381
| 13> C 1.645879497 0.3514923995 0.4324531338
| 14> H 2.6983233503 0.5321377005 0.1806169848
| 15> C 1.3679064351 -1.1333533415 0.0799433695
| 16> H 1.5019387659 -1.7369569554 0.9986581341
| 17> O 0.0595696536 -1.3490538688 -0.4267097382
| 18> O 2.25254061 -1.5109131531 -0.9185283443
| 19> O 1.4726145939 0.596989495 1.8014368812
| 20> O 0.9871643954 1.07203263 -1.7979712563
| 21> O -1.0789930841 1.7017145622 1.0567754611
| 22> O -3.3291416871 -0.2456132806 0.265486025
| 23> H -2.477446012 -2.0721295078 0.2038231536
| 24> H -2.3108885246 -1.154320292 -1.3067921275
| 25> H 2.0412863319 -2.4101408082 -1.1978388932
| 26> H 0.6551501402 1.1022473345 1.9294781715
| 27> H 1.16268322 0.1372482625 -1.9748448477
| 28> H -1.9710853376 1.456452901 1.3379562309
| 29> H -3.4503636394 0.4959933146 -0.3373399113
| 30> *
| 31>
| 32>                          ****END OF INPUT****

CARTESIAN COORDINATES (ANGSTROEM)
---------------------------------
  C     -2.300145   -1.079413   -0.214622
  C     -0.917896   -0.578007    0.232259
  H     -0.820752   -0.718581    1.321626
  C     -0.735162    0.925577   -0.072069
  H     -1.340770    1.217018   -0.944769
  C      0.739818    1.232780   -0.432827
  H      0.916280    2.289657   -0.200417
  C      1.645879    0.351492    0.432453
  H      2.698323    0.532138    0.180617
  C      1.367906   -1.133353    0.079943
  H      1.501939   -1.736957    0.998658
  O      0.059570   -1.349054   -0.426710
  O      2.252541   -1.510913   -0.918528
  O      1.472615    0.596989    1.801437
  O      0.987164    1.072033   -1.797971
  O     -1.078993    1.701715    1.056775
  O     -3.329142   -0.245613    0.265486
  H     -2.477446   -2.072130    0.203823
  H     -2.310889   -1.154320   -1.306792
  H      2.041286   -2.410141   -1.197839
  H      0.655150    1.102247    1.929478
  H      1.162683    0.137248   -1.974845
  H     -1.971085    1.456453    1.337956
  H     -3.450364    0.495993   -0.337340

 Total Charge           Charge          ....    0
 Multiplicity           Mult            ....    1
 Number of Electrons    NEL             ....   96
 Basis Dimension        Dim             ....  192

ORBITAL ENERGIES
----------------

  NO   OCC          E(Eh)            E(eV)
   0   2.0000     -18.781979      -511.0836
   1   2.0000     -18.778932      -511.0007
   2   2.0000     -18.777974      -510.9747
   3   2.0000     -18.774357      -510.8762
   4   2.0000     -18.745683      -510.0960
   5   2.0000     -18.745009      -510.0776
   6   2.0000      -9.991337      -271.8781
   7   2.0000      -9.952418      -270.8191
   8   2.0000      -9.950413      -270.7645
   9   2.0000      -9.949997      -270.7532
  10   2.0000      -9.945254      -270.6241
  11   2.0000      -9.940380      -270.4915
  12   2.0000      -0.997295       -27.1378
  13   2.0000      -0.958765       -26.0893
  14   2.0000      -0.948167       -25.8009
  15   2.0000      -0.930525       -25.3209
  16   2.0000      -0.927634       -25.2422
  17   2.0000      -0.920636       -25.0518
  18   2.0000      -0.706162       -19.2157
  19   2.0000      -0.688864       -18.7449
  20   2.0000      -0.637506       -17.3474
  21   2.0000      -0.585527       -15.9330
  22   2.0000      -0.577276       -15.7085
  23   2.0000      -0.521187       -14.1822
  24   2.0000      -0.515375       -14.0241
  25   2.0000      -0.505777       -13.7629
  26   2.0000      -0.493696       -13.4341
  27   2.0000      -0.472944       -12.8695
  28   2.0000      -0.463800       -12.6206
  29   2.0000      -0.424327       -11.5465
  30   2.0000      -0.418929       -11.3996
  31   2.0000      -0.412721       -11.2307
  32   2.0000      -0.387563       -10.5461
  33   2.0000      -0.383881       -10.4459
  34   2.0000      -0.364159        -9.9093
  35   2.0000      -0.355699        -9.6791
  36   2.0000      -0.336452        -9.1553
  37   2.0000      -0.329643        -8.9701
  38   2.0000      -0.320891        -8.7319
  39   2.0000      -0.306580        -8.3425
  40   2.0000      -0.299134        -8.1398
  41   2.0000      -0.272510        -7.4154
  42   2.0000      -0.265533        -7.2255
  43   2.0000      -0.256078        -6.9682
  44   2.0000      -0.243768        -6.6333
  45   2.0000      -0.229833        -6.2541
  46   2.0000      -0.214441        -5.8352
  47   2.0000      -0.210165        -5.7189
  48   0.0000      -0.007351        -0.2000
  49   0.0000       0.018795         0.5114
  50   0.0000       0.038848         1.0571
  51   0.0000       0.047744         1.2992
  52   0.0000       0.057893         1.5753

MULLIKEN ATOMIC CHARGES
-----------------------
   0 C :    0.047072
   1 C :    0.029611
   2 H :    0.057359
   3 C :   -0.003059
   4 H :    0.051013
   5 C :    0.032304
   6 H :    0.088664
   7 C :    0.020396
   8 H :    0.093133
   9 C :    0.169378
  10 H :    0.070335
  11 O :   -0.316109
  12 O :   -0.381553
  13 O :   -0.419977
  14 O :   -0.405344
  15 O :   -0.415491
  16 O :   -0.432853
  17 H :    0.099443
  18 H :    0.091678
  19 H :    0.308893
  20 H :    0.307898
  21 H :    0.294049
  22 H :    0.299465
  23 H :    0.313695
Sum of atomic charges:   -0.0000000

LOEWDIN ATOMIC CHARGES
----------------------
   0 C :   -0.122481
   1 C :   -0.084284
   2 H :    0.104122
   3 C :   -0.087426
   4 H :    0.098366
   5 C :   -0.067725
   6 H :    0.121577
   7 C :   -0.083863
   8 H :    0.121491
   9 C :   -0.005133
  10 H :    0.093557
  11 O :   -0.162817
  12 O :   -0.289426
  13 O :   -0.318083
  14 O :   -0.308712
  15 O :   -0.313176
  16 O :   -0.325929
  17 H :    0.118662
  18 H :    0.107173
  19 H :    0.291585
  20 H :    0.274822
  21 H :    0.270755
  22 H :    0.277670
  23 H :    0.289273

  Mayer bond orders larger than 0.100000
B(  0-C ,  1-C ) :   1.0146 B(  0-C , 16-O ) :   1.0671 B(  0-C , 17-H ) :   0.9254
B(  0-C , 18-H ) :   0.9217 B(  1-C ,  2-H ) :   0.8628 B(  1-C ,  3-C ) :   0.9818
B(  1-C , 11-O ) :   1.0343 B(  3-C ,  4-H ) :   0.8779 B(  3-C ,  5-C ) :   0.9682
B(  3-C , 15-O ) :   1.0311 B(  5-C ,  6-H ) :   0.8938 B(  5-C ,  7-C ) :   1.0409
B(  5-C , 14-O ) :   1.0962 B(  7-C ,  8-H ) :   0.8955 B(  7-C ,  9-C ) :   0.9356
B(  7-C , 13-O ) :   1.0884 B(  9-C , 10-H ) :   0.8989 B(  9-C , 11-O ) :   0.9999
B(  9-C , 12-O ) :   1.1254 B( 12-O , 19-H ) :   0.8403 B( 13-O , 20-H ) :   0.8068
B( 14-O , 21-H ) :   0.8267 B( 15-O , 20-H ) :   0.1049 B( 15-O , 22-H ) :   0.8220
B( 16-O , 23-H ) :   0.8384

Dispersion correction           -0.025245620
FINAL SINGLE POINT ENERGY      -685.693945030016

DIPOLE MOMENT
-------------

Method             : SCF
Type of density    : Electron Density
Multiplicity       :   1
Irrep              :   0
Energy             :  -685.8284247978506301 Eh
Relativity type    :
Basis              : AO
                                X                 Y                 Z
Electronic contribution:      2.233757432       0.110229565      -0.325718662
Nuclear contribution   :     -3.180301892      -0.804187424       0.009239354
                        -----------------------------------------
Total Dipole Moment    :     -0.946544460      -0.693957859      -0.316479308
                        -----------------------------------------
Magnitude (a.u.)       :      1.215599884
Magnitude (Debye)      :      3.089809353

Rotational constants in cm-1:             0.044200             0.025588             0.021993
Rotational constants in MHz :          1325.079760           767.119732           659.339689

                             ****ORCA TERMINATED NORMALLY****
TOTAL RUN TIME: 0 days 0 hours 0 minutes 11 seconds 411 msec
