                         Program Version 6.0.1  -  RELEASE   -
|  1> ! r2scan-3c def2/J RI DEFGRID2 scfconv6 printgap
|  2> %output
|  3>     printlevel normal
|  4> end
|  5> * xyz 0 1
|  6> C -2.3495646636 -1.02683246 -0.5404888462
|  7> C -1.4677932082 -0.0040078938 0.1375902527
|  8> O -1.6669535358 0.3458637931 1.2733644026
|  9> C -0.3552550465 0.5760816092 -0.7240210505
| 10> C 0.4960542731 -0.5028264169 -1.4044176521
| 11> C 1.3198280253 -1.2711774928 -0.3753099355
| 12> C 2.2320928238 -0.3151546384 0.3861698745
| 13> C 1.4038159059 0.7595605379 1.0820841919
| 14> C 0.5440009759 1.5223780157 0.0774591134
| 15> H -1.8599015631 -1.9984597907 -0.5025628673
| 16> H -3.2935108023 -1.1020652345 -0.0062073455
| 17> H -2.5290809748 -0.7697834622 -1.5804846849
| 18> H -0.8692373993 1.1542480226 -1.5042570392
| 19> H -0.1312395398 -1.1869261056 -1.977232204
| 20> H 1.1750174895 -0.0125992285 -2.106699856
| 21> H 0.6533588447 -1.7713284205 0.3313834558
| 22> H 1.9143804736 -2.0374794252 -0.8780258607
| 23> H 2.8191836217 -0.8672180806 1.1227435887
| 24> H 2.9283799695 0.1542394951 -0.3136913073
| 25> H 0.7549852504 0.2961884893 1.8261649376
| 26> H 2.0617333882 1.4592964961 1.6013602211
| 27> H -0.0780702702 2.24521101 0.6077167454
| 28> H 1.1886501895 2.0683990871 -0.6155322473
| 29> *
| 30>
| 31>                          ****END OF INPUT****

CARTESIAN COORDINATES (ANGSTROEM)
---------------------------------
  C     -2.349565   -1.026832   -0.540489
  C     -1.467793   -0.004008    0.137590
  O     -1.666954    0.345864    1.273364
  C     -0.355255    0.576082   -0.724021
  C      0.496054   -0.502826   -1.404418
  C      1.319828   -1.271177   -0.375310
  C      2.232093   -0.315155    0.386170
  C      1.403816    0.759561    1.082084
  C      0.544001    1.522378    0.077459
  H     -1.859902   -1.998460   -0.502563
  H     -3.293511   -1.102065   -0.006207
  H     -2.529081   -0.769783   -1.580485
  H     -0.869237    1.154248   -1.504257
  H     -0.131240   -1.186926   -1.977232
  H      1.175017   -0.012599   -2.106700
  H      0.653359   -1.771328    0.331383
  H      1.914380   -2.037479   -0.878026
  H      2.819184   -0.867218    1.122744
  H      2.928380    0.154239   -0.313691
  H      0.754985    0.296188    1.826165
  H      2.061733    1.459296    1.601360
  H     -0.078070    2.245211    0.607717
  H      1.188650    2.068399   -0.615532

 Total Charge           Charge          ....    0
 Multiplicity           Mult            ....    1
 Number of Electrons    NEL             ....   70
 Basis Dimension        Dim             ....  246

ORBITAL ENERGIES
----------------

  NO   OCC          E(Eh)            E(eV)
   0   2.0000     -18.937907      -515.3267
   1   2.0000     -10.116845      -275.2934
   2   2.0000     -10.042322      -273.2655
   3   2.0000     -10.036083      -273.0957
   4   2.0000     -10.032826      -273.0071
   5   2.0000     -10.028583      -272.8916
   6   2.0000     -10.022254      -272.7194
   7   2.0000     -10.022072      -272.7144
   8   2.0000     -10.016221      -272.5552
   9   2.0000      -1.009825       -27.4787
  10   2.0000      -0.808076       -21.9889
  11   2.0000      -0.735911       -20.0251
  12   2.0000      -0.711744       -19.3675
  13   2.0000      -0.695884       -18.9360
  14   2.0000      -0.596140       -16.2218
  15   2.0000      -0.576099       -15.6765
  16   2.0000      -0.539593       -14.6831
  17   2.0000      -0.476101       -12.9554
  18   2.0000      -0.461848       -12.5675
  19   2.0000      -0.437155       -11.8956
  20   2.0000      -0.426941       -11.6176
  21   2.0000      -0.413695       -11.2572
  22   2.0000      -0.399791       -10.8789
  23   2.0000      -0.391166       -10.6442
  24   2.0000      -0.373864       -10.1734
  25   2.0000      -0.358293        -9.7496
  26   2.0000      -0.349183        -9.5017
  27   2.0000      -0.342320        -9.3150
  28   2.0000      -0.331765        -9.0278
  29   2.0000      -0.325906        -8.8684
  30   2.0000      -0.313235        -8.5236
  31   2.0000      -0.291570        -7.9340
  32   2.0000      -0.271529        -7.3887
  33   2.0000      -0.268991        -7.3196
  34   2.0000      -0.211284        -5.7493
  35   0.0000      -0.044324        -1.2061
  36   0.0000       0.067046         1.8244
  37   0.0000       0.100068         2.7230
  38   0.0000       0.109064         2.9678
  39   0.0000       0.111321         3.0292

MULLIKEN ATOMIC CHARGES
-----------------------
   0 C :   -0.557812
   1 C :    0.209230
   2 O :   -0.340828
   3 C :    0.059219
   4 C :   -0.383148
   5 C :   -0.250348
   6 C :   -0.309379
   7 C :   -0.320685
   8 C :   -0.340493
   9 H :    0.178695
  10 H :    0.179122
  11 H :    0.166544
  12 H :    0.162316
  13 H :    0.159741
  14 H :    0.156074
  15 H :    0.145401
  16 H :    0.151508
  17 H :    0.148326
  18 H :    0.142306
  19 H :    0.184396
  20 H :    0.146550
  21 H :    0.158934
  22 H :    0.154330
Sum of atomic charges:    0.0000000

LOEWDIN ATOMIC CHARGES
----------------------
   0 C :   -0.389692
   1 C :    0.221699
   2 O :   -0.468580
   3 C :   -0.205285
   4 C :   -0.284343
   5 C :   -0.297839
   6 C :   -0.301606
   7 C :   -0.295691
   8 C :   -0.280617
   9 H :    0.178061
  10 H :    0.175421
  11 H :    0.166443
  12 H :    0.181277
  13 H :    0.159388
  14 H :    0.162032
  15 H :    0.157221
  16 H :    0.156232
  17 H :    0.155279
  18 H :    0.153418
  19 H :    0.172239
  20 H :    0.155208
  21 H :    0.172661
  22 H :    0.157077

  Mayer bond orders larger than 0.100000
B(  0-C ,  1-C ) :   0.9008 B(  0-C ,  9-H ) :   0.9408 B(  0-C , 10-H ) :   0.9791
B(  0-C , 11-H ) :   0.9671 B(  1-C ,  2-O ) :   1.9536 B(  1-C ,  3-C ) :   0.8397
B(  2-O ,  3-C ) :  -0.1110 B(  3-C ,  4-C ) :   0.8681 B(  3-C ,  8-C ) :   0.9541
B(  3-C , 12-H ) :   0.9000 B(  4-C ,  5-C ) :   0.8900 B(  4-C , 13-H ) :   0.9464
B(  4-C , 14-H ) :   0.9815 B(  5-C ,  6-C ) :   0.9133 B(  5-C , 15-H ) :   0.9834
B(  5-C , 16-H ) :   0.9376 B(  6-C ,  7-C ) :   0.9044 B(  6-C , 17-H ) :   0.9439
B(  6-C , 18-H ) :   1.0025 B(  7-C ,  8-C ) :   0.9041 B(  7-C , 19-H ) :   0.9910
B(  7-C , 20-H ) :   0.9404 B(  8-C , 21-H ) :   0.9421 B(  8-C , 22-H ) :   0.9847

Dispersion correction           -0.007662898
FINAL SINGLE POINT ENERGY      -388.407741362496

DIPOLE MOMENT
-------------

Method             : SCF
Type of density    : Electron Density
Multiplicity       :   1
Irrep              :   0
Energy             :  -388.4100198775487343 Eh
Relativity type    :
Basis              : AO
                                X                 Y                 Z
Electronic contribution:     -4.170359446       1.896391933       2.743593418
Nuclear contribution   :      4.417163849      -2.216707593      -3.729392322
                        -----------------------------------------
Total Dipole Moment    :      0.246804403      -0.320315661      -0.985798904
                        -----------------------------------------
Magnitude (a.u.)       :      1.065511152
Magnitude (Debye)      :      2.708314115

Rotational constants in cm-1:             0.082864             0.046279             0.038242
Rotational constants in MHz :          2484.186876          1387.407097          1146.476655

                             ****ORCA TERMINATED NORMALLY****
TOTAL RUN TIME: 0 days 0 hours 0 minutes 37 seconds 94 msec
