                         Program Version 6.0.1  -  RELEASE   -
|  1> ! pbe def2-sv(p) def2/J RI DEFGRID1 loosescf d4 GCP(DFT/SV(P)) printgap
|  2> %output
|  3>     printlevel normal
|  4> end
|  5> * xyz 0 1
|  6> C -2.3310641859 -1.2326105795 -0.0647264478
|  7> N -1.6085361813 0.0001087528 0.1366026987
|  8> C -2.3308577491 1.2326413683 -0.066624732
|  9> C -0.23176188 -6.5332e-06 0.0510400163
| 10> C 0.4976669173 1.1965398643 0.0247926506
| 11> C 1.8777521805 1.189929179 -0.0149800478
| 12> C 2.5836655617 -5.53177e-05 -0.0354247168
| 13> C 1.8776783509 -1.1899917073 -0.0159851315
| 14> C 0.4975673404 -1.196556373 0.0237529395
| 15> H -3.3987507623 -1.0431240194 0.0226137451
| 16> H -2.0588886148 -1.9602361763 0.7027342836
| 17> H -2.1379920839 -1.6739244865 -1.0507272575
| 18> H -3.3986760298 1.0429974839 0.0185056965
| 19> H -2.1358193379 1.6736144387 -1.0523765482
| 20> H -2.0604416284 1.960671808 0.7010892619
| 21> H -0.0087479855 2.1477211897 0.0351328612
| 22> H 2.407353473 2.1320782759 -0.0339681449
| 23> H 3.6624857182 -5.87582e-05 -0.0689732973
| 24> H 2.4071850513 -2.1321891706 -0.0358799335
| 25> H -0.0088535563 -2.1477498795 0.0331980029
| 26> *
| 27>
| 28>                          ****END OF INPUT****

CARTESIAN COORDINATES (ANGSTROEM)
---------------------------------
  C     -2.331064   -1.232611   -0.064726
  N     -1.608536    0.000109    0.136603
  C     -2.330858    1.232641   -0.066625
  C     -0.231762   -0.000007    0.051040
  C      0.497667    1.196540    0.024793
  C      1.877752    1.189929   -0.014980
  C      2.583666   -0.000055   -0.035425
  C      1.877678   -1.189992   -0.015985
  C      0.497567   -1.196556    0.023753
  H     -3.398751   -1.043124    0.022614
  H     -2.058889   -1.960236    0.702734
  H     -2.137992   -1.673924   -1.050727
  H     -3.398676    1.042997    0.018506
  H     -2.135819    1.673614   -1.052377
  H     -2.060442    1.960672    0.701089
  H     -0.008748    2.147721    0.035133
  H      2.407353    2.132078   -0.033968
  H      3.662486   -0.000059   -0.068973
  H      2.407185   -2.132189   -0.035880
  H     -0.008854   -2.147750    0.033198

 Total Charge           Charge          ....    0
 Multiplicity           Mult            ....    1
 Number of Electrons    NEL             ....   66
 Basis Dimension        Dim             ....  148

ORBITAL ENERGIES
----------------

  NO   OCC          E(Eh)            E(eV)
   0   2.0000     -14.008630      -381.1942
   1   2.0000      -9.922625      -270.0084
   2   2.0000      -9.915966      -269.8271
   3   2.0000      -9.915907      -269.8255
   4   2.0000      -9.879800      -268.8430
   5   2.0000      -9.879784      -268.8426
   6   2.0000      -9.875996      -268.7395
   7   2.0000      -9.875995      -268.7395
   8   2.0000      -9.870833      -268.5990
   9   2.0000      -0.861850       -23.4521
  10   2.0000      -0.756033       -20.5727
  11   2.0000      -0.668552       -18.1922
  12   2.0000      -0.665454       -18.1079
  13   2.0000      -0.644373       -17.5343
  14   2.0000      -0.587822       -15.9954
  15   2.0000      -0.529634       -14.4121
  16   2.0000      -0.508938       -13.8489
  17   2.0000      -0.476468       -12.9654
  18   2.0000      -0.430578       -11.7166
  19   2.0000      -0.419315       -11.4101
  20   2.0000      -0.417123       -11.3505
  21   2.0000      -0.391455       -10.6520
  22   2.0000      -0.371866       -10.1190
  23   2.0000      -0.366546        -9.9742
  24   2.0000      -0.361458        -9.8358
  25   2.0000      -0.351901        -9.5757
  26   2.0000      -0.334487        -9.1018
  27   2.0000      -0.322349        -8.7716
  28   2.0000      -0.304190        -8.2774
  29   2.0000      -0.284865        -7.7516
  30   2.0000      -0.247556        -6.7363
  31   2.0000      -0.216562        -5.8930
  32   2.0000      -0.161129        -4.3845
  33   0.0000      -0.021626        -0.5885
  34   0.0000      -0.006288        -0.1711
  35   0.0000       0.035506         0.9662
  36   0.0000       0.057869         1.5747
  37   0.0000       0.068412         1.8616

MULLIKEN ATOMIC CHARGES
-----------------------
   0 C :   -0.174011
   1 N :   -0.251035
   2 C :   -0.174002
   3 C :    0.259558
   4 C :   -0.172667
   5 C :   -0.056944
   6 C :   -0.051415
   7 C :   -0.056945
   8 C :   -0.172788
   9 H :    0.110505
  10 H :    0.120055
  11 H :    0.103735
  12 H :    0.110472
  13 H :    0.103779
  14 H :    0.120034
  15 H :    0.026140
  16 H :    0.044517
  17 H :    0.040342
  18 H :    0.044521
  19 H :    0.026148
Sum of atomic charges:   -0.0000000

LOEWDIN ATOMIC CHARGES
----------------------
   0 C :   -0.249728
   1 N :   -0.070516
   2 C :   -0.249728
   3 C :    0.006291
   4 C :   -0.167941
   5 C :   -0.117950
   6 C :   -0.159892
   7 C :   -0.117947
   8 C :   -0.167980
   9 H :    0.119614
  10 H :    0.117969
  11 H :    0.108352
  12 H :    0.119622
  13 H :    0.108394
  14 H :    0.117935
  15 H :    0.122066
  16 H :    0.120371
  17 H :    0.118633
  18 H :    0.120370
  19 H :    0.122067

  Mayer bond orders larger than 0.100000
B(  0-C ,  1-N ) :   1.0470 B(  0-C ,  9-H ) :   0.9489 B(  0-C , 10-H ) :   0.9416
B(  0-C , 11-H ) :   0.9383 B(  1-N ,  2-C ) :   1.0469 B(  1-N ,  3-C ) :   1.1513
B(  2-C , 12-H ) :   0.9489 B(  2-C , 13-H ) :   0.9383 B(  2-C , 14-H ) :   0.9416
B(  3-C ,  4-C ) :   1.3022 B(  3-C ,  8-C ) :   1.3022 B(  4-C ,  5-C ) :   1.3909
B(  4-C , 15-H ) :   0.9573 B(  5-C ,  6-C ) :   1.3641 B(  5-C , 16-H ) :   0.9605
B(  6-C ,  7-C ) :   1.3642 B(  6-C , 17-H ) :   0.9682 B(  7-C ,  8-C ) :   1.3909
B(  7-C , 18-H ) :   0.9605 B(  8-C , 19-H ) :   0.9573

Dispersion correction           -0.020428480
FINAL SINGLE POINT ENERGY      -365.380062122314

DIPOLE MOMENT
-------------

Method             : SCF
Type of density    : Electron Density
Multiplicity       :   1
Irrep              :   0
Energy             :  -365.4411601683111144 Eh
Relativity type    :
Basis              : AO
                                X                 Y                 Z
Electronic contribution:      5.474470324       0.000174112       0.616396958
Nuclear contribution   :     -6.323761385      -0.000186375      -0.682848553
                        -----------------------------------------
Total Dipole Moment    :     -0.849291062      -0.000012263      -0.066451595
                        -----------------------------------------
Magnitude (a.u.)       :      0.851886801
Magnitude (Debye)      :      2.165324168

Rotational constants in cm-1:             0.118196             0.041303             0.031020
Rotational constants in MHz :          3543.433865          1238.238899           929.964537

                             ****ORCA TERMINATED NORMALLY****
TOTAL RUN TIME: 0 days 0 hours 0 minutes 9 seconds 113 msec
