                         Program Version 6.0.1  -  RELEASE   -
|  1> ! pbe def2-sv(p) def2/J RI DEFGRID1 loosescf d4 GCP(DFT/SV(P)) printgap
|  2> %output
|  3>     printlevel normal
|  4> end
|  5> * xyz 0 1
|  6> C 0.4087245609 -1.2858074336 3.9783e-06
|  7> C 1.7598876757 -0.9760056267 -0.0002188659
|  8> N 2.2205888554 0.2628183393 -0.0001515622
|  9> C 1.352368544 1.2601558466 8.27083e-05
| 10> C -0.0201067814 1.0716906078 0.0002434191
| 11> C -0.5076416763 -0.235446564 0.0002248436
| 12> C -1.9597773735 -0.4922059305 0.0003954894
| 13> O -2.8103246017 0.3569719475 -0.0005108742
| 14> H 0.0725562069 -2.3118026408 -2.30581e-05
| 15> H 2.5125090137 -1.7534041322 -0.0004054159
| 16> H 1.78249175 2.2528362423 0.0001208902
| 17> H -0.7115286025 1.899854569 0.0003922765
| 18> H -2.2198163305 -1.5696663925 0.0014131216
| 19> *
| 20>
| 21>                          ****END OF INPUT****

CARTESIAN COORDINATES (ANGSTROEM)
---------------------------------
  C      0.408725   -1.285807    0.000004
  C      1.759888   -0.976006   -0.000219
  N      2.220589    0.262818   -0.000152
  C      1.352369    1.260156    0.000083
  C     -0.020107    1.071691    0.000243
  C     -0.507642   -0.235447    0.000225
  C     -1.959777   -0.492206    0.000395
  O     -2.810325    0.356972   -0.000511
  H      0.072556   -2.311803   -0.000023
  H      2.512509   -1.753404   -0.000405
  H      1.782492    2.252836    0.000121
  H     -0.711529    1.899855    0.000392
  H     -2.219816   -1.569666    0.001413

 Total Charge           Charge          ....    0
 Multiplicity           Mult            ....    1
 Number of Electrons    NEL             ....   56
 Basis Dimension        Dim             ....  122

ORBITAL ENERGIES
----------------

  NO   OCC          E(Eh)            E(eV)
   0   2.0000     -18.768199      -510.7086
   1   2.0000     -14.001557      -381.0017
   2   2.0000      -9.987048      -271.7614
   3   2.0000      -9.941386      -270.5189
   4   2.0000      -9.939543      -270.4687
   5   2.0000      -9.931394      -270.2470
   6   2.0000      -9.926002      -270.1003
   7   2.0000      -9.919864      -269.9332
   8   2.0000      -0.964417       -26.2431
   9   2.0000      -0.878293       -23.8996
  10   2.0000      -0.754465       -20.5300
  11   2.0000      -0.705281       -19.1917
  12   2.0000      -0.617438       -16.8013
  13   2.0000      -0.589657       -16.0454
  14   2.0000      -0.534951       -14.5568
  15   2.0000      -0.483063       -13.1448
  16   2.0000      -0.452796       -12.3212
  17   2.0000      -0.433374       -11.7927
  18   2.0000      -0.403792       -10.9877
  19   2.0000      -0.399044       -10.8585
  20   2.0000      -0.394821       -10.7436
  21   2.0000      -0.384709       -10.4685
  22   2.0000      -0.364826        -9.9274
  23   2.0000      -0.335371        -9.1259
  24   2.0000      -0.280077        -7.6213
  25   2.0000      -0.260605        -7.0914
  26   2.0000      -0.226539        -6.1644
  27   2.0000      -0.219488        -5.9726
  28   0.0000      -0.117295        -3.1918
  29   0.0000      -0.063760        -1.7350
  30   0.0000      -0.017480        -0.4757
  31   0.0000       0.046731         1.2716
  32   0.0000       0.058768         1.5992

MULLIKEN ATOMIC CHARGES
-----------------------
   0 C :   -0.104972
   1 C :   -0.044846
   2 N :   -0.048893
   3 C :   -0.045757
   4 C :   -0.096708
   5 C :    0.078709
   6 C :    0.052859
   7 O :   -0.134728
   8 H :    0.066375
   9 H :    0.078157
  10 H :    0.080512
  11 H :    0.076084
  12 H :    0.043209
Sum of atomic charges:    0.0000000

LOEWDIN ATOMIC CHARGES
----------------------
   0 C :   -0.116905
   1 C :   -0.074450
   2 N :   -0.059015
   3 C :   -0.073438
   4 C :   -0.100892
   5 C :   -0.078380
   6 C :    0.009461
   7 O :   -0.098641
   8 H :    0.132267
   9 H :    0.119327
  10 H :    0.120056
  11 H :    0.138609
  12 H :    0.082003

  Mayer bond orders larger than 0.100000
B(  0-C ,  1-C ) :   1.3666 B(  0-C ,  5-C ) :   1.3592 B(  0-C ,  8-H ) :   0.9415
B(  1-C ,  2-N ) :   1.5534 B(  1-C ,  9-H ) :   0.9525 B(  2-N ,  3-C ) :   1.5306
B(  3-C ,  4-C ) :   1.3680 B(  3-C , 10-H ) :   0.9539 B(  4-C ,  5-C ) :   1.3793
B(  4-C , 11-H ) :   0.9419 B(  5-C ,  6-C ) :   0.9688 B(  6-C ,  7-O ) :   2.1739
B(  6-C , 12-H ) :   0.9145

Dispersion correction           -0.013075102
FINAL SINGLE POINT ENERGY      -360.861727503730

DIPOLE MOMENT
-------------

Method             : SCF
Type of density    : Electron Density
Multiplicity       :   1
Irrep              :   0
Energy             :  -360.8978701049697975 Eh
Relativity type    :
Basis              : AO
                                X                 Y                 Z
Electronic contribution:     -1.116515814       0.843162470      -0.000807208
Nuclear contribution   :      1.318000487      -1.383812584       0.001396810
                        -----------------------------------------
Total Dipole Moment    :      0.201484673      -0.540650114       0.000589603
                        -----------------------------------------
Magnitude (a.u.)       :      0.576973974
Magnitude (Debye)      :      1.466551294

Rotational constants in cm-1:             0.186327             0.052535             0.040981
Rotational constants in MHz :          5585.939031          1574.973857          1228.573582

                             ****ORCA TERMINATED NORMALLY****
TOTAL RUN TIME: 0 days 0 hours 1 minutes 16 seconds 497 msec
