                         Program Version 6.0.0  -   RELEASE  -
|  1> ! r2SCAN-3c DEF2-TZVP FREQ
|  2> * xyzfile 0 1 censo.xyz
|  3>
|  4>                          ****END OF INPUT****

CARTESIAN COORDINATES (ANGSTROEM)
---------------------------------
  C     -2.459384   -0.000362    0.006961
  C     -0.962486   -0.000207   -0.011417
  C     -0.230658    1.189330   -0.007904
  C      1.156402    1.140049    0.003206
  N      1.865432    0.000350    0.009595
  C      1.156866   -1.139599    0.003416
  C     -0.230208   -1.189427   -0.007886
  H     -2.861063   -0.893363   -0.478522
  H     -2.821640    0.003616    1.041939
  H     -2.861228    0.888969   -0.485136
  H     -0.738287    2.149258   -0.016303
  H      1.730311    2.064500    0.005355
  H      1.731127   -2.063835    0.005176
  H     -0.737448   -2.149556   -0.016362

 Total Charge           Charge          ....    0
 Multiplicity           Mult            ....    1
 Number of Electrons    NEL             ....   50
 Basis Dimension        Dim             ....  259

ORBITAL ENERGIES
----------------

  NO   OCC          E(Eh)            E(eV)
   0   2.0000     -14.154533      -385.1644
   1   2.0000     -10.067022      -273.9376
   2   2.0000     -10.067018      -273.9375
   3   2.0000     -10.064900      -273.8799
   4   2.0000     -10.043386      -273.2944
   5   2.0000     -10.042476      -273.2697
   6   2.0000     -10.042463      -273.2693
   7   2.0000      -0.903018       -24.5724
   8   2.0000      -0.790854       -21.5202
   9   2.0000      -0.727855       -19.8060
  10   2.0000      -0.684865       -18.6361
  11   2.0000      -0.597845       -16.2682
  12   2.0000      -0.573225       -15.5982
  13   2.0000      -0.475698       -12.9444
  14   2.0000      -0.459614       -12.5067
  15   2.0000      -0.437087       -11.8937
  16   2.0000      -0.407082       -11.0773
  17   2.0000      -0.395527       -10.7628
  18   2.0000      -0.373904       -10.1744
  19   2.0000      -0.361752        -9.8438
  20   2.0000      -0.360716        -9.8156
  21   2.0000      -0.324454        -8.8288
  22   2.0000      -0.257425        -7.0049
  23   2.0000      -0.247516        -6.7353
  24   2.0000      -0.225122        -6.1259
  25   0.0000      -0.054138        -1.4732
  26   0.0000      -0.042062        -1.1446
  27   0.0000       0.053136         1.4459
  28   0.0000       0.074310         2.0221
  29   0.0000       0.086577         2.3559

MULLIKEN ATOMIC CHARGES
-----------------------
   0 C :   -0.346890
   1 C :    0.097983
   2 C :   -0.128837
   3 C :   -0.013573
   4 N :   -0.264000
   5 C :   -0.013534
   6 C :   -0.128796
   7 H :    0.118010
   8 H :    0.128263
   9 H :    0.118113
  10 H :    0.105157
  11 H :    0.111486
  12 H :    0.111495
  13 H :    0.105122
Sum of atomic charges:    0.0000000

LOEWDIN ATOMIC CHARGES
----------------------
   0 C :   -0.247011
   1 C :   -0.162306
   2 C :   -0.129248
   3 C :   -0.202894
   4 N :    0.113807
   5 C :   -0.202889
   6 C :   -0.129285
   7 H :    0.129797
   8 H :    0.136674
   9 H :    0.129855
  10 H :    0.146027
  11 H :    0.135729
  12 H :    0.135729
  13 H :    0.146015

  Mayer bond orders larger than 0.100000
B(  0-C ,  1-C ) :   0.9274 B(  0-C ,  7-H ) :   0.9810 B(  0-C ,  8-H ) :   0.9498
B(  0-C ,  9-H ) :   0.9809 B(  1-C ,  2-C ) :   1.3415 B(  1-C ,  6-C ) :   1.3420
B(  2-C ,  3-C ) :   1.4057 B(  2-C , 10-H ) :   0.9700 B(  3-C ,  4-N ) :   1.4500
B(  3-C , 11-H ) :   0.9810 B(  4-N ,  5-C ) :   1.4502 B(  5-C ,  6-C ) :   1.4055
B(  5-C , 12-H ) :   0.9810 B(  6-C , 13-H ) :   0.9699

Dispersion correction           -0.004082637
FINAL SINGLE POINT ENERGY      -287.540840368628

DIPOLE MOMENT
-------------

Method             : SCF
Type of density    : Electron Density
Multiplicity       :   1
Irrep              :   0
Energy             :  -287.5430816580962414 Eh
Relativity type    :
Basis              : AO
                                X                 Y                 Z
Electronic contribution:      5.089914909       0.000528572      -0.033854299
Nuclear contribution   :     -6.189614225      -0.000518396       0.050798233
                        -----------------------------------------
Total Dipole Moment    :     -1.099699316       0.000010175       0.016943935
                        -----------------------------------------
Magnitude (a.u.)       :      1.099829843
Magnitude (Debye)      :      2.795545294

VIBRATIONAL FREQUENCIES
-----------------------

Scaling factor for frequencies =  1.000000000  (already applied!)

     0:       0.00 cm**-1
     1:       0.00 cm**-1
     2:       0.00 cm**-1
     3:       0.00 cm**-1
     4:       0.00 cm**-1
     5:       0.00 cm**-1
     6:      88.41 cm**-1
     7:     204.86 cm**-1
     8:     346.72 cm**-1
     9:     377.91 cm**-1
    10:     493.82 cm**-1
    11:     524.47 cm**-1
    12:     687.53 cm**-1
    13:     753.35 cm**-1
    14:     797.56 cm**-1
    15:     818.25 cm**-1
    16:     876.18 cm**-1
    17:     967.18 cm**-1
    18:     989.67 cm**-1
    19:    1003.58 cm**-1
    20:    1007.90 cm**-1
    21:    1055.12 cm**-1
    22:    1088.77 cm**-1
    23:    1114.49 cm**-1
    24:    1234.69 cm**-1
    25:    1249.15 cm**-1
    26:    1275.33 cm**-1
    27:    1353.88 cm**-1
    28:    1399.34 cm**-1
    29:    1439.53 cm**-1
    30:    1476.46 cm**-1
    31:    1480.09 cm**-1
    32:    1515.37 cm**-1
    33:    1584.62 cm**-1
    34:    1633.07 cm**-1
    35:    3009.50 cm**-1
    36:    3077.27 cm**-1
    37:    3110.90 cm**-1
    38:    3136.50 cm**-1
    39:    3138.12 cm**-1
    40:    3163.50 cm**-1
    41:    3166.07 cm**-1

IR SPECTRUM
-----------

 Mode   freq       eps      Int      T**2         TX        TY        TZ
       cm**-1   L/(mol*cm) km/mol    a.u.
----------------------------------------------------------------------------
  6:     88.41   0.000052    0.26  0.000182  ( 0.000012 -0.013504  0.000187)
  7:    204.86   0.000006    0.03  0.000009  ( 0.001195  0.000013 -0.002724)
  8:    346.72   0.000001    0.00  0.000001  ( 0.000017  0.000808  0.000004)
  9:    377.91   0.000000    0.00  0.000000  ( 0.000000 -0.000446  0.000007)
 10:    493.82   0.003914   19.78  0.002473  ( 0.001919 -0.000007  0.049693)
 11:    524.47   0.000891    4.50  0.000530  ( 0.021360  0.000014 -0.008584)
 12:    687.53   0.000014    0.07  0.000006  ( 0.000001  0.002479  0.000003)
 13:    753.35   0.001043    5.27  0.000432  ( 0.004105 -0.000004  0.020373)
 14:    797.56   0.005166   26.11  0.002021  (-0.007320  0.000021 -0.044358)
 15:    818.25   0.001982   10.02  0.000756  (-0.024442  0.000003  0.012590)
 16:    876.18   0.000002    0.01  0.000001  ( 0.000004 -0.000810 -0.000007)
 17:    967.18   0.000013    0.06  0.000004  (-0.001918 -0.000032  0.000643)
 18:    989.67   0.000000    0.00  0.000000  (-0.000002  0.000318 -0.000010)
 19:   1003.58   0.000027    0.13  0.000008  (-0.000407  0.002843  0.000017)
 20:   1007.90   0.001644    8.31  0.000509  (-0.022512 -0.000037  0.001497)
 21:   1055.12   0.001468    7.42  0.000434  (-0.013430  0.000001  0.015928)
 22:   1088.77   0.000195    0.99  0.000056  (-0.007409  0.000002  0.001046)
 23:   1114.49   0.000007    0.03  0.000002  ( 0.000032  0.001350  0.000003)
 24:   1234.69   0.001028    5.19  0.000260  (-0.016068  0.000017  0.001269)
 25:   1249.15   0.000251    1.27  0.000063  (-0.007537 -0.000028 -0.002451)
 26:   1275.33   0.000191    0.96  0.000047  ( 0.000056  0.006830 -0.000002)
 27:   1353.88   0.000007    0.04  0.000002  (-0.000042  0.001294 -0.000005)
 28:   1399.34   0.000691    3.49  0.000154  (-0.011949  0.000043  0.003356)
 29:   1439.53   0.001390    7.02  0.000301  (-0.000014 -0.017357 -0.000018)
 30:   1476.46   0.005067   25.60  0.001071  (-0.000006  0.032723 -0.000350)
 31:   1480.09   0.001509    7.62  0.000318  (-0.002376  0.000603  0.017666)
 32:   1515.37   0.000758    3.83  0.000156  ( 0.012477  0.000008 -0.000642)
 33:   1584.62   0.002191   11.07  0.000432  (-0.000003  0.020774  0.000001)
 34:   1633.07   0.013269   67.06  0.002536  ( 0.050350  0.000002 -0.000644)
 35:   3009.50   0.003320   16.78  0.000344  (-0.018332  0.000009  0.002871)
 36:   3077.27   0.002604   13.16  0.000264  (-0.008292  0.000013 -0.013974)
 37:   3110.90   0.002545   12.86  0.000255  (-0.000075 -0.015977 -0.000007)
 38:   3136.50   0.004268   21.57  0.000425  (-0.000067  0.020606 -0.000003)
 39:   3138.12   0.002612   13.20  0.000260  ( 0.016118  0.000071  0.000008)
 40:   3163.50   0.007486   37.83  0.000738  ( 0.000017 -0.027174  0.000002)
 41:   3166.07   0.000165    0.83  0.000016  ( 0.004028  0.000133  0.000144)

--------------------------
THERMOCHEMISTRY AT 298.15K
--------------------------

Temperature         ...   298.15 K
Pressure            ...     1.00 atm
Total Mass          ...    93.13 AMU
Quasi RRHO          ...     True
Cut-Off Frequency   ...     1.00 cm^-1

Throughout the following assumptions are being made:
  (1) The electronic state is orbitally nondegenerate
  (2) There are no thermally accessible electronically excited states
  (3) Hindered rotations indicated by low frequency modes are not
      treated as such but are treated as vibrations and this may
      cause some error
  (4) All equations used are the standard statistical mechanics
      equations for an ideal gas
  (5) All vibrations are strictly harmonic

freq.      88.41  E(vib)   ...       0.48
freq.     204.86  E(vib)   ...       0.35
freq.     346.72  E(vib)   ...       0.23
freq.     377.91  E(vib)   ...       0.21
freq.     493.82  E(vib)   ...       0.14
freq.     524.47  E(vib)   ...       0.13
freq.     687.53  E(vib)   ...       0.07
freq.     753.35  E(vib)   ...       0.06
freq.     797.56  E(vib)   ...       0.05
freq.     818.25  E(vib)   ...       0.05
freq.     876.18  E(vib)   ...       0.04
freq.     967.18  E(vib)   ...       0.03
freq.     989.67  E(vib)   ...       0.02
freq.    1003.58  E(vib)   ...       0.02
freq.    1007.90  E(vib)   ...       0.02
freq.    1055.12  E(vib)   ...       0.02
freq.    1088.77  E(vib)   ...       0.02
freq.    1114.49  E(vib)   ...       0.01
freq.    1234.69  E(vib)   ...       0.01
freq.    1249.15  E(vib)   ...       0.01
freq.    1275.33  E(vib)   ...       0.01
freq.    1353.88  E(vib)   ...       0.01
freq.    1399.34  E(vib)   ...       0.00
freq.    1439.53  E(vib)   ...       0.00
freq.    1476.46  E(vib)   ...       0.00
freq.    1480.09  E(vib)   ...       0.00
freq.    1515.37  E(vib)   ...       0.00
freq.    1584.62  E(vib)   ...       0.00
freq.    1633.07  E(vib)   ...       0.00
freq.    3009.50  E(vib)   ...       0.00
freq.    3077.27  E(vib)   ...       0.00
freq.    3110.90  E(vib)   ...       0.00
freq.    3136.50  E(vib)   ...       0.00
freq.    3138.12  E(vib)   ...       0.00
freq.    3163.50  E(vib)   ...       0.00
freq.    3166.07  E(vib)   ...       0.00

------------
INNER ENERGY
------------

The inner energy is: U= E(el) + E(ZPE) + E(vib) + E(rot) + E(trans)
    E(el)   - is the total energy from the electronic structure calculation
              = E(kin-el) + E(nuc-el) + E(el-el) + E(nuc-nuc)
    E(ZPE)  - the the zero temperature vibrational energy from the frequency calculation
    E(vib)  - the the finite temperature correction to E(ZPE) due to population
              of excited vibrational states
    E(rot)  - is the rotational thermal energy
    E(trans)- is the translational thermal energy

Summary of contributions to the inner energy U:
Electronic energy                ...   -287.54084037 Eh
Zero point energy                ...      0.11536447 Eh      72.39 kcal/mol
Thermal vibrational correction   ...      0.00318104 Eh       2.00 kcal/mol
Thermal rotational correction    ...      0.00141627 Eh       0.89 kcal/mol
Thermal translational correction ...      0.00141627 Eh       0.89 kcal/mol
-----------------------------------------------------------------------
Total thermal energy                   -287.41946232 Eh

Summary of corrections to the electronic energy:
(perhaps to be used in another calculation)
Total thermal correction                  0.00601359 Eh       3.77 kcal/mol
Non-thermal (ZPE) correction              0.11536447 Eh      72.39 kcal/mol
-----------------------------------------------------------------------
Total correction                          0.12137805 Eh      76.17 kcal/mol

--------
ENTHALPY
--------

The enthalpy is H = U + kB*T
                kB is Boltzmann's constant
Total thermal energy              ...   -287.41946232 Eh
Thermal Enthalpy correction       ...      0.00094421 Eh       0.59 kcal/mol
-----------------------------------------------------------------------
Total Enthalpy                    ...   -287.41851811 Eh

Note: Only C1 symmetry has been detected, increase convergence thresholds
      if your molecule has a higher symmetry. Symmetry factor of 1.0 is
      used for the rotational entropy correction.

Note: Rotational entropy computed according to Herzberg
Infrared and Raman Spectra, Chapter V,1, Van Nostrand Reinhold, 1945
Point Group:  C1, Symmetry Number:   1
Rotational constants in cm-1:     0.195419     0.084644     0.059718

Vibrational entropy computed according to the QRRHO of S. Grimme
Chem.Eur.J. 2012 18 9955 using a reference frequency of 100.0 cm-1

-------
ENTROPY
-------

The entropy contributions are T*S = T*(S(el)+S(vib)+S(rot)+S(trans))
     S(el)   - electronic entropy
     S(vib)  - vibrational entropy
     S(rot)  - rotational entropy
     S(trans)- translational entropy
The entropies will be listed as multiplied by the temperature to get
units of energy

Electronic entropy                ...      0.00000000 Eh      0.00 kcal/mol
Vibrational entropy               ...      0.00511715 Eh      3.21 kcal/mol
Rotational entropy                ...      0.01277769 Eh      8.02 kcal/mol
Translational entropy             ...      0.01877043 Eh     11.78 kcal/mol
-----------------------------------------------------------------------
Final entropy term                ...      0.03666526 Eh     23.01 kcal/mol

In case the symmetry of your molecule has not been determined correctly
or in case you have a reason to use a different symmetry number we print
out the resulting rotational entropy values for sn=1,12:

 non-linear molecules -----------------------------------
|  sn= 1 | S(rot)=       0.01277769 Eh      8.02 kcal/mol|
|  sn= 2 | S(rot)=       0.01212323 Eh      7.61 kcal/mol|
|  sn= 3 | S(rot)=       0.01174040 Eh      7.37 kcal/mol|
|  sn= 4 | S(rot)=       0.01146878 Eh      7.20 kcal/mol|
|  sn= 5 | S(rot)=       0.01125809 Eh      7.06 kcal/mol|
|  sn= 6 | S(rot)=       0.01108594 Eh      6.96 kcal/mol|
|  sn= 7 | S(rot)=       0.01094040 Eh      6.87 kcal/mol|
|  sn= 8 | S(rot)=       0.01081432 Eh      6.79 kcal/mol|
|  sn= 9 | S(rot)=       0.01070311 Eh      6.72 kcal/mol|
|  sn=10 | S(rot)=       0.01060363 Eh      6.65 kcal/mol|
|  sn=11 | S(rot)=       0.01051364 Eh      6.60 kcal/mol|
|  sn=12 | S(rot)=       0.01043149 Eh      6.55 kcal/mol|
 linear molecules ---------------------------------------
|  Dinfh | S(rot)=       0.00798662 Eh      5.01 kcal/mol|
|  Cinfv | S(rot)=       0.00864108 Eh      5.42 kcal/mol|
 --------------------------------------------------------

-------------------
GIBBS FREE ENERGY
-------------------

The Gibbs free energy is G = H - T*S

                             ****ORCA TERMINATED NORMALLY****
TOTAL RUN TIME: 0 days 0 hours 8 minutes 4 seconds 689 msec
