                         Program Version 6.0.0  -   RELEASE  -
|  1> ! r2SCAN-3c DEF2-TZVP FREQ
|  2> * xyzfile 0 1 vacuum_censo.xyz
|  3>
|  4>                          ****END OF INPUT****

CARTESIAN COORDINATES (ANGSTROEM)
---------------------------------
  C      2.462384   -0.000045   -0.008193
  C      0.961517   -0.000133    0.011203
  C      0.230776   -1.188465    0.007894
  C     -1.158666   -1.136849   -0.003006
  N     -1.861467    0.000112   -0.008913
  C     -1.158445    1.136998   -0.002955
  C      0.230949    1.188375    0.007818
  H      2.828975    0.006541   -1.041258
  H      2.866167    0.885067    0.490045
  H      2.866269   -0.891158    0.479057
  H      0.738970   -2.148543    0.016029
  H     -1.737801   -2.059263   -0.004446
  H     -1.737443    2.059494   -0.004682
  H      0.739326    2.148367    0.015825

 Total Charge           Charge          ....    0
 Multiplicity           Mult            ....    1
 Number of Electrons    NEL             ....   50
 Basis Dimension        Dim             ....  259

ORBITAL ENERGIES
----------------

  NO   OCC          E(Eh)            E(eV)
   0   2.0000     -14.153651      -385.1404
   1   2.0000     -10.066885      -273.9339
   2   2.0000     -10.066880      -273.9337
   3   2.0000     -10.064739      -273.8755
   4   2.0000     -10.043384      -273.2944
   5   2.0000     -10.042588      -273.2727
   6   2.0000     -10.042574      -273.2723
   7   2.0000      -0.905304       -24.6346
   8   2.0000      -0.790887       -21.5211
   9   2.0000      -0.727588       -19.7987
  10   2.0000      -0.684381       -18.6230
  11   2.0000      -0.599001       -16.2997
  12   2.0000      -0.572617       -15.5817
  13   2.0000      -0.476053       -12.9541
  14   2.0000      -0.459798       -12.5117
  15   2.0000      -0.436971       -11.8906
  16   2.0000      -0.406923       -11.0729
  17   2.0000      -0.395095       -10.7511
  18   2.0000      -0.373222       -10.1559
  19   2.0000      -0.362838        -9.8733
  20   2.0000      -0.360677        -9.8145
  21   2.0000      -0.324801        -8.8383
  22   2.0000      -0.258389        -7.0311
  23   2.0000      -0.247079        -6.7234
  24   2.0000      -0.224479        -6.1084
  25   0.0000      -0.053103        -1.4450
  26   0.0000      -0.042553        -1.1579
  27   0.0000       0.053350         1.4517
  28   0.0000       0.074225         2.0198
  29   0.0000       0.086892         2.3645

MULLIKEN ATOMIC CHARGES
-----------------------
   0 C :   -0.348363
   1 C :    0.096650
   2 C :   -0.128743
   3 C :   -0.013365
   4 N :   -0.261895
   5 C :   -0.013423
   6 C :   -0.128809
   7 H :    0.128377
   8 H :    0.118181
   9 H :    0.118006
  10 H :    0.105466
  11 H :    0.111201
  12 H :    0.111188
  13 H :    0.105530
Sum of atomic charges:   -0.0000000

LOEWDIN ATOMIC CHARGES
----------------------
   0 C :   -0.247013
   1 C :   -0.162532
   2 C :   -0.128492
   3 C :   -0.204382
   4 N :    0.116641
   5 C :   -0.204392
   6 C :   -0.128431
   7 H :    0.135950
   8 H :    0.129498
   9 H :    0.129403
  10 H :    0.146008
  11 H :    0.135855
  12 H :    0.135856
  13 H :    0.146029

  Mayer bond orders larger than 0.100000
B(  0-C ,  1-C ) :   0.9281 B(  0-C ,  7-H ) :   0.9499 B(  0-C ,  8-H ) :   0.9808
B(  0-C ,  9-H ) :   0.9812 B(  1-C ,  2-C ) :   1.3450 B(  1-C ,  6-C ) :   1.3442
B(  2-C ,  3-C ) :   1.4015 B(  2-C , 10-H ) :   0.9700 B(  3-C ,  4-N ) :   1.4530
B(  3-C , 11-H ) :   0.9809 B(  4-N ,  5-C ) :   1.4527 B(  5-C ,  6-C ) :   1.4018
B(  5-C , 12-H ) :   0.9809 B(  6-C , 13-H ) :   0.9701

Dispersion correction           -0.004081855
FINAL SINGLE POINT ENERGY      -287.540948990838

DIPOLE MOMENT
-------------

Method             : SCF
Type of density    : Electron Density
Multiplicity       :   1
Irrep              :   0
Energy             :  -287.5432053018404304 Eh
Relativity type    :
Basis              : AO
                                X                 Y                 Z
Electronic contribution:     -5.103566477      -0.000177457       0.029090952
Nuclear contribution   :      6.191931463       0.000429075      -0.044914202
                        -----------------------------------------
Total Dipole Moment    :      1.088364986       0.000251618      -0.015823249
                        -----------------------------------------
Magnitude (a.u.)       :      1.088480033
Magnitude (Debye)      :      2.766696370

VIBRATIONAL FREQUENCIES
-----------------------

Scaling factor for frequencies =  1.000000000  (already applied!)

     0:       0.00 cm**-1
     1:       0.00 cm**-1
     2:       0.00 cm**-1
     3:       0.00 cm**-1
     4:       0.00 cm**-1
     5:       0.00 cm**-1
     6:      68.40 cm**-1
     7:     206.40 cm**-1
     8:     346.93 cm**-1
     9:     379.19 cm**-1
    10:     491.76 cm**-1
    11:     522.74 cm**-1
    12:     688.66 cm**-1
    13:     752.88 cm**-1
    14:     799.77 cm**-1
    15:     815.81 cm**-1
    16:     879.29 cm**-1
    17:     969.26 cm**-1
    18:     992.08 cm**-1
    19:    1001.83 cm**-1
    20:    1012.37 cm**-1
    21:    1054.83 cm**-1
    22:    1094.07 cm**-1
    23:    1111.96 cm**-1
    24:    1236.52 cm**-1
    25:    1245.71 cm**-1
    26:    1291.36 cm**-1
    27:    1355.73 cm**-1
    28:    1399.04 cm**-1
    29:    1439.38 cm**-1
    30:    1476.60 cm**-1
    31:    1481.54 cm**-1
    32:    1520.57 cm**-1
    33:    1595.21 cm**-1
    34:    1630.61 cm**-1
    35:    3011.73 cm**-1
    36:    3079.70 cm**-1
    37:    3108.75 cm**-1
    38:    3126.83 cm**-1
    39:    3128.91 cm**-1
    40:    3159.56 cm**-1
    41:    3161.79 cm**-1

IR SPECTRUM
-----------

 Mode   freq       eps      Int      T**2         TX        TY        TZ
       cm**-1   L/(mol*cm) km/mol    a.u.
----------------------------------------------------------------------------
  6:     68.40   0.000045    0.23  0.000206  ( 0.000394  0.014329  0.000580)
  7:    206.40   0.000011    0.06  0.000017  (-0.001102 -0.000074  0.003916)
  8:    346.93   0.000001    0.00  0.000001  ( 0.000018 -0.000716 -0.000008)
  9:    379.19   0.000000    0.00  0.000000  ( 0.000004  0.000451  0.000009)
 10:    491.76   0.003848   19.44  0.002442  (-0.002013 -0.000032 -0.049373)
 11:    522.74   0.000888    4.49  0.000530  ( 0.021441 -0.000023 -0.008382)
 12:    688.66   0.000014    0.07  0.000006  (-0.000001  0.002537 -0.000006)
 13:    752.88   0.000911    4.60  0.000377  (-0.003936  0.000010 -0.019026)
 14:    799.77   0.005148   26.02  0.002009  ( 0.009314  0.000003  0.043840)
 15:    815.81   0.002239   11.32  0.000856  ( 0.024547  0.000018 -0.015934)
 16:    879.29   0.000002    0.01  0.000001  (-0.000004  0.000822 -0.000009)
 17:    969.26   0.000012    0.06  0.000004  ( 0.001792 -0.000027 -0.000886)
 18:    992.08   0.000000    0.00  0.000000  (-0.000014 -0.000373 -0.000014)
 19:   1001.83   0.000030    0.15  0.000009  ( 0.000372  0.003043 -0.000018)
 20:   1012.37   0.001472    7.44  0.000454  ( 0.021240 -0.000027 -0.001567)
 21:   1054.83   0.001420    7.17  0.000420  ( 0.012972 -0.000049 -0.015867)
 22:   1094.07   0.000175    0.88  0.000050  (-0.007017 -0.000001  0.000769)
 23:   1111.96   0.000004    0.02  0.000001  ( 0.000048 -0.000991 -0.000001)
 24:   1236.52   0.000535    2.70  0.000135  ( 0.011417  0.000036 -0.002143)
 25:   1245.71   0.000813    4.11  0.000204  (-0.014174  0.000013 -0.001636)
 26:   1291.36   0.000094    0.47  0.000023  (-0.000088  0.004755  0.000005)
 27:   1355.73   0.000000    0.00  0.000000  ( 0.000051  0.000146  0.000002)
 28:   1399.04   0.000651    3.29  0.000145  (-0.011677 -0.000034  0.002985)
 29:   1439.38   0.001360    6.87  0.000295  ( 0.000011 -0.017169  0.000022)
 30:   1476.60   0.005053   25.54  0.001068  ( 0.000024 -0.032679 -0.000278)
 31:   1481.54   0.001502    7.59  0.000316  (-0.002417 -0.000418  0.017617)
 32:   1520.57   0.000749    3.78  0.000154  ( 0.012373  0.000020 -0.000738)
 33:   1595.21   0.002506   12.66  0.000490  (-0.000019  0.022140  0.000000)
 34:   1630.61   0.013216   66.79  0.002529  ( 0.050287  0.000015 -0.000623)
 35:   3011.73   0.003404   17.20  0.000353  (-0.018623  0.000014  0.002432)
 36:   3079.70   0.002574   13.01  0.000261  ( 0.007843 -0.000007  0.014116)
 37:   3108.75   0.002676   13.52  0.000269  (-0.000162  0.016390 -0.000034)
 38:   3126.83   0.005179   26.17  0.000517  (-0.000054 -0.022735 -0.000000)
 39:   3128.91   0.002511   12.69  0.000250  (-0.015825  0.000059  0.000004)
 40:   3159.56   0.006842   34.58  0.000676  ( 0.000069  0.025995  0.000004)
 41:   3161.79   0.000257    1.30  0.000025  (-0.005017  0.000380 -0.000144)

--------------------------
THERMOCHEMISTRY AT 298.15K
--------------------------

Temperature         ...   298.15 K
Pressure            ...     1.00 atm
Total Mass          ...    93.13 AMU
Quasi RRHO          ...     True
Cut-Off Frequency   ...     1.00 cm^-1

Throughout the following assumptions are being made:
  (1) The electronic state is orbitally nondegenerate
  (2) There are no thermally accessible electronically excited states
  (3) Hindered rotations indicated by low frequency modes are not
      treated as such but are treated as vibrations and this may
      cause some error
  (4) All equations used are the standard statistical mechanics
      equations for an ideal gas
  (5) All vibrations are strictly harmonic

freq.      68.40  E(vib)   ...       0.50
freq.     206.40  E(vib)   ...       0.35
freq.     346.93  E(vib)   ...       0.23
freq.     379.19  E(vib)   ...       0.21
freq.     491.76  E(vib)   ...       0.14
freq.     522.74  E(vib)   ...       0.13
freq.     688.66  E(vib)   ...       0.07
freq.     752.88  E(vib)   ...       0.06
freq.     799.77  E(vib)   ...       0.05
freq.     815.81  E(vib)   ...       0.05
freq.     879.29  E(vib)   ...       0.04
freq.     969.26  E(vib)   ...       0.03
freq.     992.08  E(vib)   ...       0.02
freq.    1001.83  E(vib)   ...       0.02
freq.    1012.37  E(vib)   ...       0.02
freq.    1054.83  E(vib)   ...       0.02
freq.    1094.07  E(vib)   ...       0.02
freq.    1111.96  E(vib)   ...       0.01
freq.    1236.52  E(vib)   ...       0.01
freq.    1245.71  E(vib)   ...       0.01
freq.    1291.36  E(vib)   ...       0.01
freq.    1355.73  E(vib)   ...       0.01
freq.    1399.04  E(vib)   ...       0.00
freq.    1439.38  E(vib)   ...       0.00
freq.    1476.60  E(vib)   ...       0.00
freq.    1481.54  E(vib)   ...       0.00
freq.    1520.57  E(vib)   ...       0.00
freq.    1595.21  E(vib)   ...       0.00
freq.    1630.61  E(vib)   ...       0.00
freq.    3011.73  E(vib)   ...       0.00
freq.    3079.70  E(vib)   ...       0.00
freq.    3108.75  E(vib)   ...       0.00
freq.    3126.83  E(vib)   ...       0.00
freq.    3128.91  E(vib)   ...       0.00
freq.    3159.56  E(vib)   ...       0.00
freq.    3161.79  E(vib)   ...       0.00

------------
INNER ENERGY
------------

The inner energy is: U= E(el) + E(ZPE) + E(vib) + E(rot) + E(trans)
    E(el)   - is the total energy from the electronic structure calculation
              = E(kin-el) + E(nuc-el) + E(el-el) + E(nuc-nuc)
    E(ZPE)  - the the zero temperature vibrational energy from the frequency calculation
    E(vib)  - the the finite temperature correction to E(ZPE) due to population
              of excited vibrational states
    E(rot)  - is the rotational thermal energy
    E(trans)- is the translational thermal energy

Summary of contributions to the inner energy U:
Electronic energy                ...   -287.54094899 Eh
Zero point energy                ...      0.11536132 Eh      72.39 kcal/mol
Thermal vibrational correction   ...      0.00321643 Eh       2.02 kcal/mol
Thermal rotational correction    ...      0.00141627 Eh       0.89 kcal/mol
Thermal translational correction ...      0.00141627 Eh       0.89 kcal/mol
-----------------------------------------------------------------------
Total thermal energy                   -287.41953870 Eh

Summary of corrections to the electronic energy:
(perhaps to be used in another calculation)
Total thermal correction                  0.00604897 Eh       3.80 kcal/mol
Non-thermal (ZPE) correction              0.11536132 Eh      72.39 kcal/mol
-----------------------------------------------------------------------
Total correction                          0.12141029 Eh      76.19 kcal/mol

--------
ENTHALPY
--------

The enthalpy is H = U + kB*T
                kB is Boltzmann's constant
Total thermal energy              ...   -287.41953870 Eh
Thermal Enthalpy correction       ...      0.00094421 Eh       0.59 kcal/mol
-----------------------------------------------------------------------
Total Enthalpy                    ...   -287.41859449 Eh

Note: Only C1 symmetry has been detected, increase convergence thresholds
      if your molecule has a higher symmetry. Symmetry factor of 1.0 is
      used for the rotational entropy correction.

Note: Rotational entropy computed according to Herzberg
Infrared and Raman Spectra, Chapter V,1, Van Nostrand Reinhold, 1945
Point Group:  C1, Symmetry Number:   1
Rotational constants in cm-1:     0.196029     0.084552     0.059731

Vibrational entropy computed according to the QRRHO of S. Grimme
Chem.Eur.J. 2012 18 9955 using a reference frequency of 100.0 cm-1

-------
ENTROPY
-------

The entropy contributions are T*S = T*(S(el)+S(vib)+S(rot)+S(trans))
     S(el)   - electronic entropy
     S(vib)  - vibrational entropy
     S(rot)  - rotational entropy
     S(trans)- translational entropy
The entropies will be listed as multiplied by the temperature to get
units of energy

Electronic entropy                ...      0.00000000 Eh      0.00 kcal/mol
Vibrational entropy               ...      0.00518222 Eh      3.25 kcal/mol
Rotational entropy                ...      0.01277663 Eh      8.02 kcal/mol
Translational entropy             ...      0.01877043 Eh     11.78 kcal/mol
-----------------------------------------------------------------------
Final entropy term                ...      0.03672927 Eh     23.05 kcal/mol

In case the symmetry of your molecule has not been determined correctly
or in case you have a reason to use a different symmetry number we print
out the resulting rotational entropy values for sn=1,12:

 non-linear molecules -----------------------------------
|  sn= 1 | S(rot)=       0.01277663 Eh      8.02 kcal/mol|
|  sn= 2 | S(rot)=       0.01212217 Eh      7.61 kcal/mol|
|  sn= 3 | S(rot)=       0.01173934 Eh      7.37 kcal/mol|
|  sn= 4 | S(rot)=       0.01146772 Eh      7.20 kcal/mol|
|  sn= 5 | S(rot)=       0.01125703 Eh      7.06 kcal/mol|
|  sn= 6 | S(rot)=       0.01108489 Eh      6.96 kcal/mol|
|  sn= 7 | S(rot)=       0.01093934 Eh      6.86 kcal/mol|
|  sn= 8 | S(rot)=       0.01081326 Eh      6.79 kcal/mol|
|  sn= 9 | S(rot)=       0.01070205 Eh      6.72 kcal/mol|
|  sn=10 | S(rot)=       0.01060257 Eh      6.65 kcal/mol|
|  sn=11 | S(rot)=       0.01051258 Eh      6.60 kcal/mol|
|  sn=12 | S(rot)=       0.01043043 Eh      6.55 kcal/mol|
 linear molecules ---------------------------------------
|  Dinfh | S(rot)=       0.00798642 Eh      5.01 kcal/mol|
|  Cinfv | S(rot)=       0.00864088 Eh      5.42 kcal/mol|
 --------------------------------------------------------

-------------------
GIBBS FREE ENERGY
-------------------

The Gibbs free energy is G = H - T*S

                             ****ORCA TERMINATED NORMALLY****
TOTAL RUN TIME: 0 days 0 hours 7 minutes 59 seconds 653 msec
