                         Program Version 6.0.1  -  RELEASE   -
|  1> ! pbe def2-sv(p) def2/J RI DEFGRID1 loosescf d4 GCP(DFT/SV(P)) printgap
|  2> %output
|  3>     printlevel normal
|  4> end
|  5> * xyz 0 1
|  6> C 1.9766258504 0.0059413446 -0.651543104
|  7> C 1.2681017947 -0.3465071536 0.6510938382
|  8> C -0.239972291 -0.5328423484 0.5078681961
|  9> H -0.6685515098 -0.7652415553 1.4873390428
| 10> C -0.6441700159 -1.5932555268 -0.5005110393
| 11> Cl -0.9901658332 1.0312779433 0.0327032025
| 12> H 1.5124585421 0.8757122407 -1.1094208731
| 13> H 1.9409607749 -0.8218042061 -1.3547628307
| 14> H 3.0199894365 0.2378252619 -0.4529526902
| 15> H 1.4491032735 0.4440039526 1.3825041148
| 16> H 1.6803884432 -1.2748051931 1.0550981745
| 17> H -0.338855441 -1.3093426302 -1.5036156039
| 18> H -0.1738514568 -2.5396538189 -0.2408245388
| 19> H -1.7232009609 -1.7271379591 -0.4960241026
| 20> *
| 21>
| 22>                          ****END OF INPUT****

CARTESIAN COORDINATES (ANGSTROEM)
---------------------------------
  C      1.976626    0.005941   -0.651543
  C      1.268102   -0.346507    0.651094
  C     -0.239972   -0.532842    0.507868
  H     -0.668552   -0.765242    1.487339
  C     -0.644170   -1.593256   -0.500511
  Cl    -0.990166    1.031278    0.032703
  H      1.512459    0.875712   -1.109421
  H      1.940961   -0.821804   -1.354763
  H      3.019989    0.237825   -0.452953
  H      1.449103    0.444004    1.382504
  H      1.680388   -1.274805    1.055098
  H     -0.338855   -1.309343   -1.503616
  H     -0.173851   -2.539654   -0.240825
  H     -1.723201   -1.727138   -0.496024

 Total Charge           Charge          ....    0
 Multiplicity           Mult            ....    1
 Number of Electrons    NEL             ....   50
 Basis Dimension        Dim             ....   92

ORBITAL ENERGIES
----------------

  NO   OCC          E(Eh)            E(eV)
   0   2.0000    -100.613350     -2737.8284
   1   2.0000      -9.947749      -270.6920
   2   2.0000      -9.895113      -269.2597
   3   2.0000      -9.886182      -269.0167
   4   2.0000      -9.875484      -268.7256
   5   2.0000      -9.149337      -248.9661
   6   2.0000      -6.980543      -189.9502
   7   2.0000      -6.969185      -189.6412
   8   2.0000      -6.969059      -189.6377
   9   2.0000      -0.783602       -21.3229
  10   2.0000      -0.692276       -18.8378
  11   2.0000      -0.651746       -17.7349
  12   2.0000      -0.581364       -15.8197
  13   2.0000      -0.500073       -13.6077
  14   2.0000      -0.432882       -11.7793
  15   2.0000      -0.419208       -11.4072
  16   2.0000      -0.392199       -10.6723
  17   2.0000      -0.361783        -9.8446
  18   2.0000      -0.347144        -9.4463
  19   2.0000      -0.337018        -9.1707
  20   2.0000      -0.308949        -8.4069
  21   2.0000      -0.303806        -8.2670
  22   2.0000      -0.298203        -8.1145
  23   2.0000      -0.243570        -6.6279
  24   2.0000      -0.241770        -6.5789
  25   0.0000       0.015690         0.4269
  26   0.0000       0.033779         0.9192
  27   0.0000       0.065436         1.7806
  28   0.0000       0.079554         2.1648
  29   0.0000       0.091712         2.4956

MULLIKEN ATOMIC CHARGES
-----------------------
   0 C :   -0.294980
   1 C :   -0.135516
   2 C :   -0.181408
   3 H :    0.121871
   4 C :   -0.227861
   5 Cl:   -0.138036
   6 H :    0.112305
   7 H :    0.105321
   8 H :    0.106688
   9 H :    0.098448
  10 H :    0.092828
  11 H :    0.119374
  12 H :    0.105421
  13 H :    0.115545
Sum of atomic charges:   -0.0000000

LOEWDIN ATOMIC CHARGES
----------------------
   0 C :   -0.349049
   1 C :   -0.244994
   2 C :   -0.191071
   3 H :    0.122750
   4 C :   -0.350659
   5 Cl:    0.035050
   6 H :    0.118358
   7 H :    0.117554
   8 H :    0.122835
   9 H :    0.120997
  10 H :    0.121899
  11 H :    0.125303
  12 H :    0.125191
  13 H :    0.125836

  Mayer bond orders larger than 0.100000
B(  0-C ,  1-C ) :   1.1473 B(  0-C ,  6-H ) :   0.9449 B(  0-C ,  7-H ) :   0.9500
B(  0-C ,  8-H ) :   0.9510 B(  1-C ,  2-C ) :   1.0657 B(  1-C ,  9-H ) :   0.9220
B(  1-C , 10-H ) :   0.9118 B(  2-C ,  3-H ) :   0.9135 B(  2-C ,  4-C ) :   1.0989
B(  2-C ,  5-Cl) :   1.0158 B(  4-C , 11-H ) :   0.9394 B(  4-C , 12-H ) :   0.9375
B(  4-C , 13-H ) :   0.9452

Dispersion correction           -0.010895932
FINAL SINGLE POINT ENERGY      -617.304051011199

DIPOLE MOMENT
-------------

Method             : SCF
Type of density    : Electron Density
Multiplicity       :   1
Irrep              :   0
Energy             :  -617.3506095294777651 Eh
Relativity type    :
Basis              : AO
                                X                 Y                 Z
Electronic contribution:     -7.292862591       7.224199774       1.362258349
Nuclear contribution   :      7.613276036      -7.839206360      -1.200336917
                        -----------------------------------------
Total Dipole Moment    :      0.320413446      -0.615006586       0.161921432
                        -----------------------------------------
Magnitude (a.u.)       :      0.712121076
Magnitude (Debye)      :      1.810067928

Rotational constants in cm-1:             0.161723             0.099910             0.076791
Rotational constants in MHz :          4848.346443          2995.228561          2302.147133

                             ****ORCA TERMINATED NORMALLY****
TOTAL RUN TIME: 0 days 0 hours 0 minutes 9 seconds 191 msec
