                         Program Version 6.0.1  -  RELEASE   -
|  1> ! pbe def2-sv(p) def2/J RI DEFGRID1 loosescf d4 GCP(DFT/SV(P)) printgap
|  2> %output
|  3>     printlevel normal
|  4> end
|  5> * xyz 0 1
|  6> C -2.241807393 -1.0132404417 -0.3474963358
|  7> C -1.1601558016 -0.2116308068 0.3959378368
|  8> H -1.6023543965 0.2238936808 1.3019760482
|  9> C -0.5763486602 0.9184404302 -0.4603053626
| 10> H -0.4120884768 0.5711353402 -1.490320764
| 11> C 0.7761503188 1.3476271116 0.1293230514
| 12> H 0.6095094074 1.6161004237 1.1886048601
| 13> C 1.77237967 0.1801426715 0.0569405215
| 14> H 2.3094566254 0.2426813133 -0.8934096276
| 15> C 1.0208707811 -1.1712885709 0.0973902304
| 16> H 1.6508130035 -1.8953570841 0.6374833461
| 17> O -0.1555269353 -1.1115342094 0.8664239103
| 18> O 0.7799701121 -1.5864157794 -1.2109901302
| 19> O 2.7478789261 0.2374528912 1.0562591669
| 20> O 1.3015152025 2.4400135728 -0.5663752838
| 21> O -1.4048907342 2.0604805353 -0.4479887706
| 22> O -2.7578570507 -2.0335011538 0.4629165327
| 23> H -1.8121728517 -1.4297870518 -1.2713437765
| 24> H -3.083220991 -0.3668242157 -0.6108712824
| 25> H 0.4468701382 -2.4926101127 -1.2090158391
| 26> H 2.3188824111 0.3055678236 1.9182488145
| 27> H 0.5916723392 3.0891160347 -0.6595651461
| 28> H -2.2426960335 1.8549848904 -0.8744895493
| 29> H -2.0147690354 -2.418459617 0.9468286786
| 30> *
| 31>
| 32>                          ****END OF INPUT****

CARTESIAN COORDINATES (ANGSTROEM)
---------------------------------
  C     -2.241807   -1.013240   -0.347496
  C     -1.160156   -0.211631    0.395938
  H     -1.602354    0.223894    1.301976
  C     -0.576349    0.918440   -0.460305
  H     -0.412088    0.571135   -1.490321
  C      0.776150    1.347627    0.129323
  H      0.609509    1.616100    1.188605
  C      1.772380    0.180143    0.056941
  H      2.309457    0.242681   -0.893410
  C      1.020871   -1.171289    0.097390
  H      1.650813   -1.895357    0.637483
  O     -0.155527   -1.111534    0.866424
  O      0.779970   -1.586416   -1.210990
  O      2.747879    0.237453    1.056259
  O      1.301515    2.440014   -0.566375
  O     -1.404891    2.060481   -0.447989
  O     -2.757857   -2.033501    0.462917
  H     -1.812173   -1.429787   -1.271344
  H     -3.083221   -0.366824   -0.610871
  H      0.446870   -2.492610   -1.209016
  H      2.318882    0.305568    1.918249
  H      0.591672    3.089116   -0.659565
  H     -2.242696    1.854985   -0.874490
  H     -2.014769   -2.418460    0.946829

 Total Charge           Charge          ....    0
 Multiplicity           Mult            ....    1
 Number of Electrons    NEL             ....   96
 Basis Dimension        Dim             ....  192

ORBITAL ENERGIES
----------------

  NO   OCC          E(Eh)            E(eV)
   0   2.0000     -18.785931      -511.1912
   1   2.0000     -18.776351      -510.9305
   2   2.0000     -18.773197      -510.8447
   3   2.0000     -18.751703      -510.2598
   4   2.0000     -18.747459      -510.1443
   5   2.0000     -18.745906      -510.1020
   6   2.0000      -9.992861      -271.9196
   7   2.0000      -9.951373      -270.7906
   8   2.0000      -9.950122      -270.7566
   9   2.0000      -9.946451      -270.6567
  10   2.0000      -9.942828      -270.5581
  11   2.0000      -9.939400      -270.4648
  12   2.0000      -0.995387       -27.0859
  13   2.0000      -0.955539       -26.0015
  14   2.0000      -0.937146       -25.5010
  15   2.0000      -0.933873       -25.4120
  16   2.0000      -0.919692       -25.0261
  17   2.0000      -0.918035       -24.9810
  18   2.0000      -0.712069       -19.3764
  19   2.0000      -0.695798       -18.9336
  20   2.0000      -0.627292       -17.0695
  21   2.0000      -0.594294       -16.1716
  22   2.0000      -0.571847       -15.5607
  23   2.0000      -0.526663       -14.3312
  24   2.0000      -0.510587       -13.8938
  25   2.0000      -0.502490       -13.6734
  26   2.0000      -0.488013       -13.2795
  27   2.0000      -0.457287       -12.4434
  28   2.0000      -0.450254       -12.2520
  29   2.0000      -0.433898       -11.8070
  30   2.0000      -0.410661       -11.1747
  31   2.0000      -0.403145       -10.9701
  32   2.0000      -0.399196       -10.8627
  33   2.0000      -0.388110       -10.5610
  34   2.0000      -0.368639       -10.0312
  35   2.0000      -0.361707        -9.8426
  36   2.0000      -0.334226        -9.0948
  37   2.0000      -0.325687        -8.8624
  38   2.0000      -0.310797        -8.4572
  39   2.0000      -0.296179        -8.0594
  40   2.0000      -0.289008        -7.8643
  41   2.0000      -0.274620        -7.4728
  42   2.0000      -0.264557        -7.1990
  43   2.0000      -0.246485        -6.7072
  44   2.0000      -0.240149        -6.5348
  45   2.0000      -0.225069        -6.1244
  46   2.0000      -0.219781        -5.9805
  47   2.0000      -0.209041        -5.6883
  48   0.0000       0.001973         0.0537
  49   0.0000       0.009990         0.2719
  50   0.0000       0.027083         0.7370
  51   0.0000       0.050492         1.3740
  52   0.0000       0.059018         1.6060

MULLIKEN ATOMIC CHARGES
-----------------------
   0 C :    0.075342
   1 C :    0.009908
   2 H :    0.076289
   3 C :    0.007481
   4 H :    0.077144
   5 C :    0.056536
   6 H :    0.038096
   7 C :    0.121497
   8 H :    0.090136
   9 C :    0.119908
  10 H :    0.071121
  11 O :   -0.332056
  12 O :   -0.386442
  13 O :   -0.411275
  14 O :   -0.405518
  15 O :   -0.418514
  16 O :   -0.432424
  17 H :    0.064405
  18 H :    0.065145
  19 H :    0.307748
  20 H :    0.295889
  21 H :    0.304447
  22 H :    0.310494
  23 H :    0.294644
Sum of atomic charges:    0.0000000

LOEWDIN ATOMIC CHARGES
----------------------
   0 C :   -0.136512
   1 C :   -0.081265
   2 H :    0.117563
   3 C :   -0.086832
   4 H :    0.111756
   5 C :   -0.063903
   6 H :    0.099133
   7 C :   -0.069614
   8 H :    0.133118
   9 C :   -0.014129
  10 H :    0.100988
  11 O :   -0.154744
  12 O :   -0.303932
  13 O :   -0.302599
  14 O :   -0.311015
  15 O :   -0.316689
  16 O :   -0.337936
  17 H :    0.093559
  18 H :    0.105112
  19 H :    0.287717
  20 H :    0.281850
  21 H :    0.283287
  22 H :    0.290184
  23 H :    0.274903

  Mayer bond orders larger than 0.100000
B(  0-C ,  1-C ) :   1.0678 B(  0-C , 16-O ) :   1.0843 B(  0-C , 17-H ) :   0.8945
B(  0-C , 18-H ) :   0.9122 B(  1-C ,  2-H ) :   0.8766 B(  1-C ,  3-C ) :   0.9610
B(  1-C , 11-O ) :   0.9540 B(  3-C ,  4-H ) :   0.8771 B(  3-C ,  5-C ) :   1.0516
B(  3-C , 15-O ) :   1.0495 B(  5-C ,  6-H ) :   0.8530 B(  5-C ,  7-C ) :   1.0208
B(  5-C , 14-O ) :   1.1076 B(  7-C ,  8-H ) :   0.8621 B(  7-C ,  9-C ) :   0.9886
B(  7-C , 13-O ) :   1.0480 B(  9-C , 10-H ) :   0.8984 B(  9-C , 11-O ) :   1.0494
B(  9-C , 12-O ) :   1.0994 B( 12-O , 19-H ) :   0.8327 B( 13-O , 20-H ) :   0.8501
B( 14-O , 21-H ) :   0.8327 B( 15-O , 22-H ) :   0.8419 B( 16-O , 23-H ) :   0.8358

Dispersion correction           -0.024597773
FINAL SINGLE POINT ENERGY      -685.690886514986

DIPOLE MOMENT
-------------

Method             : SCF
Type of density    : Electron Density
Multiplicity       :   1
Irrep              :   0
Energy             :  -685.8220790680908294 Eh
Relativity type    :
Basis              : AO
                                X                 Y                 Z
Electronic contribution:      2.322212195       0.309105945       0.952247185
Nuclear contribution   :     -3.032191460      -0.656208718      -0.950688899
                        -----------------------------------------
Total Dipole Moment    :     -0.709979265      -0.347102773       0.001558285
                        -----------------------------------------
Magnitude (a.u.)       :      0.790286859
Magnitude (Debye)      :      2.008749559

Rotational constants in cm-1:             0.042500             0.026133             0.019108
Rotational constants in MHz :          1274.115625           783.457335           572.843773

                             ****ORCA TERMINATED NORMALLY****
TOTAL RUN TIME: 0 days 0 hours 0 minutes 10 seconds 683 msec
