                         Program Version 6.0.1  -  RELEASE   -
|  1> ! pbe def2-sv(p) def2/J RI DEFGRID1 loosescf d4 GCP(DFT/SV(P)) printgap
|  2> %output
|  3>     printlevel normal
|  4> end
|  5> * xyz 0 1
|  6> C -3.449808176 -0.516609807 -0.0100744884
|  7> O -2.1792609843 -0.3808911522 -0.6311417227
|  8> C -1.2315504092 0.2381182258 0.0889687743
|  9> O -1.4238336277 0.679837102 1.1904950132
| 10> C 0.0817126698 0.2583326798 -0.6639489134
| 11> C 0.7220658836 -1.1362035565 -0.5098608693
| 12> C 2.2247872431 -1.0425044679 -0.7451813888
| 13> C 2.8927582497 -0.2298753412 0.3712531656
| 14> C 1.9386506387 0.8243026087 0.9438287567
| 15> C 1.0118494342 1.3620911079 -0.1401630104
| 16> H -3.8461872823 0.4644439668 0.2593714787
| 17> H -3.366835163 -1.1215062158 0.8952005651
| 18> H -4.0944757177 -1.0037084451 -0.7369376165
| 19> H -0.1473742772 0.4272529444 -1.7197342975
| 20> H 0.5416021246 -1.5199642359 0.4964047418
| 21> H 0.260268853 -1.8261042911 -1.2174177311
| 22> H 2.6573838894 -2.0433698123 -0.7879477685
| 23> H 2.3991546192 -0.5680400107 -1.7126838194
| 24> H 3.212574336 -0.8956940704 1.1747490368
| 25> H 3.7868175411 0.2551852116 -0.0249687535
| 26> H 1.3266599213 0.395116286 1.7375174996
| 27> H 2.5124307753 1.6430673358 1.3804294393
| 28> H 0.4077426626 2.1749156716 0.2658100674
| 29> H 1.6085673234 1.7609720002 -0.9621337441
| 30> *
| 31>
| 32>                          ****END OF INPUT****

CARTESIAN COORDINATES (ANGSTROEM)
---------------------------------
  C     -3.449808   -0.516610   -0.010074
  O     -2.179261   -0.380891   -0.631142
  C     -1.231550    0.238118    0.088969
  O     -1.423834    0.679837    1.190495
  C      0.081713    0.258333   -0.663949
  C      0.722066   -1.136204   -0.509861
  C      2.224787   -1.042504   -0.745181
  C      2.892758   -0.229875    0.371253
  C      1.938651    0.824303    0.943829
  C      1.011849    1.362091   -0.140163
  H     -3.846187    0.464444    0.259371
  H     -3.366835   -1.121506    0.895201
  H     -4.094476   -1.003708   -0.736938
  H     -0.147374    0.427253   -1.719734
  H      0.541602   -1.519964    0.496405
  H      0.260269   -1.826104   -1.217418
  H      2.657384   -2.043370   -0.787948
  H      2.399155   -0.568040   -1.712684
  H      3.212574   -0.895694    1.174749
  H      3.786818    0.255185   -0.024969
  H      1.326660    0.395116    1.737517
  H      2.512431    1.643067    1.380429
  H      0.407743    2.174916    0.265810
  H      1.608567    1.760972   -0.962134

 Total Charge           Charge          ....    0
 Multiplicity           Mult            ....    1
 Number of Electrons    NEL             ....   78
 Basis Dimension        Dim             ....  168

ORBITAL ENERGIES
----------------

  NO   OCC          E(Eh)            E(eV)
   0   2.0000     -18.795202      -511.4434
   1   2.0000     -18.737531      -509.8741
   2   2.0000     -10.001882      -272.1650
   3   2.0000      -9.938352      -270.4363
   4   2.0000      -9.902522      -269.4613
   5   2.0000      -9.891256      -269.1548
   6   2.0000      -9.884782      -268.9786
   7   2.0000      -9.881931      -268.9010
   8   2.0000      -9.880675      -268.8668
   9   2.0000      -9.877117      -268.7700
  10   2.0000      -1.004217       -27.3261
  11   2.0000      -0.915105       -24.9013
  12   2.0000      -0.761005       -20.7080
  13   2.0000      -0.691008       -18.8033
  14   2.0000      -0.664652       -18.0861
  15   2.0000      -0.646847       -17.6016
  16   2.0000      -0.558677       -15.2024
  17   2.0000      -0.554739       -15.0952
  18   2.0000      -0.502994       -13.6872
  19   2.0000      -0.471645       -12.8341
  20   2.0000      -0.457115       -12.4387
  21   2.0000      -0.441222       -12.0063
  22   2.0000      -0.433070       -11.7844
  23   2.0000      -0.412736       -11.2311
  24   2.0000      -0.407507       -11.0888
  25   2.0000      -0.382419       -10.4061
  26   2.0000      -0.358867        -9.7653
  27   2.0000      -0.358054        -9.7432
  28   2.0000      -0.334693        -9.1075
  29   2.0000      -0.332822        -9.0565
  30   2.0000      -0.328138        -8.9291
  31   2.0000      -0.322487        -8.7753
  32   2.0000      -0.309982        -8.4350
  33   2.0000      -0.302279        -8.2254
  34   2.0000      -0.270934        -7.3725
  35   2.0000      -0.266527        -7.2526
  36   2.0000      -0.260850        -7.0981
  37   2.0000      -0.255125        -6.9423
  38   2.0000      -0.218927        -5.9573
  39   0.0000      -0.016641        -0.4528
  40   0.0000       0.029655         0.8070
  41   0.0000       0.048012         1.3065
  42   0.0000       0.057766         1.5719
  43   0.0000       0.078410         2.1336

MULLIKEN ATOMIC CHARGES
-----------------------
   0 C :   -0.107784
   1 O :   -0.247677
   2 C :    0.132063
   3 O :   -0.190472
   4 C :   -0.177524
   5 C :   -0.143753
   6 C :   -0.127030
   7 C :   -0.163875
   8 C :   -0.157884
   9 C :   -0.098244
  10 H :    0.117259
  11 H :    0.114681
  12 H :    0.119236
  13 H :    0.083436
  14 H :    0.085894
  15 H :    0.093077
  16 H :    0.087325
  17 H :    0.075505
  18 H :    0.082048
  19 H :    0.080454
  20 H :    0.088330
  21 H :    0.085748
  22 H :    0.094349
  23 H :    0.074837
Sum of atomic charges:   -0.0000000

LOEWDIN ATOMIC CHARGES
----------------------
   0 C :   -0.207255
   1 O :   -0.079503
   2 C :    0.046312
   3 O :   -0.153576
   4 C :   -0.165639
   5 C :   -0.210085
   6 C :   -0.227889
   7 C :   -0.229688
   8 C :   -0.229661
   9 C :   -0.216472
  10 H :    0.117995
  11 H :    0.116967
  12 H :    0.119072
  13 H :    0.130588
  14 H :    0.120015
  15 H :    0.121866
  16 H :    0.119484
  17 H :    0.115433
  18 H :    0.116564
  19 H :    0.115432
  20 H :    0.119103
  21 H :    0.119083
  22 H :    0.125669
  23 H :    0.116185

  Mayer bond orders larger than 0.100000
B(  0-C ,  1-O ) :   0.9493 B(  0-C , 10-H ) :   0.9511 B(  0-C , 11-H ) :   0.9521
B(  0-C , 12-H ) :   0.9592 B(  1-O ,  2-C ) :   1.2010 B(  2-C ,  3-O ) :   2.0699
B(  2-C ,  4-C ) :   0.9572 B(  4-C ,  5-C ) :   1.0933 B(  4-C ,  9-C ) :   1.0877
B(  4-C , 13-H ) :   0.8724 B(  5-C ,  6-C ) :   1.1795 B(  5-C , 14-H ) :   0.9018
B(  5-C , 15-H ) :   0.9157 B(  6-C ,  7-C ) :   1.1390 B(  6-C , 16-H ) :   0.9203
B(  6-C , 17-H ) :   0.9051 B(  7-C ,  8-C ) :   1.1439 B(  7-C , 18-H ) :   0.9219
B(  7-C , 19-H ) :   0.9225 B(  8-C ,  9-C ) :   1.1769 B(  8-C , 20-H ) :   0.9046
B(  8-C , 21-H ) :   0.9206 B(  9-C , 22-H ) :   0.9092 B(  9-C , 23-H ) :   0.9053

Dispersion correction           -0.023010198
FINAL SINGLE POINT ENERGY      -462.698875935707

DIPOLE MOMENT
-------------

Method             : SCF
Type of density    : Electron Density
Multiplicity       :   1
Irrep              :   0
Energy             :  -462.7867572690520319 Eh
Relativity type    :
Basis              : AO
                                X                 Y                 Z
Electronic contribution:     -6.883862034       1.373732444       0.380404386
Nuclear contribution   :      6.756105801      -1.738150993      -0.885161803
                        -----------------------------------------
Total Dipole Moment    :     -0.127756234      -0.364418550      -0.504757417
                        -----------------------------------------
Magnitude (a.u.)       :      0.635533307
Magnitude (Debye)      :      1.615397289

Rotational constants in cm-1:             0.097865             0.026802             0.023575
Rotational constants in MHz :          2933.917418           803.509964           706.757905

                             ****ORCA TERMINATED NORMALLY****
TOTAL RUN TIME: 0 days 0 hours 0 minutes 8 seconds 424 msec
