                         Program Version 6.0.1  -  RELEASE   -
|  1> ! pbe def2-sv(p) def2/J RI DEFGRID1 loosescf d4 GCP(DFT/SV(P)) printgap
|  2> %output
|  3>     printlevel normal
|  4> end
|  5> * xyz 0 1
|  6> C -2.6583243971 -0.7143891963 -1.0836897622
|  7> C -1.2823699453 -0.542068834 -0.4478010244
|  8> H -0.5141888124 -0.8033200685 -1.1868322261
|  9> C -1.0856948571 -1.4266767463 0.7828404536
| 10> C 0.3714194362 -1.407358231 1.2546798842
| 11> C 1.0548547971 -0.0392569373 1.026885388
| 12> H 1.7286173533 0.1441397817 1.8737727579
| 13> C -0.0062555307 1.0632287316 1.0403821511
| 14> C -1.0358003952 0.9017222303 -0.054220348
| 15> O -1.6199384293 1.8367027144 -0.5441121763
| 16> C 1.9347836386 -0.0155345701 -0.2152341013
| 17> C 2.8211104242 -0.9736779096 -0.4452436207
| 18> C 1.8553407642 1.171497864 -1.1276307849
| 19> H -2.7755230152 -1.7211638156 -1.4769511808
| 20> H -3.438768108 -0.5331948369 -0.347561986
| 21> H -2.7844497168 -0.0010845229 -1.8939507128
| 22> H -1.7508666365 -1.0774498489 1.5760352328
| 23> H -1.3769973882 -2.4515500227 0.5462521473
| 24> H 0.4030261664 -1.6611059357 2.3157901493
| 25> H 0.9252164908 -2.177637901 0.7199943579
| 26> H -0.5507255882 1.0131917745 1.9884874577
| 27> H 0.434366895 2.0588426731 0.9816527183
| 28> H 3.4675639325 -0.9474283879 -1.3056041314
| 29> H 2.9548575906 -1.8167296016 0.2110645606
| 30> H 2.5112746452 1.0316742597 -1.9832192932
| 31> H 0.844533064 1.3406798723 -1.4917051993
| 32> H 2.1719053574 2.0716567945 -0.6008342578
| 33> *
| 34>
| 35>                          ****END OF INPUT****

CARTESIAN COORDINATES (ANGSTROEM)
---------------------------------
  C     -2.658324   -0.714389   -1.083690
  C     -1.282370   -0.542069   -0.447801
  H     -0.514189   -0.803320   -1.186832
  C     -1.085695   -1.426677    0.782840
  C      0.371419   -1.407358    1.254680
  C      1.054855   -0.039257    1.026885
  H      1.728617    0.144140    1.873773
  C     -0.006256    1.063229    1.040382
  C     -1.035800    0.901722   -0.054220
  O     -1.619938    1.836703   -0.544112
  C      1.934784   -0.015535   -0.215234
  C      2.821110   -0.973678   -0.445244
  C      1.855341    1.171498   -1.127631
  H     -2.775523   -1.721164   -1.476951
  H     -3.438768   -0.533195   -0.347562
  H     -2.784450   -0.001085   -1.893951
  H     -1.750867   -1.077450    1.576035
  H     -1.376997   -2.451550    0.546252
  H      0.403026   -1.661106    2.315790
  H      0.925216   -2.177638    0.719994
  H     -0.550726    1.013192    1.988487
  H      0.434367    2.058843    0.981653
  H      3.467564   -0.947428   -1.305604
  H      2.954858   -1.816730    0.211065
  H      2.511275    1.031674   -1.983219
  H      0.844533    1.340680   -1.491705
  H      2.171905    2.071657   -0.600834

 Total Charge           Charge          ....    0
 Multiplicity           Mult            ....    1
 Number of Electrons    NEL             ....   84
 Basis Dimension        Dim             ....  186

ORBITAL ENERGIES
----------------

  NO   OCC          E(Eh)            E(eV)
   0   2.0000     -18.740923      -509.9664
   1   2.0000      -9.971184      -271.3297
   2   2.0000      -9.909657      -269.6555
   3   2.0000      -9.904956      -269.5275
   4   2.0000      -9.900180      -269.3976
   5   2.0000      -9.895221      -269.2626
   6   2.0000      -9.893775      -269.2233
   7   2.0000      -9.891980      -269.1745
   8   2.0000      -9.884702      -268.9764
   9   2.0000      -9.875881      -268.7364
  10   2.0000      -9.875181      -268.7173
  11   2.0000      -0.940993       -25.6057
  12   2.0000      -0.774678       -21.0801
  13   2.0000      -0.726158       -19.7598
  14   2.0000      -0.684685       -18.6312
  15   2.0000      -0.661455       -17.9991
  16   2.0000      -0.620356       -16.8807
  17   2.0000      -0.600797       -16.3485
  18   2.0000      -0.556661       -15.1475
  19   2.0000      -0.531490       -14.4626
  20   2.0000      -0.474798       -12.9199
  21   2.0000      -0.466262       -12.6876
  22   2.0000      -0.438542       -11.9333
  23   2.0000      -0.428635       -11.6637
  24   2.0000      -0.416867       -11.3435
  25   2.0000      -0.396229       -10.7819
  26   2.0000      -0.384157       -10.4535
  27   2.0000      -0.377713       -10.2781
  28   2.0000      -0.375234       -10.2106
  29   2.0000      -0.362168        -9.8551
  30   2.0000      -0.354334        -9.6419
  31   2.0000      -0.339457        -9.2371
  32   2.0000      -0.337330        -9.1792
  33   2.0000      -0.328313        -8.9338
  34   2.0000      -0.321983        -8.7616
  35   2.0000      -0.315858        -8.5949
  36   2.0000      -0.302981        -8.2445
  37   2.0000      -0.291943        -7.9442
  38   2.0000      -0.282804        -7.6955
  39   2.0000      -0.273195        -7.4340
  40   2.0000      -0.219426        -5.9709
  41   2.0000      -0.193015        -5.2522
  42   0.0000      -0.051067        -1.3896
  43   0.0000      -0.023785        -0.6472
  44   0.0000       0.025358         0.6900
  45   0.0000       0.050421         1.3720
  46   0.0000       0.057953         1.5770

MULLIKEN ATOMIC CHARGES
-----------------------
   0 C :   -0.205040
   1 C :   -0.177432
   2 H :    0.102932
   3 C :   -0.142913
   4 C :   -0.095482
   5 C :   -0.147523
   6 H :    0.091297
   7 C :   -0.048498
   8 C :   -0.043723
   9 O :   -0.155902
  10 C :   -0.082794
  11 C :   -0.244344
  12 C :   -0.217183
  13 H :    0.095329
  14 H :    0.095191
  15 H :    0.114882
  16 H :    0.078952
  17 H :    0.090352
  18 H :    0.077977
  19 H :    0.088576
  20 H :    0.108423
  21 H :    0.091856
  22 H :    0.086896
  23 H :    0.093475
  24 H :    0.100404
  25 H :    0.129575
  26 H :    0.114716
Sum of atomic charges:   -0.0000000

LOEWDIN ATOMIC CHARGES
----------------------
   0 C :   -0.323780
   1 C :   -0.180887
   2 H :    0.143350
   3 C :   -0.213795
   4 C :   -0.213854
   5 C :   -0.133564
   6 H :    0.137065
   7 C :   -0.239971
   8 C :    0.045273
   9 O :   -0.121232
  10 C :   -0.057424
  11 C :   -0.268595
  12 C :   -0.325146
  13 H :    0.118287
  14 H :    0.120600
  15 H :    0.126860
  16 H :    0.115797
  17 H :    0.123640
  18 H :    0.118722
  19 H :    0.122274
  20 H :    0.146581
  21 H :    0.132157
  22 H :    0.119116
  23 H :    0.116636
  24 H :    0.126805
  25 H :    0.132031
  26 H :    0.133054

  Mayer bond orders larger than 0.100000
B(  0-C ,  1-C ) :   1.1293 B(  0-C , 13-H ) :   0.9470 B(  0-C , 14-H ) :   0.9515
B(  0-C , 15-H ) :   0.9392 B(  1-C ,  2-H ) :   0.8409 B(  1-C ,  3-C ) :   1.1192
B(  1-C ,  8-C ) :   0.9283 B(  3-C ,  4-C ) :   1.1566 B(  3-C , 16-H ) :   0.9004
B(  3-C , 17-H ) :   0.9152 B(  4-C ,  5-C ) :   1.0689 B(  4-C , 18-H ) :   0.9100
B(  4-C , 19-H ) :   0.9075 B(  5-C ,  6-H ) :   0.8677 B(  5-C ,  7-C ) :   1.1317
B(  5-C , 10-C ) :   0.9860 B(  7-C ,  8-C ) :   1.0253 B(  7-C , 20-H ) :   0.8624
B(  7-C , 21-H ) :   0.8767 B(  8-C ,  9-O ) :   2.1814 B( 10-C , 11-C ) :   2.0323
B( 10-C , 12-C ) :   1.1497 B( 11-C , 22-H ) :   0.9055 B( 11-C , 23-H ) :   0.9078
B( 12-C , 24-H ) :   0.9313 B( 12-C , 25-H ) :   0.9083 B( 12-C , 26-H ) :   0.9192

Dispersion correction           -0.029816803
FINAL SINGLE POINT ENERGY      -464.820030963348

DIPOLE MOMENT
-------------

Method             : SCF
Type of density    : Electron Density
Multiplicity       :   1
Irrep              :   0
Energy             :  -464.9060226031687080 Eh
Relativity type    :
Basis              : AO
                                X                 Y                 Z
Electronic contribution:     -1.633509672       4.507840215       0.540303699
Nuclear contribution   :      2.086705009      -5.161275065      -0.077126588
                        -----------------------------------------
Total Dipole Moment    :      0.453195337      -0.653434850       0.463177112
                        -----------------------------------------
Magnitude (a.u.)       :      0.920269609
Magnitude (Debye)      :      2.339139452

Rotational constants in cm-1:             0.052573             0.030759             0.025602
Rotational constants in MHz :          1576.097127           922.133188           767.540920

                             ****ORCA TERMINATED NORMALLY****
TOTAL RUN TIME: 0 days 0 hours 0 minutes 26 seconds 915 msec
