                         Program Version 6.0.1  -  RELEASE   -
|  1> ! pbe def2-sv(p) def2/J RI DEFGRID1 loosescf d4 GCP(DFT/SV(P)) printgap
|  2> %output
|  3>     printlevel normal
|  4> end
|  5> * xyz 0 1
|  6> C -2.0780336229 -1.3859596781 -0.0989160819
|  7> C -1.0078143299 -0.5170639112 0.58234097
|  8> H -1.4357002959 -0.1282129196 1.5152548126
|  9> C -0.6229292949 0.673550865 -0.3056162243
| 10> H -0.4939771471 0.3374080251 -1.3487772609
| 11> C 0.7160522189 1.2404607636 0.1930440998
| 12> H 0.6350981467 1.4373926548 1.2700145942
| 13> C 1.8174825353 0.2011603384 -0.0613994112
| 14> H 2.1733707496 0.2855020634 -1.0949220709
| 15> C 1.2289139989 -1.2258442515 0.0973517279
| 16> H 1.9875533026 -1.86065967 0.5827681568
| 17> O 0.1354899862 -1.2735035943 0.9706592305
| 18> O 0.9199210699 -1.6997112596 -1.178389527
| 19> O 2.9471972848 0.3960381842 0.7389043362
| 20> O 0.9674946635 2.4944778169 -0.3887882479
| 21> O -1.6353612058 1.6484217522 -0.251506316
| 22> O -3.3186719906 -0.738262313 -0.1242725132
| 23> H -2.2125829834 -2.3086666913 0.4719998525
| 24> H -1.7492737499 -1.6422263008 -1.1184491707
| 25> H 0.594867127 -2.6060837641 -1.1103360637
| 26> H 2.6916534434 0.3610872274 1.668676742
| 27> H 1.2907395219 2.3713829807 -1.2894897437
| 28> H -1.2026985026 2.5135429537 -0.3138348813
| 29> H -3.1737373181 0.1844964686 -0.3758628543
| 30> *
| 31>
| 32>                          ****END OF INPUT****

CARTESIAN COORDINATES (ANGSTROEM)
---------------------------------
  C     -2.078034   -1.385960   -0.098916
  C     -1.007814   -0.517064    0.582341
  H     -1.435700   -0.128213    1.515255
  C     -0.622929    0.673551   -0.305616
  H     -0.493977    0.337408   -1.348777
  C      0.716052    1.240461    0.193044
  H      0.635098    1.437393    1.270015
  C      1.817483    0.201160   -0.061399
  H      2.173371    0.285502   -1.094922
  C      1.228914   -1.225844    0.097352
  H      1.987553   -1.860660    0.582768
  O      0.135490   -1.273504    0.970659
  O      0.919921   -1.699711   -1.178390
  O      2.947197    0.396038    0.738904
  O      0.967495    2.494478   -0.388788
  O     -1.635361    1.648422   -0.251506
  O     -3.318672   -0.738262   -0.124273
  H     -2.212583   -2.308667    0.472000
  H     -1.749274   -1.642226   -1.118449
  H      0.594867   -2.606084   -1.110336
  H      2.691653    0.361087    1.668677
  H      1.290740    2.371383   -1.289490
  H     -1.202699    2.513543   -0.313835
  H     -3.173737    0.184496   -0.375863

 Total Charge           Charge          ....    0
 Multiplicity           Mult            ....    1
 Number of Electrons    NEL             ....   96
 Basis Dimension        Dim             ....  192

ORBITAL ENERGIES
----------------

  NO   OCC          E(Eh)            E(eV)
   0   2.0000     -18.780042      -511.0309
   1   2.0000     -18.776857      -510.9443
   2   2.0000     -18.776182      -510.9259
   3   2.0000     -18.763377      -510.5774
   4   2.0000     -18.762340      -510.5492
   5   2.0000     -18.735447      -509.8174
   6   2.0000      -9.995322      -271.9865
   7   2.0000      -9.957778      -270.9649
   8   2.0000      -9.955850      -270.9125
   9   2.0000      -9.948696      -270.7178
  10   2.0000      -9.946025      -270.6451
  11   2.0000      -9.925540      -270.0877
  12   2.0000      -0.994344       -27.0575
  13   2.0000      -0.964756       -26.2523
  14   2.0000      -0.943596       -25.6766
  15   2.0000      -0.933209       -25.3939
  16   2.0000      -0.923768       -25.1370
  17   2.0000      -0.913139       -24.8478
  18   2.0000      -0.713785       -19.4231
  19   2.0000      -0.698228       -18.9997
  20   2.0000      -0.622331       -16.9345
  21   2.0000      -0.595645       -16.2083
  22   2.0000      -0.579409       -15.7665
  23   2.0000      -0.537298       -14.6206
  24   2.0000      -0.519142       -14.1266
  25   2.0000      -0.497843       -13.5470
  26   2.0000      -0.475731       -12.9453
  27   2.0000      -0.463926       -12.6241
  28   2.0000      -0.449365       -12.2278
  29   2.0000      -0.436958       -11.8902
  30   2.0000      -0.426423       -11.6036
  31   2.0000      -0.403745       -10.9864
  32   2.0000      -0.393915       -10.7190
  33   2.0000      -0.377706       -10.2779
  34   2.0000      -0.366275        -9.9668
  35   2.0000      -0.360536        -9.8107
  36   2.0000      -0.339919        -9.2497
  37   2.0000      -0.328092        -8.9278
  38   2.0000      -0.317331        -8.6350
  39   2.0000      -0.304842        -8.2952
  40   2.0000      -0.287788        -7.8311
  41   2.0000      -0.278373        -7.5749
  42   2.0000      -0.267005        -7.2656
  43   2.0000      -0.250750        -6.8232
  44   2.0000      -0.238464        -6.4889
  45   2.0000      -0.231577        -6.3015
  46   2.0000      -0.220600        -6.0028
  47   2.0000      -0.203854        -5.5471
  48   0.0000       0.008996         0.2448
  49   0.0000       0.016828         0.4579
  50   0.0000       0.026434         0.7193
  51   0.0000       0.037286         1.0146
  52   0.0000       0.053912         1.4670

MULLIKEN ATOMIC CHARGES
-----------------------
   0 C :    0.084601
   1 C :    0.032866
   2 H :    0.078712
   3 C :   -0.003134
   4 H :    0.066603
   5 C :    0.042203
   6 H :    0.058433
   7 C :    0.086271
   8 H :    0.070442
   9 C :    0.134105
  10 H :    0.070417
  11 O :   -0.311195
  12 O :   -0.392791
  13 O :   -0.406458
  14 O :   -0.411967
  15 O :   -0.423568
  16 O :   -0.442579
  17 H :    0.082072
  18 H :    0.056309
  19 H :    0.308424
  20 H :    0.301595
  21 H :    0.306107
  22 H :    0.306724
  23 H :    0.305807
Sum of atomic charges:   -0.0000000

LOEWDIN ATOMIC CHARGES
----------------------
   0 C :   -0.131071
   1 C :   -0.070935
   2 H :    0.120005
   3 C :   -0.091570
   4 H :    0.103939
   5 C :   -0.079754
   6 H :    0.117479
   7 C :   -0.083195
   8 H :    0.121467
   9 C :   -0.012878
  10 H :    0.100724
  11 O :   -0.143457
  12 O :   -0.307637
  13 O :   -0.303516
  14 O :   -0.302848
  15 O :   -0.321543
  16 O :   -0.336515
  17 H :    0.109161
  18 H :    0.089492
  19 H :    0.287349
  20 H :    0.286319
  21 H :    0.289633
  22 H :    0.282657
  23 H :    0.276693

  Mayer bond orders larger than 0.100000
B(  0-C ,  1-C ) :   1.0644 B(  0-C , 16-O ) :   1.0867 B(  0-C , 17-H ) :   0.9190
B(  0-C , 18-H ) :   0.8997 B(  1-C ,  2-H ) :   0.8802 B(  1-C ,  3-C ) :   0.9702
B(  1-C , 11-O ) :   0.9553 B(  3-C ,  4-H ) :   0.8739 B(  3-C ,  5-C ) :   1.0210
B(  3-C , 15-O ) :   1.0585 B(  5-C ,  6-H ) :   0.8498 B(  5-C ,  7-C ) :   1.0192
B(  5-C , 14-O ) :   1.0355 B(  7-C ,  8-H ) :   0.8645 B(  7-C ,  9-C ) :   0.9755
B(  7-C , 13-O ) :   1.0619 B(  9-C , 10-H ) :   0.8989 B(  9-C , 11-O ) :   1.0884
B(  9-C , 12-O ) :   1.0895 B( 12-O , 19-H ) :   0.8311 B( 13-O , 20-H ) :   0.8491
B( 14-O , 21-H ) :   0.8456 B( 15-O , 22-H ) :   0.8118 B( 16-O , 23-H ) :   0.8244

Dispersion correction           -0.024751865
FINAL SINGLE POINT ENERGY      -685.691874938103

DIPOLE MOMENT
-------------

Method             : SCF
Type of density    : Electron Density
Multiplicity       :   1
Irrep              :   0
Energy             :  -685.8243540385280994 Eh
Relativity type    :
Basis              : AO
                                X                 Y                 Z
Electronic contribution:      1.602286718       0.964437208       0.853577810
Nuclear contribution   :     -0.839131204      -0.977545753      -1.075746535
                        -----------------------------------------
Total Dipole Moment    :      0.763155514      -0.013108545      -0.222168725
                        -----------------------------------------
Magnitude (a.u.)       :      0.794944724
Magnitude (Debye)      :      2.020588909

Rotational constants in cm-1:             0.044239             0.026111             0.018938
Rotational constants in MHz :          1326.254886           782.796348           567.742948

                             ****ORCA TERMINATED NORMALLY****
TOTAL RUN TIME: 0 days 0 hours 0 minutes 10 seconds 48 msec
