                         Program Version 6.0.1  -  RELEASE   -
|  1> ! pbe def2-sv(p) def2/J RI DEFGRID1 loosescf d4 GCP(DFT/SV(P)) printgap
|  2> %output
|  3>     printlevel normal
|  4> end
|  5> * xyz 0 1
|  6> C -1.7356555167 -0.8183802267 -0.0232394025
|  7> C -0.4941478951 0.0075299415 -0.3471131682
|  8> C -0.676440222 1.4497282898 0.1250766164
|  9> C 0.7396853968 -0.6354103104 0.3030458345
| 10> O 1.9577876624 -0.0636970692 -0.1072119499
| 11> H -1.8994511724 -0.8491481087 1.0520914253
| 12> H -1.6243245212 -1.8384507859 -0.38273281
| 13> H -2.6145413713 -0.3825096653 -0.492120298
| 14> H -0.3377200642 0.0088907137 -1.431188554
| 15> H -1.5745393627 1.8775720947 -0.3141693344
| 16> H 0.165864763 2.0733689151 -0.1698879911
| 17> H -0.7754673649 1.4853332658 1.2089225045
| 18> H 0.6417707595 -0.5880868497 1.3984712217
| 19> H 0.8047636985 -1.686324266 0.0108424384
| 20> H 1.9542965446 0.8691576565 0.1332180107
| 21> *
| 22>
| 23>                          ****END OF INPUT****

CARTESIAN COORDINATES (ANGSTROEM)
---------------------------------
  C     -1.735656   -0.818380   -0.023239
  C     -0.494148    0.007530   -0.347113
  C     -0.676440    1.449728    0.125077
  C      0.739685   -0.635410    0.303046
  O      1.957788   -0.063697   -0.107212
  H     -1.899451   -0.849148    1.052091
  H     -1.624325   -1.838451   -0.382733
  H     -2.614541   -0.382510   -0.492120
  H     -0.337720    0.008891   -1.431189
  H     -1.574539    1.877572   -0.314169
  H      0.165865    2.073369   -0.169888
  H     -0.775467    1.485333    1.208923
  H      0.641771   -0.588087    1.398471
  H      0.804764   -1.686324    0.010842
  H      1.954297    0.869158    0.133218

 Total Charge           Charge          ....    0
 Multiplicity           Mult            ....    1
 Number of Electrons    NEL             ....   42
 Basis Dimension        Dim             ....   90

ORBITAL ENERGIES
----------------

  NO   OCC          E(Eh)            E(eV)
   0   2.0000     -18.738125      -509.8903
   1   2.0000      -9.924028      -270.0465
   2   2.0000      -9.894673      -269.2477
   3   2.0000      -9.881792      -268.8972
   4   2.0000      -9.877117      -268.7700
   5   2.0000      -0.917214       -24.9587
   6   2.0000      -0.722785       -19.6680
   7   2.0000      -0.618969       -16.8430
   8   2.0000      -0.599923       -16.3247
   9   2.0000      -0.509053       -13.8520
  10   2.0000      -0.460875       -12.5410
  11   2.0000      -0.407912       -11.0999
  12   2.0000      -0.395627       -10.7656
  13   2.0000      -0.383128       -10.4255
  14   2.0000      -0.349034        -9.4977
  15   2.0000      -0.336796        -9.1647
  16   2.0000      -0.327239        -8.9046
  17   2.0000      -0.298356        -8.1187
  18   2.0000      -0.293197        -7.9783
  19   2.0000      -0.266617        -7.2550
  20   2.0000      -0.209977        -5.7138
  21   0.0000       0.023921         0.6509
  22   0.0000       0.048458         1.3186
  23   0.0000       0.069022         1.8782
  24   0.0000       0.082226         2.2375
  25   0.0000       0.097390         2.6501

MULLIKEN ATOMIC CHARGES
-----------------------
   0 C :   -0.257519
   1 C :   -0.192639
   2 C :   -0.274890
   3 C :    0.039435
   4 O :   -0.430224
   5 H :    0.095094
   6 H :    0.103658
   7 H :    0.102492
   8 H :    0.080358
   9 H :    0.107581
  10 H :    0.090373
  11 H :    0.096653
  12 H :    0.061960
  13 H :    0.084021
  14 H :    0.293648
Sum of atomic charges:   -0.0000000

LOEWDIN ATOMIC CHARGES
----------------------
   0 C :   -0.328897
   1 C :   -0.183092
   2 C :   -0.336956
   3 C :   -0.116919
   4 O :   -0.337018
   5 H :    0.116763
   6 H :    0.119027
   7 H :    0.119580
   8 H :    0.118162
   9 H :    0.122847
  10 H :    0.109582
  11 H :    0.116952
  12 H :    0.091178
  13 H :    0.110762
  14 H :    0.278029

  Mayer bond orders larger than 0.100000
B(  0-C ,  1-C ) :   1.0938 B(  0-C ,  5-H ) :   0.9501 B(  0-C ,  6-H ) :   0.9508
B(  0-C ,  7-H ) :   0.9499 B(  1-C ,  2-C ) :   1.0954 B(  1-C ,  3-C ) :   1.0505
B(  1-C ,  8-H ) :   0.8984 B(  2-C ,  9-H ) :   0.9513 B(  2-C , 10-H ) :   0.9420
B(  2-C , 11-H ) :   0.9502 B(  3-C ,  4-O ) :   1.0825 B(  3-C , 12-H ) :   0.9185
B(  3-C , 13-H ) :   0.9308 B(  4-O , 14-H ) :   0.8505

Dispersion correction           -0.009727519
FINAL SINGLE POINT ENERGY      -233.088955363722

DIPOLE MOMENT
-------------

Method             : SCF
Type of density    : Electron Density
Multiplicity       :   1
Irrep              :   0
Energy             :  -233.1486696713234323 Eh
Relativity type    :
Basis              : AO
                                X                 Y                 Z
Electronic contribution:      4.445445451      -0.546026959      -0.742068778
Nuclear contribution   :     -4.905076092       0.908888716       0.949187838
                        -----------------------------------------
Total Dipole Moment    :     -0.459630641       0.362861757       0.207119060
                        -----------------------------------------
Magnitude (a.u.)       :      0.621149971
Magnitude (Debye)      :      1.578837754

Rotational constants in cm-1:             0.253012             0.117105             0.088509
Rotational constants in MHz :          7585.115259          3510.711054          2653.419286

                             ****ORCA TERMINATED NORMALLY****
TOTAL RUN TIME: 0 days 0 hours 0 minutes 5 seconds 968 msec
