                         Program Version 6.0.1  -  RELEASE   -
|  1> ! r2scan-3c def2/J RI DEFGRID2 scfconv6 printgap
|  2> %output
|  3>     printlevel normal
|  4> end
|  5> * xyz 0 1
|  6> C -2.5523643303 -0.9064606943 0.2645804873
|  7> C -1.1346043971 -0.4455485952 0.6340553511
|  8> H -1.0351183123 -0.3832923719 1.7273206864
|  9> C -0.8514574345 0.9440166894 0.0433014933
| 10> H -1.1143677968 0.9245489608 -1.0298260662
| 11> C 0.6355571535 1.286643926 0.1893770947
| 12> H 0.8628617754 1.4501991383 1.2497993144
| 13> C 1.5193006491 0.1506209855 -0.3380326024
| 14> H 1.3312065044 0.0228961373 -1.4229604967
| 15> C 1.1191509483 -1.1614611355 0.369078285
| 16> H 1.2957553846 -1.0598192786 1.4503005537
| 17> O -0.2481008245 -1.4124341609 0.1080679171
| 18> O 1.8453621153 -2.2519170861 -0.0362414552
| 19> O 2.8739332996 0.4205219026 -0.1129273845
| 20> O 0.9504188752 2.5110386209 -0.4404735934
| 21> O -1.6468834772 1.8801608939 0.7227104448
| 22> O -2.6687397559 -1.140031072 -1.1114082746
| 23> H -3.2598321455 -0.1165653508 0.5188024843
| 24> H -2.789034355 -1.8134946027 0.8355129452
| 25> H 1.7441001268 -2.3716724589 -0.9889459933
| 26> H 3.0040565983 1.376113379 -0.1889531695
| 27> H 0.744497558 2.4443830811 -1.3820630108
| 28> H -1.2919453003 2.7605686509 0.5414742367
| 29> H -1.9807826821 -1.7750908061 -1.3474412413
| 30> *
| 31>
| 32>                          ****END OF INPUT****

CARTESIAN COORDINATES (ANGSTROEM)
---------------------------------
  C     -2.552364   -0.906461    0.264580
  C     -1.134604   -0.445549    0.634055
  H     -1.035118   -0.383292    1.727321
  C     -0.851457    0.944017    0.043301
  H     -1.114368    0.924549   -1.029826
  C      0.635557    1.286644    0.189377
  H      0.862862    1.450199    1.249799
  C      1.519301    0.150621   -0.338033
  H      1.331207    0.022896   -1.422960
  C      1.119151   -1.161461    0.369078
  H      1.295755   -1.059819    1.450301
  O     -0.248101   -1.412434    0.108068
  O      1.845362   -2.251917   -0.036241
  O      2.873933    0.420522   -0.112927
  O      0.950419    2.511039   -0.440474
  O     -1.646883    1.880161    0.722710
  O     -2.668740   -1.140031   -1.111408
  H     -3.259832   -0.116565    0.518802
  H     -2.789034   -1.813495    0.835513
  H      1.744100   -2.371672   -0.988946
  H      3.004057    1.376113   -0.188953
  H      0.744498    2.444383   -1.382063
  H     -1.291945    2.760569    0.541474
  H     -1.980783   -1.775091   -1.347441

 Total Charge           Charge          ....    0
 Multiplicity           Mult            ....    1
 Number of Electrons    NEL             ....   96
 Basis Dimension        Dim             ....  318

ORBITAL ENERGIES
----------------

  NO   OCC          E(Eh)            E(eV)
   0   2.0000     -18.986677      -516.6537
   1   2.0000     -18.979593      -516.4610
   2   2.0000     -18.972425      -516.2659
   3   2.0000     -18.965382      -516.0743
   4   2.0000     -18.963438      -516.0214
   5   2.0000     -18.952996      -515.7372
   6   2.0000     -10.147395      -276.1246
   7   2.0000     -10.104585      -274.9597
   8   2.0000     -10.100725      -274.8547
   9   2.0000     -10.099376      -274.8180
  10   2.0000     -10.097586      -274.7693
  11   2.0000     -10.081598      -274.3342
  12   2.0000      -1.060368       -28.8541
  13   2.0000      -1.032719       -28.1017
  14   2.0000      -1.010969       -27.5099
  15   2.0000      -0.999166       -27.1887
  16   2.0000      -0.996918       -27.1275
  17   2.0000      -0.984898       -26.8004
  18   2.0000      -0.759247       -20.6602
  19   2.0000      -0.743086       -20.2204
  20   2.0000      -0.663206       -18.0468
  21   2.0000      -0.627241       -17.0681
  22   2.0000      -0.608766       -16.5654
  23   2.0000      -0.577727       -15.7208
  24   2.0000      -0.523834       -14.2542
  25   2.0000      -0.520302       -14.1581
  26   2.0000      -0.500235       -13.6121
  27   2.0000      -0.481799       -13.1104
  28   2.0000      -0.478489       -13.0204
  29   2.0000      -0.464266       -12.6333
  30   2.0000      -0.454661       -12.3720
  31   2.0000      -0.446608       -12.1528
  32   2.0000      -0.401350       -10.9213
  33   2.0000      -0.398259       -10.8372
  34   2.0000      -0.392491       -10.6802
  35   2.0000      -0.388550       -10.5730
  36   2.0000      -0.354316        -9.6414
  37   2.0000      -0.345997        -9.4151
  38   2.0000      -0.337978        -9.1968
  39   2.0000      -0.321880        -8.7588
  40   2.0000      -0.317639        -8.6434
  41   2.0000      -0.306033        -8.3276
  42   2.0000      -0.292846        -7.9687
  43   2.0000      -0.269753        -7.3403
  44   2.0000      -0.266391        -7.2489
  45   2.0000      -0.249716        -6.7951
  46   2.0000      -0.240495        -6.5442
  47   2.0000      -0.237253        -6.4560
  48   0.0000       0.021286         0.5792
  49   0.0000       0.047601         1.2953
  50   0.0000       0.051043         1.3889
  51   0.0000       0.070208         1.9104
  52   0.0000       0.073430         1.9981

MULLIKEN ATOMIC CHARGES
-----------------------
   0 C :   -0.246175
   1 C :    0.047617
   2 H :    0.168326
   3 C :   -0.040542
   4 H :    0.191168
   5 C :   -0.138016
   6 H :    0.181589
   7 C :    0.098154
   8 H :    0.158263
   9 C :   -0.165769
  10 H :    0.156102
  11 O :   -0.216179
  12 O :   -0.343935
  13 O :   -0.407630
  14 O :   -0.435546
  15 O :   -0.432988
  16 O :   -0.424149
  17 H :    0.158944
  18 H :    0.141343
  19 H :    0.309957
  20 H :    0.318039
  21 H :    0.305261
  22 H :    0.310001
  23 H :    0.306166
Sum of atomic charges:    0.0000000

LOEWDIN ATOMIC CHARGES
----------------------
   0 C :    0.045514
   1 C :    0.117572
   2 H :    0.188871
   3 C :    0.100006
   4 H :    0.186160
   5 C :    0.092299
   6 H :    0.203295
   7 C :    0.105055
   8 H :    0.174446
   9 C :    0.300753
  10 H :    0.199827
  11 O :   -0.691811
  12 O :   -0.458234
  13 O :   -0.558446
  14 O :   -0.580794
  15 O :   -0.579711
  16 O :   -0.589919
  17 H :    0.195299
  18 H :    0.165834
  19 H :    0.276681
  20 H :    0.281812
  21 H :    0.272133
  22 H :    0.279548
  23 H :    0.273810

  Mayer bond orders larger than 0.100000
B(  0-C ,  1-C ) :   0.9429 B(  0-C , 16-O ) :   1.0280 B(  0-C , 17-H ) :   0.9624
B(  0-C , 18-H ) :   0.9791 B(  1-C ,  2-H ) :   0.9254 B(  1-C ,  3-C ) :   0.8370
B(  1-C , 11-O ) :   0.7682 B(  1-C , 16-O ) :  -0.1097 B(  3-C ,  4-H ) :   0.9983
B(  3-C ,  5-C ) :   0.8558 B(  3-C , 15-O ) :   0.8499 B(  5-C ,  6-H ) :   0.9685
B(  5-C ,  7-C ) :   0.9074 B(  5-C , 14-O ) :   1.0420 B(  7-C ,  8-H ) :   0.9435
B(  7-C ,  9-C ) :   0.8294 B(  7-C , 13-O ) :   0.8810 B(  9-C , 10-H ) :   1.0065
B(  9-C , 11-O ) :   0.9296 B(  9-C , 12-O ) :   1.1452 B( 12-O , 19-H ) :   0.8772
B( 13-O , 20-H ) :   0.8682 B( 14-O , 21-H ) :   0.8863 B( 15-O , 22-H ) :   0.8781
B( 16-O , 23-H ) :   0.8741

Dispersion correction           -0.008114555
FINAL SINGLE POINT ENERGY      -687.075915410713

DIPOLE MOMENT
-------------

Method             : SCF
Type of density    : Electron Density
Multiplicity       :   1
Irrep              :   0
Energy             :  -687.0873898464803915 Eh
Relativity type    :
Basis              : AO
                                X                 Y                 Z
Electronic contribution:      2.446770032      -0.772541144      -0.446063820
Nuclear contribution   :     -2.318347954       1.368687349      -0.047585945
                        -----------------------------------------
Total Dipole Moment    :      0.128422079       0.596146206      -0.493649766
                        -----------------------------------------
Magnitude (a.u.)       :      0.784584361
Magnitude (Debye)      :      1.994254960

Rotational constants in cm-1:             0.038416             0.027539             0.017952
Rotational constants in MHz :          1151.671308           825.591018           538.175358

                             ****ORCA TERMINATED NORMALLY****
TOTAL RUN TIME: 0 days 0 hours 0 minutes 47 seconds 438 msec
