                         Program Version 6.0.0  -   RELEASE  -
|  1> ! r2SCAN-3c DEF2-TZVP FREQ
|  2> * xyzfile 0 1 censo.xyz
|  3>
|  4>                          ****END OF INPUT****

CARTESIAN COORDINATES (ANGSTROEM)
---------------------------------
  C     -0.692899   -0.621131   -0.318501
  C      0.693779   -0.587954    0.285377
  O      1.452253    0.545076   -0.166353
  O     -1.456033    0.545050    0.041197
  H     -1.207105   -1.539317   -0.000902
  H     -0.630624   -0.616186   -1.411369
  H      1.246383   -1.482073   -0.021496
  H      0.622188   -0.587434    1.383960
  H      0.932311    1.330318    0.052587
  H     -1.586300    0.518926    0.998605

 Total Charge           Charge          ....    0
 Multiplicity           Mult            ....    1
 Number of Electrons    NEL             ....   34
 Basis Dimension        Dim             ....  160

ORBITAL ENERGIES
----------------

  NO   OCC          E(Eh)            E(eV)
   0   2.0000     -18.962858      -516.0056
   1   2.0000     -18.948914      -515.6262
   2   2.0000     -10.084631      -274.4168
   3   2.0000     -10.083468      -274.3851
   4   2.0000      -0.997526       -27.1441
   5   2.0000      -0.973289       -26.4845
   6   2.0000      -0.710343       -19.3294
   7   2.0000      -0.596527       -16.2323
   8   2.0000      -0.491415       -13.3721
   9   2.0000      -0.464372       -12.6362
  10   2.0000      -0.429520       -11.6878
  11   2.0000      -0.410754       -11.1772
  12   2.0000      -0.372337       -10.1318
  13   2.0000      -0.317953        -8.6519
  14   2.0000      -0.307982        -8.3806
  15   2.0000      -0.264914        -7.2087
  16   2.0000      -0.236779        -6.4431
  17   0.0000       0.020325         0.5531
  18   0.0000       0.064458         1.7540
  19   0.0000       0.078716         2.1420
  20   0.0000       0.090481         2.4621
  21   0.0000       0.115802         3.1511

MULLIKEN ATOMIC CHARGES
-----------------------
   0 C :   -0.003547
   1 C :   -0.005491
   2 O :   -0.464792
   3 O :   -0.471601
   4 H :    0.077458
   5 H :    0.100771
   6 H :    0.088639
   7 H :    0.072324
   8 H :    0.307538
   9 H :    0.298702
Sum of atomic charges:    0.0000000

LOEWDIN ATOMIC CHARGES
----------------------
   0 C :   -0.350494
   1 C :   -0.354890
   2 O :   -0.057106
   3 O :   -0.061270
   4 H :    0.116084
   5 H :    0.129272
   6 H :    0.129600
   7 H :    0.110262
   8 H :    0.169825
   9 H :    0.168716

  Mayer bond orders larger than 0.100000
B(  0-C ,  1-C ) :   0.9883 B(  0-C ,  3-O ) :   0.9550 B(  0-C ,  4-H ) :   0.9574
B(  0-C ,  5-H ) :   0.9568 B(  1-C ,  2-O ) :   0.9769 B(  1-C ,  6-H ) :   0.9528
B(  1-C ,  7-H ) :   0.9545 B(  2-O ,  8-H ) :   0.8861 B(  3-O ,  9-H ) :   0.9004

Dispersion correction           -0.001585819
FINAL SINGLE POINT ENERGY      -230.222278742004

DIPOLE MOMENT
-------------

Method             : SCF
Type of density    : Electron Density
Multiplicity       :   1
Irrep              :   0
Energy             :  -230.2280287020205378 Eh
Relativity type    :
Basis              : AO
                                X                 Y                 Z
Electronic contribution:      0.131614790       1.829813581      -0.385472627
Nuclear contribution   :     -0.522862299      -2.260521245       1.064424452
                        -----------------------------------------
Total Dipole Moment    :     -0.391247509      -0.430707664       0.678951825
                        -----------------------------------------
Magnitude (a.u.)       :      0.894180790
Magnitude (Debye)      :      2.272826945

VIBRATIONAL FREQUENCIES
-----------------------

Scaling factor for frequencies =  1.000000000  (already applied!)

     0:       0.00 cm**-1
     1:       0.00 cm**-1
     2:       0.00 cm**-1
     3:       0.00 cm**-1
     4:       0.00 cm**-1
     5:       0.00 cm**-1
     6:     181.88 cm**-1
     7:     319.07 cm**-1
     8:     370.44 cm**-1
     9:     428.64 cm**-1
    10:     538.72 cm**-1
    11:     855.53 cm**-1
    12:     869.80 cm**-1
    13:    1014.06 cm**-1
    14:    1050.21 cm**-1
    15:    1067.02 cm**-1
    16:    1177.73 cm**-1
    17:    1245.94 cm**-1
    18:    1361.15 cm**-1
    19:    1369.03 cm**-1
    20:    1396.59 cm**-1
    21:    1417.96 cm**-1
    22:    1478.22 cm**-1
    23:    1480.28 cm**-1
    24:    2965.92 cm**-1
    25:    2989.97 cm**-1
    26:    3066.51 cm**-1
    27:    3080.69 cm**-1
    28:    3757.91 cm**-1
    29:    3761.01 cm**-1

IR SPECTRUM
-----------

 Mode   freq       eps      Int      T**2         TX        TY        TZ
       cm**-1   L/(mol*cm) km/mol    a.u.
----------------------------------------------------------------------------
  6:    181.88   0.002408   12.17  0.004132  (-0.049178 -0.036957 -0.018648)
  7:    319.07   0.003679   18.59  0.003598  (-0.023985 -0.021286 -0.050695)
  8:    370.44   0.011738   59.32  0.009888  (-0.064329 -0.042831  0.062571)
  9:    428.64   0.029443  148.79  0.021435  (-0.114420 -0.042686 -0.080756)
 10:    538.72   0.006916   34.95  0.004006  ( 0.055475  0.017191  0.025161)
 11:    855.53   0.007382   37.31  0.002693  (-0.008862  0.050424 -0.008470)
 12:    869.80   0.005439   27.49  0.001951  ( 0.043443  0.003113 -0.007370)
 13:   1014.06   0.012976   65.58  0.003993  ( 0.056915  0.004396 -0.027103)
 14:   1050.21   0.012943   65.41  0.003846  (-0.006871  0.061584 -0.002508)
 15:   1067.02   0.004814   24.33  0.001408  (-0.003637 -0.037275  0.002277)
 16:   1177.73   0.004478   22.63  0.001186  (-0.000570 -0.034223 -0.003864)
 17:   1245.94   0.003574   18.06  0.000895  ( 0.026891  0.006390 -0.011460)
 18:   1361.15   0.000126    0.64  0.000029  ( 0.005273 -0.001043  0.000092)
 19:   1369.03   0.000585    2.96  0.000133  ( 0.005124 -0.010268 -0.001323)
 20:   1396.59   0.007144   36.10  0.001596  ( 0.037962 -0.003773 -0.011869)
 21:   1417.96   0.008736   44.15  0.001923  (-0.009168 -0.042293  0.007069)
 22:   1478.22   0.001018    5.15  0.000215  (-0.012045 -0.002770 -0.007888)
 23:   1480.28   0.000154    0.78  0.000032  ( 0.004951  0.001133 -0.002577)
 24:   2965.92   0.011263   56.92  0.001185  (-0.000559  0.007302 -0.033637)
 25:   2989.97   0.013038   65.89  0.001361  (-0.013178 -0.034285  0.003417)
 26:   3066.51   0.005396   27.27  0.000549  (-0.006642  0.022431  0.001367)
 27:   3080.69   0.006688   33.80  0.000677  ( 0.008597 -0.001564 -0.024518)
 28:   3757.91   0.005906   29.84  0.000490  ( 0.010166 -0.015078 -0.012637)
 29:   3761.01   0.002990   15.11  0.000248  (-0.001997  0.014184 -0.006553)

--------------------------
THERMOCHEMISTRY AT 298.15K
--------------------------

Temperature         ...   298.15 K
Pressure            ...     1.00 atm
Total Mass          ...    62.07 AMU
Quasi RRHO          ...     True
Cut-Off Frequency   ...     1.00 cm^-1

Throughout the following assumptions are being made:
  (1) The electronic state is orbitally nondegenerate
  (2) There are no thermally accessible electronically excited states
  (3) Hindered rotations indicated by low frequency modes are not
      treated as such but are treated as vibrations and this may
      cause some error
  (4) All equations used are the standard statistical mechanics
      equations for an ideal gas
  (5) All vibrations are strictly harmonic

freq.     181.88  E(vib)   ...       0.37
freq.     319.07  E(vib)   ...       0.25
freq.     370.44  E(vib)   ...       0.21
freq.     428.64  E(vib)   ...       0.18
freq.     538.72  E(vib)   ...       0.12
freq.     855.53  E(vib)   ...       0.04
freq.     869.80  E(vib)   ...       0.04
freq.    1014.06  E(vib)   ...       0.02
freq.    1050.21  E(vib)   ...       0.02
freq.    1067.02  E(vib)   ...       0.02
freq.    1177.73  E(vib)   ...       0.01
freq.    1245.94  E(vib)   ...       0.01
freq.    1361.15  E(vib)   ...       0.01
freq.    1369.03  E(vib)   ...       0.01
freq.    1396.59  E(vib)   ...       0.00
freq.    1417.96  E(vib)   ...       0.00
freq.    1478.22  E(vib)   ...       0.00
freq.    1480.28  E(vib)   ...       0.00
freq.    2965.92  E(vib)   ...       0.00
freq.    2989.97  E(vib)   ...       0.00
freq.    3066.51  E(vib)   ...       0.00
freq.    3080.69  E(vib)   ...       0.00
freq.    3757.91  E(vib)   ...       0.00
freq.    3761.01  E(vib)   ...       0.00

------------
INNER ENERGY
------------

The inner energy is: U= E(el) + E(ZPE) + E(vib) + E(rot) + E(trans)
    E(el)   - is the total energy from the electronic structure calculation
              = E(kin-el) + E(nuc-el) + E(el-el) + E(nuc-nuc)
    E(ZPE)  - the the zero temperature vibrational energy from the frequency calculation
    E(vib)  - the the finite temperature correction to E(ZPE) due to population
              of excited vibrational states
    E(rot)  - is the rotational thermal energy
    E(trans)- is the translational thermal energy

Summary of contributions to the inner energy U:
Electronic energy                ...   -230.22227874 Eh
Zero point energy                ...      0.08484871 Eh      53.24 kcal/mol
Thermal vibrational correction   ...      0.00209792 Eh       1.32 kcal/mol
Thermal rotational correction    ...      0.00141627 Eh       0.89 kcal/mol
Thermal translational correction ...      0.00141627 Eh       0.89 kcal/mol
-----------------------------------------------------------------------
Total thermal energy                   -230.13249957 Eh

Summary of corrections to the electronic energy:
(perhaps to be used in another calculation)
Total thermal correction                  0.00493046 Eh       3.09 kcal/mol
Non-thermal (ZPE) correction              0.08484871 Eh      53.24 kcal/mol
-----------------------------------------------------------------------
Total correction                          0.08977917 Eh      56.34 kcal/mol

--------
ENTHALPY
--------

The enthalpy is H = U + kB*T
                kB is Boltzmann's constant
Total thermal energy              ...   -230.13249957 Eh
Thermal Enthalpy correction       ...      0.00094421 Eh       0.59 kcal/mol
-----------------------------------------------------------------------
Total Enthalpy                    ...   -230.13155536 Eh

Note: Only C1 symmetry has been detected, increase convergence thresholds
      if your molecule has a higher symmetry. Symmetry factor of 1.0 is
      used for the rotational entropy correction.

Note: Rotational entropy computed according to Herzberg
Infrared and Raman Spectra, Chapter V,1, Van Nostrand Reinhold, 1945
Point Group:  C1, Symmetry Number:   1
Rotational constants in cm-1:     0.507013     0.179279     0.150356

Vibrational entropy computed according to the QRRHO of S. Grimme
Chem.Eur.J. 2012 18 9955 using a reference frequency of 100.0 cm-1

-------
ENTROPY
-------

The entropy contributions are T*S = T*(S(el)+S(vib)+S(rot)+S(trans))
     S(el)   - electronic entropy
     S(vib)  - vibrational entropy
     S(rot)  - rotational entropy
     S(trans)- translational entropy
The entropies will be listed as multiplied by the temperature to get
units of energy

Electronic entropy                ...      0.00000000 Eh      0.00 kcal/mol
Vibrational entropy               ...      0.00326882 Eh      2.05 kcal/mol
Rotational entropy                ...      0.01153739 Eh      7.24 kcal/mol
Translational entropy             ...      0.01819577 Eh     11.42 kcal/mol
-----------------------------------------------------------------------
Final entropy term                ...      0.03300197 Eh     20.71 kcal/mol

In case the symmetry of your molecule has not been determined correctly
or in case you have a reason to use a different symmetry number we print
out the resulting rotational entropy values for sn=1,12:

 non-linear molecules -----------------------------------
|  sn= 1 | S(rot)=       0.01153739 Eh      7.24 kcal/mol|
|  sn= 2 | S(rot)=       0.01088293 Eh      6.83 kcal/mol|
|  sn= 3 | S(rot)=       0.01050010 Eh      6.59 kcal/mol|
|  sn= 4 | S(rot)=       0.01022848 Eh      6.42 kcal/mol|
|  sn= 5 | S(rot)=       0.01001779 Eh      6.29 kcal/mol|
|  sn= 6 | S(rot)=       0.00984564 Eh      6.18 kcal/mol|
|  sn= 7 | S(rot)=       0.00970010 Eh      6.09 kcal/mol|
|  sn= 8 | S(rot)=       0.00957402 Eh      6.01 kcal/mol|
|  sn= 9 | S(rot)=       0.00946281 Eh      5.94 kcal/mol|
|  sn=10 | S(rot)=       0.00936333 Eh      5.88 kcal/mol|
|  sn=11 | S(rot)=       0.00927334 Eh      5.82 kcal/mol|
|  sn=12 | S(rot)=       0.00919119 Eh      5.77 kcal/mol|
 linear molecules ---------------------------------------
|  Dinfh | S(rot)=       0.00711479 Eh      4.46 kcal/mol|
|  Cinfv | S(rot)=       0.00776925 Eh      4.88 kcal/mol|
 --------------------------------------------------------

-------------------
GIBBS FREE ENERGY
-------------------

The Gibbs free energy is G = H - T*S

Total enthalpy                    ...   -230.13155536 Eh
Total entropy correction          ...     -0.03300197 Eh    -20.71 kcal/mol
-----------------------------------------------------------------------
Final Gibbs free energy         ...   -230.16455734 Eh

For completeness - the Gibbs free energy minus the electronic energy
G-E(el)                           ...      0.05772140 Eh     36.22 kcal/mol

                             ****ORCA TERMINATED NORMALLY****
TOTAL RUN TIME: 0 days 0 hours 2 minutes 33 seconds 896 msec
