                         Program Version 6.0.0  -   RELEASE  -
|  1> ! r2SCAN-3c DEF2-TZVP FREQ
|  2> * xyzfile 0 1 vacuum_censo.xyz
|  3>
|  4>                          ****END OF INPUT****

CARTESIAN COORDINATES (ANGSTROEM)
---------------------------------
  C     -0.710869   -0.590336   -0.280082
  C      0.699470   -0.646314    0.267630
  O      1.378370    0.515004   -0.234308
  O     -1.410001    0.558942    0.183020
  H     -1.272908   -1.465697    0.061986
  H     -0.672461   -0.614120   -1.381157
  H      1.195478   -1.570081   -0.069859
  H      0.667109   -0.636255    1.366678
  H      2.191407    0.635932    0.264536
  H     -0.843610    1.315014   -0.015929

 Total Charge           Charge          ....    0
 Multiplicity           Mult            ....    1
 Number of Electrons    NEL             ....   34
 Basis Dimension        Dim             ....  160

ORBITAL ENERGIES
----------------

  NO   OCC          E(Eh)            E(eV)
   0   2.0000     -18.962345      -515.9916
   1   2.0000     -18.942805      -515.4599
   2   2.0000     -10.084590      -274.4156
   3   2.0000     -10.077166      -274.2136
   4   2.0000      -0.998801       -27.1788
   5   2.0000      -0.972255       -26.4564
   6   2.0000      -0.708602       -19.2820
   7   2.0000      -0.585255       -15.9256
   8   2.0000      -0.501561       -13.6482
   9   2.0000      -0.462685       -12.5903
  10   2.0000      -0.430557       -11.7161
  11   2.0000      -0.391143       -10.6435
  12   2.0000      -0.374581       -10.1929
  13   2.0000      -0.326500        -8.8845
  14   2.0000      -0.300474        -8.1763
  15   2.0000      -0.255093        -6.9414
  16   2.0000      -0.236390        -6.4325
  17   0.0000       0.026316         0.7161
  18   0.0000       0.070409         1.9159
  19   0.0000       0.074372         2.0238
  20   0.0000       0.109792         2.9876
  21   0.0000       0.119429         3.2498

MULLIKEN ATOMIC CHARGES
-----------------------
   0 C :    0.056386
   1 C :   -0.035827
   2 O :   -0.482793
   3 O :   -0.479668
   4 H :    0.084808
   5 H :    0.076689
   6 H :    0.072608
   7 H :    0.089194
   8 H :    0.307638
   9 H :    0.310965
Sum of atomic charges:    0.0000000

LOEWDIN ATOMIC CHARGES
----------------------
   0 C :   -0.353012
   1 C :   -0.355306
   2 O :   -0.060093
   3 O :   -0.048320
   4 H :    0.127760
   5 H :    0.116873
   6 H :    0.115102
   7 H :    0.115396
   8 H :    0.169269
   9 H :    0.172332

  Mayer bond orders larger than 0.100000
B(  0-C ,  1-C ) :   0.9851 B(  0-C ,  3-O ) :   0.9873 B(  0-C ,  4-H ) :   0.9558
B(  0-C ,  5-H ) :   0.9580 B(  1-C ,  2-O ) :   1.0045 B(  1-C ,  6-H ) :   0.9543
B(  1-C ,  7-H ) :   0.9606 B(  2-O ,  8-H ) :   0.9015 B(  3-O ,  9-H ) :   0.8835

Dispersion correction           -0.001573596
FINAL SINGLE POINT ENERGY      -230.223324702996

DIPOLE MOMENT
-------------

Method             : SCF
Type of density    : Electron Density
Multiplicity       :   1
Irrep              :   0
Energy             :  -230.2291788785428821 Eh
Relativity type    :
Basis              : AO
                                X                 Y                 Z
Electronic contribution:     -0.261789293       1.844840656      -0.062370058
Nuclear contribution   :      1.128706915      -2.172653561       0.279158486
                        -----------------------------------------
Total Dipole Moment    :      0.866917622      -0.327812905       0.216788428
                        -----------------------------------------
Magnitude (a.u.)       :      0.951842784
Magnitude (Debye)      :      2.419392086

VIBRATIONAL FREQUENCIES
-----------------------

Scaling factor for frequencies =  1.000000000  (already applied!)

     0:       0.00 cm**-1
     1:       0.00 cm**-1
     2:       0.00 cm**-1
     3:       0.00 cm**-1
     4:       0.00 cm**-1
     5:       0.00 cm**-1
     6:     178.77 cm**-1
     7:     255.78 cm**-1
     8:     330.44 cm**-1
     9:     425.06 cm**-1
    10:     525.87 cm**-1
    11:     867.25 cm**-1
    12:     884.46 cm**-1
    13:    1037.07 cm**-1
    14:    1059.65 cm**-1
    15:    1104.05 cm**-1
    16:    1179.47 cm**-1
    17:    1252.74 cm**-1
    18:    1293.52 cm**-1
    19:    1373.69 cm**-1
    20:    1413.18 cm**-1
    21:    1436.06 cm**-1
    22:    1484.71 cm**-1
    23:    1493.32 cm**-1
    24:    2961.77 cm**-1
    25:    2966.11 cm**-1
    26:    3018.17 cm**-1
    27:    3067.92 cm**-1
    28:    3778.97 cm**-1
    29:    3836.44 cm**-1

IR SPECTRUM
-----------

 Mode   freq       eps      Int      T**2         TX        TY        TZ
       cm**-1   L/(mol*cm) km/mol    a.u.
----------------------------------------------------------------------------
  6:    178.77   0.001509    7.62  0.002634  ( 0.034901 -0.037575  0.001923)
  7:    255.78   0.021496  108.63  0.026226  ( 0.083941 -0.087473 -0.107372)
  8:    330.44   0.001971    9.96  0.001861  (-0.038756  0.002603 -0.018767)
  9:    425.06   0.023998  121.27  0.017618  ( 0.062831 -0.025696  0.114062)
 10:    525.87   0.003436   17.37  0.002039  ( 0.029205  0.031523  0.013876)
 11:    867.25   0.007149   36.13  0.002573  (-0.015062 -0.048145 -0.005272)
 12:    884.46   0.003616   18.28  0.001276  ( 0.031407 -0.004654 -0.016367)
 13:   1037.07   0.012904   65.21  0.003883  ( 0.051014 -0.026367 -0.024190)
 14:   1059.65   0.018482   93.40  0.005443  (-0.008783 -0.072275  0.011916)
 15:   1104.05   0.002443   12.35  0.000691  (-0.013474  0.019110  0.011993)
 16:   1179.47   0.004491   22.69  0.001188  ( 0.030026 -0.000581 -0.016918)
 17:   1252.74   0.000867    4.38  0.000216  ( 0.008282  0.001162 -0.012088)
 18:   1293.52   0.008693   43.93  0.002097  ( 0.004047  0.043800 -0.012741)
 19:   1373.69   0.000237    1.20  0.000054  ( 0.006242 -0.001413 -0.003582)
 20:   1413.18   0.006498   32.84  0.001435  (-0.027119  0.026116  0.004184)
 21:   1436.06   0.003832   19.37  0.000833  (-0.017665  0.019438  0.011953)
 22:   1484.71   0.000640    3.23  0.000135  ( 0.010503  0.001457  0.004701)
 23:   1493.32   0.001034    5.23  0.000216  (-0.014317 -0.000914 -0.003217)
 24:   2961.77   0.010926   55.22  0.001151  ( 0.010250 -0.025580  0.019794)
 25:   2966.11   0.008497   42.94  0.000894  ( 0.000975 -0.022739 -0.019389)
 26:   3018.17   0.013513   68.29  0.001397  (-0.006507  0.017452  0.032408)
 27:   3067.92   0.006645   33.58  0.000676  (-0.009642 -0.019719  0.013933)
 28:   3778.97   0.006399   32.34  0.000528  (-0.009615 -0.020821  0.001577)
 29:   3836.44   0.006683   33.77  0.000544  (-0.020074 -0.008644 -0.008118)

--------------------------
THERMOCHEMISTRY AT 298.15K
--------------------------

Temperature         ...   298.15 K
Pressure            ...     1.00 atm
Total Mass          ...    62.07 AMU
Quasi RRHO          ...     True
Cut-Off Frequency   ...     1.00 cm^-1

Throughout the following assumptions are being made:
  (1) The electronic state is orbitally nondegenerate
  (2) There are no thermally accessible electronically excited states
  (3) Hindered rotations indicated by low frequency modes are not
      treated as such but are treated as vibrations and this may
      cause some error
  (4) All equations used are the standard statistical mechanics
      equations for an ideal gas
  (5) All vibrations are strictly harmonic

freq.     178.77  E(vib)   ...       0.37
freq.     255.78  E(vib)   ...       0.30
freq.     330.44  E(vib)   ...       0.24
freq.     425.06  E(vib)   ...       0.18
freq.     525.87  E(vib)   ...       0.13
freq.     867.25  E(vib)   ...       0.04
freq.     884.46  E(vib)   ...       0.04
freq.    1037.07  E(vib)   ...       0.02
freq.    1059.65  E(vib)   ...       0.02
freq.    1104.05  E(vib)   ...       0.02
freq.    1179.47  E(vib)   ...       0.01
freq.    1252.74  E(vib)   ...       0.01
freq.    1293.52  E(vib)   ...       0.01
freq.    1373.69  E(vib)   ...       0.01
freq.    1413.18  E(vib)   ...       0.00
freq.    1436.06  E(vib)   ...       0.00
freq.    1484.71  E(vib)   ...       0.00
freq.    1493.32  E(vib)   ...       0.00
freq.    2961.77  E(vib)   ...       0.00
freq.    2966.11  E(vib)   ...       0.00
freq.    3018.17  E(vib)   ...       0.00
freq.    3067.92  E(vib)   ...       0.00
freq.    3778.97  E(vib)   ...       0.00
freq.    3836.44  E(vib)   ...       0.00

------------
INNER ENERGY
------------

The inner energy is: U= E(el) + E(ZPE) + E(vib) + E(rot) + E(trans)
    E(el)   - is the total energy from the electronic structure calculation
              = E(kin-el) + E(nuc-el) + E(el-el) + E(nuc-nuc)
    E(ZPE)  - the the zero temperature vibrational energy from the frequency calculation
    E(vib)  - the the finite temperature correction to E(ZPE) due to population
              of excited vibrational states
    E(rot)  - is the rotational thermal energy
    E(trans)- is the translational thermal energy

Summary of contributions to the inner energy U:
Electronic energy                ...   -230.22332470 Eh
Zero point energy                ...      0.08480362 Eh      53.21 kcal/mol
Thermal vibrational correction   ...      0.00222745 Eh       1.40 kcal/mol
Thermal rotational correction    ...      0.00141627 Eh       0.89 kcal/mol
Thermal translational correction ...      0.00141627 Eh       0.89 kcal/mol
-----------------------------------------------------------------------
Total thermal energy                   -230.13346109 Eh

Summary of corrections to the electronic energy:
(perhaps to be used in another calculation)
Total thermal correction                  0.00506000 Eh       3.18 kcal/mol
Non-thermal (ZPE) correction              0.08480362 Eh      53.21 kcal/mol
-----------------------------------------------------------------------
Total correction                          0.08986361 Eh      56.39 kcal/mol

--------
ENTHALPY
--------

The enthalpy is H = U + kB*T
                kB is Boltzmann's constant
Total thermal energy              ...   -230.13346109 Eh
Thermal Enthalpy correction       ...      0.00094421 Eh       0.59 kcal/mol
-----------------------------------------------------------------------
Total Enthalpy                    ...   -230.13251688 Eh

Note: Only C1 symmetry has been detected, increase convergence thresholds
      if your molecule has a higher symmetry. Symmetry factor of 1.0 is
      used for the rotational entropy correction.

Note: Rotational entropy computed according to Herzberg
Infrared and Raman Spectra, Chapter V,1, Van Nostrand Reinhold, 1945
Point Group:  C1, Symmetry Number:   1
Rotational constants in cm-1:     0.510496     0.185654     0.153543

Vibrational entropy computed according to the QRRHO of S. Grimme
Chem.Eur.J. 2012 18 9955 using a reference frequency of 100.0 cm-1

-------
ENTROPY
-------

The entropy contributions are T*S = T*(S(el)+S(vib)+S(rot)+S(trans))
     S(el)   - electronic entropy
     S(vib)  - vibrational entropy
     S(rot)  - rotational entropy
     S(trans)- translational entropy
The entropies will be listed as multiplied by the temperature to get
units of energy

Electronic entropy                ...      0.00000000 Eh      0.00 kcal/mol
Vibrational entropy               ...      0.00355080 Eh      2.23 kcal/mol
Rotational entropy                ...      0.01150776 Eh      7.22 kcal/mol
Translational entropy             ...      0.01819577 Eh     11.42 kcal/mol
-----------------------------------------------------------------------
Final entropy term                ...      0.03325432 Eh     20.87 kcal/mol

In case the symmetry of your molecule has not been determined correctly
or in case you have a reason to use a different symmetry number we print
out the resulting rotational entropy values for sn=1,12:

 non-linear molecules -----------------------------------
|  sn= 1 | S(rot)=       0.01150776 Eh      7.22 kcal/mol|
|  sn= 2 | S(rot)=       0.01085331 Eh      6.81 kcal/mol|
|  sn= 3 | S(rot)=       0.01047047 Eh      6.57 kcal/mol|
|  sn= 4 | S(rot)=       0.01019885 Eh      6.40 kcal/mol|
|  sn= 5 | S(rot)=       0.00998816 Eh      6.27 kcal/mol|
|  sn= 6 | S(rot)=       0.00981602 Eh      6.16 kcal/mol|
|  sn= 7 | S(rot)=       0.00967047 Eh      6.07 kcal/mol|
|  sn= 8 | S(rot)=       0.00954439 Eh      5.99 kcal/mol|
|  sn= 9 | S(rot)=       0.00943318 Eh      5.92 kcal/mol|
|  sn=10 | S(rot)=       0.00933371 Eh      5.86 kcal/mol|
|  sn=11 | S(rot)=       0.00924372 Eh      5.80 kcal/mol|
|  sn=12 | S(rot)=       0.00916156 Eh      5.75 kcal/mol|
 linear molecules ---------------------------------------
|  Dinfh | S(rot)=       0.00709499 Eh      4.45 kcal/mol|
|  Cinfv | S(rot)=       0.00774945 Eh      4.86 kcal/mol|
 --------------------------------------------------------

-------------------
GIBBS FREE ENERGY
-------------------

The Gibbs free energy is G = H - T*S

Total enthalpy                    ...   -230.13251688 Eh
Total entropy correction          ...     -0.03325432 Eh    -20.87 kcal/mol
-----------------------------------------------------------------------
Final Gibbs free energy         ...   -230.16577120 Eh

For completeness - the Gibbs free energy minus the electronic energy
G-E(el)                           ...      0.05755350 Eh     36.12 kcal/mol

                             ****ORCA TERMINATED NORMALLY****
TOTAL RUN TIME: 0 days 0 hours 2 minutes 34 seconds 52 msec
