                         Program Version 6.0.1  -  RELEASE   -
|  1> ! r2scan-3c def2/J RI DEFGRID2 scfconv6 printgap
|  2> %output
|  3>     printlevel normal
|  4> end
|  5> * xyz 0 1
|  6> C -2.3272102823 0.8769848088 0.2792193501
|  7> C -1.9165718982 -0.5141847701 -0.220657855
|  8> C -0.6295014705 -1.0109053024 0.4116172471
|  9> Br 0.8944540139 0.1107514168 -0.0897314935
| 10> H -3.2913574498 0.8457323748 0.7795515646
| 11> H -1.5981953643 1.2677018413 0.9854523693
| 12> H -2.3969489589 1.5835230088 -0.5431369265
| 13> H -1.7982999537 -0.5061398767 -1.305963443
| 14> H -2.6933196015 -1.2459407222 0.0161065966
| 15> H -0.3801816307 -2.0180459378 0.079000449
| 16> H -0.6777359303 -0.9835713192 1.4996436076
| 17> *
| 18>
| 19>                          ****END OF INPUT****

CARTESIAN COORDINATES (ANGSTROEM)
---------------------------------
  C     -2.327210    0.876985    0.279219
  C     -1.916572   -0.514185   -0.220658
  C     -0.629501   -1.010905    0.411617
  Br     0.894454    0.110751   -0.089731
  H     -3.291357    0.845732    0.779552
  H     -1.598195    1.267702    0.985452
  H     -2.396949    1.583523   -0.543137
  H     -1.798300   -0.506140   -1.305963
  H     -2.693320   -1.245941    0.016107
  H     -0.380182   -2.018046    0.079000
  H     -0.677736   -0.983571    1.499644

 Total Charge           Charge          ....    0
 Multiplicity           Mult            ....    1
 Number of Electrons    NEL             ....   60
 Basis Dimension        Dim             ....  128

ORBITAL ENERGIES
----------------

  NO   OCC          E(Eh)            E(eV)
   0   2.0000    -482.211201    -13121.6339
   1   2.0000     -62.283239     -1694.8131
   2   2.0000     -56.063688     -1525.5705
   3   2.0000     -56.061049     -1525.4987
   4   2.0000     -56.060865     -1525.4937
   5   2.0000     -10.092109      -274.6202
   6   2.0000     -10.047051      -273.3941
   7   2.0000     -10.024272      -272.7743
   8   2.0000      -8.615517      -234.4401
   9   2.0000      -6.422881      -174.7755
  10   2.0000      -6.409381      -174.4081
  11   2.0000      -6.409317      -174.4064
  12   2.0000      -2.520505       -68.5864
  13   2.0000      -2.517117       -68.4942
  14   2.0000      -2.517067       -68.4929
  15   2.0000      -2.507034       -68.2199
  16   2.0000      -2.507023       -68.2196
  17   2.0000      -0.793771       -21.5996
  18   2.0000      -0.721111       -19.6224
  19   2.0000      -0.644056       -17.5256
  20   2.0000      -0.561568       -15.2810
  21   2.0000      -0.444520       -12.0960
  22   2.0000      -0.436660       -11.8821
  23   2.0000      -0.393679       -10.7126
  24   2.0000      -0.364196        -9.9103
  25   2.0000      -0.333121        -9.0647
  26   2.0000      -0.329811        -8.9746
  27   2.0000      -0.311193        -8.4680
  28   2.0000      -0.250694        -6.8217
  29   2.0000      -0.249038        -6.7767
  30   0.0000      -0.021477        -0.5844
  31   0.0000       0.090174         2.4538
  32   0.0000       0.106149         2.8885
  33   0.0000       0.121799         3.3143
  34   0.0000       0.133541         3.6338

MULLIKEN ATOMIC CHARGES
-----------------------
   0 C :   -0.485892
   1 C :   -0.212942
   2 C :   -0.235401
   3 Br:   -0.176098
   4 H :    0.147608
   5 H :    0.167645
   6 H :    0.157549
   7 H :    0.160733
   8 H :    0.145660
   9 H :    0.165973
  10 H :    0.165164
Sum of atomic charges:   -0.0000000

LOEWDIN ATOMIC CHARGES
----------------------
   0 C :   -0.435977
   1 C :   -0.341472
   2 C :   -0.394804
   3 Br:    0.067097
   4 H :    0.152528
   5 H :    0.158510
   6 H :    0.157820
   7 H :    0.160507
   8 H :    0.160650
   9 H :    0.157660
  10 H :    0.157481

  Mayer bond orders larger than 0.100000
B(  0-C ,  1-C ) :   0.8497 B(  0-C ,  4-H ) :   0.9732 B(  0-C ,  5-H ) :   0.9870
B(  0-C ,  6-H ) :   0.9757 B(  1-C ,  2-C ) :   0.9333 B(  1-C ,  7-H ) :   0.9752
B(  1-C ,  8-H ) :   0.9569 B(  2-C ,  3-Br) :   0.9753 B(  2-C ,  9-H ) :   0.9581
B(  2-C , 10-H ) :   0.9629

Dispersion correction           -0.002389303
FINAL SINGLE POINT ENERGY     -2692.628042293650

DIPOLE MOMENT
-------------

Method             : SCF
Type of density    : Electron Density
Multiplicity       :   1
Irrep              :   0
Energy             : -2692.6312396637604252 Eh
Relativity type    :
Basis              : AO
                                X                 Y                 Z
Electronic contribution:     19.569262953       1.605147109      -2.087249445
Nuclear contribution   :    -20.347585842      -2.019748654       2.250428741
                        -----------------------------------------
Total Dipole Moment    :     -0.778322889      -0.414601545       0.163179297
                        -----------------------------------------
Magnitude (a.u.)       :      0.896832450
Magnitude (Debye)      :      2.279566928

Rotational constants in cm-1:             0.362075             0.077212             0.068307
Rotational constants in MHz :         10854.727435          2314.769216          2047.785749

                             ****ORCA TERMINATED NORMALLY****
TOTAL RUN TIME: 0 days 0 hours 0 minutes 18 seconds 801 msec
