                         Program Version 6.0.1  -  RELEASE   -
|  1> ! pbe def2-sv(p) def2/J RI DEFGRID1 loosescf d4 GCP(DFT/SV(P)) printgap
|  2> %output
|  3>     printlevel normal
|  4> end
|  5> * xyz 0 1
|  6> C -2.3139215538 -0.9768799079 -0.323445957
|  7> C -0.9250643358 -0.5224910725 0.1346909569
|  8> H -0.8381030942 -0.72816296 1.2131290362
|  9> C -0.7259334976 0.9986430684 -0.0898215334
| 10> H -1.3289289681 1.337301041 -0.9422358098
| 11> C 0.7558662479 1.2481725532 -0.4383747326
| 12> H 1.0028330587 2.2961715487 -0.2426855517
| 13> C 1.6328040376 0.3343749151 0.4411109415
| 14> H 2.6921377735 0.5303257317 0.2238097116
| 15> C 1.3371176102 -1.1430541414 0.0531254084
| 16> H 1.3560872919 -1.7702152423 0.960949062
| 17> O 0.067400877 -1.2520997059 -0.5662767653
| 18> O 2.2934803937 -1.6599697405 -0.7926092082
| 19> O 1.3367796794 0.6103704358 1.7919622578
| 20> O 1.0155515374 1.0143619634 -1.7978380735
| 21> O -1.1650043691 1.7460778256 1.0102004931
| 22> O -3.317012812 -0.4245402672 0.4817812507
| 23> H -2.3944356229 -2.0623486451 -0.2324730951
| 24> H -2.4541893624 -0.7053198904 -1.3807077944
| 25> H 2.2862926692 -1.1632755239 -1.6226617875
| 26> H 1.9632650871 0.1455958508 2.3574372904
| 27> H 0.5732100136 0.1867708388 -2.0407118137
| 28> H -0.5411813516 1.6024847089 1.7357333208
| 29> H -3.1372849842 0.5174975683 0.60499022
| 30> *
| 31>
| 32>                          ****END OF INPUT****

CARTESIAN COORDINATES (ANGSTROEM)
---------------------------------
  C     -2.313922   -0.976880   -0.323446
  C     -0.925064   -0.522491    0.134691
  H     -0.838103   -0.728163    1.213129
  C     -0.725933    0.998643   -0.089822
  H     -1.328929    1.337301   -0.942236
  C      0.755866    1.248173   -0.438375
  H      1.002833    2.296172   -0.242686
  C      1.632804    0.334375    0.441111
  H      2.692138    0.530326    0.223810
  C      1.337118   -1.143054    0.053125
  H      1.356087   -1.770215    0.960949
  O      0.067401   -1.252100   -0.566277
  O      2.293480   -1.659970   -0.792609
  O      1.336780    0.610370    1.791962
  O      1.015552    1.014362   -1.797838
  O     -1.165004    1.746078    1.010200
  O     -3.317013   -0.424540    0.481781
  H     -2.394436   -2.062349   -0.232473
  H     -2.454189   -0.705320   -1.380708
  H      2.286293   -1.163276   -1.622662
  H      1.963265    0.145596    2.357437
  H      0.573210    0.186771   -2.040712
  H     -0.541181    1.602485    1.735733
  H     -3.137285    0.517498    0.604990

 Total Charge           Charge          ....    0
 Multiplicity           Mult            ....    1
 Number of Electrons    NEL             ....   96
 Basis Dimension        Dim             ....  192

ORBITAL ENERGIES
----------------

  NO   OCC          E(Eh)            E(eV)
   0   2.0000     -18.789740      -511.2948
   1   2.0000     -18.789288      -511.2825
   2   2.0000     -18.771284      -510.7926
   3   2.0000     -18.767672      -510.6943
   4   2.0000     -18.759566      -510.4737
   5   2.0000     -18.743844      -510.0459
   6   2.0000     -10.001368      -272.1511
   7   2.0000      -9.957490      -270.9571
   8   2.0000      -9.954439      -270.8741
   9   2.0000      -9.950694      -270.7721
  10   2.0000      -9.948525      -270.7131
  11   2.0000      -9.933672      -270.3090
  12   2.0000      -1.001832       -27.2612
  13   2.0000      -0.962945       -26.2031
  14   2.0000      -0.948511       -25.8103
  15   2.0000      -0.939094       -25.5540
  16   2.0000      -0.930506       -25.3204
  17   2.0000      -0.920999       -25.0617
  18   2.0000      -0.705602       -19.2004
  19   2.0000      -0.696938       -18.9646
  20   2.0000      -0.623299       -16.9608
  21   2.0000      -0.603419       -16.4199
  22   2.0000      -0.575846       -15.6696
  23   2.0000      -0.542637       -14.7659
  24   2.0000      -0.517144       -14.0722
  25   2.0000      -0.506563       -13.7843
  26   2.0000      -0.492435       -13.3998
  27   2.0000      -0.473996       -12.8981
  28   2.0000      -0.457413       -12.4468
  29   2.0000      -0.435599       -11.8532
  30   2.0000      -0.423711       -11.5298
  31   2.0000      -0.406091       -11.0503
  32   2.0000      -0.387396       -10.5416
  33   2.0000      -0.383151       -10.4261
  34   2.0000      -0.370401       -10.0791
  35   2.0000      -0.357736        -9.7345
  36   2.0000      -0.349070        -9.4987
  37   2.0000      -0.323784        -8.8106
  38   2.0000      -0.320321        -8.7164
  39   2.0000      -0.315722        -8.5912
  40   2.0000      -0.289584        -7.8800
  41   2.0000      -0.282625        -7.6906
  42   2.0000      -0.270573        -7.3627
  43   2.0000      -0.268315        -7.3012
  44   2.0000      -0.251616        -6.8468
  45   2.0000      -0.223485        -6.0813
  46   2.0000      -0.221537        -6.0283
  47   2.0000      -0.206546        -5.6204
  48   0.0000      -0.006683        -0.1818
  49   0.0000       0.018620         0.5067
  50   0.0000       0.033118         0.9012
  51   0.0000       0.048574         1.3218
  52   0.0000       0.052764         1.4358

MULLIKEN ATOMIC CHARGES
-----------------------
   0 C :    0.095808
   1 C :   -0.020269
   2 H :    0.064483
   3 C :    0.019701
   4 H :    0.078106
   5 C :    0.041634
   6 H :    0.086381
   7 C :    0.002800
   8 H :    0.086088
   9 C :    0.171467
  10 H :    0.060321
  11 O :   -0.301906
  12 O :   -0.370597
  13 O :   -0.421737
  14 O :   -0.419010
  15 O :   -0.424383
  16 O :   -0.437139
  17 H :    0.090901
  18 H :    0.067023
  19 H :    0.294179
  20 H :    0.316744
  21 H :    0.302845
  22 H :    0.312039
  23 H :    0.304520
Sum of atomic charges:   -0.0000000

LOEWDIN ATOMIC CHARGES
----------------------
   0 C :   -0.116773
   1 C :   -0.085200
   2 H :    0.107756
   3 C :   -0.087153
   4 H :    0.116192
   5 C :   -0.069029
   6 H :    0.121746
   7 C :   -0.099858
   8 H :    0.112766
   9 C :   -0.004860
  10 H :    0.098636
  11 O :   -0.155364
  12 O :   -0.284005
  13 O :   -0.314066
  14 O :   -0.309929
  15 O :   -0.310339
  16 O :   -0.331227
  17 H :    0.114860
  18 H :    0.092499
  19 H :    0.278895
  20 H :    0.295846
  21 H :    0.269107
  22 H :    0.279678
  23 H :    0.279822

  Mayer bond orders larger than 0.100000
B(  0-C ,  1-C ) :   1.0532 B(  0-C , 16-O ) :   1.0835 B(  0-C , 17-H ) :   0.9192
B(  0-C , 18-H ) :   0.9064 B(  1-C ,  2-H ) :   0.8635 B(  1-C ,  3-C ) :   0.9595
B(  1-C , 11-O ) :   0.9903 B(  3-C ,  4-H ) :   0.8896 B(  3-C ,  5-C ) :   1.0041
B(  3-C , 15-O ) :   1.0308 B(  5-C ,  6-H ) :   0.8897 B(  5-C ,  7-C ) :   0.9891
B(  5-C , 14-O ) :   1.0463 B(  7-C ,  8-H ) :   0.9001 B(  7-C ,  9-C ) :   0.9220
B(  7-C , 13-O ) :   1.0297 B(  9-C , 10-H ) :   0.9010 B(  9-C , 11-O ) :   1.0045
B(  9-C , 12-O ) :   1.1586 B( 12-O , 19-H ) :   0.8304 B( 13-O , 20-H ) :   0.8393
B( 14-O , 21-H ) :   0.8139 B( 15-O , 22-H ) :   0.8209 B( 16-O , 23-H ) :   0.8319

Dispersion correction           -0.025340190
FINAL SINGLE POINT ENERGY      -685.692153219662

DIPOLE MOMENT
-------------

Method             : SCF
Type of density    : Electron Density
Multiplicity       :   1
Irrep              :   0
Energy             :  -685.8265912256746333 Eh
Relativity type    :
Basis              : AO
                                X                 Y                 Z
Electronic contribution:      1.761509445      -0.108499495      -0.188738650
Nuclear contribution   :     -0.766153552       0.175780320       0.597221927
                        -----------------------------------------
Total Dipole Moment    :      0.995355893       0.067280825       0.408483277
                        -----------------------------------------
Magnitude (a.u.)       :      1.078016072
Magnitude (Debye)      :      2.740099095

Rotational constants in cm-1:             0.043981             0.025540             0.022031
Rotational constants in MHz :          1318.527503           765.677125           660.485954

                             ****ORCA TERMINATED NORMALLY****
TOTAL RUN TIME: 0 days 0 hours 0 minutes 9 seconds 252 msec
