                         Program Version 6.0.1  -  RELEASE   -
|  1> ! pbe def2-sv(p) def2/J RI DEFGRID1 loosescf d4 GCP(DFT/SV(P)) printgap
|  2> %output
|  3>     printlevel normal
|  4> end
|  5> * xyz 0 1
|  6> C -2.4016686391 -0.7124485477 -0.0164034651
|  7> C -0.9730281334 -0.2927376455 0.3489346149
|  8> H -0.9439224226 0.0182404423 1.404329113
|  9> C -0.5082458618 0.8874244175 -0.5089290883
| 10> H -0.4844566569 0.5634669201 -1.563736473
| 11> C 0.9189232744 1.3227496147 -0.1030923998
| 12> H 0.8427037427 2.1125610398 0.6523948846
| 13> C 1.7011334648 0.1546925607 0.5272449322
| 14> H 2.7667785277 0.2852353163 0.2820147971
| 15> C 1.2168071253 -1.1591906367 -0.101486556
| 16> H 1.7731886275 -2.018774139 0.3149835273
| 17> O -0.1213434449 -1.4230119251 0.1728072138
| 18> O 1.4642701996 -1.0635056749 -1.4833086818
| 19> O 1.497002334 0.1728333292 1.9145652222
| 20> O 1.6038114936 1.8748484444 -1.1940442289
| 21> O -1.4249433075 1.9416237656 -0.3549977845
| 22> O -2.9447101338 -1.6604448682 0.8601431901
| 23> H -2.401472031 -1.1854099774 -1.0004798485
| 24> H -3.0152243089 0.1974262939 -0.0494317033
| 25> H 1.0480104478 -1.8199237393 -1.914945838
| 26> H 1.9223006773 -0.5951512681 2.313404808
| 27> H 1.7914303718 1.1586075869 -1.8164633255
| 28> H -1.0502612733 2.7228638251 -0.7799114708
| 29> H -2.8760205391 -1.3257047314 1.7614577641
| 30> *
| 31>
| 32>                          ****END OF INPUT****

CARTESIAN COORDINATES (ANGSTROEM)
---------------------------------
  C     -2.401669   -0.712449   -0.016403
  C     -0.973028   -0.292738    0.348935
  H     -0.943922    0.018240    1.404329
  C     -0.508246    0.887424   -0.508929
  H     -0.484457    0.563467   -1.563736
  C      0.918923    1.322750   -0.103092
  H      0.842704    2.112561    0.652395
  C      1.701133    0.154693    0.527245
  H      2.766779    0.285235    0.282015
  C      1.216807   -1.159191   -0.101487
  H      1.773189   -2.018774    0.314984
  O     -0.121343   -1.423012    0.172807
  O      1.464270   -1.063506   -1.483309
  O      1.497002    0.172833    1.914565
  O      1.603811    1.874848   -1.194044
  O     -1.424943    1.941624   -0.354998
  O     -2.944710   -1.660445    0.860143
  H     -2.401472   -1.185410   -1.000480
  H     -3.015224    0.197426   -0.049432
  H      1.048010   -1.819924   -1.914946
  H      1.922301   -0.595151    2.313405
  H      1.791430    1.158608   -1.816463
  H     -1.050261    2.722864   -0.779911
  H     -2.876021   -1.325705    1.761458

 Total Charge           Charge          ....    0
 Multiplicity           Mult            ....    1
 Number of Electrons    NEL             ....   96
 Basis Dimension        Dim             ....  192

ORBITAL ENERGIES
----------------

  NO   OCC          E(Eh)            E(eV)
   0   2.0000     -18.779595      -511.0188
   1   2.0000     -18.772845      -510.8351
   2   2.0000     -18.767683      -510.6946
   3   2.0000     -18.752983      -510.2946
   4   2.0000     -18.747884      -510.1559
   5   2.0000     -18.736459      -509.8450
   6   2.0000      -9.995774      -271.9988
   7   2.0000      -9.949740      -270.7462
   8   2.0000      -9.941708      -270.5276
   9   2.0000      -9.940667      -270.4993
  10   2.0000      -9.940360      -270.4909
  11   2.0000      -9.921790      -269.9856
  12   2.0000      -0.992525       -27.0080
  13   2.0000      -0.946277       -25.7495
  14   2.0000      -0.938396       -25.5351
  15   2.0000      -0.929225       -25.2855
  16   2.0000      -0.919298       -25.0154
  17   2.0000      -0.911686       -24.8082
  18   2.0000      -0.704613       -19.1735
  19   2.0000      -0.694097       -18.8873
  20   2.0000      -0.616905       -16.7868
  21   2.0000      -0.592404       -16.1201
  22   2.0000      -0.566803       -15.4235
  23   2.0000      -0.528467       -14.3803
  24   2.0000      -0.511127       -13.9085
  25   2.0000      -0.483078       -13.1452
  26   2.0000      -0.473719       -12.8906
  27   2.0000      -0.457469       -12.4484
  28   2.0000      -0.454808       -12.3759
  29   2.0000      -0.427775       -11.6403
  30   2.0000      -0.413755       -11.2589
  31   2.0000      -0.403990       -10.9931
  32   2.0000      -0.387506       -10.5446
  33   2.0000      -0.373251       -10.1567
  34   2.0000      -0.361019        -9.8238
  35   2.0000      -0.356602        -9.7036
  36   2.0000      -0.343068        -9.3354
  37   2.0000      -0.316573        -8.6144
  38   2.0000      -0.303315        -8.2536
  39   2.0000      -0.300107        -8.1663
  40   2.0000      -0.283124        -7.7042
  41   2.0000      -0.267745        -7.2857
  42   2.0000      -0.258371        -7.0306
  43   2.0000      -0.240941        -6.5563
  44   2.0000      -0.233584        -6.3561
  45   2.0000      -0.223591        -6.0842
  46   2.0000      -0.215490        -5.8638
  47   2.0000      -0.199042        -5.4162
  48   0.0000       0.009203         0.2504
  49   0.0000       0.019038         0.5181
  50   0.0000       0.037334         1.0159
  51   0.0000       0.040200         1.0939
  52   0.0000       0.060512         1.6466

MULLIKEN ATOMIC CHARGES
-----------------------
   0 C :    0.098196
   1 C :    0.008588
   2 H :    0.056745
   3 C :    0.054100
   4 H :    0.035686
   5 C :    0.087085
   6 H :    0.074357
   7 C :    0.006798
   8 H :    0.076893
   9 C :    0.146206
  10 H :    0.057369
  11 O :   -0.292629
  12 O :   -0.408014
  13 O :   -0.403641
  14 O :   -0.430601
  15 O :   -0.412799
  16 O :   -0.428009
  17 H :    0.065882
  18 H :    0.092122
  19 H :    0.307295
  20 H :    0.304379
  21 H :    0.304726
  22 H :    0.307550
  23 H :    0.291718
Sum of atomic charges:   -0.0000000

LOEWDIN ATOMIC CHARGES
----------------------
   0 C :   -0.129172
   1 C :   -0.068913
   2 H :    0.107264
   3 C :   -0.077612
   4 H :    0.098538
   5 C :   -0.070224
   6 H :    0.123624
   7 C :   -0.088763
   8 H :    0.108866
   9 C :   -0.012248
  10 H :    0.091067
  11 O :   -0.132664
  12 O :   -0.322298
  13 O :   -0.304795
  14 O :   -0.316121
  15 O :   -0.316876
  16 O :   -0.333458
  17 H :    0.111326
  18 H :    0.106382
  19 H :    0.288123
  20 H :    0.289363
  21 H :    0.277627
  22 H :    0.290164
  23 H :    0.280798

  Mayer bond orders larger than 0.100000
B(  0-C ,  1-C ) :   1.0446 B(  0-C , 16-O ) :   1.0790 B(  0-C , 17-H ) :   0.9034
B(  0-C , 18-H ) :   0.9107 B(  1-C ,  2-H ) :   0.8573 B(  1-C ,  3-C ) :   1.0577
B(  1-C , 11-O ) :   0.9671 B(  3-C ,  4-H ) :   0.8460 B(  3-C ,  5-C ) :   1.0266
B(  3-C , 15-O ) :   1.0549 B(  5-C ,  6-H ) :   0.8522 B(  5-C ,  7-C ) :   1.0027
B(  5-C , 14-O ) :   1.0370 B(  7-C ,  8-H ) :   0.8847 B(  7-C ,  9-C ) :   1.0268
B(  7-C , 13-O ) :   1.0371 B(  9-C , 10-H ) :   0.8943 B(  9-C , 11-O ) :   1.1105
B(  9-C , 12-O ) :   1.0877 B( 12-O , 19-H ) :   0.8369 B( 13-O , 20-H ) :   0.8445
B( 14-O , 21-H ) :   0.8336 B( 15-O , 22-H ) :   0.8430 B( 16-O , 23-H ) :   0.8546

Dispersion correction           -0.024727786
FINAL SINGLE POINT ENERGY      -685.689354288813

DIPOLE MOMENT
-------------

Method             : SCF
Type of density    : Electron Density
Multiplicity       :   1
Irrep              :   0
Energy             :  -685.8205139324691118 Eh
Relativity type    :
Basis              : AO
                                X                 Y                 Z
Electronic contribution:      1.363432480      -0.480317411       0.307918251
Nuclear contribution   :     -0.587083348       0.104088131      -0.373132192
                        -----------------------------------------
Total Dipole Moment    :      0.776349132      -0.376229280      -0.065213941
                        -----------------------------------------
Magnitude (a.u.)       :      0.865170101
Magnitude (Debye)      :      2.199087632

Rotational constants in cm-1:             0.041297             0.025537             0.021498
Rotational constants in MHz :          1238.057331           765.569893           644.507228

                             ****ORCA TERMINATED NORMALLY****
TOTAL RUN TIME: 0 days 0 hours 0 minutes 7 seconds 950 msec
