                         Program Version 6.0.1  -  RELEASE   -
|  1> ! r2scan-3c def2/J RI DEFGRID2 scfconv6 printgap
|  2> %output
|  3>     printlevel normal
|  4> end
|  5> * xyz 0 1
|  6> C -3.6051058888 -1.0337828026 0.0341098549
|  7> C -2.1099452914 -1.3258243504 -0.0069817836
|  8> C -1.2070183639 -0.1180289554 0.0210270539
|  9> C -1.7003902112 1.1596104587 0.0812963722
| 10> C -0.8525426723 2.2771066475 0.107288539
| 11> C 0.5011500827 2.1176228893 0.0726496013
| 12> C 1.0612331927 0.8247451816 0.0101528745
| 13> C 0.2049914547 -0.3092570917 -0.0161936047
| 14> C 0.8051775543 -1.5862530983 -0.0790339123
| 15> C 2.1643962743 -1.7326496991 -0.1136135247
| 16> C 3.0033260742 -0.6102454579 -0.0872452904
| 17> C 2.4591334836 0.6407641955 -0.02658574
| 18> H -3.8755834486 -0.5068469597 0.9462356298
| 19> H -4.1580276342 -1.9707277861 0.0090166125
| 20> H -3.9107936885 -0.4385737767 -0.8232715533
| 21> H -1.8934579094 -1.8963450651 -0.9156116948
| 22> H -1.8577865223 -1.9637812833 0.8458849349
| 23> H -2.7641074806 1.3336248506 0.1104737369
| 24> H -1.2878423811 3.2649417926 0.1551964686
| 25> H 1.1625621276 2.9720069504 0.0924763627
| 26> H 0.1832729436 -2.4675001964 -0.1005465625
| 27> H 2.6007821582 -2.7200173977 -0.1618215604
| 28> H 4.0750176616 -0.7432695637 -0.1151692674
| 29> H 3.093325293 1.5160529824 -0.0055685893
| 30> *
| 31>
| 32>                          ****END OF INPUT****

CARTESIAN COORDINATES (ANGSTROEM)
---------------------------------
  C     -3.605106   -1.033783    0.034110
  C     -2.109945   -1.325824   -0.006982
  C     -1.207018   -0.118029    0.021027
  C     -1.700390    1.159610    0.081296
  C     -0.852543    2.277107    0.107289
  C      0.501150    2.117623    0.072650
  C      1.061233    0.824745    0.010153
  C      0.204991   -0.309257   -0.016194
  C      0.805178   -1.586253   -0.079034
  C      2.164396   -1.732650   -0.113614
  C      3.003326   -0.610245   -0.087245
  C      2.459133    0.640764   -0.026586
  H     -3.875583   -0.506847    0.946236
  H     -4.158028   -1.970728    0.009017
  H     -3.910794   -0.438574   -0.823272
  H     -1.893458   -1.896345   -0.915612
  H     -1.857787   -1.963781    0.845885
  H     -2.764107    1.333625    0.110474
  H     -1.287842    3.264942    0.155196
  H      1.162562    2.972007    0.092476
  H      0.183273   -2.467500   -0.100547
  H      2.600782   -2.720017   -0.161822
  H      4.075018   -0.743270   -0.115169
  H      3.093325    1.516053   -0.005569

 Total Charge           Charge          ....    0
 Multiplicity           Mult            ....    1
 Number of Electrons    NEL             ....   84
 Basis Dimension        Dim             ....  288

ORBITAL ENERGIES
----------------

  NO   OCC          E(Eh)            E(eV)
   0   2.0000     -10.044680      -273.3296
   1   2.0000     -10.043508      -273.2977
   2   2.0000     -10.043101      -273.2867
   3   2.0000     -10.037664      -273.1387
   4   2.0000     -10.034858      -273.0624
   5   2.0000     -10.034673      -273.0573
   6   2.0000     -10.034138      -273.0428
   7   2.0000     -10.033715      -273.0313
   8   2.0000     -10.032273      -272.9920
   9   2.0000     -10.031134      -272.9610
  10   2.0000     -10.029594      -272.9191
  11   2.0000     -10.023691      -272.7585
  12   2.0000      -0.846597       -23.0371
  13   2.0000      -0.795316       -21.6417
  14   2.0000      -0.764307       -20.7979
  15   2.0000      -0.721265       -19.6266
  16   2.0000      -0.710669       -19.3383
  17   2.0000      -0.679467       -18.4892
  18   2.0000      -0.612581       -16.6692
  19   2.0000      -0.589189       -16.0326
  20   2.0000      -0.579414       -15.7667
  21   2.0000      -0.537770       -14.6335
  22   2.0000      -0.484810       -13.1923
  23   2.0000      -0.473777       -12.8921
  24   2.0000      -0.463409       -12.6100
  25   2.0000      -0.427567       -11.6347
  26   2.0000      -0.419402       -11.4125
  27   2.0000      -0.407011       -11.0753
  28   2.0000      -0.393975       -10.7206
  29   2.0000      -0.386763       -10.5244
  30   2.0000      -0.371149       -10.0995
  31   2.0000      -0.367020        -9.9871
  32   2.0000      -0.346229        -9.4214
  33   2.0000      -0.336063        -9.1447
  34   2.0000      -0.330007        -8.9800
  35   2.0000      -0.328461        -8.9379
  36   2.0000      -0.305212        -8.3053
  37   2.0000      -0.300240        -8.1700
  38   2.0000      -0.290300        -7.8995
  39   2.0000      -0.258498        -7.0341
  40   2.0000      -0.230385        -6.2691
  41   2.0000      -0.199558        -5.4302
  42   0.0000      -0.064946        -1.7673
  43   0.0000      -0.034337        -0.9343
  44   0.0000       0.003147         0.0856
  45   0.0000       0.066371         1.8061
  46   0.0000       0.081956         2.2301

MULLIKEN ATOMIC CHARGES
-----------------------
   0 C :   -0.519062
   1 C :   -0.363701
   2 C :    0.114901
   3 C :   -0.156942
   4 C :   -0.194318
   5 C :   -0.254195
   6 C :    0.169147
   7 C :    0.186569
   8 C :   -0.258672
   9 C :   -0.151364
  10 C :   -0.157222
  11 C :   -0.219382
  12 H :    0.158754
  13 H :    0.150464
  14 H :    0.158874
  15 H :    0.166287
  16 H :    0.166476
  17 H :    0.144070
  18 H :    0.142697
  19 H :    0.142176
  20 H :    0.141746
  21 H :    0.144615
  22 H :    0.144979
  23 H :    0.143104
Sum of atomic charges:   -0.0000000

LOEWDIN ATOMIC CHARGES
----------------------
   0 C :   -0.419095
   1 C :   -0.287692
   2 C :   -0.068048
   3 C :   -0.164934
   4 C :   -0.161174
   5 C :   -0.150881
   6 C :   -0.055510
   7 C :   -0.050451
   8 C :   -0.149518
   9 C :   -0.163029
  10 C :   -0.166264
  11 C :   -0.143164
  12 H :    0.154028
  13 H :    0.153518
  14 H :    0.154064
  15 H :    0.166728
  16 H :    0.166768
  17 H :    0.171296
  18 H :    0.167116
  19 H :    0.169802
  20 H :    0.171712
  21 H :    0.167070
  22 H :    0.167424
  23 H :    0.170236

  Mayer bond orders larger than 0.100000
B(  0-C ,  1-C ) :   0.8530 B(  0-C , 12-H ) :   0.9842 B(  0-C , 13-H ) :   0.9691
B(  0-C , 14-H ) :   0.9844 B(  1-C ,  2-C ) :   0.8189 B(  1-C , 15-H ) :   0.9792
B(  1-C , 16-H ) :   0.9788 B(  2-C ,  3-C ) :   1.5143 B(  2-C ,  7-C ) :   1.2471
B(  3-C ,  4-C ) :   1.2660 B(  3-C , 17-H ) :   0.9404 B(  4-C ,  5-C ) :   1.5035
B(  4-C , 18-H ) :   0.9530 B(  5-C ,  6-C ) :   1.1650 B(  5-C , 19-H ) :   0.9524
B(  6-C ,  7-C ) :   1.4624 B(  6-C , 11-C ) :   1.1685 B(  7-C ,  8-C ) :   1.2864
B(  8-C ,  9-C ) :   1.5004 B(  8-C , 20-H ) :   0.9433 B(  9-C , 10-C ) :   1.2710
B(  9-C , 21-H ) :   0.9483 B( 10-C , 11-C ) :   1.5035 B( 10-C , 22-H ) :   0.9493
B( 11-C , 23-H ) :   0.9471

Dispersion correction           -0.009575628
FINAL SINGLE POINT ENERGY      -464.383635718109

DIPOLE MOMENT
-------------

Method             : SCF
Type of density    : Electron Density
Multiplicity       :   1
Irrep              :   0
Energy             :  -464.3808850977237626 Eh
Relativity type    :
Basis              : AO
                                X                 Y                 Z
Electronic contribution:      7.946454679       3.242369976      -0.037751392
Nuclear contribution   :     -8.098876000      -3.396581069       0.034988568
                        -----------------------------------------
Total Dipole Moment    :     -0.152421321      -0.154211093      -0.002762824
                        -----------------------------------------
Magnitude (a.u.)       :      0.216843154
Magnitude (Debye)      :      0.551171495

Rotational constants in cm-1:             0.055306             0.026544             0.018057
Rotational constants in MHz :          1658.029909           795.771491           541.327640

                             ****ORCA TERMINATED NORMALLY****
TOTAL RUN TIME: 0 days 0 hours 3 minutes 17 seconds 344 msec
