                         Program Version 6.0.1  -  RELEASE   -
|  1> ! r2scan-3c def2/J RI DEFGRID2 scfconv6 printgap
|  2> %output
|  3>     printlevel normal
|  4> end
|  5> * xyz 0 1
|  6> C -0.4912151206 0.4435963257 9.48233e-05
|  7> C 0.4912025165 -0.4436381351 7.85449e-05
|  8> Cl 2.1337485838 0.0413525818 -3.06623e-05
|  9> Cl -2.1337402003 -0.0413380341 -3.16738e-05
| 10> H -0.33524212 1.5107896206 3.43919e-05
| 11> H 0.3350974313 -1.5108031005 9.22863e-05
| 12> *
| 13>
| 14>                          ****END OF INPUT****

CARTESIAN COORDINATES (ANGSTROEM)
---------------------------------
  C     -0.491215    0.443596    0.000095
  C      0.491203   -0.443638    0.000079
  Cl     2.133749    0.041353   -0.000031
  Cl    -2.133740   -0.041338   -0.000032
  H     -0.335242    1.510790    0.000034
  H      0.335097   -1.510803    0.000092

 Total Charge           Charge          ....    0
 Multiplicity           Mult            ....    1
 Number of Electrons    NEL             ....   48
 Basis Dimension        Dim             ....  102

ORBITAL ENERGIES
----------------

  NO   OCC          E(Eh)            E(eV)
   0   2.0000    -101.236104     -2754.7744
   1   2.0000    -101.236101     -2754.7744
   2   2.0000     -10.110412      -275.1183
   3   2.0000     -10.109617      -275.0967
   4   2.0000      -9.392047      -255.5706
   5   2.0000      -9.392044      -255.5705
   6   2.0000      -7.138366      -194.2448
   7   2.0000      -7.138366      -194.2448
   8   2.0000      -7.128275      -193.9702
   9   2.0000      -7.128275      -193.9702
  10   2.0000      -7.127750      -193.9559
  11   2.0000      -7.127750      -193.9559
  12   2.0000      -0.875297       -23.8180
  13   2.0000      -0.837920       -22.8010
  14   2.0000      -0.703604       -19.1460
  15   2.0000      -0.569242       -15.4899
  16   2.0000      -0.471849       -12.8397
  17   2.0000      -0.457859       -12.4590
  18   2.0000      -0.390500       -10.6260
  19   2.0000      -0.376215       -10.2373
  20   2.0000      -0.330040        -8.9808
  21   2.0000      -0.303293        -8.2530
  22   2.0000      -0.297705        -8.1010
  23   2.0000      -0.235047        -6.3960
  24   0.0000      -0.051628        -1.4049
  25   0.0000      -0.015081        -0.4104
  26   0.0000       0.040202         1.0939
  27   0.0000       0.109954         2.9920
  28   0.0000       0.122481         3.3329

MULLIKEN ATOMIC CHARGES
-----------------------
   0 C :   -0.079917
   1 C :   -0.079917
   2 Cl:   -0.100861
   3 Cl:   -0.100852
   4 H :    0.180775
   5 H :    0.180772
Sum of atomic charges:   -0.0000000

LOEWDIN ATOMIC CHARGES
----------------------
   0 C :   -0.291719
   1 C :   -0.291715
   2 Cl:    0.119216
   3 Cl:    0.119225
   4 H :    0.172496
   5 H :    0.172497

  Mayer bond orders larger than 0.100000
B(  0-C ,  1-C ) :   1.8333 B(  0-C ,  2-Cl) :   0.1102 B(  0-C ,  3-Cl) :   0.9961
B(  0-C ,  4-H ) :   0.9448 B(  1-C ,  2-Cl) :   0.9960 B(  1-C ,  3-Cl) :   0.1102
B(  1-C ,  5-H ) :   0.9448

Dispersion correction           -0.001446185
FINAL SINGLE POINT ENERGY      -997.716025045808

DIPOLE MOMENT
-------------

Method             : SCF
Type of density    : Electron Density
Multiplicity       :   1
Irrep              :   0
Energy             :  -997.7196137817878707 Eh
Relativity type    :
Basis              : AO
                                X                 Y                 Z
Electronic contribution:      0.000096224       0.000038130      -0.000209823
Nuclear contribution   :     -0.000146996      -0.000032173       0.000202515
                        -----------------------------------------
Total Dipole Moment    :     -0.000050772       0.000005958      -0.000007308
                        -----------------------------------------
Magnitude (a.u.)       :      0.000051640
Magnitude (Debye)      :      0.000131258

Rotational constants in cm-1:             1.783844             0.051263             0.049831
Rotational constants in MHz :         53478.289907          1536.817370          1493.887207

                             ****ORCA TERMINATED NORMALLY****
TOTAL RUN TIME: 0 days 0 hours 0 minutes 7 seconds 666 msec
