                         Program Version 6.0.1  -  RELEASE   -
|  1> ! pbe def2-sv(p) def2/J RI DEFGRID1 loosescf d4 GCP(DFT/SV(P)) printgap
|  2> %output
|  3>     printlevel normal
|  4> end
|  5> * xyz 0 1
|  6> C -2.4871135496 0.6232020057 1.3201195437
|  7> O -1.2513067727 0.5545996733 0.6239917966
|  8> C -1.1992399152 -0.3093872795 -0.3952578132
|  9> O -2.1357531337 -0.9992256353 -0.7101147441
| 10> C 0.1434003541 -0.3671371143 -1.0973034913
| 11> C 1.0283236309 -1.4192019722 -0.4064459375
| 12> C 1.5924766134 -0.9080183908 0.9140455686
| 13> C 2.4053853361 0.3606612235 0.6804220728
| 14> C 1.5148400453 1.4452475391 0.0848707035
| 15> C 0.8770439154 0.9725312377 -1.2193428854
| 16> H -3.2815443917 0.9572154221 0.649778854
| 17> H -2.3436986569 1.3366372786 2.1278161229
| 18> H -2.7548651318 -0.3585637953 1.716102172
| 19> H -0.0879000019 -0.7348498055 -2.1038645296
| 20> H 0.4473644125 -2.3302720496 -0.2477425052
| 21> H 1.8558292494 -1.6619781454 -1.077260949
| 22> H 0.777960416 -0.6914052968 1.6072363453
| 23> H 2.2206747706 -1.6806549961 1.3626552651
| 24> H 2.8345017818 0.7090974012 1.6218505747
| 25> H 3.2293537428 0.1430139556 -0.0038062863
| 26> H 0.7361237826 1.7036054947 0.8012737341
| 27> H 2.1029463356 2.3442198996 -0.1134172553
| 28> H 0.1863180957 1.7333102684 -1.5888002761
| 29> H 1.6639013849 0.8469303078 -1.9678842025
| 30> *
| 31>
| 32>                          ****END OF INPUT****

CARTESIAN COORDINATES (ANGSTROEM)
---------------------------------
  C     -2.487114    0.623202    1.320120
  O     -1.251307    0.554600    0.623992
  C     -1.199240   -0.309387   -0.395258
  O     -2.135753   -0.999226   -0.710115
  C      0.143400   -0.367137   -1.097303
  C      1.028324   -1.419202   -0.406446
  C      1.592477   -0.908018    0.914046
  C      2.405385    0.360661    0.680422
  C      1.514840    1.445248    0.084871
  C      0.877044    0.972531   -1.219343
  H     -3.281544    0.957215    0.649779
  H     -2.343699    1.336637    2.127816
  H     -2.754865   -0.358564    1.716102
  H     -0.087900   -0.734850   -2.103865
  H      0.447364   -2.330272   -0.247743
  H      1.855829   -1.661978   -1.077261
  H      0.777960   -0.691405    1.607236
  H      2.220675   -1.680655    1.362655
  H      2.834502    0.709097    1.621851
  H      3.229354    0.143014   -0.003806
  H      0.736124    1.703605    0.801274
  H      2.102946    2.344220   -0.113417
  H      0.186318    1.733310   -1.588800
  H      1.663901    0.846930   -1.967884

 Total Charge           Charge          ....    0
 Multiplicity           Mult            ....    1
 Number of Electrons    NEL             ....   78
 Basis Dimension        Dim             ....  168

ORBITAL ENERGIES
----------------

  NO   OCC          E(Eh)            E(eV)
   0   2.0000     -18.800928      -511.5993
   1   2.0000     -18.734845      -509.8010
   2   2.0000     -10.003491      -272.2088
   3   2.0000      -9.941350      -270.5179
   4   2.0000      -9.903637      -269.4917
   5   2.0000      -9.890882      -269.1446
   6   2.0000      -9.887802      -269.0608
   7   2.0000      -9.882162      -268.9073
   8   2.0000      -9.880844      -268.8714
   9   2.0000      -9.877183      -268.7718
  10   2.0000      -1.009148       -27.4603
  11   2.0000      -0.914074       -24.8732
  12   2.0000      -0.761387       -20.7184
  13   2.0000      -0.689000       -18.7486
  14   2.0000      -0.668521       -18.1914
  15   2.0000      -0.652580       -17.7576
  16   2.0000      -0.560231       -15.2446
  17   2.0000      -0.543994       -14.8028
  18   2.0000      -0.516883       -14.0651
  19   2.0000      -0.496979       -13.5235
  20   2.0000      -0.444576       -12.0975
  21   2.0000      -0.435407       -11.8480
  22   2.0000      -0.429566       -11.6891
  23   2.0000      -0.409521       -11.1436
  24   2.0000      -0.396198       -10.7811
  25   2.0000      -0.388421       -10.5695
  26   2.0000      -0.378307       -10.2943
  27   2.0000      -0.355580        -9.6758
  28   2.0000      -0.344043        -9.3619
  29   2.0000      -0.335473        -9.1287
  30   2.0000      -0.326335        -8.8800
  31   2.0000      -0.325231        -8.8500
  32   2.0000      -0.310219        -8.4415
  33   2.0000      -0.301546        -8.2055
  34   2.0000      -0.272304        -7.4098
  35   2.0000      -0.264877        -7.2077
  36   2.0000      -0.261861        -7.1256
  37   2.0000      -0.257081        -6.9955
  38   2.0000      -0.217124        -5.9082
  39   0.0000      -0.020048        -0.5455
  40   0.0000       0.030066         0.8181
  41   0.0000       0.041679         1.1341
  42   0.0000       0.068156         1.8546
  43   0.0000       0.074769         2.0346

MULLIKEN ATOMIC CHARGES
-----------------------
   0 C :   -0.111888
   1 O :   -0.238665
   2 C :    0.118492
   3 O :   -0.194690
   4 C :   -0.137047
   5 C :   -0.140955
   6 C :   -0.150204
   7 C :   -0.160487
   8 C :   -0.148659
   9 C :   -0.119428
  10 H :    0.118538
  11 H :    0.119763
  12 H :    0.118785
  13 H :    0.084443
  14 H :    0.097212
  15 H :    0.083224
  16 H :    0.083746
  17 H :    0.085506
  18 H :    0.083004
  19 H :    0.070848
  20 H :    0.093798
  21 H :    0.080645
  22 H :    0.087222
  23 H :    0.076796
Sum of atomic charges:    0.0000000

LOEWDIN ATOMIC CHARGES
----------------------
   0 C :   -0.207666
   1 O :   -0.066804
   2 C :    0.043558
   3 O :   -0.155770
   4 C :   -0.161740
   5 C :   -0.206897
   6 C :   -0.231205
   7 C :   -0.225287
   8 C :   -0.235129
   9 C :   -0.213772
  10 H :    0.119141
  11 H :    0.118773
  12 H :    0.118753
  13 H :    0.135414
  14 H :    0.121537
  15 H :    0.118283
  16 H :    0.114966
  17 H :    0.116948
  18 H :    0.115663
  19 H :    0.110903
  20 H :    0.118084
  21 H :    0.114890
  22 H :    0.118715
  23 H :    0.118643

  Mayer bond orders larger than 0.100000
B(  0-C ,  1-O ) :   0.9449 B(  0-C , 10-H ) :   0.9528 B(  0-C , 11-H ) :   0.9571
B(  0-C , 12-H ) :   0.9508 B(  1-O ,  2-C ) :   1.1829 B(  2-C ,  3-O ) :   2.0742
B(  2-C ,  4-C ) :   0.9740 B(  4-C ,  5-C ) :   1.0790 B(  4-C ,  9-C ) :   1.0665
B(  4-C , 13-H ) :   0.8716 B(  5-C ,  6-C ) :   1.1290 B(  5-C , 14-H ) :   0.9149
B(  5-C , 15-H ) :   0.9116 B(  6-C ,  7-C ) :   1.1259 B(  6-C , 16-H ) :   0.9101
B(  6-C , 17-H ) :   0.9169 B(  7-C ,  8-C ) :   1.1324 B(  7-C , 18-H ) :   0.9192
B(  7-C , 19-H ) :   0.9176 B(  8-C ,  9-C ) :   1.1262 B(  8-C , 20-H ) :   0.9055
B(  8-C , 21-H ) :   0.9159 B(  9-C , 22-H ) :   0.9221 B(  9-C , 23-H ) :   0.9074

Dispersion correction           -0.023896962
FINAL SINGLE POINT ENERGY      -462.704080642675

DIPOLE MOMENT
-------------

Method             : SCF
Type of density    : Electron Density
Multiplicity       :   1
Irrep              :   0
Energy             :  -462.7920599585064565 Eh
Relativity type    :
Basis              : AO
                                X                 Y                 Z
Electronic contribution:     -6.767421612      -1.722356665      -2.183466842
Nuclear contribution   :      7.067624477       2.166489992       2.610521439
                        -----------------------------------------
Total Dipole Moment    :      0.300202866       0.444133327       0.427054596
                        -----------------------------------------
Magnitude (a.u.)       :      0.685384418
Magnitude (Debye)      :      1.742108743

Rotational constants in cm-1:             0.069738             0.033824             0.030974
Rotational constants in MHz :          2090.692749          1014.006488           928.579653

                             ****ORCA TERMINATED NORMALLY****
TOTAL RUN TIME: 0 days 0 hours 0 minutes 8 seconds 485 msec
