                         Program Version 6.0.1  -  RELEASE   -
|  1> ! r2scan-3c def2/J RI DEFGRID2 scfconv6 printgap
|  2> %output
|  3>     printlevel normal
|  4> end
|  5> * xyz 0 1
|  6> C -3.5238197513 0.0002558797 0.0009516543
|  7> C -2.8276287057 1.1151566465 0.4367793625
|  8> C -1.4451494745 1.1170334695 0.4333543491
|  9> C -0.7355301727 -2.98263e-05 -0.0008842195
| 10> C -1.4459307086 -1.1169174347 -0.4342763656
| 11> C -2.8284164055 -1.1147720791 -0.4359050907
| 12> C 0.7355365931 -0.0002059893 -0.0009674836
| 13> C 1.4457705513 1.1167732659 -0.4344362648
| 14> C 2.8282462823 1.1149435934 -0.4358098752
| 15> C 3.5237790633 2.62028e-05 0.001053334
| 16> C 2.8278133663 -1.1151186061 0.4366516246
| 17> C 1.4453233967 -1.1171520452 0.4332298687
| 18> H -4.6038967665 0.0001521055 0.0021116862
| 19> H -3.364984083 1.9866062334 0.7822901564
| 20> H -0.9069747877 1.9838516342 0.7889999735
| 21> H -0.9083896361 -1.983707132 -0.7910233966
| 22> H -3.3663984842 -1.9862021276 -0.7804331521
| 23> H 0.9080293661 1.9833291284 -0.7914116778
| 24> H 3.3660665229 1.9862410878 -0.7809492928
| 25> H 4.6038897038 0.0001689394 0.0019665351
| 26> H 3.3653560402 -1.9863220203 0.7823991797
| 27> H 0.9073732132 -1.9840353499 0.7891377219
| 28> *
| 29>
| 30>                          ****END OF INPUT****

CARTESIAN COORDINATES (ANGSTROEM)
---------------------------------
  C     -3.523820    0.000256    0.000952
  C     -2.827629    1.115157    0.436779
  C     -1.445149    1.117033    0.433354
  C     -0.735530   -0.000030   -0.000884
  C     -1.445931   -1.116917   -0.434276
  C     -2.828416   -1.114772   -0.435905
  C      0.735537   -0.000206   -0.000967
  C      1.445771    1.116773   -0.434436
  C      2.828246    1.114944   -0.435810
  C      3.523779    0.000026    0.001053
  C      2.827813   -1.115119    0.436652
  C      1.445323   -1.117152    0.433230
  H     -4.603897    0.000152    0.002112
  H     -3.364984    1.986606    0.782290
  H     -0.906975    1.983852    0.789000
  H     -0.908390   -1.983707   -0.791023
  H     -3.366398   -1.986202   -0.780433
  H      0.908029    1.983329   -0.791412
  H      3.366067    1.986241   -0.780949
  H      4.603890    0.000169    0.001967
  H      3.365356   -1.986322    0.782399
  H      0.907373   -1.984035    0.789138

 Total Charge           Charge          ....    0
 Multiplicity           Mult            ....    1
 Number of Electrons    NEL             ....   82
 Basis Dimension        Dim             ....  278

ORBITAL ENERGIES
----------------

  NO   OCC          E(Eh)            E(eV)
   0   2.0000     -10.047767      -273.4136
   1   2.0000     -10.047557      -273.4079
   2   2.0000     -10.036909      -273.1182
   3   2.0000     -10.036909      -273.1182
   4   2.0000     -10.036858      -273.1168
   5   2.0000     -10.036858      -273.1168
   6   2.0000     -10.036236      -273.0999
   7   2.0000     -10.036236      -273.0999
   8   2.0000     -10.036223      -273.0995
   9   2.0000     -10.036220      -273.0994
  10   2.0000     -10.035397      -273.0770
  11   2.0000     -10.035397      -273.0770
  12   2.0000      -0.843196       -22.9445
  13   2.0000      -0.820310       -22.3218
  14   2.0000      -0.750363       -20.4184
  15   2.0000      -0.722722       -19.6663
  16   2.0000      -0.715514       -19.4701
  17   2.0000      -0.692493       -18.8437
  18   2.0000      -0.596533       -16.2325
  19   2.0000      -0.590332       -16.0637
  20   2.0000      -0.563974       -15.3465
  21   2.0000      -0.549328       -14.9480
  22   2.0000      -0.505215       -13.7476
  23   2.0000      -0.471134       -12.8202
  24   2.0000      -0.439548       -11.9607
  25   2.0000      -0.436512       -11.8781
  26   2.0000      -0.411599       -11.2002
  27   2.0000      -0.411204       -11.1894
  28   2.0000      -0.395683       -10.7671
  29   2.0000      -0.390901       -10.6370
  30   2.0000      -0.389275       -10.5927
  31   2.0000      -0.356035        -9.6882
  32   2.0000      -0.340000        -9.2519
  33   2.0000      -0.336090        -9.1455
  34   2.0000      -0.321339        -8.7441
  35   2.0000      -0.306689        -8.3454
  36   2.0000      -0.306543        -8.3414
  37   2.0000      -0.259571        -7.0633
  38   2.0000      -0.239988        -6.5304
  39   2.0000      -0.239981        -6.5302
  40   2.0000      -0.215211        -5.8562
  41   0.0000      -0.055486        -1.5098
  42   0.0000      -0.034892        -0.9494
  43   0.0000      -0.033703        -0.9171
  44   0.0000      -0.005139        -0.1398
  45   0.0000       0.081859         2.2275

MULLIKEN ATOMIC CHARGES
-----------------------
   0 C :   -0.142377
   1 C :   -0.163152
   2 C :   -0.215248
   3 C :    0.156434
   4 C :   -0.215196
   5 C :   -0.163089
   6 C :    0.156422
   7 C :   -0.215230
   8 C :   -0.163083
   9 C :   -0.142373
  10 C :   -0.163161
  11 C :   -0.215212
  12 H :    0.146856
  13 H :    0.145644
  14 H :    0.152237
  15 H :    0.152252
  16 H :    0.145639
  17 H :    0.152255
  18 H :    0.145643
  19 H :    0.146855
  20 H :    0.145644
  21 H :    0.152238
Sum of atomic charges:   -0.0000000

LOEWDIN ATOMIC CHARGES
----------------------
   0 C :   -0.167134
   1 C :   -0.159969
   2 C :   -0.148191
   3 C :   -0.066273
   4 C :   -0.148220
   5 C :   -0.159965
   6 C :   -0.066275
   7 C :   -0.148223
   8 C :   -0.159970
   9 C :   -0.167133
  10 C :   -0.159972
  11 C :   -0.148185
  12 H :    0.167054
  13 H :    0.167700
  14 H :    0.173654
  15 H :    0.173649
  16 H :    0.167697
  17 H :    0.173649
  18 H :    0.167701
  19 H :    0.167055
  20 H :    0.167699
  21 H :    0.173652

  Mayer bond orders larger than 0.100000
B(  0-C ,  1-C ) :   1.4181 B(  0-C ,  5-C ) :   1.4181 B(  0-C , 12-H ) :   0.9472
B(  1-C ,  2-C ) :   1.4371 B(  1-C , 13-H ) :   0.9492 B(  2-C ,  3-C ) :   1.4103
B(  2-C , 14-H ) :   0.9393 B(  3-C ,  4-C ) :   1.4101 B(  3-C ,  6-C ) :   0.8068
B(  4-C ,  5-C ) :   1.4370 B(  4-C , 15-H ) :   0.9393 B(  5-C , 16-H ) :   0.9492
B(  6-C ,  7-C ) :   1.4100 B(  6-C , 11-C ) :   1.4103 B(  7-C ,  8-C ) :   1.4370
B(  7-C , 17-H ) :   0.9393 B(  8-C ,  9-C ) :   1.4181 B(  8-C , 18-H ) :   0.9491
B(  9-C , 10-C ) :   1.4181 B(  9-C , 19-H ) :   0.9472 B( 10-C , 11-C ) :   1.4371
B( 10-C , 20-H ) :   0.9492 B( 11-C , 21-H ) :   0.9393

Dispersion correction           -0.008802238
FINAL SINGLE POINT ENERGY      -463.174427695574

DIPOLE MOMENT
-------------

Method             : SCF
Type of density    : Electron Density
Multiplicity       :   1
Irrep              :   0
Energy             :  -463.1700138373191749 Eh
Relativity type    :
Basis              : AO
                                X                 Y                 Z
Electronic contribution:     -0.000054531      -0.000140560      -0.002457516
Nuclear contribution   :      0.000066693       0.000077398       0.002896820
                        -----------------------------------------
Total Dipole Moment    :      0.000012162      -0.000063162       0.000439304
                        -----------------------------------------
Magnitude (a.u.)       :      0.000443988
Magnitude (Debye)      :      0.001128527

Rotational constants in cm-1:             0.096543             0.018508             0.016223
Rotational constants in MHz :          2894.298210           554.867634           486.367873

                             ****ORCA TERMINATED NORMALLY****
TOTAL RUN TIME: 0 days 0 hours 0 minutes 33 seconds 425 msec
