                         Program Version 6.0.0  -   RELEASE  -
|  1> ! r2SCAN-3c DEF2-TZVP FREQ
|  2> * xyzfile 0 1 censo.xyz
|  3>
|  4>                          ****END OF INPUT****

CARTESIAN COORDINATES (ANGSTROEM)
---------------------------------
  C      0.689659   -1.428252   -0.100260
  C      0.449523    0.010535    0.335683
  C      1.618782    0.910246   -0.017475
  O     -0.709554    0.584217   -0.311275
  C     -1.942207    0.002163    0.109433
  H      0.828579   -1.478788   -1.186067
  H      1.595074   -1.810825    0.381038
  H     -0.137029   -2.086603    0.180222
  H      0.276543    0.038242    1.424025
  H      2.527502    0.557529    0.478426
  H      1.428988    1.939841    0.300265
  H      1.792425    0.902908   -1.099180
  H     -2.063333   -1.025900   -0.256450
  H     -2.744620    0.616458   -0.307715
  H     -2.025957    0.001983    1.206179

 Total Charge           Charge          ....    0
 Multiplicity           Mult            ....    1
 Number of Electrons    NEL             ....   42
 Basis Dimension        Dim             ....  215

ORBITAL ENERGIES
----------------

  NO   OCC          E(Eh)            E(eV)
   0   2.0000     -18.948331      -515.6103
   1   2.0000     -10.081713      -274.3374
   2   2.0000     -10.068929      -273.9895
   3   2.0000     -10.021731      -272.7052
   4   2.0000     -10.018874      -272.6274
   5   2.0000      -0.982338       -26.7308
   6   2.0000      -0.746829       -20.3222
   7   2.0000      -0.660124       -17.9629
   8   2.0000      -0.636945       -17.3322
   9   2.0000      -0.542811       -14.7707
  10   2.0000      -0.459334       -12.4991
  11   2.0000      -0.431115       -11.7312
  12   2.0000      -0.418929       -11.3996
  13   2.0000      -0.393005       -10.6942
  14   2.0000      -0.364451        -9.9172
  15   2.0000      -0.358312        -9.7502
  16   2.0000      -0.345235        -9.3943
  17   2.0000      -0.321363        -8.7447
  18   2.0000      -0.315011        -8.5719
  19   2.0000      -0.278617        -7.5815
  20   2.0000      -0.221129        -6.0172
  21   0.0000       0.042805         1.1648
  22   0.0000       0.072550         1.9742
  23   0.0000       0.077303         2.1035
  24   0.0000       0.094904         2.5825
  25   0.0000       0.110268         3.0005

MULLIKEN ATOMIC CHARGES
-----------------------
   0 C :   -0.326053
   1 C :    0.121770
   2 C :   -0.283478
   3 O :   -0.319113
   4 C :   -0.155297
   5 H :    0.107838
   6 H :    0.101872
   7 H :    0.107833
   8 H :    0.039171
   9 H :    0.095865
  10 H :    0.110405
  11 H :    0.103698
  12 H :    0.093069
  13 H :    0.115464
  14 H :    0.086956
Sum of atomic charges:   -0.0000000

LOEWDIN ATOMIC CHARGES
----------------------
   0 C :   -0.291399
   1 C :   -0.374921
   2 C :   -0.283537
   3 O :    0.130225
   4 C :   -0.347645
   5 H :    0.124239
   6 H :    0.124709
   7 H :    0.118030
   8 H :    0.127796
   9 H :    0.122791
  10 H :    0.122912
  11 H :    0.123821
  12 H :    0.095876
  13 H :    0.109647
  14 H :    0.097455

  Mayer bond orders larger than 0.100000
B(  0-C ,  1-C ) :   0.9553 B(  0-C ,  5-H ) :   0.9683 B(  0-C ,  6-H ) :   0.9675
B(  0-C ,  7-H ) :   0.9704 B(  1-C ,  2-C ) :   0.9720 B(  1-C ,  3-O ) :   0.9788
B(  1-C ,  8-H ) :   0.9662 B(  2-C ,  9-H ) :   0.9690 B(  2-C , 10-H ) :   0.9719
B(  2-C , 11-H ) :   0.9724 B(  3-O ,  4-C ) :   0.9820 B(  4-C , 12-H ) :   0.9678
B(  4-C , 13-H ) :   0.9767 B(  4-C , 14-H ) :   0.9667

Dispersion correction           -0.003127259
FINAL SINGLE POINT ENERGY      -233.604114537258

DIPOLE MOMENT
-------------

Method             : SCF
Type of density    : Electron Density
Multiplicity       :   1
Irrep              :   0
Energy             :  -233.6107786858982251 Eh
Relativity type    :
Basis              : AO
                                X                 Y                 Z
Electronic contribution:     -1.360581571       1.941644801      -0.711690543
Nuclear contribution   :      1.384418802      -2.307357830       1.036483003
                        -----------------------------------------
Total Dipole Moment    :      0.023837231      -0.365713028       0.324792460
                        -----------------------------------------
Magnitude (a.u.)       :      0.489698248
Magnitude (Debye)      :      1.244714028

VIBRATIONAL FREQUENCIES
-----------------------

Scaling factor for frequencies =  1.000000000  (already applied!)

     0:       0.00 cm**-1
     1:       0.00 cm**-1
     2:       0.00 cm**-1
     3:       0.00 cm**-1
     4:       0.00 cm**-1
     5:       0.00 cm**-1
     6:      89.44 cm**-1
     7:     205.34 cm**-1
     8:     231.03 cm**-1
     9:     279.09 cm**-1
    10:     306.91 cm**-1
    11:     372.96 cm**-1
    12:     457.69 cm**-1
    13:     501.98 cm**-1
    14:     787.82 cm**-1
    15:     902.08 cm**-1
    16:     928.21 cm**-1
    17:     943.11 cm**-1
    18:    1054.32 cm**-1
    19:    1122.79 cm**-1
    20:    1144.43 cm**-1
    21:    1162.69 cm**-1
    22:    1186.59 cm**-1
    23:    1222.69 cm**-1
    24:    1353.03 cm**-1
    25:    1356.44 cm**-1
    26:    1389.45 cm**-1
    27:    1405.09 cm**-1
    28:    1457.20 cm**-1
    29:    1470.77 cm**-1
    30:    1473.57 cm**-1
    31:    1481.19 cm**-1
    32:    1487.40 cm**-1
    33:    1501.61 cm**-1
    34:    1505.80 cm**-1
    35:    2954.61 cm**-1
    36:    2963.88 cm**-1
    37:    3007.76 cm**-1
    38:    3012.35 cm**-1
    39:    3026.76 cm**-1
    40:    3085.77 cm**-1
    41:    3092.21 cm**-1
    42:    3093.08 cm**-1
    43:    3097.28 cm**-1
    44:    3101.36 cm**-1

IR SPECTRUM
-----------

 Mode   freq       eps      Int      T**2         TX        TY        TZ
       cm**-1   L/(mol*cm) km/mol    a.u.
----------------------------------------------------------------------------
  6:     89.44   0.000387    1.96  0.001351  ( 0.003094 -0.026612 -0.025156)
  7:    205.34   0.000315    1.59  0.000478  (-0.004480  0.013098  0.016926)
  8:    231.03   0.000233    1.18  0.000315  ( 0.002454  0.008578  0.015327)
  9:    279.09   0.000230    1.16  0.000257  ( 0.005177 -0.011777 -0.009565)
 10:    306.91   0.000351    1.78  0.000357  (-0.010152  0.002565 -0.015736)
 11:    372.96   0.000066    0.33  0.000055  (-0.005440  0.003540 -0.003624)
 12:    457.69   0.001031    5.21  0.000703  (-0.005751  0.024971  0.006824)
 13:    501.98   0.000083    0.42  0.000052  (-0.005853  0.003486  0.002310)
 14:    787.82   0.002779   14.04  0.001101  ( 0.019872 -0.019472  0.018074)
 15:    902.08   0.002638   13.33  0.000913  (-0.012845  0.022215 -0.015943)
 16:    928.21   0.000081    0.41  0.000027  (-0.003251 -0.004037 -0.000702)
 17:    943.11   0.000220    1.11  0.000073  (-0.008051  0.000754 -0.002730)
 18:   1054.32   0.023669  119.61  0.007006  (-0.082733 -0.007823  0.009983)
 19:   1122.79   0.005154   26.04  0.001432  (-0.033720  0.010081 -0.013918)
 20:   1144.43   0.004993   25.23  0.001362  ( 0.030062  0.018971  0.009896)
 21:   1162.69   0.000565    2.85  0.000152  (-0.005146 -0.001232 -0.011119)
 22:   1186.59   0.005424   27.41  0.001427  ( 0.035534 -0.012680  0.001743)
 23:   1222.69   0.001255    6.34  0.000320  ( 0.008871 -0.010082  0.011828)
 24:   1353.03   0.003595   18.17  0.000829  ( 0.027377 -0.005563 -0.006982)
 25:   1356.44   0.000870    4.40  0.000200  ( 0.003301  0.013724 -0.000936)
 26:   1389.45   0.004455   22.51  0.001001  (-0.002034 -0.031480 -0.002314)
 27:   1405.09   0.003144   15.89  0.000698  (-0.025329  0.000908  0.007470)
 28:   1457.20   0.000128    0.65  0.000027  ( 0.002152 -0.003815 -0.002866)
 29:   1470.77   0.000210    1.06  0.000045  (-0.002591 -0.001000  0.006068)
 30:   1473.57   0.000425    2.15  0.000090  ( 0.005117 -0.006955 -0.003940)
 31:   1481.19   0.001913    9.67  0.000403  (-0.002919  0.006947  0.018608)
 32:   1487.40   0.000506    2.56  0.000106  (-0.006612  0.004494 -0.006496)
 33:   1501.61   0.001481    7.48  0.000308  (-0.014296  0.001060 -0.010111)
 34:   1505.80   0.001430    7.23  0.000296  ( 0.003762 -0.008234  0.014643)
 35:   2954.61   0.007484   37.82  0.000791  ( 0.007934  0.005640  0.026377)
 36:   2963.88   0.015137   76.49  0.001594  (-0.028452 -0.010890  0.025799)
 37:   3007.76   0.003123   15.78  0.000324  ( 0.003344  0.017666 -0.000860)
 38:   3012.35   0.002838   14.34  0.000294  ( 0.015724  0.003209 -0.006039)
 39:   3026.76   0.012604   63.69  0.001299  (-0.004037 -0.023591 -0.026956)
 40:   3085.77   0.000712    3.60  0.000072  ( 0.003389 -0.005902  0.005070)
 41:   3092.21   0.006065   30.65  0.000612  (-0.020942  0.010977 -0.007279)
 42:   3093.08   0.008412   42.51  0.000849  ( 0.007496  0.006989  0.027271)
 43:   3097.28   0.005908   29.86  0.000595  (-0.013289 -0.016141  0.012577)
 44:   3101.36   0.005927   29.95  0.000596  (-0.017567  0.015814 -0.006143)

--------------------------
THERMOCHEMISTRY AT 298.15K
--------------------------

Temperature         ...   298.15 K
Pressure            ...     1.00 atm
Total Mass          ...    74.12 AMU
Quasi RRHO          ...     True
Cut-Off Frequency   ...     1.00 cm^-1

Throughout the following assumptions are being made:
  (1) The electronic state is orbitally nondegenerate
  (2) There are no thermally accessible electronically excited states
  (3) Hindered rotations indicated by low frequency modes are not
      treated as such but are treated as vibrations and this may
      cause some error
  (4) All equations used are the standard statistical mechanics
      equations for an ideal gas
  (5) All vibrations are strictly harmonic

freq.      89.44  E(vib)   ...       0.47
freq.     205.34  E(vib)   ...       0.35
freq.     231.03  E(vib)   ...       0.32
freq.     279.09  E(vib)   ...       0.28
freq.     306.91  E(vib)   ...       0.26
freq.     372.96  E(vib)   ...       0.21
freq.     457.69  E(vib)   ...       0.16
freq.     501.98  E(vib)   ...       0.14
freq.     787.82  E(vib)   ...       0.05
freq.     902.08  E(vib)   ...       0.03
freq.     928.21  E(vib)   ...       0.03
freq.     943.11  E(vib)   ...       0.03
freq.    1054.32  E(vib)   ...       0.02
freq.    1122.79  E(vib)   ...       0.01
freq.    1144.43  E(vib)   ...       0.01
freq.    1162.69  E(vib)   ...       0.01
freq.    1186.59  E(vib)   ...       0.01
freq.    1222.69  E(vib)   ...       0.01
freq.    1353.03  E(vib)   ...       0.01
freq.    1356.44  E(vib)   ...       0.01
freq.    1389.45  E(vib)   ...       0.00
freq.    1405.09  E(vib)   ...       0.00
freq.    1457.20  E(vib)   ...       0.00
freq.    1470.77  E(vib)   ...       0.00
freq.    1473.57  E(vib)   ...       0.00
freq.    1481.19  E(vib)   ...       0.00
freq.    1487.40  E(vib)   ...       0.00
freq.    1501.61  E(vib)   ...       0.00
freq.    1505.80  E(vib)   ...       0.00
freq.    2954.61  E(vib)   ...       0.00
freq.    2963.88  E(vib)   ...       0.00
freq.    3007.76  E(vib)   ...       0.00
freq.    3012.35  E(vib)   ...       0.00
freq.    3026.76  E(vib)   ...       0.00
freq.    3085.77  E(vib)   ...       0.00
freq.    3092.21  E(vib)   ...       0.00
freq.    3093.08  E(vib)   ...       0.00
freq.    3097.28  E(vib)   ...       0.00
freq.    3101.36  E(vib)   ...       0.00

------------
INNER ENERGY
------------

The inner energy is: U= E(el) + E(ZPE) + E(vib) + E(rot) + E(trans)
    E(el)   - is the total energy from the electronic structure calculation
              = E(kin-el) + E(nuc-el) + E(el-el) + E(nuc-nuc)
    E(ZPE)  - the the zero temperature vibrational energy from the frequency calculation
    E(vib)  - the the finite temperature correction to E(ZPE) due to population
              of excited vibrational states
    E(rot)  - is the rotational thermal energy
    E(trans)- is the translational thermal energy

Summary of contributions to the inner energy U:
Electronic energy                ...   -233.60411454 Eh
Zero point energy                ...      0.13490346 Eh      84.65 kcal/mol
Thermal vibrational correction   ...      0.00392247 Eh       2.46 kcal/mol
Thermal rotational correction    ...      0.00141627 Eh       0.89 kcal/mol
Thermal translational correction ...      0.00141627 Eh       0.89 kcal/mol
-----------------------------------------------------------------------
Total thermal energy                   -233.46245607 Eh

Summary of corrections to the electronic energy:
(perhaps to be used in another calculation)
Total thermal correction                  0.00675501 Eh       4.24 kcal/mol
Non-thermal (ZPE) correction              0.13490346 Eh      84.65 kcal/mol
-----------------------------------------------------------------------
Total correction                          0.14165847 Eh      88.89 kcal/mol

--------
ENTHALPY
--------

The enthalpy is H = U + kB*T
                kB is Boltzmann's constant
Total thermal energy              ...   -233.46245607 Eh
Thermal Enthalpy correction       ...      0.00094421 Eh       0.59 kcal/mol
-----------------------------------------------------------------------
Total Enthalpy                    ...   -233.46151186 Eh

Note: Only C1 symmetry has been detected, increase convergence thresholds
      if your molecule has a higher symmetry. Symmetry factor of 1.0 is
      used for the rotational entropy correction.

Note: Rotational entropy computed according to Herzberg
Infrared and Raman Spectra, Chapter V,1, Van Nostrand Reinhold, 1945
Point Group:  C1, Symmetry Number:   1
Rotational constants in cm-1:     0.254974     0.125710     0.093512

Vibrational entropy computed according to the QRRHO of S. Grimme
Chem.Eur.J. 2012 18 9955 using a reference frequency of 100.0 cm-1

-------
ENTROPY
-------

The entropy contributions are T*S = T*(S(el)+S(vib)+S(rot)+S(trans))
     S(el)   - electronic entropy
     S(vib)  - vibrational entropy
     S(rot)  - rotational entropy
     S(trans)- translational entropy
The entropies will be listed as multiplied by the temperature to get
units of energy

Electronic entropy                ...      0.00000000 Eh      0.00 kcal/mol
Vibrational entropy               ...      0.00651471 Eh      4.09 kcal/mol
Rotational entropy                ...      0.01225367 Eh      7.69 kcal/mol
Translational entropy             ...      0.01844715 Eh     11.58 kcal/mol
-----------------------------------------------------------------------
Final entropy term                ...      0.03721553 Eh     23.35 kcal/mol

In case the symmetry of your molecule has not been determined correctly
or in case you have a reason to use a different symmetry number we print
out the resulting rotational entropy values for sn=1,12:

 non-linear molecules -----------------------------------
|  sn= 1 | S(rot)=       0.01225367 Eh      7.69 kcal/mol|
|  sn= 2 | S(rot)=       0.01159922 Eh      7.28 kcal/mol|
|  sn= 3 | S(rot)=       0.01121639 Eh      7.04 kcal/mol|
|  sn= 4 | S(rot)=       0.01094476 Eh      6.87 kcal/mol|
|  sn= 5 | S(rot)=       0.01073407 Eh      6.74 kcal/mol|
|  sn= 6 | S(rot)=       0.01056193 Eh      6.63 kcal/mol|
|  sn= 7 | S(rot)=       0.01041638 Eh      6.54 kcal/mol|
|  sn= 8 | S(rot)=       0.01029030 Eh      6.46 kcal/mol|
|  sn= 9 | S(rot)=       0.01017910 Eh      6.39 kcal/mol|
|  sn=10 | S(rot)=       0.01007962 Eh      6.33 kcal/mol|
|  sn=11 | S(rot)=       0.00998963 Eh      6.27 kcal/mol|
|  sn=12 | S(rot)=       0.00990747 Eh      6.22 kcal/mol|
 linear molecules ---------------------------------------
|  Dinfh | S(rot)=       0.00756320 Eh      4.75 kcal/mol|
|  Cinfv | S(rot)=       0.00821766 Eh      5.16 kcal/mol|
 --------------------------------------------------------

-------------------
GIBBS FREE ENERGY
-------------------

                             ****ORCA TERMINATED NORMALLY****
TOTAL RUN TIME: 0 days 0 hours 9 minutes 44 seconds 827 msec
