                         Program Version 6.0.0  -   RELEASE  -
|  1> ! r2SCAN-3c DEF2-TZVP FREQ
|  2> * xyzfile 0 1 vacuum_censo.xyz
|  3>
|  4>                          ****END OF INPUT****

CARTESIAN COORDINATES (ANGSTROEM)
---------------------------------
  C      1.611370   -0.908076   -0.008099
  C      0.444097    0.002285    0.332238
  C      0.698413    1.440627   -0.110393
  O     -0.701301   -0.563962   -0.317614
  C     -1.934795   -0.017175    0.112630
  H      1.398273   -1.933712    0.303104
  H      1.786726   -0.904031   -1.088386
  H      2.521746   -0.568409    0.493984
  H      0.270918   -0.016687    1.423553
  H     -0.116398    2.110123    0.178138
  H      0.812966    1.479516   -1.198608
  H      1.616156    1.819925    0.349464
  H     -2.070185    1.025367   -0.210557
  H     -2.032999   -0.061290    1.209323
  H     -2.724906   -0.623645   -0.336842

 Total Charge           Charge          ....    0
 Multiplicity           Mult            ....    1
 Number of Electrons    NEL             ....   42
 Basis Dimension        Dim             ....  215

ORBITAL ENERGIES
----------------

  NO   OCC          E(Eh)            E(eV)
   0   2.0000     -18.949389      -515.6391
   1   2.0000     -10.081754      -274.3385
   2   2.0000     -10.069167      -273.9960
   3   2.0000     -10.021249      -272.6920
   4   2.0000     -10.018178      -272.6085
   5   2.0000      -0.988942       -26.9105
   6   2.0000      -0.746724       -20.3194
   7   2.0000      -0.659925       -17.9575
   8   2.0000      -0.637448       -17.3459
   9   2.0000      -0.543109       -14.7787
  10   2.0000      -0.461657       -12.5623
  11   2.0000      -0.431331       -11.7371
  12   2.0000      -0.420899       -11.4532
  13   2.0000      -0.392770       -10.6878
  14   2.0000      -0.364680        -9.9235
  15   2.0000      -0.358038        -9.7427
  16   2.0000      -0.346338        -9.4243
  17   2.0000      -0.320893        -8.7319
  18   2.0000      -0.314030        -8.5452
  19   2.0000      -0.278876        -7.5886
  20   2.0000      -0.221799        -6.0355
  21   0.0000       0.042971         1.1693
  22   0.0000       0.073839         2.0093
  23   0.0000       0.078432         2.1342
  24   0.0000       0.095426         2.5967
  25   0.0000       0.110095         2.9958

MULLIKEN ATOMIC CHARGES
-----------------------
   0 C :   -0.282785
   1 C :    0.126771
   2 C :   -0.328786
   3 O :   -0.316656
   4 C :   -0.152764
   5 H :    0.109415
   6 H :    0.102948
   7 H :    0.095804
   8 H :    0.036733
   9 H :    0.107504
  10 H :    0.107621
  11 H :    0.102370
  12 H :    0.091167
  13 H :    0.085877
  14 H :    0.114780
Sum of atomic charges:    0.0000000

LOEWDIN ATOMIC CHARGES
----------------------
   0 C :   -0.283326
   1 C :   -0.381028
   2 C :   -0.291365
   3 O :    0.144279
   4 C :   -0.353156
   5 H :    0.122548
   6 H :    0.123431
   7 H :    0.122051
   8 H :    0.127508
   9 H :    0.117477
  10 H :    0.123989
  11 H :    0.124060
  12 H :    0.096114
  13 H :    0.097597
  14 H :    0.109821

  Mayer bond orders larger than 0.100000
B(  0-C ,  1-C ) :   0.9719 B(  0-C ,  5-H ) :   0.9722 B(  0-C ,  6-H ) :   0.9725
B(  0-C ,  7-H ) :   0.9692 B(  1-C ,  2-C ) :   0.9552 B(  1-C ,  3-O ) :   0.9778
B(  1-C ,  8-H ) :   0.9649 B(  2-C ,  9-H ) :   0.9705 B(  2-C , 10-H ) :   0.9686
B(  2-C , 11-H ) :   0.9678 B(  3-O ,  4-C ) :   0.9822 B(  4-C , 12-H ) :   0.9672
B(  4-C , 13-H ) :   0.9671 B(  4-C , 14-H ) :   0.9773

Dispersion correction           -0.003127977
FINAL SINGLE POINT ENERGY      -233.604415288378

DIPOLE MOMENT
-------------

Method             : SCF
Type of density    : Electron Density
Multiplicity       :   1
Irrep              :   0
Energy             :  -233.6111111128520292 Eh
Relativity type    :
Basis              : AO
                                X                 Y                 Z
Electronic contribution:     -1.339303362      -1.890357953      -0.732851195
Nuclear contribution   :      1.349868674       2.233184161       1.052745164
                        -----------------------------------------
Total Dipole Moment    :      0.010565312       0.342826207       0.319893969
                        -----------------------------------------
Magnitude (a.u.)       :      0.469013418
Magnitude (Debye)      :      1.192137367

VIBRATIONAL FREQUENCIES
-----------------------

Scaling factor for frequencies =  1.000000000  (already applied!)

     0:       0.00 cm**-1
     1:       0.00 cm**-1
     2:       0.00 cm**-1
     3:       0.00 cm**-1
     4:       0.00 cm**-1
     5:       0.00 cm**-1
     6:      87.58 cm**-1
     7:     202.09 cm**-1
     8:     225.41 cm**-1
     9:     267.87 cm**-1
    10:     304.74 cm**-1
    11:     371.35 cm**-1
    12:     456.25 cm**-1
    13:     504.26 cm**-1
    14:     798.36 cm**-1
    15:     907.08 cm**-1
    16:     924.61 cm**-1
    17:     941.05 cm**-1
    18:    1086.45 cm**-1
    19:    1129.45 cm**-1
    20:    1145.24 cm**-1
    21:    1170.90 cm**-1
    22:    1188.27 cm**-1
    23:    1228.62 cm**-1
    24:    1356.90 cm**-1
    25:    1361.48 cm**-1
    26:    1386.18 cm**-1
    27:    1402.47 cm**-1
    28:    1463.07 cm**-1
    29:    1470.25 cm**-1
    30:    1474.24 cm**-1
    31:    1480.68 cm**-1
    32:    1488.76 cm**-1
    33:    1502.71 cm**-1
    34:    1505.94 cm**-1
    35:    2929.45 cm**-1
    36:    2948.21 cm**-1
    37:    3004.89 cm**-1
    38:    3013.13 cm**-1
    39:    3018.43 cm**-1
    40:    3091.09 cm**-1
    41:    3093.44 cm**-1
    42:    3097.63 cm**-1
    43:    3100.01 cm**-1
    44:    3108.74 cm**-1

IR SPECTRUM
-----------

 Mode   freq       eps      Int      T**2         TX        TY        TZ
       cm**-1   L/(mol*cm) km/mol    a.u.
----------------------------------------------------------------------------
  6:     87.58   0.000488    2.47  0.001738  (-0.003608 -0.030195  0.028521)
  7:    202.09   0.000182    0.92  0.000282  (-0.003754 -0.010417  0.012612)
  8:    225.41   0.000248    1.26  0.000344  ( 0.002076 -0.009551  0.015759)
  9:    267.87   0.000221    1.12  0.000257  ( 0.005796  0.011988 -0.008949)
 10:    304.74   0.000375    1.89  0.000384  (-0.010057 -0.001714 -0.016718)
 11:    371.35   0.000070    0.35  0.000059  (-0.005220 -0.003447 -0.004456)
 12:    456.25   0.001035    5.23  0.000708  (-0.004933 -0.025244  0.006782)
 13:    504.26   0.000054    0.27  0.000033  (-0.004862 -0.001921  0.002408)
 14:    798.36   0.001837    9.29  0.000718  (-0.014699 -0.015693 -0.015997)
 15:    907.08   0.003126   15.80  0.001075  (-0.014061 -0.023908 -0.017495)
 16:    924.61   0.000088    0.45  0.000030  ( 0.002872 -0.004629 -0.000350)
 17:    941.05   0.000172    0.87  0.000057  (-0.006754 -0.001014 -0.003227)
 18:   1086.45   0.019445   98.27  0.005585  ( 0.073229 -0.006135 -0.013610)
 19:   1129.45   0.005769   29.16  0.001594  ( 0.035895  0.012469  0.012253)
 20:   1145.24   0.007662   38.72  0.002088  ( 0.039740 -0.020240  0.009937)
 21:   1170.90   0.000651    3.29  0.000173  ( 0.006777 -0.000880  0.011260)
 22:   1188.27   0.007191   36.34  0.001888  ( 0.042250  0.010169  0.000179)
 23:   1228.62   0.002122   10.72  0.000539  (-0.015948 -0.010917 -0.012858)
 24:   1356.90   0.000863    4.36  0.000199  ( 0.005501 -0.012908 -0.001273)
 25:   1361.48   0.003513   17.76  0.000805  (-0.026526 -0.007531  0.006703)
 26:   1386.18   0.004453   22.51  0.001003  ( 0.002703 -0.031455  0.002418)
 27:   1402.47   0.003423   17.30  0.000762  ( 0.026303  0.001465 -0.008224)
 28:   1463.07   0.000295    1.49  0.000063  (-0.003806 -0.006483  0.002511)
 29:   1470.25   0.000154    0.78  0.000033  (-0.002800  0.000743  0.004937)
 30:   1474.24   0.000231    1.17  0.000049  ( 0.004192  0.005314 -0.001737)
 31:   1480.68   0.002139   10.81  0.000451  ( 0.002080  0.006590 -0.020079)
 32:   1488.76   0.000290    1.47  0.000061  ( 0.005055  0.005566  0.002063)
 33:   1502.71   0.001250    6.32  0.000260  ( 0.014576  0.000525  0.006842)
 34:   1505.94   0.001827    9.23  0.000379  (-0.006259 -0.008565 -0.016309)
 35:   2929.45   0.009064   45.81  0.000966  ( 0.004655 -0.004358  0.030412)
 36:   2948.21   0.015020   75.90  0.001590  (-0.029294  0.011041  0.024693)
 37:   3004.89   0.007061   35.68  0.000733  ( 0.005444 -0.014802  0.022012)
 38:   3013.13   0.008919   45.07  0.000924  (-0.004781  0.027634 -0.011714)
 39:   3018.43   0.003118   15.76  0.000322  ( 0.015702 -0.001308 -0.008606)
 40:   3091.09   0.001019    5.15  0.000103  (-0.006971 -0.002367 -0.006976)
 41:   3093.44   0.006658   33.65  0.000672  ( 0.022547  0.010178  0.007728)
 42:   3097.63   0.005123   25.89  0.000516  ( 0.016717 -0.014855 -0.004000)
 43:   3100.01   0.009218   46.58  0.000928  ( 0.005527  0.003175  0.029788)
 44:   3108.74   0.005052   25.53  0.000507  (-0.012769 -0.018490  0.001488)

--------------------------
THERMOCHEMISTRY AT 298.15K
--------------------------

Temperature         ...   298.15 K
Pressure            ...     1.00 atm
Total Mass          ...    74.12 AMU
Quasi RRHO          ...     True
Cut-Off Frequency   ...     1.00 cm^-1

Throughout the following assumptions are being made:
  (1) The electronic state is orbitally nondegenerate
  (2) There are no thermally accessible electronically excited states
  (3) Hindered rotations indicated by low frequency modes are not
      treated as such but are treated as vibrations and this may
      cause some error
  (4) All equations used are the standard statistical mechanics
      equations for an ideal gas
  (5) All vibrations are strictly harmonic

freq.      87.58  E(vib)   ...       0.48
freq.     202.09  E(vib)   ...       0.35
freq.     225.41  E(vib)   ...       0.33
freq.     267.87  E(vib)   ...       0.29
freq.     304.74  E(vib)   ...       0.26
freq.     371.35  E(vib)   ...       0.21
freq.     456.25  E(vib)   ...       0.16
freq.     504.26  E(vib)   ...       0.14
freq.     798.36  E(vib)   ...       0.05
freq.     907.08  E(vib)   ...       0.03
freq.     924.61  E(vib)   ...       0.03
freq.     941.05  E(vib)   ...       0.03
freq.    1086.45  E(vib)   ...       0.02
freq.    1129.45  E(vib)   ...       0.01
freq.    1145.24  E(vib)   ...       0.01
freq.    1170.90  E(vib)   ...       0.01
freq.    1188.27  E(vib)   ...       0.01
freq.    1228.62  E(vib)   ...       0.01
freq.    1356.90  E(vib)   ...       0.01
freq.    1361.48  E(vib)   ...       0.01
freq.    1386.18  E(vib)   ...       0.00
freq.    1402.47  E(vib)   ...       0.00
freq.    1463.07  E(vib)   ...       0.00
freq.    1470.25  E(vib)   ...       0.00
freq.    1474.24  E(vib)   ...       0.00
freq.    1480.68  E(vib)   ...       0.00
freq.    1488.76  E(vib)   ...       0.00
freq.    1502.71  E(vib)   ...       0.00
freq.    1505.94  E(vib)   ...       0.00
freq.    2929.45  E(vib)   ...       0.00
freq.    2948.21  E(vib)   ...       0.00
freq.    3004.89  E(vib)   ...       0.00
freq.    3013.13  E(vib)   ...       0.00
freq.    3018.43  E(vib)   ...       0.00
freq.    3091.09  E(vib)   ...       0.00
freq.    3093.44  E(vib)   ...       0.00
freq.    3097.63  E(vib)   ...       0.00
freq.    3100.01  E(vib)   ...       0.00
freq.    3108.74  E(vib)   ...       0.00

------------
INNER ENERGY
------------

The inner energy is: U= E(el) + E(ZPE) + E(vib) + E(rot) + E(trans)
    E(el)   - is the total energy from the electronic structure calculation
              = E(kin-el) + E(nuc-el) + E(el-el) + E(nuc-nuc)
    E(ZPE)  - the the zero temperature vibrational energy from the frequency calculation
    E(vib)  - the the finite temperature correction to E(ZPE) due to population
              of excited vibrational states
    E(rot)  - is the rotational thermal energy
    E(trans)- is the translational thermal energy

Summary of contributions to the inner energy U:
Electronic energy                ...   -233.60441529 Eh
Zero point energy                ...      0.13495251 Eh      84.68 kcal/mol
Thermal vibrational correction   ...      0.00394952 Eh       2.48 kcal/mol
Thermal rotational correction    ...      0.00141627 Eh       0.89 kcal/mol
Thermal translational correction ...      0.00141627 Eh       0.89 kcal/mol
-----------------------------------------------------------------------
Total thermal energy                   -233.46268072 Eh

Summary of corrections to the electronic energy:
(perhaps to be used in another calculation)
Total thermal correction                  0.00678206 Eh       4.26 kcal/mol
Non-thermal (ZPE) correction              0.13495251 Eh      84.68 kcal/mol
-----------------------------------------------------------------------
Total correction                          0.14173457 Eh      88.94 kcal/mol

--------
ENTHALPY
--------

The enthalpy is H = U + kB*T
                kB is Boltzmann's constant
Total thermal energy              ...   -233.46268072 Eh
Thermal Enthalpy correction       ...      0.00094421 Eh       0.59 kcal/mol
-----------------------------------------------------------------------
Total Enthalpy                    ...   -233.46173651 Eh

Note: Only C1 symmetry has been detected, increase convergence thresholds
      if your molecule has a higher symmetry. Symmetry factor of 1.0 is
      used for the rotational entropy correction.

Note: Rotational entropy computed according to Herzberg
Infrared and Raman Spectra, Chapter V,1, Van Nostrand Reinhold, 1945
Point Group:  C1, Symmetry Number:   1
Rotational constants in cm-1:     0.254006     0.126499     0.093897

Vibrational entropy computed according to the QRRHO of S. Grimme
Chem.Eur.J. 2012 18 9955 using a reference frequency of 100.0 cm-1

-------
ENTROPY
-------

The entropy contributions are T*S = T*(S(el)+S(vib)+S(rot)+S(trans))
     S(el)   - electronic entropy
     S(vib)  - vibrational entropy
     S(rot)  - rotational entropy
     S(trans)- translational entropy
The entropies will be listed as multiplied by the temperature to get
units of energy

Electronic entropy                ...      0.00000000 Eh      0.00 kcal/mol
Vibrational entropy               ...      0.00658678 Eh      4.13 kcal/mol
Rotational entropy                ...      0.01225058 Eh      7.69 kcal/mol
Translational entropy             ...      0.01844715 Eh     11.58 kcal/mol
-----------------------------------------------------------------------
Final entropy term                ...      0.03728450 Eh     23.40 kcal/mol

In case the symmetry of your molecule has not been determined correctly
or in case you have a reason to use a different symmetry number we print
out the resulting rotational entropy values for sn=1,12:

 non-linear molecules -----------------------------------
|  sn= 1 | S(rot)=       0.01225058 Eh      7.69 kcal/mol|
|  sn= 2 | S(rot)=       0.01159612 Eh      7.28 kcal/mol|
|  sn= 3 | S(rot)=       0.01121329 Eh      7.04 kcal/mol|
|  sn= 4 | S(rot)=       0.01094166 Eh      6.87 kcal/mol|
|  sn= 5 | S(rot)=       0.01073097 Eh      6.73 kcal/mol|
|  sn= 6 | S(rot)=       0.01055883 Eh      6.63 kcal/mol|
|  sn= 7 | S(rot)=       0.01041328 Eh      6.53 kcal/mol|
|  sn= 8 | S(rot)=       0.01028721 Eh      6.46 kcal/mol|
|  sn= 9 | S(rot)=       0.01017600 Eh      6.39 kcal/mol|
|  sn=10 | S(rot)=       0.01007652 Eh      6.32 kcal/mol|
|  sn=11 | S(rot)=       0.00998653 Eh      6.27 kcal/mol|
|  sn=12 | S(rot)=       0.00990437 Eh      6.22 kcal/mol|
 linear molecules ---------------------------------------
|  Dinfh | S(rot)=       0.00755932 Eh      4.74 kcal/mol|
|  Cinfv | S(rot)=       0.00821377 Eh      5.15 kcal/mol|
 --------------------------------------------------------

-------------------
GIBBS FREE ENERGY
-------------------

                             ****ORCA TERMINATED NORMALLY****
TOTAL RUN TIME: 0 days 0 hours 9 minutes 29 seconds 694 msec
