                         Program Version 6.0.0  -   RELEASE  -
|  1> ! r2SCAN-3c DEF2-TZVP FREQ
|  2> * xyzfile 0 1 censo.xyz
|  3>
|  4>                          ****END OF INPUT****

CARTESIAN COORDINATES (ANGSTROEM)
---------------------------------
  C      1.403423   -0.001635    0.002604
  N     -0.089962   -0.000091    0.007441
  O     -0.666695   -1.081737   -0.005294
  O     -0.663416    1.083374   -0.005344
  H      1.745496   -0.915512    0.484578
  H      1.746660    0.898542    0.509228
  H      1.707084    0.013228   -1.047531

 Total Charge           Charge          ....    0
 Multiplicity           Mult            ....    1
 Number of Electrons    NEL             ....   32
 Basis Dimension        Dim             ....  142

ORBITAL ENERGIES
----------------

  NO   OCC          E(Eh)            E(eV)
   0   2.0000     -18.990723      -516.7638
   1   2.0000     -18.989969      -516.7433
   2   2.0000     -14.398962      -391.8157
   3   2.0000     -10.104431      -274.9555
   4   2.0000      -1.197289       -32.5799
   5   2.0000      -1.023323       -27.8460
   6   2.0000      -0.788504       -21.4563
   7   2.0000      -0.598166       -16.2769
   8   2.0000      -0.521873       -14.2009
   9   2.0000      -0.509918       -13.8756
  10   2.0000      -0.491822       -13.3831
  11   2.0000      -0.424017       -11.5381
  12   2.0000      -0.408118       -11.1054
  13   2.0000      -0.296938        -8.0801
  14   2.0000      -0.282033        -7.6745
  15   2.0000      -0.262573        -7.1450
  16   0.0000      -0.108490        -2.9522
  17   0.0000       0.047829         1.3015
  18   0.0000       0.062825         1.7096
  19   0.0000       0.099013         2.6943
  20   0.0000       0.108348         2.9483

MULLIKEN ATOMIC CHARGES
-----------------------
   0 C :   -0.249104
   1 N :    0.434199
   2 O :   -0.321322
   3 O :   -0.320168
   4 H :    0.152113
   5 H :    0.152174
   6 H :    0.152109
Sum of atomic charges:    0.0000000

LOEWDIN ATOMIC CHARGES
----------------------
   0 C :   -0.250523
   1 N :   -0.084885
   2 O :   -0.028720
   3 O :   -0.027938
   4 H :    0.127846
   5 H :    0.128095
   6 H :    0.136124

  Mayer bond orders larger than 0.100000
B(  0-C ,  1-N ) :   0.8809 B(  0-C ,  4-H ) :   0.9560 B(  0-C ,  5-H ) :   0.9558
B(  0-C ,  6-H ) :   0.9476 B(  1-N ,  2-O ) :   1.5855 B(  1-N ,  3-O ) :   1.5856
B(  2-O ,  3-O ) :   0.2318

Dispersion correction           -0.001019265
FINAL SINGLE POINT ENERGY      -244.993401719023

DIPOLE MOMENT
-------------

Method             : SCF
Type of density    : Electron Density
Multiplicity       :   1
Irrep              :   0
Energy             :  -245.0025288861945114 Eh
Relativity type    :
Basis              : AO
                                X                 Y                 Z
Electronic contribution:     -3.454217044       0.004075760       0.039081547
Nuclear contribution   :      4.878327470      -0.003558768      -0.046371370
                        -----------------------------------------
Total Dipole Moment    :      1.424110427       0.000516993      -0.007289823
                        -----------------------------------------
Magnitude (a.u.)       :      1.424129178
Magnitude (Debye)      :      3.619848697

VIBRATIONAL FREQUENCIES
-----------------------

Scaling factor for frequencies =  1.000000000  (already applied!)

     0:       0.00 cm**-1
     1:       0.00 cm**-1
     2:       0.00 cm**-1
     3:       0.00 cm**-1
     4:       0.00 cm**-1
     5:       0.00 cm**-1
     6:      79.45 cm**-1
     7:     482.11 cm**-1
     8:     624.69 cm**-1
     9:     667.87 cm**-1
    10:     931.01 cm**-1
    11:    1104.60 cm**-1
    12:    1133.62 cm**-1
    13:    1380.67 cm**-1
    14:    1411.43 cm**-1
    15:    1448.80 cm**-1
    16:    1469.75 cm**-1
    17:    1575.03 cm**-1
    18:    3048.70 cm**-1
    19:    3147.80 cm**-1
    20:    3184.58 cm**-1

IR SPECTRUM
-----------

 Mode   freq       eps      Int      T**2         TX        TY        TZ
       cm**-1   L/(mol*cm) km/mol    a.u.
----------------------------------------------------------------------------
  6:     79.45   0.000009    0.05  0.000036  (-0.000487  0.005939  0.000444)
  7:    482.11   0.000189    0.96  0.000123  (-0.000250  0.011072  0.000027)
  8:    624.69   0.000883    4.46  0.000441  ( 0.016159  0.000023 -0.013408)
  9:    667.87   0.002628   13.28  0.001228  (-0.034258 -0.000059 -0.007362)
 10:    931.01   0.002841   14.36  0.000952  (-0.030839  0.000102  0.001102)
 11:   1104.60   0.002504   12.66  0.000707  ( 0.000037  0.026598 -0.000019)
 12:   1133.62   0.000244    1.24  0.000067  (-0.003880  0.000128  0.007226)
 13:   1380.67   0.019119   96.62  0.004321  (-0.065546 -0.000090  0.005019)
 14:   1411.43   0.002948   14.90  0.000652  (-0.025479  0.000436 -0.001560)
 15:   1448.80   0.012430   62.82  0.002677  ( 0.000050 -0.051744 -0.000242)
 16:   1469.75   0.002421   12.24  0.000514  ( 0.001927 -0.000380  0.022587)
 17:   1575.03   0.054928  277.58  0.010883  ( 0.000336  0.104321 -0.000020)
 18:   3048.70   0.000099    0.50  0.000010  (-0.003149  0.000007 -0.000452)
 19:   3147.80   0.000410    2.07  0.000041  (-0.005622  0.000003 -0.003009)
 20:   3184.58   0.000099    0.50  0.000010  ( 0.000248 -0.003104  0.000019)

--------------------------
THERMOCHEMISTRY AT 298.15K
--------------------------

Temperature         ...   298.15 K
Pressure            ...     1.00 atm
Total Mass          ...    61.04 AMU
Quasi RRHO          ...     True
Cut-Off Frequency   ...     1.00 cm^-1

Throughout the following assumptions are being made:
  (1) The electronic state is orbitally nondegenerate
  (2) There are no thermally accessible electronically excited states
  (3) Hindered rotations indicated by low frequency modes are not
      treated as such but are treated as vibrations and this may
      cause some error
  (4) All equations used are the standard statistical mechanics
      equations for an ideal gas
  (5) All vibrations are strictly harmonic

freq.      79.45  E(vib)   ...       0.49
freq.     482.11  E(vib)   ...       0.15
freq.     624.69  E(vib)   ...       0.09
freq.     667.87  E(vib)   ...       0.08
freq.     931.01  E(vib)   ...       0.03
freq.    1104.60  E(vib)   ...       0.02
freq.    1133.62  E(vib)   ...       0.01
freq.    1380.67  E(vib)   ...       0.01
freq.    1411.43  E(vib)   ...       0.00
freq.    1448.80  E(vib)   ...       0.00
freq.    1469.75  E(vib)   ...       0.00
freq.    1575.03  E(vib)   ...       0.00
freq.    3048.70  E(vib)   ...       0.00
freq.    3147.80  E(vib)   ...       0.00
freq.    3184.58  E(vib)   ...       0.00

------------
INNER ENERGY
------------

The inner energy is: U= E(el) + E(ZPE) + E(vib) + E(rot) + E(trans)
    E(el)   - is the total energy from the electronic structure calculation
              = E(kin-el) + E(nuc-el) + E(el-el) + E(nuc-nuc)
    E(ZPE)  - the the zero temperature vibrational energy from the frequency calculation
    E(vib)  - the the finite temperature correction to E(ZPE) due to population
              of excited vibrational states
    E(rot)  - is the rotational thermal energy
    E(trans)- is the translational thermal energy

Summary of contributions to the inner energy U:
Electronic energy                ...   -244.99340172 Eh
Zero point energy                ...      0.04941372 Eh      31.01 kcal/mol
Thermal vibrational correction   ...      0.00141032 Eh       0.88 kcal/mol
Thermal rotational correction    ...      0.00141627 Eh       0.89 kcal/mol
Thermal translational correction ...      0.00141627 Eh       0.89 kcal/mol
-----------------------------------------------------------------------
Total thermal energy                   -244.93974514 Eh

Summary of corrections to the electronic energy:
(perhaps to be used in another calculation)
Total thermal correction                  0.00424286 Eh       2.66 kcal/mol
Non-thermal (ZPE) correction              0.04941372 Eh      31.01 kcal/mol
-----------------------------------------------------------------------
Total correction                          0.05365658 Eh      33.67 kcal/mol

--------
ENTHALPY
--------

The enthalpy is H = U + kB*T
                kB is Boltzmann's constant
Total thermal energy              ...   -244.93974514 Eh
Thermal Enthalpy correction       ...      0.00094421 Eh       0.59 kcal/mol
-----------------------------------------------------------------------
Total Enthalpy                    ...   -244.93880093 Eh

Note: Only C1 symmetry has been detected, increase convergence thresholds
      if your molecule has a higher symmetry. Symmetry factor of 1.0 is
      used for the rotational entropy correction.

Note: Rotational entropy computed according to Herzberg
Infrared and Raman Spectra, Chapter V,1, Van Nostrand Reinhold, 1945
Point Group:  C1, Symmetry Number:   1
Rotational constants in cm-1:     0.413544     0.346798     0.195651

Vibrational entropy computed according to the QRRHO of S. Grimme
Chem.Eur.J. 2012 18 9955 using a reference frequency of 100.0 cm-1

-------
ENTROPY
-------

The entropy contributions are T*S = T*(S(el)+S(vib)+S(rot)+S(trans))
     S(el)   - electronic entropy
     S(vib)  - vibrational entropy
     S(rot)  - rotational entropy
     S(trans)- translational entropy
The entropies will be listed as multiplied by the temperature to get
units of energy

Electronic entropy                ...      0.00000000 Eh      0.00 kcal/mol
Vibrational entropy               ...      0.00241802 Eh      1.52 kcal/mol
Rotational entropy                ...      0.01119779 Eh      7.03 kcal/mol
Translational entropy             ...      0.01817211 Eh     11.40 kcal/mol
-----------------------------------------------------------------------
Final entropy term                ...      0.03178793 Eh     19.95 kcal/mol

In case the symmetry of your molecule has not been determined correctly
or in case you have a reason to use a different symmetry number we print
out the resulting rotational entropy values for sn=1,12:

 non-linear molecules -----------------------------------
|  sn= 1 | S(rot)=       0.01119779 Eh      7.03 kcal/mol|
|  sn= 2 | S(rot)=       0.01054334 Eh      6.62 kcal/mol|
|  sn= 3 | S(rot)=       0.01016050 Eh      6.38 kcal/mol|
|  sn= 4 | S(rot)=       0.00988888 Eh      6.21 kcal/mol|
|  sn= 5 | S(rot)=       0.00967819 Eh      6.07 kcal/mol|
|  sn= 6 | S(rot)=       0.00950605 Eh      5.97 kcal/mol|
|  sn= 7 | S(rot)=       0.00936050 Eh      5.87 kcal/mol|
|  sn= 8 | S(rot)=       0.00923442 Eh      5.79 kcal/mol|
|  sn= 9 | S(rot)=       0.00912321 Eh      5.72 kcal/mol|
|  sn=10 | S(rot)=       0.00902373 Eh      5.66 kcal/mol|
|  sn=11 | S(rot)=       0.00893374 Eh      5.61 kcal/mol|
|  sn=12 | S(rot)=       0.00885159 Eh      5.55 kcal/mol|
 linear molecules ---------------------------------------
|  Dinfh | S(rot)=       0.00686617 Eh      4.31 kcal/mol|
|  Cinfv | S(rot)=       0.00752062 Eh      4.72 kcal/mol|
 --------------------------------------------------------

-------------------
GIBBS FREE ENERGY
-------------------

The Gibbs free energy is G = H - T*S

Total enthalpy                    ...   -244.93880093 Eh
Total entropy correction          ...     -0.03178793 Eh    -19.95 kcal/mol
-----------------------------------------------------------------------
Final Gibbs free energy         ...   -244.97058886 Eh

For completeness - the Gibbs free energy minus the electronic energy
G-E(el)                           ...      0.02281286 Eh     14.32 kcal/mol

                             ****ORCA TERMINATED NORMALLY****
TOTAL RUN TIME: 0 days 0 hours 1 minutes 28 seconds 356 msec
