                         Program Version 6.0.0  -   RELEASE  -
|  1> ! r2SCAN-3c DEF2-TZVP FREQ
|  2> * xyzfile 0 1 vacuum_censo.xyz
|  3>
|  4>                          ****END OF INPUT****

CARTESIAN COORDINATES (ANGSTROEM)
---------------------------------
  C      1.404847    0.000728   -0.005016
  N     -0.101082    0.000012   -0.008396
  O     -0.654919   -1.087983    0.005357
  O     -0.656044    1.087144    0.005341
  H      1.711297    0.001849    1.043671
  H      1.747126    0.908527   -0.499211
  H      1.748122   -0.907565   -0.497660

 Total Charge           Charge          ....    0
 Multiplicity           Mult            ....    1
 Number of Electrons    NEL             ....   32
 Basis Dimension        Dim             ....  142

ORBITAL ENERGIES
----------------

  NO   OCC          E(Eh)            E(eV)
   0   2.0000     -18.992272      -516.8060
   1   2.0000     -18.991443      -516.7834
   2   2.0000     -14.399675      -391.8351
   3   2.0000     -10.102339      -274.8986
   4   2.0000      -1.200608       -32.6702
   5   2.0000      -1.029854       -28.0238
   6   2.0000      -0.782639       -21.2967
   7   2.0000      -0.597502       -16.2589
   8   2.0000      -0.522543       -14.2191
   9   2.0000      -0.510987       -13.9047
  10   2.0000      -0.492369       -13.3980
  11   2.0000      -0.423764       -11.5312
  12   2.0000      -0.407472       -11.0879
  13   2.0000      -0.299599        -8.1525
  14   2.0000      -0.279986        -7.6188
  15   2.0000      -0.266296        -7.2463
  16   0.0000      -0.106324        -2.8932
  17   0.0000       0.048615         1.3229
  18   0.0000       0.060557         1.6479
  19   0.0000       0.100980         2.7478
  20   0.0000       0.109260         2.9731

MULLIKEN ATOMIC CHARGES
-----------------------
   0 C :   -0.252913
   1 N :    0.439517
   2 O :   -0.318940
   3 O :   -0.319891
   4 H :    0.150755
   5 H :    0.150707
   6 H :    0.150764
Sum of atomic charges:    0.0000000

LOEWDIN ATOMIC CHARGES
----------------------
   0 C :   -0.250713
   1 N :   -0.090695
   2 O :   -0.022546
   3 O :   -0.023245
   4 H :    0.134191
   5 H :    0.126493
   6 H :    0.126515

  Mayer bond orders larger than 0.100000
B(  0-C ,  1-N ) :   0.8790 B(  0-C ,  4-H ) :   0.9492 B(  0-C ,  5-H ) :   0.9566
B(  0-C ,  6-H ) :   0.9566 B(  1-N ,  2-O ) :   1.5912 B(  1-N ,  3-O ) :   1.5905
B(  2-O ,  3-O ) :   0.2332

Dispersion correction           -0.001019392
FINAL SINGLE POINT ENERGY      -244.993815840097

DIPOLE MOMENT
-------------

Method             : SCF
Type of density    : Electron Density
Multiplicity       :   1
Irrep              :   0
Energy             :  -245.0028236601054914 Eh
Relativity type    :
Basis              : AO
                                X                 Y                 Z
Electronic contribution:     -3.497069092      -0.003743353      -0.035829834
Nuclear contribution   :      4.877231642       0.002703944       0.042128275
                        -----------------------------------------
Total Dipole Moment    :      1.380162550      -0.001039409       0.006298441
                        -----------------------------------------
Magnitude (a.u.)       :      1.380177313
Magnitude (Debye)      :      3.508131933

VIBRATIONAL FREQUENCIES
-----------------------

Scaling factor for frequencies =  1.000000000  (already applied!)

     0:       0.00 cm**-1
     1:       0.00 cm**-1
     2:       0.00 cm**-1
     3:       0.00 cm**-1
     4:       0.00 cm**-1
     5:       0.00 cm**-1
     6:      75.96 cm**-1
     7:     485.91 cm**-1
     8:     613.78 cm**-1
     9:     656.26 cm**-1
    10:     915.90 cm**-1
    11:    1105.25 cm**-1
    12:    1127.59 cm**-1
    13:    1381.12 cm**-1
    14:    1410.88 cm**-1
    15:    1451.49 cm**-1
    16:    1469.12 cm**-1
    17:    1606.34 cm**-1
    18:    3049.94 cm**-1
    19:    3149.17 cm**-1
    20:    3181.44 cm**-1

IR SPECTRUM
-----------

 Mode   freq       eps      Int      T**2         TX        TY        TZ
       cm**-1   L/(mol*cm) km/mol    a.u.
----------------------------------------------------------------------------
  6:     75.96   0.000011    0.06  0.000046  (-0.000029  0.006785 -0.000085)
  7:    485.91   0.000160    0.81  0.000103  (-0.000018  0.010149  0.000007)
  8:    613.78   0.000883    4.46  0.000449  ( 0.016245 -0.000051  0.013600)
  9:    656.26   0.002188   11.06  0.001040  ( 0.031251  0.000026 -0.007978)
 10:    915.90   0.003776   19.08  0.001287  ( 0.035856  0.000039  0.000974)
 11:   1105.25   0.001981   10.01  0.000559  ( 0.000019  0.023652  0.000007)
 12:   1127.59   0.000225    1.14  0.000062  (-0.003010 -0.000081 -0.007298)
 13:   1381.12   0.017747   89.69  0.004010  (-0.063124 -0.000443 -0.005018)
 14:   1410.88   0.005933   29.98  0.001312  (-0.036205 -0.000452  0.001140)
 15:   1451.49   0.009440   47.71  0.002030  ( 0.000293 -0.045051 -0.000007)
 16:   1469.12   0.002374   12.00  0.000504  (-0.002179 -0.000128  0.022349)
 17:   1606.34   0.060126  303.85  0.011681  (-0.000384  0.108077 -0.000004)
 18:   3049.94   0.000152    0.77  0.000016  (-0.003924  0.000058  0.000444)
 19:   3149.17   0.000442    2.24  0.000044  (-0.005413 -0.000082  0.003813)
 20:   3181.44   0.000144    0.73  0.000014  (-0.000006 -0.003759  0.000019)

--------------------------
THERMOCHEMISTRY AT 298.15K
--------------------------

Temperature         ...   298.15 K
Pressure            ...     1.00 atm
Total Mass          ...    61.04 AMU
Quasi RRHO          ...     True
Cut-Off Frequency   ...     1.00 cm^-1

Throughout the following assumptions are being made:
  (1) The electronic state is orbitally nondegenerate
  (2) There are no thermally accessible electronically excited states
  (3) Hindered rotations indicated by low frequency modes are not
      treated as such but are treated as vibrations and this may
      cause some error
  (4) All equations used are the standard statistical mechanics
      equations for an ideal gas
  (5) All vibrations are strictly harmonic

freq.      75.96  E(vib)   ...       0.49
freq.     485.91  E(vib)   ...       0.15
freq.     613.78  E(vib)   ...       0.10
freq.     656.26  E(vib)   ...       0.08
freq.     915.90  E(vib)   ...       0.03
freq.    1105.25  E(vib)   ...       0.02
freq.    1127.59  E(vib)   ...       0.01
freq.    1381.12  E(vib)   ...       0.01
freq.    1410.88  E(vib)   ...       0.00
freq.    1451.49  E(vib)   ...       0.00
freq.    1469.12  E(vib)   ...       0.00
freq.    1606.34  E(vib)   ...       0.00
freq.    3049.94  E(vib)   ...       0.00
freq.    3149.17  E(vib)   ...       0.00
freq.    3181.44  E(vib)   ...       0.00

------------
INNER ENERGY
------------

The inner energy is: U= E(el) + E(ZPE) + E(vib) + E(rot) + E(trans)
    E(el)   - is the total energy from the electronic structure calculation
              = E(kin-el) + E(nuc-el) + E(el-el) + E(nuc-nuc)
    E(ZPE)  - the the zero temperature vibrational energy from the frequency calculation
    E(vib)  - the the finite temperature correction to E(ZPE) due to population
              of excited vibrational states
    E(rot)  - is the rotational thermal energy
    E(trans)- is the translational thermal energy

Summary of contributions to the inner energy U:
Electronic energy                ...   -244.99381584 Eh
Zero point energy                ...      0.04939101 Eh      30.99 kcal/mol
Thermal vibrational correction   ...      0.00142808 Eh       0.90 kcal/mol
Thermal rotational correction    ...      0.00141627 Eh       0.89 kcal/mol
Thermal translational correction ...      0.00141627 Eh       0.89 kcal/mol
-----------------------------------------------------------------------
Total thermal energy                   -244.94016420 Eh

Summary of corrections to the electronic energy:
(perhaps to be used in another calculation)
Total thermal correction                  0.00426062 Eh       2.67 kcal/mol
Non-thermal (ZPE) correction              0.04939101 Eh      30.99 kcal/mol
-----------------------------------------------------------------------
Total correction                          0.05365164 Eh      33.67 kcal/mol

--------
ENTHALPY
--------

The enthalpy is H = U + kB*T
                kB is Boltzmann's constant
Total thermal energy              ...   -244.94016420 Eh
Thermal Enthalpy correction       ...      0.00094421 Eh       0.59 kcal/mol
-----------------------------------------------------------------------
Total Enthalpy                    ...   -244.93922000 Eh

Note: Only C1 symmetry has been detected, increase convergence thresholds
      if your molecule has a higher symmetry. Symmetry factor of 1.0 is
      used for the rotational entropy correction.

Note: Rotational entropy computed according to Herzberg
Infrared and Raman Spectra, Chapter V,1, Van Nostrand Reinhold, 1945
Point Group:  C1, Symmetry Number:   1
Rotational constants in cm-1:     0.410063     0.348982     0.195533

Vibrational entropy computed according to the QRRHO of S. Grimme
Chem.Eur.J. 2012 18 9955 using a reference frequency of 100.0 cm-1

-------
ENTROPY
-------

The entropy contributions are T*S = T*(S(el)+S(vib)+S(rot)+S(trans))
     S(el)   - electronic entropy
     S(vib)  - vibrational entropy
     S(rot)  - rotational entropy
     S(trans)- translational entropy
The entropies will be listed as multiplied by the temperature to get
units of energy

Electronic entropy                ...      0.00000000 Eh      0.00 kcal/mol
Vibrational entropy               ...      0.00244527 Eh      1.53 kcal/mol
Rotational entropy                ...      0.01119910 Eh      7.03 kcal/mol
Translational entropy             ...      0.01817211 Eh     11.40 kcal/mol
-----------------------------------------------------------------------
Final entropy term                ...      0.03181648 Eh     19.97 kcal/mol

In case the symmetry of your molecule has not been determined correctly
or in case you have a reason to use a different symmetry number we print
out the resulting rotational entropy values for sn=1,12:

 non-linear molecules -----------------------------------
|  sn= 1 | S(rot)=       0.01119910 Eh      7.03 kcal/mol|
|  sn= 2 | S(rot)=       0.01054465 Eh      6.62 kcal/mol|
|  sn= 3 | S(rot)=       0.01016181 Eh      6.38 kcal/mol|
|  sn= 4 | S(rot)=       0.00989019 Eh      6.21 kcal/mol|
|  sn= 5 | S(rot)=       0.00967950 Eh      6.07 kcal/mol|
|  sn= 6 | S(rot)=       0.00950736 Eh      5.97 kcal/mol|
|  sn= 7 | S(rot)=       0.00936181 Eh      5.87 kcal/mol|
|  sn= 8 | S(rot)=       0.00923573 Eh      5.80 kcal/mol|
|  sn= 9 | S(rot)=       0.00912453 Eh      5.73 kcal/mol|
|  sn=10 | S(rot)=       0.00902505 Eh      5.66 kcal/mol|
|  sn=11 | S(rot)=       0.00893506 Eh      5.61 kcal/mol|
|  sn=12 | S(rot)=       0.00885290 Eh      5.56 kcal/mol|
 linear molecules ---------------------------------------
|  Dinfh | S(rot)=       0.00686674 Eh      4.31 kcal/mol|
|  Cinfv | S(rot)=       0.00752119 Eh      4.72 kcal/mol|
 --------------------------------------------------------

-------------------
GIBBS FREE ENERGY
-------------------

The Gibbs free energy is G = H - T*S

Total enthalpy                    ...   -244.93922000 Eh
Total entropy correction          ...     -0.03181648 Eh    -19.97 kcal/mol
-----------------------------------------------------------------------
Final Gibbs free energy         ...   -244.97103648 Eh

For completeness - the Gibbs free energy minus the electronic energy
G-E(el)                           ...      0.02277936 Eh     14.29 kcal/mol

                             ****ORCA TERMINATED NORMALLY****
TOTAL RUN TIME: 0 days 0 hours 1 minutes 30 seconds 358 msec
