                         Program Version 6.0.1  -  RELEASE   -
|  1> ! pbe def2-sv(p) def2/J RI DEFGRID1 loosescf d4 GCP(DFT/SV(P)) printgap
|  2> %output
|  3>     printlevel normal
|  4> end
|  5> * xyz 0 1
|  6> C 2.483402398 -1.54863e-05 -0.0798178937
|  7> C 1.0139646688 -3.5698e-05 0.332124287
|  8> C 0.3011503467 1.2491154634 -0.1877086856
|  9> C -1.1682391766 1.251735482 0.2233678424
| 10> C -1.8701805788 9.55401e-05 -0.2937920721
| 11> C -1.1684052786 -1.25168867 0.2232475664
| 12> C 0.3010578081 -1.249187505 -0.1876000822
| 13> H 2.5739722282 0.0004482214 -1.164295549
| 14> H 2.9898676669 0.8820459765 0.3061501174
| 15> H 2.9894822866 -0.8826566188 0.3052438967
| 16> H 0.9585274591 -7.6094e-06 1.4270926604
| 17> H 0.7953750311 2.1434259943 0.1989544294
| 18> H 0.3720749389 1.2741269878 -1.2779671562
| 19> H -1.2391521768 1.2813404388 1.3134275709
| 20> H -1.6613708031 2.1445303972 -0.1676219937
| 21> H -2.9154039523 0.0001199954 0.0231131365
| 22> H -1.851544846 0.0001433301 -1.3862539371
| 23> H -1.2395003972 -1.2815043103 1.3132900298
| 24> H -1.6615545332 -2.1443613649 -0.1680071799
| 25> H 0.7951149695 -2.1434730004 0.1993421217
| 26> H 0.3721927867 -1.2744063616 -1.2778402839
| 27> *
| 28>
| 29>                          ****END OF INPUT****

CARTESIAN COORDINATES (ANGSTROEM)
---------------------------------
  C      2.483402   -0.000015   -0.079818
  C      1.013965   -0.000036    0.332124
  C      0.301150    1.249115   -0.187709
  C     -1.168239    1.251735    0.223368
  C     -1.870181    0.000096   -0.293792
  C     -1.168405   -1.251689    0.223248
  C      0.301058   -1.249188   -0.187600
  H      2.573972    0.000448   -1.164296
  H      2.989868    0.882046    0.306150
  H      2.989482   -0.882657    0.305244
  H      0.958527   -0.000008    1.427093
  H      0.795375    2.143426    0.198954
  H      0.372075    1.274127   -1.277967
  H     -1.239152    1.281340    1.313428
  H     -1.661371    2.144530   -0.167622
  H     -2.915404    0.000120    0.023113
  H     -1.851545    0.000143   -1.386254
  H     -1.239500   -1.281504    1.313290
  H     -1.661555   -2.144361   -0.168007
  H      0.795115   -2.143473    0.199342
  H      0.372193   -1.274406   -1.277840

 Total Charge           Charge          ....    0
 Multiplicity           Mult            ....    1
 Number of Electrons    NEL             ....   56
 Basis Dimension        Dim             ....  126

ORBITAL ENERGIES
----------------

  NO   OCC          E(Eh)            E(eV)
   0   2.0000      -9.886285      -269.0195
   1   2.0000      -9.876377      -268.7499
   2   2.0000      -9.876367      -268.7496
   3   2.0000      -9.876270      -268.7470
   4   2.0000      -9.875404      -268.7234
   5   2.0000      -9.875389      -268.7230
   6   2.0000      -9.868525      -268.5362
   7   2.0000      -0.753831       -20.5128
   8   2.0000      -0.683461       -18.5979
   9   2.0000      -0.660571       -17.9751
  10   2.0000      -0.598357       -16.2821
  11   2.0000      -0.537041       -14.6136
  12   2.0000      -0.514413       -13.9979
  13   2.0000      -0.491807       -13.3827
  14   2.0000      -0.423085       -11.5127
  15   2.0000      -0.399013       -10.8577
  16   2.0000      -0.391764       -10.6604
  17   2.0000      -0.381137       -10.3713
  18   2.0000      -0.363593        -9.8939
  19   2.0000      -0.338089        -9.1999
  20   2.0000      -0.329276        -8.9601
  21   2.0000      -0.319212        -8.6862
  22   2.0000      -0.303321        -8.2538
  23   2.0000      -0.296251        -8.0614
  24   2.0000      -0.287608        -7.8262
  25   2.0000      -0.275368        -7.4931
  26   2.0000      -0.252816        -6.8795
  27   2.0000      -0.250063        -6.8046
  28   0.0000       0.036591         0.9957
  29   0.0000       0.049559         1.3486
  30   0.0000       0.058233         1.5846
  31   0.0000       0.070972         1.9313
  32   0.0000       0.103127         2.8062

MULLIKEN ATOMIC CHARGES
-----------------------
   0 C :   -0.203658
   1 C :   -0.200480
   2 C :   -0.131480
   3 C :   -0.132947
   4 C :   -0.161280
   5 C :   -0.132974
   6 C :   -0.131495
   7 H :    0.088992
   8 H :    0.094019
   9 H :    0.094001
  10 H :    0.062575
  11 H :    0.078296
  12 H :    0.068059
  13 H :    0.070992
  14 H :    0.081983
  15 H :    0.083065
  16 H :    0.072984
  17 H :    0.070998
  18 H :    0.081988
  19 H :    0.078298
  20 H :    0.068064
Sum of atomic charges:   -0.0000000

LOEWDIN ATOMIC CHARGES
----------------------
   0 C :   -0.327340
   1 C :   -0.153941
   2 C :   -0.217702
   3 C :   -0.226198
   4 C :   -0.227390
   5 C :   -0.226199
   6 C :   -0.217704
   7 H :    0.115789
   8 H :    0.116017
   9 H :    0.116011
  10 H :    0.112506
  11 H :    0.113628
  12 H :    0.112507
  13 H :    0.113258
  14 H :    0.114681
  15 H :    0.114861
  16 H :    0.113127
  17 H :    0.113260
  18 H :    0.114686
  19 H :    0.113631
  20 H :    0.112509

  Mayer bond orders larger than 0.100000
B(  0-C ,  1-C ) :   1.1148 B(  0-C ,  7-H ) :   0.9468 B(  0-C ,  8-H ) :   0.9490
B(  0-C ,  9-H ) :   0.9490 B(  1-C ,  2-C ) :   1.0934 B(  1-C ,  6-C ) :   1.0934
B(  1-C , 10-H ) :   0.8938 B(  2-C ,  3-C ) :   1.1360 B(  2-C , 11-H ) :   0.9168
B(  2-C , 12-H ) :   0.9095 B(  3-C ,  4-C ) :   1.1350 B(  3-C , 13-H ) :   0.9121
B(  3-C , 14-H ) :   0.9196 B(  4-C ,  5-C ) :   1.1351 B(  4-C , 15-H ) :   0.9202
B(  4-C , 16-H ) :   0.9153 B(  5-C ,  6-C ) :   1.1360 B(  5-C , 17-H ) :   0.9121
B(  5-C , 18-H ) :   0.9196 B(  6-C , 19-H ) :   0.9168 B(  6-C , 20-H ) :   0.9095

Dispersion correction           -0.018378011
FINAL SINGLE POINT ENERGY      -274.492234850422

DIPOLE MOMENT
-------------

Method             : SCF
Type of density    : Electron Density
Multiplicity       :   1
Irrep              :   0
Energy             :  -274.5635810198493232 Eh
Relativity type    :
Basis              : AO
                                X                 Y                 Z
Electronic contribution:     -1.220722338       0.000192092       0.358413146
Nuclear contribution   :      1.199048036      -0.000213830      -0.333397004
                        -----------------------------------------
Total Dipole Moment    :     -0.021674303      -0.000021738       0.025016141
                        -----------------------------------------
Magnitude (a.u.)       :      0.033099595
Magnitude (Debye)      :      0.084132485

Rotational constants in cm-1:             0.141970             0.073873             0.053846
Rotational constants in MHz :          4256.155487          2214.661860          1614.266039

                             ****ORCA TERMINATED NORMALLY****
TOTAL RUN TIME: 0 days 0 hours 0 minutes 11 seconds 149 msec
