                         Program Version 6.0.0  -   RELEASE  -
|  1> ! r2SCAN-3c DEF2-TZVP FREQ
|  2> * xyzfile 0 1 censo.xyz
|  3>
|  4>                          ****END OF INPUT****

CARTESIAN COORDINATES (ANGSTROEM)
---------------------------------
  C     -2.291317    0.301332    0.099373
  C     -1.374724    1.340915   -0.049811
  C     -0.015389    1.065960   -0.171669
  C      0.445702   -0.253061   -0.141104
  C     -0.477650   -1.288920    0.017816
  C     -1.838875   -1.015482    0.131057
  C      1.911818   -0.570041   -0.303921
  O      2.778488    0.394898    0.312419
  H     -3.350859    0.517132    0.194487
  H     -1.720453    2.369920   -0.073469
  H      0.692816    1.880153   -0.290685
  H     -0.126547   -2.316894    0.054688
  H     -2.544700   -1.831141    0.254818
  H      2.114789   -1.577150    0.084182
  H      2.179529   -0.565181   -1.366864
  H      2.573870    0.398527    1.257126

 Total Charge           Charge          ....    0
 Multiplicity           Mult            ....    1
 Number of Electrons    NEL             ....   58
 Basis Dimension        Dim             ....  296

ORBITAL ENERGIES
----------------

  NO   OCC          E(Eh)            E(eV)
   0   2.0000     -18.955929      -515.8170
   1   2.0000     -10.086204      -274.4596
   2   2.0000     -10.046646      -273.3831
   3   2.0000     -10.040524      -273.2165
   4   2.0000     -10.040091      -273.2048
   5   2.0000     -10.039488      -273.1884
   6   2.0000     -10.038275      -273.1554
   7   2.0000     -10.036972      -273.1199
   8   2.0000      -0.985403       -26.8142
   9   2.0000      -0.825540       -22.4641
  10   2.0000      -0.735387       -20.0109
  11   2.0000      -0.715852       -19.4793
  12   2.0000      -0.646874       -17.6023
  13   2.0000      -0.577165       -15.7055
  14   2.0000      -0.558711       -15.2033
  15   2.0000      -0.493879       -13.4391
  16   2.0000      -0.466708       -12.6998
  17   2.0000      -0.433717       -11.8020
  18   2.0000      -0.413408       -11.2494
  19   2.0000      -0.412304       -11.2194
  20   2.0000      -0.392912       -10.6917
  21   2.0000      -0.387770       -10.5518
  22   2.0000      -0.342515        -9.3203
  23   2.0000      -0.334779        -9.1098
  24   2.0000      -0.315931        -8.5969
  25   2.0000      -0.298907        -8.1337
  26   2.0000      -0.254365        -6.9216
  27   2.0000      -0.240054        -6.5322
  28   2.0000      -0.229546        -6.2463
  29   0.0000      -0.039936        -1.0867
  30   0.0000      -0.038069        -1.0359
  31   0.0000       0.040728         1.1083
  32   0.0000       0.059570         1.6210
  33   0.0000       0.078928         2.1477

MULLIKEN ATOMIC CHARGES
-----------------------
   0 C :   -0.136398
   1 C :   -0.069826
   2 C :   -0.204760
   3 C :    0.081180
   4 C :   -0.213685
   5 C :   -0.081971
   6 C :    0.047517
   7 O :   -0.461140
   8 H :    0.109791
   9 H :    0.110348
  10 H :    0.121392
  11 H :    0.099231
  12 H :    0.109044
  13 H :    0.091318
  14 H :    0.098827
  15 H :    0.299132
Sum of atomic charges:   -0.0000000

LOEWDIN ATOMIC CHARGES
----------------------
   0 C :   -0.143276
   1 C :   -0.138143
   2 C :   -0.112186
   3 C :   -0.167244
   4 C :   -0.118339
   5 C :   -0.139989
   6 C :   -0.285653
   7 O :   -0.047687
   8 H :    0.142342
   9 H :    0.143157
  10 H :    0.149899
  11 H :    0.144398
  12 H :    0.142852
  13 H :    0.121226
  14 H :    0.136570
  15 H :    0.172073

  Mayer bond orders larger than 0.100000
B(  0-C ,  1-C ) :   1.3813 B(  0-C ,  5-C ) :   1.3960 B(  0-C ,  8-H ) :   0.9693
B(  1-C ,  2-C ) :   1.4005 B(  1-C ,  9-H ) :   0.9716 B(  2-C ,  3-C ) :   1.3423
B(  2-C , 10-H ) :   0.9705 B(  3-C ,  4-C ) :   1.3443 B(  3-C ,  6-C ) :   0.9521
B(  4-C ,  5-C ) :   1.4058 B(  4-C , 11-H ) :   0.9741 B(  5-C , 12-H ) :   0.9701
B(  6-C ,  7-O ) :   0.9434 B(  6-C , 13-H ) :   0.9732 B(  6-C , 14-H ) :   0.9404
B(  7-O , 15-H ) :   0.8984

Dispersion correction           -0.004909028
FINAL SINGLE POINT ENERGY      -346.714182301068

DIPOLE MOMENT
-------------

Method             : SCF
Type of density    : Electron Density
Multiplicity       :   1
Irrep              :   0
Energy             :  -346.7149647504789414 Eh
Relativity type    :
Basis              : AO
                                X                 Y                 Z
Electronic contribution:     -0.233351700       0.757799676       0.174110731
Nuclear contribution   :     -0.167121382      -1.059567576       0.105585374
                        -----------------------------------------
Total Dipole Moment    :     -0.400473082      -0.301767900       0.279696106
                        -----------------------------------------
Magnitude (a.u.)       :      0.574171113
Magnitude (Debye)      :      1.459426986

VIBRATIONAL FREQUENCIES
-----------------------

Scaling factor for frequencies =  1.000000000  (already applied!)

     0:       0.00 cm**-1
     1:       0.00 cm**-1
     2:       0.00 cm**-1
     3:       0.00 cm**-1
     4:       0.00 cm**-1
     5:       0.00 cm**-1
     6:      77.07 cm**-1
     7:     173.51 cm**-1
     8:     256.38 cm**-1
     9:     358.49 cm**-1
    10:     412.10 cm**-1
    11:     419.69 cm**-1
    12:     475.75 cm**-1
    13:     605.52 cm**-1
    14:     636.67 cm**-1
    15:     712.51 cm**-1
    16:     743.55 cm**-1
    17:     815.41 cm**-1
    18:     855.02 cm**-1
    19:     906.79 cm**-1
    20:     961.64 cm**-1
    21:     975.79 cm**-1
    22:     981.84 cm**-1
    23:    1010.02 cm**-1
    24:    1021.36 cm**-1
    25:    1048.93 cm**-1
    26:    1104.13 cm**-1
    27:    1181.09 cm**-1
    28:    1195.76 cm**-1
    29:    1199.45 cm**-1
    30:    1222.98 cm**-1
    31:    1317.52 cm**-1
    32:    1350.32 cm**-1
    33:    1376.49 cm**-1
    34:    1402.70 cm**-1
    35:    1478.34 cm**-1
    36:    1482.96 cm**-1
    37:    1520.84 cm**-1
    38:    1616.21 cm**-1
    39:    1634.18 cm**-1
    40:    2993.94 cm**-1
    41:    3049.96 cm**-1
    42:    3147.45 cm**-1
    43:    3156.05 cm**-1
    44:    3165.31 cm**-1
    45:    3174.37 cm**-1
    46:    3181.62 cm**-1
    47:    3760.90 cm**-1

IR SPECTRUM
-----------

 Mode   freq       eps      Int      T**2         TX        TY        TZ
       cm**-1   L/(mol*cm) km/mol    a.u.
----------------------------------------------------------------------------
  6:     77.07   0.000552    2.79  0.002237  (-0.030628 -0.009613 -0.034736)
  7:    173.51   0.000074    0.38  0.000134  ( 0.001010  0.003954  0.010816)
  8:    256.38   0.000647    3.27  0.000788  (-0.012466  0.014876  0.020271)
  9:    358.49   0.016060   81.16  0.013980  ( 0.096416 -0.061398  0.030238)
 10:    412.10   0.000573    2.90  0.000434  (-0.017879  0.008486 -0.006501)
 11:    419.69   0.011407   57.65  0.008482  (-0.074045  0.046407 -0.029073)
 12:    475.75   0.001934    9.78  0.001269  (-0.017753  0.011335 -0.028725)
 13:    605.52   0.002729   13.79  0.001407  ( 0.021916 -0.018863 -0.023885)
 14:    636.67   0.000048    0.24  0.000024  (-0.003105  0.001009 -0.003586)
 15:    712.51   0.006947   35.11  0.003043  (-0.004997 -0.003616 -0.054815)
 16:    743.55   0.008565   43.28  0.003595  (-0.009800 -0.009477 -0.058384)
 17:    815.41   0.000495    2.50  0.000190  ( 0.001983 -0.012719  0.004886)
 18:    855.02   0.000044    0.22  0.000016  ( 0.003354  0.002072 -0.000582)
 19:    906.79   0.000927    4.69  0.000319  (-0.011722 -0.005861 -0.012138)
 20:    961.64   0.000038    0.19  0.000012  (-0.002849 -0.000609 -0.001999)
 21:    975.79   0.007944   40.15  0.002541  ( 0.042148  0.023653  0.014307)
 22:    981.84   0.000847    4.28  0.000269  (-0.013561 -0.008859 -0.002626)
 23:   1010.02   0.013298   67.20  0.004109  (-0.046920 -0.036643 -0.023758)
 24:   1021.36   0.000049    0.25  0.000015  (-0.002538 -0.001696 -0.002392)
 25:   1048.93   0.000447    2.26  0.000133  ( 0.009073 -0.006126 -0.003610)
 26:   1104.13   0.000596    3.01  0.000168  ( 0.004770 -0.010941  0.005092)
 27:   1181.09   0.000024    0.12  0.000006  (-0.002163  0.001286 -0.000032)
 28:   1195.76   0.000158    0.80  0.000041  (-0.002024  0.005284  0.003051)
 29:   1199.45   0.001999   10.10  0.000520  ( 0.006304  0.018826  0.011220)
 30:   1222.98   0.001557    7.87  0.000397  ( 0.016300  0.008220  0.008002)
 31:   1317.52   0.000605    3.06  0.000143  (-0.007320  0.009274  0.001950)
 32:   1350.32   0.000074    0.37  0.000017  ( 0.003045 -0.002690  0.000738)
 33:   1376.49   0.000188    0.95  0.000043  (-0.005625 -0.002990 -0.001423)
 34:   1402.70   0.011810   59.68  0.002627  ( 0.046661  0.017727  0.011655)
 35:   1478.34   0.001453    7.34  0.000307  (-0.007070 -0.016024 -0.000021)
 36:   1482.96   0.001101    5.57  0.000232  ( 0.009250 -0.011778 -0.002728)
 37:   1520.84   0.001327    6.71  0.000272  (-0.016127  0.001357  0.003227)
 38:   1616.21   0.000059    0.30  0.000011  (-0.001045 -0.002775  0.001638)
 39:   1634.18   0.000455    2.30  0.000087  (-0.008829  0.002115  0.002105)
 40:   2993.94   0.009919   50.12  0.001034  (-0.010173  0.029927  0.005893)
 41:   3049.96   0.003632   18.35  0.000372  ( 0.002108  0.008449 -0.017198)
 42:   3147.45   0.001337    6.75  0.000133  ( 0.007621 -0.008626 -0.000225)
 43:   3156.05   0.000055    0.28  0.000005  ( 0.002304 -0.000325 -0.000011)
 44:   3165.31   0.003055   15.44  0.000301  ( 0.005128 -0.016579  0.000137)
 45:   3174.37   0.003718   18.79  0.000366  ( 0.011150  0.015345 -0.002400)
 46:   3181.62   0.002407   12.16  0.000236  ( 0.014210 -0.005830 -0.000422)
 47:   3760.90   0.003979   20.11  0.000330  ( 0.004402  0.004192  0.017124)

--------------------------
THERMOCHEMISTRY AT 298.15K
--------------------------

Temperature         ...   298.15 K
Pressure            ...     1.00 atm
Total Mass          ...   108.14 AMU
Quasi RRHO          ...     True
Cut-Off Frequency   ...     1.00 cm^-1

Throughout the following assumptions are being made:
  (1) The electronic state is orbitally nondegenerate
  (2) There are no thermally accessible electronically excited states
  (3) Hindered rotations indicated by low frequency modes are not
      treated as such but are treated as vibrations and this may
      cause some error
  (4) All equations used are the standard statistical mechanics
      equations for an ideal gas
  (5) All vibrations are strictly harmonic

freq.      77.07  E(vib)   ...       0.49
freq.     173.51  E(vib)   ...       0.38
freq.     256.38  E(vib)   ...       0.30
freq.     358.49  E(vib)   ...       0.22
freq.     412.10  E(vib)   ...       0.19
freq.     419.69  E(vib)   ...       0.18
freq.     475.75  E(vib)   ...       0.15
freq.     605.52  E(vib)   ...       0.10
freq.     636.67  E(vib)   ...       0.09
freq.     712.51  E(vib)   ...       0.07
freq.     743.55  E(vib)   ...       0.06
freq.     815.41  E(vib)   ...       0.05
freq.     855.02  E(vib)   ...       0.04
freq.     906.79  E(vib)   ...       0.03
freq.     961.64  E(vib)   ...       0.03
freq.     975.79  E(vib)   ...       0.03
freq.     981.84  E(vib)   ...       0.02
freq.    1010.02  E(vib)   ...       0.02
freq.    1021.36  E(vib)   ...       0.02
freq.    1048.93  E(vib)   ...       0.02
freq.    1104.13  E(vib)   ...       0.02
freq.    1181.09  E(vib)   ...       0.01
freq.    1195.76  E(vib)   ...       0.01
freq.    1199.45  E(vib)   ...       0.01
freq.    1222.98  E(vib)   ...       0.01
freq.    1317.52  E(vib)   ...       0.01
freq.    1350.32  E(vib)   ...       0.01
freq.    1376.49  E(vib)   ...       0.01
freq.    1402.70  E(vib)   ...       0.00
freq.    1478.34  E(vib)   ...       0.00
freq.    1482.96  E(vib)   ...       0.00
freq.    1520.84  E(vib)   ...       0.00
freq.    1616.21  E(vib)   ...       0.00
freq.    1634.18  E(vib)   ...       0.00
freq.    2993.94  E(vib)   ...       0.00
freq.    3049.96  E(vib)   ...       0.00
freq.    3147.45  E(vib)   ...       0.00
freq.    3156.05  E(vib)   ...       0.00
freq.    3165.31  E(vib)   ...       0.00
freq.    3174.37  E(vib)   ...       0.00
freq.    3181.62  E(vib)   ...       0.00
freq.    3760.90  E(vib)   ...       0.00

------------
INNER ENERGY
------------

The inner energy is: U= E(el) + E(ZPE) + E(vib) + E(rot) + E(trans)
    E(el)   - is the total energy from the electronic structure calculation
              = E(kin-el) + E(nuc-el) + E(el-el) + E(nuc-nuc)
    E(ZPE)  - the the zero temperature vibrational energy from the frequency calculation
    E(vib)  - the the finite temperature correction to E(ZPE) due to population
              of excited vibrational states
    E(rot)  - is the rotational thermal energy
    E(trans)- is the translational thermal energy

Summary of contributions to the inner energy U:
Electronic energy                ...   -346.71418230 Eh
Zero point energy                ...      0.13249967 Eh      83.14 kcal/mol
Thermal vibrational correction   ...      0.00410665 Eh       2.58 kcal/mol
Thermal rotational correction    ...      0.00141627 Eh       0.89 kcal/mol
Thermal translational correction ...      0.00141627 Eh       0.89 kcal/mol
-----------------------------------------------------------------------
Total thermal energy                   -346.57474343 Eh

Summary of corrections to the electronic energy:
(perhaps to be used in another calculation)
Total thermal correction                  0.00693920 Eh       4.35 kcal/mol
Non-thermal (ZPE) correction              0.13249967 Eh      83.14 kcal/mol
-----------------------------------------------------------------------
Total correction                          0.13943887 Eh      87.50 kcal/mol

--------
ENTHALPY
--------

The enthalpy is H = U + kB*T
                kB is Boltzmann's constant
Total thermal energy              ...   -346.57474343 Eh
Thermal Enthalpy correction       ...      0.00094421 Eh       0.59 kcal/mol
-----------------------------------------------------------------------
Total Enthalpy                    ...   -346.57379922 Eh

Note: Only C1 symmetry has been detected, increase convergence thresholds
      if your molecule has a higher symmetry. Symmetry factor of 1.0 is
      used for the rotational entropy correction.

Note: Rotational entropy computed according to Herzberg
Infrared and Raman Spectra, Chapter V,1, Van Nostrand Reinhold, 1945
Point Group:  C1, Symmetry Number:   1
Rotational constants in cm-1:     0.161447     0.049073     0.038902

Vibrational entropy computed according to the QRRHO of S. Grimme
Chem.Eur.J. 2012 18 9955 using a reference frequency of 100.0 cm-1

-------
ENTROPY
-------

The entropy contributions are T*S = T*(S(el)+S(vib)+S(rot)+S(trans))
     S(el)   - electronic entropy
     S(vib)  - vibrational entropy
     S(rot)  - rotational entropy
     S(trans)- translational entropy
The entropies will be listed as multiplied by the temperature to get
units of energy

Electronic entropy                ...      0.00000000 Eh      0.00 kcal/mol
Vibrational entropy               ...      0.00660152 Eh      4.14 kcal/mol
Rotational entropy                ...      0.01332753 Eh      8.36 kcal/mol
Translational entropy             ...      0.01898207 Eh     11.91 kcal/mol
-----------------------------------------------------------------------
Final entropy term                ...      0.03891112 Eh     24.42 kcal/mol

In case the symmetry of your molecule has not been determined correctly
or in case you have a reason to use a different symmetry number we print
out the resulting rotational entropy values for sn=1,12:

 non-linear molecules -----------------------------------
|  sn= 1 | S(rot)=       0.01332753 Eh      8.36 kcal/mol|
|  sn= 2 | S(rot)=       0.01267308 Eh      7.95 kcal/mol|
|  sn= 3 | S(rot)=       0.01229024 Eh      7.71 kcal/mol|
|  sn= 4 | S(rot)=       0.01201862 Eh      7.54 kcal/mol|
|  sn= 5 | S(rot)=       0.01180793 Eh      7.41 kcal/mol|
|  sn= 6 | S(rot)=       0.01163579 Eh      7.30 kcal/mol|
|  sn= 7 | S(rot)=       0.01149024 Eh      7.21 kcal/mol|
|  sn= 8 | S(rot)=       0.01136416 Eh      7.13 kcal/mol|
|  sn= 9 | S(rot)=       0.01125295 Eh      7.06 kcal/mol|
|  sn=10 | S(rot)=       0.01115348 Eh      7.00 kcal/mol|
|  sn=11 | S(rot)=       0.01106349 Eh      6.94 kcal/mol|
|  sn=12 | S(rot)=       0.01098133 Eh      6.89 kcal/mol|
 linear molecules ---------------------------------------
|  Dinfh | S(rot)=       0.00839128 Eh      5.27 kcal/mol|
|  Cinfv | S(rot)=       0.00904574 Eh      5.68 kcal/mol|
 --------------------------------------------------------

                             ****ORCA TERMINATED NORMALLY****
TOTAL RUN TIME: 0 days 0 hours 10 minutes 25 seconds 367 msec
