                         Program Version 6.0.0  -   RELEASE  -
|  1> ! r2SCAN-3c DEF2-TZVP FREQ
|  2> * xyzfile 0 1 vacuum_censo.xyz
|  3>
|  4>                          ****END OF INPUT****

CARTESIAN COORDINATES (ANGSTROEM)
---------------------------------
  C     -2.285369   -0.322329   -0.085275
  C     -1.847197    0.995975   -0.159899
  C     -0.489492    1.285806   -0.056773
  C      0.442826    0.265558    0.133987
  C     -0.004659   -1.055879    0.206861
  C     -1.359740   -1.347391    0.096279
  C      1.912979    0.581751    0.269836
  O      2.758843   -0.372194   -0.373091
  H     -3.342652   -0.551193   -0.172415
  H     -2.561642    1.799548   -0.308777
  H     -0.149545    2.316018   -0.126511
  H      0.720310   -1.851453    0.348078
  H     -1.696195   -2.377939    0.153946
  H      2.106488    1.600358   -0.100731
  H      2.207368    0.558419    1.325857
  H      2.470527   -0.439981   -1.291192

 Total Charge           Charge          ....    0
 Multiplicity           Mult            ....    1
 Number of Electrons    NEL             ....   58
 Basis Dimension        Dim             ....  296

ORBITAL ENERGIES
----------------

  NO   OCC          E(Eh)            E(eV)
   0   2.0000     -18.955797      -515.8135
   1   2.0000     -10.085615      -274.4435
   2   2.0000     -10.046718      -273.3851
   3   2.0000     -10.040790      -273.2238
   4   2.0000     -10.040359      -273.2120
   5   2.0000     -10.039872      -273.1988
   6   2.0000     -10.038619      -273.1647
   7   2.0000     -10.037306      -273.1290
   8   2.0000      -0.988081       -26.8870
   9   2.0000      -0.826589       -22.4926
  10   2.0000      -0.735514       -20.0143
  11   2.0000      -0.716802       -19.5052
  12   2.0000      -0.647019       -17.6063
  13   2.0000      -0.578056       -15.7297
  14   2.0000      -0.559889       -15.2354
  15   2.0000      -0.495606       -13.4861
  16   2.0000      -0.465908       -12.6780
  17   2.0000      -0.434497       -11.8233
  18   2.0000      -0.414985       -11.2923
  19   2.0000      -0.412044       -11.2123
  20   2.0000      -0.393286       -10.7019
  21   2.0000      -0.387721       -10.5504
  22   2.0000      -0.343311        -9.3420
  23   2.0000      -0.336851        -9.1662
  24   2.0000      -0.315646        -8.5892
  25   2.0000      -0.298245        -8.1157
  26   2.0000      -0.255223        -6.9450
  27   2.0000      -0.240908        -6.5554
  28   2.0000      -0.229599        -6.2477
  29   0.0000      -0.040732        -1.1084
  30   0.0000      -0.038282        -1.0417
  31   0.0000       0.043094         1.1726
  32   0.0000       0.059134         1.6091
  33   0.0000       0.079158         2.1540

MULLIKEN ATOMIC CHARGES
-----------------------
   0 C :   -0.134261
   1 C :   -0.080914
   2 C :   -0.211092
   3 C :    0.075033
   4 C :   -0.205308
   5 C :   -0.074289
   6 C :    0.056850
   7 O :   -0.459778
   8 H :    0.109977
   9 H :    0.109401
  10 H :    0.099749
  11 H :    0.123036
  12 H :    0.110163
  13 H :    0.085921
  14 H :    0.096750
  15 H :    0.298762
Sum of atomic charges:   -0.0000000

LOEWDIN ATOMIC CHARGES
----------------------
   0 C :   -0.142855
   1 C :   -0.139746
   2 C :   -0.118067
   3 C :   -0.168036
   4 C :   -0.112863
   5 C :   -0.138154
   6 C :   -0.291512
   7 O :   -0.040606
   8 H :    0.142582
   9 H :    0.143091
  10 H :    0.144712
  11 H :    0.150214
  12 H :    0.143355
  13 H :    0.120552
  14 H :    0.136065
  15 H :    0.171268

  Mayer bond orders larger than 0.100000
B(  0-C ,  1-C ) :   1.3978 B(  0-C ,  5-C ) :   1.3796 B(  0-C ,  8-H ) :   0.9693
B(  1-C ,  2-C ) :   1.4044 B(  1-C ,  9-H ) :   0.9702 B(  2-C ,  3-C ) :   1.3504
B(  2-C , 10-H ) :   0.9733 B(  3-C ,  4-C ) :   1.3392 B(  3-C ,  6-C ) :   0.9592
B(  4-C ,  5-C ) :   1.4031 B(  4-C , 11-H ) :   0.9700 B(  5-C , 12-H ) :   0.9721
B(  6-C ,  7-O ) :   0.9481 B(  6-C , 13-H ) :   0.9679 B(  6-C , 14-H ) :   0.9439
B(  7-O , 15-H ) :   0.8972

Dispersion correction           -0.004918369
FINAL SINGLE POINT ENERGY      -346.714415923866

DIPOLE MOMENT
-------------

Method             : SCF
Type of density    : Electron Density
Multiplicity       :   1
Irrep              :   0
Energy             :  -346.7152037355659218 Eh
Relativity type    :
Basis              : AO
                                X                 Y                 Z
Electronic contribution:     -0.242380676      -0.729622347      -0.178145838
Nuclear contribution   :     -0.209097172       0.986335675      -0.077801792
                        -----------------------------------------
Total Dipole Moment    :     -0.451477848       0.256713327      -0.255947629
                        -----------------------------------------
Magnitude (a.u.)       :      0.579001873
Magnitude (Debye)      :      1.471705803

VIBRATIONAL FREQUENCIES
-----------------------

Scaling factor for frequencies =  1.000000000  (already applied!)

     0:       0.00 cm**-1
     1:       0.00 cm**-1
     2:       0.00 cm**-1
     3:       0.00 cm**-1
     4:       0.00 cm**-1
     5:       0.00 cm**-1
     6:      55.78 cm**-1
     7:     166.91 cm**-1
     8:     261.45 cm**-1
     9:     335.89 cm**-1
    10:     409.55 cm**-1
    11:     411.92 cm**-1
    12:     476.66 cm**-1
    13:     604.50 cm**-1
    14:     637.23 cm**-1
    15:     712.19 cm**-1
    16:     745.77 cm**-1
    17:     815.02 cm**-1
    18:     855.74 cm**-1
    19:     909.24 cm**-1
    20:     962.28 cm**-1
    21:     980.33 cm**-1
    22:     984.32 cm**-1
    23:    1023.46 cm**-1
    24:    1028.03 cm**-1
    25:    1051.69 cm**-1
    26:    1106.82 cm**-1
    27:    1182.35 cm**-1
    28:    1196.82 cm**-1
    29:    1200.70 cm**-1
    30:    1223.66 cm**-1
    31:    1318.68 cm**-1
    32:    1354.60 cm**-1
    33:    1375.38 cm**-1
    34:    1408.67 cm**-1
    35:    1481.43 cm**-1
    36:    1488.93 cm**-1
    37:    1522.76 cm**-1
    38:    1620.65 cm**-1
    39:    1638.53 cm**-1
    40:    2971.50 cm**-1
    41:    3040.24 cm**-1
    42:    3146.77 cm**-1
    43:    3157.18 cm**-1
    44:    3166.62 cm**-1
    45:    3175.41 cm**-1
    46:    3183.06 cm**-1
    47:    3785.63 cm**-1

IR SPECTRUM
-----------

 Mode   freq       eps      Int      T**2         TX        TY        TZ
       cm**-1   L/(mol*cm) km/mol    a.u.
----------------------------------------------------------------------------
  6:     55.78   0.000440    2.23  0.002464  ( 0.031189 -0.011974 -0.036710)
  7:    166.91   0.000058    0.30  0.000109  ( 0.006098  0.007153  0.004570)
  8:    261.45   0.000928    4.69  0.001108  ( 0.020501  0.022061  0.014168)
  9:    335.89   0.020590  104.05  0.019129  (-0.108820 -0.069940  0.048948)
 10:    409.55   0.004051   20.47  0.003087  (-0.043995 -0.026225  0.021523)
 11:    411.92   0.004013   20.28  0.003040  (-0.041540 -0.028003  0.023032)
 12:    476.66   0.001552    7.84  0.001016  ( 0.013758  0.007923 -0.027641)
 13:    604.50   0.002688   13.58  0.001388  (-0.018758 -0.019898 -0.025296)
 14:    637.23   0.000047    0.24  0.000023  ( 0.002759  0.000942 -0.003789)
 15:    712.19   0.007255   36.66  0.003179  (-0.005086  0.006037  0.055828)
 16:    745.77   0.008035   40.60  0.003362  (-0.009449  0.010172  0.056296)
 17:    815.02   0.000501    2.53  0.000192  ( 0.000798  0.012848 -0.005100)
 18:    855.74   0.000034    0.17  0.000012  ( 0.003091 -0.001590  0.000551)
 19:    909.24   0.000746    3.77  0.000256  (-0.009536  0.004357  0.012087)
 20:    962.28   0.000014    0.07  0.000005  (-0.001649 -0.000273  0.001371)
 21:    980.33   0.001708    8.63  0.000544  ( 0.019831 -0.009118 -0.008211)
 22:    984.32   0.003895   19.69  0.001235  ( 0.030157 -0.015663 -0.008952)
 23:   1023.46   0.000099    0.50  0.000030  ( 0.003782 -0.002704 -0.002934)
 24:   1028.03   0.016898   85.40  0.005130  ( 0.051623 -0.041800 -0.026782)
 25:   1051.69   0.000545    2.75  0.000162  ( 0.004390  0.010250  0.006109)
 26:   1106.82   0.000588    2.97  0.000166  (-0.006116 -0.008888  0.007035)
 27:   1182.35   0.000024    0.12  0.000006  ( 0.002053  0.001460  0.000020)
 28:   1196.82   0.000133    0.67  0.000035  ( 0.002016  0.004863  0.002644)
 29:   1200.70   0.002054   10.38  0.000534  ( 0.007248 -0.018527 -0.011750)
 30:   1223.66   0.001705    8.62  0.000435  ( 0.017101 -0.008327 -0.008541)
 31:   1318.68   0.000462    2.34  0.000109  (-0.003242 -0.009648 -0.002410)
 32:   1354.60   0.000089    0.45  0.000020  (-0.003715 -0.002210  0.001326)
 33:   1375.38   0.000716    3.62  0.000163  (-0.012141  0.002965  0.002517)
 34:   1408.67   0.011739   59.32  0.002601  ( 0.046806 -0.015868 -0.012570)
 35:   1481.43   0.001710    8.64  0.000360  (-0.006101  0.017972 -0.000077)
 36:   1488.93   0.000941    4.76  0.000197  ( 0.010370  0.009093  0.002664)
 37:   1522.76   0.001248    6.31  0.000256  (-0.015587 -0.002019 -0.002940)
 38:   1620.65   0.000063    0.32  0.000012  ( 0.001571 -0.002484  0.001861)
 39:   1638.53   0.000416    2.10  0.000079  ( 0.008413  0.002250  0.001830)
 40:   2971.50   0.011280   57.00  0.001185  (-0.010261 -0.032638 -0.003750)
 41:   3040.24   0.003706   18.73  0.000380  ( 0.004171 -0.004736  0.018455)
 42:   3146.77   0.001522    7.69  0.000151  ( 0.007455  0.009764 -0.000099)
 43:   3157.18   0.000019    0.09  0.000002  ( 0.001355 -0.000107 -0.000044)
 44:   3166.62   0.002639   13.34  0.000260  (-0.004851 -0.015373  0.000500)
 45:   3175.41   0.003750   18.95  0.000369  (-0.010450  0.015840 -0.002899)
 46:   3183.06   0.002559   12.93  0.000251  ( 0.014861  0.005474  0.000320)
 47:   3785.63   0.003678   18.59  0.000303  (-0.002154  0.005212  0.016473)

--------------------------
THERMOCHEMISTRY AT 298.15K
--------------------------

Temperature         ...   298.15 K
Pressure            ...     1.00 atm
Total Mass          ...   108.14 AMU
Quasi RRHO          ...     True
Cut-Off Frequency   ...     1.00 cm^-1

Throughout the following assumptions are being made:
  (1) The electronic state is orbitally nondegenerate
  (2) There are no thermally accessible electronically excited states
  (3) Hindered rotations indicated by low frequency modes are not
      treated as such but are treated as vibrations and this may
      cause some error
  (4) All equations used are the standard statistical mechanics
      equations for an ideal gas
  (5) All vibrations are strictly harmonic

freq.      55.78  E(vib)   ...       0.52
freq.     166.91  E(vib)   ...       0.39
freq.     261.45  E(vib)   ...       0.30
freq.     335.89  E(vib)   ...       0.24
freq.     409.55  E(vib)   ...       0.19
freq.     411.92  E(vib)   ...       0.19
freq.     476.66  E(vib)   ...       0.15
freq.     604.50  E(vib)   ...       0.10
freq.     637.23  E(vib)   ...       0.09
freq.     712.19  E(vib)   ...       0.07
freq.     745.77  E(vib)   ...       0.06
freq.     815.02  E(vib)   ...       0.05
freq.     855.74  E(vib)   ...       0.04
freq.     909.24  E(vib)   ...       0.03
freq.     962.28  E(vib)   ...       0.03
freq.     980.33  E(vib)   ...       0.02
freq.     984.32  E(vib)   ...       0.02
freq.    1023.46  E(vib)   ...       0.02
freq.    1028.03  E(vib)   ...       0.02
freq.    1051.69  E(vib)   ...       0.02
freq.    1106.82  E(vib)   ...       0.02
freq.    1182.35  E(vib)   ...       0.01
freq.    1196.82  E(vib)   ...       0.01
freq.    1200.70  E(vib)   ...       0.01
freq.    1223.66  E(vib)   ...       0.01
freq.    1318.68  E(vib)   ...       0.01
freq.    1354.60  E(vib)   ...       0.01
freq.    1375.38  E(vib)   ...       0.01
freq.    1408.67  E(vib)   ...       0.00
freq.    1481.43  E(vib)   ...       0.00
freq.    1488.93  E(vib)   ...       0.00
freq.    1522.76  E(vib)   ...       0.00
freq.    1620.65  E(vib)   ...       0.00
freq.    1638.53  E(vib)   ...       0.00
freq.    2971.50  E(vib)   ...       0.00
freq.    3040.24  E(vib)   ...       0.00
freq.    3146.77  E(vib)   ...       0.00
freq.    3157.18  E(vib)   ...       0.00
freq.    3166.62  E(vib)   ...       0.00
freq.    3175.41  E(vib)   ...       0.00
freq.    3183.06  E(vib)   ...       0.00
freq.    3785.63  E(vib)   ...       0.00

------------
INNER ENERGY
------------

The inner energy is: U= E(el) + E(ZPE) + E(vib) + E(rot) + E(trans)
    E(el)   - is the total energy from the electronic structure calculation
              = E(kin-el) + E(nuc-el) + E(el-el) + E(nuc-nuc)
    E(ZPE)  - the the zero temperature vibrational energy from the frequency calculation
    E(vib)  - the the finite temperature correction to E(ZPE) due to population
              of excited vibrational states
    E(rot)  - is the rotational thermal energy
    E(trans)- is the translational thermal energy

Summary of contributions to the inner energy U:
Electronic energy                ...   -346.71441592 Eh
Zero point energy                ...      0.13253084 Eh      83.16 kcal/mol
Thermal vibrational correction   ...      0.00418183 Eh       2.62 kcal/mol
Thermal rotational correction    ...      0.00141627 Eh       0.89 kcal/mol
Thermal translational correction ...      0.00141627 Eh       0.89 kcal/mol
-----------------------------------------------------------------------
Total thermal energy                   -346.57487071 Eh

Summary of corrections to the electronic energy:
(perhaps to be used in another calculation)
Total thermal correction                  0.00701438 Eh       4.40 kcal/mol
Non-thermal (ZPE) correction              0.13253084 Eh      83.16 kcal/mol
-----------------------------------------------------------------------
Total correction                          0.13954522 Eh      87.57 kcal/mol

--------
ENTHALPY
--------

The enthalpy is H = U + kB*T
                kB is Boltzmann's constant
Total thermal energy              ...   -346.57487071 Eh
Thermal Enthalpy correction       ...      0.00094421 Eh       0.59 kcal/mol
-----------------------------------------------------------------------
Total Enthalpy                    ...   -346.57392650 Eh

Note: Only C1 symmetry has been detected, increase convergence thresholds
      if your molecule has a higher symmetry. Symmetry factor of 1.0 is
      used for the rotational entropy correction.

Note: Rotational entropy computed according to Herzberg
Infrared and Raman Spectra, Chapter V,1, Van Nostrand Reinhold, 1945
Point Group:  C1, Symmetry Number:   1
Rotational constants in cm-1:     0.161166     0.049320     0.039164

Vibrational entropy computed according to the QRRHO of S. Grimme
Chem.Eur.J. 2012 18 9955 using a reference frequency of 100.0 cm-1

-------
ENTROPY
-------

The entropy contributions are T*S = T*(S(el)+S(vib)+S(rot)+S(trans))
     S(el)   - electronic entropy
     S(vib)  - vibrational entropy
     S(rot)  - rotational entropy
     S(trans)- translational entropy
The entropies will be listed as multiplied by the temperature to get
units of energy

Electronic entropy                ...      0.00000000 Eh      0.00 kcal/mol
Vibrational entropy               ...      0.00677054 Eh      4.25 kcal/mol
Rotational entropy                ...      0.01332283 Eh      8.36 kcal/mol
Translational entropy             ...      0.01898207 Eh     11.91 kcal/mol
-----------------------------------------------------------------------
Final entropy term                ...      0.03907544 Eh     24.52 kcal/mol

In case the symmetry of your molecule has not been determined correctly
or in case you have a reason to use a different symmetry number we print
out the resulting rotational entropy values for sn=1,12:

 non-linear molecules -----------------------------------
|  sn= 1 | S(rot)=       0.01332283 Eh      8.36 kcal/mol|
|  sn= 2 | S(rot)=       0.01266837 Eh      7.95 kcal/mol|
|  sn= 3 | S(rot)=       0.01228554 Eh      7.71 kcal/mol|
|  sn= 4 | S(rot)=       0.01201391 Eh      7.54 kcal/mol|
|  sn= 5 | S(rot)=       0.01180322 Eh      7.41 kcal/mol|
|  sn= 6 | S(rot)=       0.01163108 Eh      7.30 kcal/mol|
|  sn= 7 | S(rot)=       0.01148553 Eh      7.21 kcal/mol|
|  sn= 8 | S(rot)=       0.01135946 Eh      7.13 kcal/mol|
|  sn= 9 | S(rot)=       0.01124825 Eh      7.06 kcal/mol|
|  sn=10 | S(rot)=       0.01114877 Eh      7.00 kcal/mol|
|  sn=11 | S(rot)=       0.01105878 Eh      6.94 kcal/mol|
|  sn=12 | S(rot)=       0.01097662 Eh      6.89 kcal/mol|
 linear molecules ---------------------------------------
|  Dinfh | S(rot)=       0.00838496 Eh      5.26 kcal/mol|
|  Cinfv | S(rot)=       0.00903941 Eh      5.67 kcal/mol|
 --------------------------------------------------------

                             ****ORCA TERMINATED NORMALLY****
TOTAL RUN TIME: 0 days 0 hours 10 minutes 22 seconds 293 msec
