                         Program Version 6.0.1  -  RELEASE   -
|  1> ! r2scan-3c def2/J RI DEFGRID2 scfconv6 printgap
|  2> %output
|  3>     printlevel normal
|  4> end
|  5> * xyz 0 1
|  6> C -2.3765525362 -0.8312504498 -0.1581287807
|  7> O -0.9821789958 -0.6279340506 -0.3527557054
|  8> C -0.5395961951 0.6130033077 -0.195396326
|  9> O -1.2305128064 1.5571786396 0.0746697971
| 10> C 0.9585332714 0.7107172455 -0.4285119358
| 11> Cl 1.8229164836 -0.5747271422 0.4444947799
| 12> H -2.5373845499 -1.9037598642 -0.2246532274
| 13> H -2.9443920328 -0.3082378139 -0.93004669
| 14> H -2.6811655371 -0.4544029494 0.8198245984
| 15> H 1.3202942011 1.675723984 -0.0756547964
| 16> H 1.1742308286 0.5872507902 -1.490867675
| 17> *
| 18>
| 19>                          ****END OF INPUT****

CARTESIAN COORDINATES (ANGSTROEM)
---------------------------------
  C     -2.376553   -0.831250   -0.158129
  O     -0.982179   -0.627934   -0.352756
  C     -0.539596    0.613003   -0.195396
  O     -1.230513    1.557179    0.074670
  C      0.958533    0.710717   -0.428512
  Cl     1.822916   -0.574727    0.444495
  H     -2.537385   -1.903760   -0.224653
  H     -2.944392   -0.308238   -0.930047
  H     -2.681166   -0.454403    0.819825
  H      1.320294    1.675724   -0.075655
  H      1.174231    0.587251   -1.490868

 Total Charge           Charge          ....    0
 Multiplicity           Mult            ....    1
 Number of Electrons    NEL             ....   56
 Basis Dimension        Dim             ....  157

ORBITAL ENERGIES
----------------

  NO   OCC          E(Eh)            E(eV)
   0   2.0000    -101.215402     -2754.2111
   1   2.0000     -19.014975      -517.4238
   2   2.0000     -18.952587      -515.7261
   3   2.0000     -10.175288      -276.8837
   4   2.0000     -10.113371      -275.1988
   5   2.0000     -10.096605      -274.7426
   6   2.0000      -9.371323      -255.0067
   7   2.0000      -7.118074      -193.6926
   8   2.0000      -7.107139      -193.3951
   9   2.0000      -7.107022      -193.3919
  10   2.0000      -1.094044       -29.7704
  11   2.0000      -1.002884       -27.2899
  12   2.0000      -0.836960       -22.7748
  13   2.0000      -0.725182       -19.7332
  14   2.0000      -0.665977       -18.1221
  15   2.0000      -0.552521       -15.0349
  16   2.0000      -0.491105       -13.3637
  17   2.0000      -0.475388       -12.9360
  18   2.0000      -0.460984       -12.5440
  19   2.0000      -0.431122       -11.7314
  20   2.0000      -0.408753       -11.1227
  21   2.0000      -0.400076       -10.8866
  22   2.0000      -0.366793        -9.9809
  23   2.0000      -0.339348        -9.2341
  24   2.0000      -0.298007        -8.1092
  25   2.0000      -0.288863        -7.8604
  26   2.0000      -0.277193        -7.5428
  27   2.0000      -0.251411        -6.8412
  28   0.0000      -0.049725        -1.3531
  29   0.0000       0.015994         0.4352
  30   0.0000       0.058076         1.5803
  31   0.0000       0.093120         2.5339
  32   0.0000       0.117431         3.1955

MULLIKEN ATOMIC CHARGES
-----------------------
   0 C :   -0.288874
   1 O :   -0.171475
   2 C :    0.384238
   3 O :   -0.405846
   4 C :   -0.206411
   5 Cl:   -0.152232
   6 H :    0.155749
   7 H :    0.158758
   8 H :    0.165299
   9 H :    0.186597
  10 H :    0.174200
Sum of atomic charges:   -0.0000000

LOEWDIN ATOMIC CHARGES
----------------------
   0 C :   -0.038920
   1 O :   -0.603637
   2 C :    0.326981
   3 O :   -0.395289
   4 C :   -0.253702
   5 Cl:    0.069756
   6 H :    0.179074
   7 H :    0.175911
   8 H :    0.180196
   9 H :    0.179689
  10 H :    0.179941

  Mayer bond orders larger than 0.100000
B(  0-C ,  1-O ) :   0.8510 B(  0-C ,  6-H ) :   0.9678 B(  0-C ,  7-H ) :   0.9610
B(  0-C ,  8-H ) :   0.9617 B(  1-O ,  2-C ) :   1.0824 B(  2-C ,  3-O ) :   1.8283
B(  2-C ,  4-C ) :   0.9922 B(  4-C ,  5-Cl) :   1.0129 B(  4-C ,  9-H ) :   0.9696
B(  4-C , 10-H ) :   0.9256

Dispersion correction           -0.002610900
FINAL SINGLE POINT ENERGY      -727.903567315176

DIPOLE MOMENT
-------------

Method             : SCF
Type of density    : Electron Density
Multiplicity       :   1
Irrep              :   0
Energy             :  -727.9114065746970255 Eh
Relativity type    :
Basis              : AO
                                X                 Y                 Z
Electronic contribution:      7.467119787      -0.707225490       1.916965133
Nuclear contribution   :     -7.797441376       0.406674131      -2.384561008
                        -----------------------------------------
Total Dipole Moment    :     -0.330321590      -0.300551360      -0.467595875
                        -----------------------------------------
Magnitude (a.u.)       :      0.646598311
Magnitude (Debye)      :      1.643522292

Rotational constants in cm-1:             0.182937             0.059508             0.047763
Rotational constants in MHz :          5484.305277          1784.015390          1431.907330

                             ****ORCA TERMINATED NORMALLY****
TOTAL RUN TIME: 0 days 0 hours 0 minutes 13 seconds 940 msec
