                         Program Version 6.0.1  -  RELEASE   -
|  1> ! pbe def2-sv(p) def2/J RI DEFGRID1 loosescf d4 GCP(DFT/SV(P)) printgap
|  2> %output
|  3>     printlevel normal
|  4> end
|  5> * xyz 0 1
|  6> C -2.3221781453 -1.1033750651 0.2962380297
|  7> C -1.1134188661 -0.2943455081 0.8145280696
|  8> H -1.3825865901 0.1190874603 1.7960519732
|  9> C -0.759408233 0.8803910192 -0.1088139753
| 10> H -0.8350312341 0.5777304604 -1.166011727
| 11> C 0.6788293076 1.3130790479 0.1988503286
| 12> H 0.7527416279 1.4999913311 1.282303169
| 13> C 1.6510342771 0.1877780785 -0.1786103284
| 14> H 1.8372234953 0.2583235625 -1.2641547067
| 15> C 1.0375437684 -1.1965319509 0.1242420939
| 16> H 1.7997251215 -1.813977146 0.6114523591
| 17> O -0.0008609825 -1.1457329243 1.0647918636
| 18> O 0.6764467486 -1.8780236264 -1.0401910663
| 19> O 2.8594350112 0.2940870133 0.5214024574
| 20> O 1.0407421096 2.462971767 -0.5215738297
| 21> O -1.5869386846 1.9987376797 0.1217731609
| 22> O -2.1328519692 -1.6214748176 -0.991734186
| 23> H -3.1976241316 -0.4504206896 0.2400522612
| 24> H -2.5282111098 -1.9037708066 1.0171970951
| 25> H 0.2153790572 -1.2885835509 -1.6528218247
| 26> H 3.2038639037 1.1856713905 0.3856034947
| 27> H 0.3179380887 3.096560379 -0.426707867
| 28> H -2.4931720128 1.7750623326 -0.1143364914
| 29> H -1.4155799532 -2.2724418006 -0.9485554174
| 30> *
| 31>
| 32>                          ****END OF INPUT****

CARTESIAN COORDINATES (ANGSTROEM)
---------------------------------
  C     -2.322178   -1.103375    0.296238
  C     -1.113419   -0.294346    0.814528
  H     -1.382587    0.119087    1.796052
  C     -0.759408    0.880391   -0.108814
  H     -0.835031    0.577730   -1.166012
  C      0.678829    1.313079    0.198850
  H      0.752742    1.499991    1.282303
  C      1.651034    0.187778   -0.178610
  H      1.837223    0.258324   -1.264155
  C      1.037544   -1.196532    0.124242
  H      1.799725   -1.813977    0.611452
  O     -0.000861   -1.145733    1.064792
  O      0.676447   -1.878024   -1.040191
  O      2.859435    0.294087    0.521402
  O      1.040742    2.462972   -0.521574
  O     -1.586939    1.998738    0.121773
  O     -2.132852   -1.621475   -0.991734
  H     -3.197624   -0.450421    0.240052
  H     -2.528211   -1.903771    1.017197
  H      0.215379   -1.288584   -1.652822
  H      3.203864    1.185671    0.385603
  H      0.317938    3.096560   -0.426708
  H     -2.493172    1.775062   -0.114336
  H     -1.415580   -2.272442   -0.948555

 Total Charge           Charge          ....    0
 Multiplicity           Mult            ....    1
 Number of Electrons    NEL             ....   96
 Basis Dimension        Dim             ....  192

ORBITAL ENERGIES
----------------

  NO   OCC          E(Eh)            E(eV)
   0   2.0000     -18.777581      -510.9640
   1   2.0000     -18.774051      -510.8679
   2   2.0000     -18.771742      -510.8051
   3   2.0000     -18.758857      -510.4544
   4   2.0000     -18.756154      -510.3809
   5   2.0000     -18.754545      -510.3371
   6   2.0000      -9.990226      -271.8479
   7   2.0000      -9.956192      -270.9218
   8   2.0000      -9.950998      -270.7804
   9   2.0000      -9.947750      -270.6920
  10   2.0000      -9.946824      -270.6668
  11   2.0000      -9.943344      -270.5721
  12   2.0000      -0.988539       -26.8995
  13   2.0000      -0.959795       -26.1174
  14   2.0000      -0.941452       -25.6182
  15   2.0000      -0.933803       -25.4101
  16   2.0000      -0.923619       -25.1330
  17   2.0000      -0.921648       -25.0793
  18   2.0000      -0.714157       -19.4332
  19   2.0000      -0.696731       -18.9590
  20   2.0000      -0.633848       -17.2479
  21   2.0000      -0.597019       -16.2457
  22   2.0000      -0.567776       -15.4500
  23   2.0000      -0.530908       -14.4468
  24   2.0000      -0.514476       -13.9996
  25   2.0000      -0.497688       -13.5428
  26   2.0000      -0.482659       -13.1338
  27   2.0000      -0.466748       -12.7009
  28   2.0000      -0.456440       -12.4204
  29   2.0000      -0.434987       -11.8366
  30   2.0000      -0.420452       -11.4411
  31   2.0000      -0.400405       -10.8956
  32   2.0000      -0.395669       -10.7667
  33   2.0000      -0.391760       -10.6603
  34   2.0000      -0.378867       -10.3095
  35   2.0000      -0.359432        -9.7806
  36   2.0000      -0.330297        -8.9878
  37   2.0000      -0.321523        -8.7491
  38   2.0000      -0.310001        -8.4355
  39   2.0000      -0.300549        -8.1784
  40   2.0000      -0.294231        -8.0064
  41   2.0000      -0.284533        -7.7425
  42   2.0000      -0.264232        -7.1901
  43   2.0000      -0.251377        -6.8403
  44   2.0000      -0.240473        -6.5436
  45   2.0000      -0.228730        -6.2241
  46   2.0000      -0.225690        -6.1413
  47   2.0000      -0.209512        -5.7011
  48   0.0000       0.000050         0.0014
  49   0.0000       0.015521         0.4223
  50   0.0000       0.036892         1.0039
  51   0.0000       0.044433         1.2091
  52   0.0000       0.056802         1.5457

MULLIKEN ATOMIC CHARGES
-----------------------
   0 C :    0.067325
   1 C :    0.030752
   2 H :    0.073091
   3 C :   -0.037314
   4 H :    0.054600
   5 C :    0.078122
   6 H :    0.061459
   7 C :    0.035555
   8 H :    0.067808
   9 C :    0.205624
  10 H :    0.088510
  11 O :   -0.303770
  12 O :   -0.411430
  13 O :   -0.410857
  14 O :   -0.422775
  15 O :   -0.419298
  16 O :   -0.445649
  17 H :    0.064751
  18 H :    0.094213
  19 H :    0.301956
  20 H :    0.309567
  21 H :    0.309080
  22 H :    0.311963
  23 H :    0.296716
Sum of atomic charges:    0.0000000

LOEWDIN ATOMIC CHARGES
----------------------
   0 C :   -0.132440
   1 C :   -0.083695
   2 H :    0.119775
   3 C :   -0.087085
   4 H :    0.096973
   5 C :   -0.075055
   6 H :    0.109484
   7 C :   -0.078020
   8 H :    0.105201
   9 C :    0.001725
  10 H :    0.123272
  11 O :   -0.139730
  12 O :   -0.300056
  13 O :   -0.311570
  14 O :   -0.323902
  15 O :   -0.314967
  16 O :   -0.338370
  17 H :    0.105722
  18 H :    0.109392
  19 H :    0.270250
  20 H :    0.291336
  21 H :    0.286243
  22 H :    0.291765
  23 H :    0.273753

  Mayer bond orders larger than 0.100000
B(  0-C ,  1-C ) :   1.0336 B(  0-C , 16-O ) :   1.0923 B(  0-C , 17-H ) :   0.9130
B(  0-C , 18-H ) :   0.9141 B(  1-C ,  2-H ) :   0.8714 B(  1-C ,  3-C ) :   0.9696
B(  1-C , 11-O ) :   0.9827 B(  3-C ,  4-H ) :   0.8764 B(  3-C ,  5-C ) :   1.0346
B(  3-C , 15-O ) :   1.0533 B(  5-C ,  6-H ) :   0.8538 B(  5-C ,  7-C ) :   1.0328
B(  5-C , 14-O ) :   1.0902 B(  7-C ,  8-H ) :   0.8920 B(  7-C ,  9-C ) :   0.9894
B(  7-C , 13-O ) :   1.0901 B(  9-C , 10-H ) :   0.8928 B(  9-C , 11-O ) :   1.0794
B(  9-C , 12-O ) :   1.0556 B( 12-O , 19-H ) :   0.8153 B( 13-O , 20-H ) :   0.8437
B( 14-O , 21-H ) :   0.8316 B( 15-O , 22-H ) :   0.8410 B( 16-O , 23-H ) :   0.8030

Dispersion correction           -0.025053046
FINAL SINGLE POINT ENERGY      -685.694547906993

DIPOLE MOMENT
-------------

Method             : SCF
Type of density    : Electron Density
Multiplicity       :   1
Irrep              :   0
Energy             :  -685.8274375965853551 Eh
Relativity type    :
Basis              : AO
                                X                 Y                 Z
Electronic contribution:      2.727608660      -0.025965795       0.156327175
Nuclear contribution   :     -3.482315999       0.736443689      -0.237619102
                        -----------------------------------------
Total Dipole Moment    :     -0.754707338       0.710477894      -0.081291927
                        -----------------------------------------
Magnitude (a.u.)       :      1.039697255
Magnitude (Debye)      :      2.642700403

Rotational constants in cm-1:             0.040611             0.029119             0.020331
Rotational constants in MHz :          1217.479440           872.975331           609.519378

                             ****ORCA TERMINATED NORMALLY****
TOTAL RUN TIME: 0 days 0 hours 0 minutes 14 seconds 516 msec
