                         Program Version 6.0.1  -  RELEASE   -
|  1> ! pbe def2-sv(p) def2/J RI DEFGRID1 loosescf d4 GCP(DFT/SV(P)) printgap
|  2> %output
|  3>     printlevel normal
|  4> end
|  5> * xyz 0 1
|  6> C -0.1891439926 -2.3104373679 -0.2867316704
|  7> C 0.4976160635 -0.9976900422 -0.1204496111
|  8> C 1.8903370106 -0.959072826 -0.10866804
|  9> C 2.5918777217 0.2216017637 0.0410926544
| 10> C 1.9119685985 1.4222259432 0.1855352415
| 11> C 0.5347554281 1.4190746899 0.1775795963
| 12> C -0.1718442077 0.2257715514 0.0269624149
| 13> N -1.6089224902 0.3287289634 0.0323634248
| 14> O -2.2725475487 -0.681676272 -0.0754059922
| 15> O -2.0897583623 1.4389024251 0.1465737903
| 16> H -0.8284639678 -2.5227680221 0.5686732504
| 17> H -0.8366411159 -2.3006227072 -1.1620314901
| 18> H 0.5422887365 -3.1079215312 -0.3923267814
| 19> H 2.4324949213 -1.8863551104 -0.2206034729
| 20> H 3.6713103166 0.2068598711 0.045172433
| 21> H 2.4519100231 2.3484236947 0.3030339921
| 22> H -0.0259625753 2.3348187267 0.2877254801
| 23> *
| 24>
| 25>                          ****END OF INPUT****

CARTESIAN COORDINATES (ANGSTROEM)
---------------------------------
  C     -0.189144   -2.310437   -0.286732
  C      0.497616   -0.997690   -0.120450
  C      1.890337   -0.959073   -0.108668
  C      2.591878    0.221602    0.041093
  C      1.911969    1.422226    0.185535
  C      0.534755    1.419075    0.177580
  C     -0.171844    0.225772    0.026962
  N     -1.608922    0.328729    0.032363
  O     -2.272548   -0.681676   -0.075406
  O     -2.089758    1.438902    0.146574
  H     -0.828464   -2.522768    0.568673
  H     -0.836641   -2.300623   -1.162031
  H      0.542289   -3.107922   -0.392327
  H      2.432495   -1.886355   -0.220603
  H      3.671310    0.206860    0.045172
  H      2.451910    2.348424    0.303034
  H     -0.025963    2.334819    0.287725

 Total Charge           Charge          ....    0
 Multiplicity           Mult            ....    1
 Number of Electrons    NEL             ....   72
 Basis Dimension        Dim             ....  154

ORBITAL ENERGIES
----------------

  NO   OCC          E(Eh)            E(eV)
   0   2.0000     -18.775342      -510.9030
   1   2.0000     -18.772843      -510.8350
   2   2.0000     -14.209848      -386.6696
   3   2.0000      -9.952465      -270.8204
   4   2.0000      -9.936888      -270.3965
   5   2.0000      -9.918737      -269.9025
   6   2.0000      -9.917589      -269.8713
   7   2.0000      -9.914653      -269.7914
   8   2.0000      -9.914333      -269.7827
   9   2.0000      -9.892601      -269.1914
  10   2.0000      -1.133381       -30.8409
  11   2.0000      -0.961835       -26.1729
  12   2.0000      -0.813905       -22.1475
  13   2.0000      -0.736349       -20.0371
  14   2.0000      -0.717604       -19.5270
  15   2.0000      -0.650387       -17.6979
  16   2.0000      -0.616447       -16.7744
  17   2.0000      -0.559273       -15.2186
  18   2.0000      -0.529387       -14.4054
  19   2.0000      -0.492299       -13.3961
  20   2.0000      -0.488107       -13.2821
  21   2.0000      -0.455764       -12.4020
  22   2.0000      -0.451384       -12.2828
  23   2.0000      -0.431070       -11.7300
  24   2.0000      -0.408215       -11.1081
  25   2.0000      -0.388911       -10.5828
  26   2.0000      -0.387254       -10.5377
  27   2.0000      -0.357620        -9.7313
  28   2.0000      -0.342907        -9.3310
  29   2.0000      -0.335546        -9.1307
  30   2.0000      -0.324701        -8.8356
  31   2.0000      -0.270492        -7.3605
  32   2.0000      -0.257033        -6.9942
  33   2.0000      -0.254387        -6.9222
  34   2.0000      -0.246391        -6.7046
  35   2.0000      -0.230696        -6.2776
  36   0.0000      -0.113075        -3.0769
  37   0.0000      -0.055740        -1.5168
  38   0.0000      -0.033247        -0.9047
  39   0.0000       0.033056         0.8995
  40   0.0000       0.058071         1.5802

MULLIKEN ATOMIC CHARGES
-----------------------
   0 C :   -0.171296
   1 C :   -0.041301
   2 C :   -0.151855
   3 C :   -0.004887
   4 C :   -0.041306
   5 C :   -0.122586
   6 C :    0.161827
   7 N :    0.201793
   8 O :   -0.218405
   9 O :   -0.216469
  10 H :    0.125926
  11 H :    0.125334
  12 H :    0.095349
  13 H :    0.051331
  14 H :    0.065193
  15 H :    0.066634
  16 H :    0.074720
Sum of atomic charges:   -0.0000000

LOEWDIN ATOMIC CHARGES
----------------------
   0 C :   -0.325997
   1 C :   -0.019935
   2 C :   -0.117462
   3 C :   -0.097218
   4 C :   -0.120680
   5 C :   -0.102913
   6 C :   -0.041241
   7 N :    0.250349
   8 O :   -0.175301
   9 O :   -0.186874
  10 H :    0.141422
  11 H :    0.140995
  12 H :    0.120131
  13 H :    0.129096
  14 H :    0.130636
  15 H :    0.131333
  16 H :    0.143656

  Mayer bond orders larger than 0.100000
B(  0-C ,  1-C ) :   1.1630 B(  0-C , 10-H ) :   0.9132 B(  0-C , 11-H ) :   0.9135
B(  0-C , 12-H ) :   0.9198 B(  1-C ,  2-C ) :   1.3790 B(  1-C ,  6-C ) :   1.3580
B(  2-C ,  3-C ) :   1.3660 B(  2-C , 13-H ) :   0.9559 B(  3-C ,  4-C ) :   1.3351
B(  3-C , 14-H ) :   0.9647 B(  4-C ,  5-C ) :   1.3410 B(  4-C , 15-H ) :   0.9672
B(  5-C ,  6-C ) :   1.3671 B(  5-C , 16-H ) :   0.9423 B(  6-C ,  7-N ) :   0.8863
B(  7-N ,  8-O ) :   1.5086 B(  7-N ,  9-O ) :   1.5428 B(  8-O ,  9-O ) :   0.2918

Dispersion correction           -0.018551003
FINAL SINGLE POINT ENERGY      -475.103666331410

DIPOLE MOMENT
-------------

Method             : SCF
Type of density    : Electron Density
Multiplicity       :   1
Irrep              :   0
Energy             :  -475.1551516212492174 Eh
Relativity type    :
Basis              : AO
                                X                 Y                 Z
Electronic contribution:     -5.342225906       4.333914475       0.509242693
Nuclear contribution   :      6.875541341      -4.609882749      -0.533860716
                        -----------------------------------------
Total Dipole Moment    :      1.533315436      -0.275968275      -0.024618023
                        -----------------------------------------
Magnitude (a.u.)       :      1.558146579
Magnitude (Debye)      :      3.960493857

Rotational constants in cm-1:             0.076737             0.042969             0.027685
Rotational constants in MHz :          2300.521430          1288.164596           829.967800

                             ****ORCA TERMINATED NORMALLY****
TOTAL RUN TIME: 0 days 0 hours 0 minutes 10 seconds 354 msec
