                         Program Version 6.0.0  -   RELEASE  -
|  1> ! r2SCAN-3c DEF2-TZVP FREQ
|  2> * xyzfile 0 1 censo.xyz
|  3>
|  4>                          ****END OF INPUT****

CARTESIAN COORDINATES (ANGSTROEM)
---------------------------------
  C     -3.696480   -0.273110    0.126249
  C     -2.215115   -0.296620   -0.233859
  H     -2.112897   -0.568046   -1.294609
  C     -1.437123   -1.319778    0.592970
  C      0.045653   -1.317192    0.231259
  C      0.687425    0.070928    0.454192
  H      0.515975    0.323391    1.514211
  C     -0.111101    1.109998   -0.304534
  O      0.401750    1.921505   -1.070902
  C     -1.595054    1.102089   -0.045880
  C      2.201054    0.133222    0.187981
  C      2.982425   -0.551521    1.310961
  C      2.598127   -0.450499   -1.170596
  H     -3.829079   -0.007162    1.181773
  H     -4.241121    0.460064   -0.478225
  H     -4.153733   -1.254798   -0.037492
  H     -1.560432   -1.086807    1.660437
  H     -1.857743   -2.318932    0.428358
  H      0.587759   -2.057577    0.828403
  H      0.158984   -1.604563   -0.821064
  H     -1.743483    1.403471    1.002057
  H     -2.077587    1.844302   -0.688659
  H      2.475790    1.195728    0.191347
  H      2.758416   -1.623234    1.358490
  H      2.745700   -0.112316    2.286293
  H      4.060427   -0.447703    1.146613
  H      3.653538   -0.241527   -1.375755
  H      2.006315   -0.028160   -1.988573
  H      2.470534   -1.538488   -1.185979

 Total Charge           Charge          ....    0
 Multiplicity           Mult            ....    1
 Number of Electrons    NEL             ....   86
 Basis Dimension        Dim             ....  449

ORBITAL ENERGIES
----------------

  NO   OCC          E(Eh)            E(eV)
   0   2.0000     -18.934373      -515.2305
   1   2.0000     -10.112793      -275.1831
   2   2.0000     -10.050031      -273.4752
   3   2.0000     -10.043756      -273.3045
   4   2.0000     -10.040809      -273.2243
   5   2.0000     -10.037625      -273.1377
   6   2.0000     -10.037181      -273.1256
   7   2.0000     -10.035188      -273.0713
   8   2.0000     -10.029068      -272.9048
   9   2.0000     -10.020285      -272.6658
  10   2.0000     -10.013925      -272.4928
  11   2.0000      -0.992052       -26.9951
  12   2.0000      -0.815013       -22.1776
  13   2.0000      -0.775183       -21.0938
  14   2.0000      -0.721272       -19.6268
  15   2.0000      -0.699944       -19.0465
  16   2.0000      -0.653858       -17.7924
  17   2.0000      -0.647810       -17.6278
  18   2.0000      -0.591599       -16.0982
  19   2.0000      -0.551143       -14.9974
  20   2.0000      -0.536031       -14.5861
  21   2.0000      -0.493695       -13.4341
  22   2.0000      -0.450522       -12.2593
  23   2.0000      -0.437344       -11.9007
  24   2.0000      -0.430300       -11.7091
  25   2.0000      -0.416301       -11.3281
  26   2.0000      -0.410689       -11.1754
  27   2.0000      -0.397230       -10.8092
  28   2.0000      -0.384526       -10.4635
  29   2.0000      -0.376739       -10.2516
  30   2.0000      -0.366803        -9.9812
  31   2.0000      -0.357981        -9.7412
  32   2.0000      -0.348713        -9.4890
  33   2.0000      -0.344418        -9.3721
  34   2.0000      -0.333338        -9.0706
  35   2.0000      -0.323248        -8.7960
  36   2.0000      -0.319659        -8.6984
  37   2.0000      -0.304681        -8.2908
  38   2.0000      -0.300122        -8.1667
  39   2.0000      -0.296771        -8.0756
  40   2.0000      -0.288591        -7.8529
  41   2.0000      -0.279516        -7.6060
  42   2.0000      -0.207095        -5.6353
  43   0.0000      -0.048967        -1.3325
  44   0.0000       0.036970         1.0060
  45   0.0000       0.042639         1.1603
  46   0.0000       0.048004         1.3062
  47   0.0000       0.067073         1.8252

MULLIKEN ATOMIC CHARGES
-----------------------
   0 C :   -0.330999
   1 C :    0.010051
   2 H :    0.061829
   3 C :   -0.180825
   4 C :   -0.243706
   5 C :    0.029751
   6 H :    0.056691
   7 C :    0.128583
   8 O :   -0.333476
   9 C :   -0.161229
  10 C :    0.106221
  11 C :   -0.358292
  12 C :   -0.400028
  13 H :    0.099506
  14 H :    0.113220
  15 H :    0.108142
  16 H :    0.078245
  17 H :    0.095256
  18 H :    0.102930
  19 H :    0.107377
  20 H :    0.094902
  21 H :    0.106530
  22 H :    0.059763
  23 H :    0.096480
  24 H :    0.104163
  25 H :    0.110155
  26 H :    0.106607
  27 H :    0.132849
  28 H :    0.099306
Sum of atomic charges:    0.0000000

LOEWDIN ATOMIC CHARGES
----------------------
   0 C :   -0.280295
   1 C :   -0.276989
   2 H :    0.152980
   3 C :   -0.235855
   4 C :   -0.219848
   5 C :   -0.203112
   6 H :    0.171279
   7 C :   -0.288737
   8 O :    0.113912
   9 C :   -0.191685
  10 C :   -0.280890
  11 C :   -0.283712
  12 C :   -0.281864
  13 H :    0.121214
  14 H :    0.122610
  15 H :    0.121461
  16 H :    0.138443
  17 H :    0.138888
  18 H :    0.138527
  19 H :    0.143682
  20 H :    0.154143
  21 H :    0.146764
  22 H :    0.157988
  23 H :    0.116400
  24 H :    0.118518
  25 H :    0.121975
  26 H :    0.121673
  27 H :    0.125404
  28 H :    0.117127

  Mayer bond orders larger than 0.100000
B(  0-C ,  1-C ) :   0.9411 B(  0-C , 13-H ) :   0.9704 B(  0-C , 14-H ) :   0.9791
B(  0-C , 15-H ) :   0.9774 B(  1-C ,  2-H ) :   0.9578 B(  1-C ,  3-C ) :   0.9826
B(  1-C ,  9-C ) :   0.9444 B(  3-C ,  4-C ) :   0.9919 B(  3-C , 16-H ) :   0.9586
B(  3-C , 17-H ) :   0.9561 B(  4-C ,  5-C ) :   0.9426 B(  4-C , 18-H ) :   0.9609
B(  4-C , 19-H ) :   0.9590 B(  5-C ,  6-H ) :   0.9225 B(  5-C ,  7-C ) :   0.9243
B(  5-C , 10-C ) :   0.9352 B(  7-C ,  8-O ) :   2.0626 B(  7-C ,  9-C ) :   1.0300
B(  9-C , 20-H ) :   0.9348 B(  9-C , 21-H ) :   0.9372 B( 10-C , 11-C ) :   0.9341
B( 10-C , 12-C ) :   0.9491 B( 10-C , 22-H ) :   0.9507 B( 11-C , 23-H ) :   0.9702
B( 11-C , 24-H ) :   0.9778 B( 11-C , 25-H ) :   0.9809 B( 12-C , 26-H ) :   0.9741
B( 12-C , 27-H ) :   0.9752 B( 12-C , 28-H ) :   0.9683

Dispersion correction           -0.010110628
FINAL SINGLE POINT ENERGY      -467.044801801863

DIPOLE MOMENT
-------------

Method             : SCF
Type of density    : Electron Density
Multiplicity       :   1
Irrep              :   0
Energy             :  -467.0474395641261935 Eh
Relativity type    :
Basis              : AO
                                X                 Y                 Z
Electronic contribution:     -0.420339533       6.492211503      -2.767684868
Nuclear contribution   :     -0.105483111      -7.323376545       3.435131602
                        -----------------------------------------
Total Dipole Moment    :     -0.525822644      -0.831165042       0.667446733
                        -----------------------------------------
Magnitude (a.u.)       :      1.188616810
Magnitude (Debye)      :      3.021223831

VIBRATIONAL FREQUENCIES
-----------------------

Scaling factor for frequencies =  1.000000000  (already applied!)

     0:       0.00 cm**-1
     1:       0.00 cm**-1
     2:       0.00 cm**-1
     3:       0.00 cm**-1
     4:       0.00 cm**-1
     5:       0.00 cm**-1
     6:      65.18 cm**-1
     7:      92.18 cm**-1
     8:     128.76 cm**-1
     9:     182.17 cm**-1
    10:     218.67 cm**-1
    11:     251.35 cm**-1
    12:     261.58 cm**-1
    13:     267.27 cm**-1
    14:     278.22 cm**-1
    15:     285.68 cm**-1
    16:     304.76 cm**-1
    17:     384.51 cm**-1
    18:     401.77 cm**-1
    19:     408.77 cm**-1
    20:     450.42 cm**-1
    21:     488.46 cm**-1
    22:     562.02 cm**-1
    23:     630.15 cm**-1
    24:     674.58 cm**-1
    25:     752.35 cm**-1
    26:     816.27 cm**-1
    27:     848.32 cm**-1
    28:     878.25 cm**-1
    29:     909.29 cm**-1
    30:     926.66 cm**-1
    31:     939.43 cm**-1
    32:     960.26 cm**-1
    33:     971.82 cm**-1
    34:     987.68 cm**-1
    35:    1012.82 cm**-1
    36:    1041.26 cm**-1
    37:    1052.05 cm**-1
    38:    1080.87 cm**-1
    39:    1108.79 cm**-1
    40:    1130.87 cm**-1
    41:    1145.97 cm**-1
    42:    1174.93 cm**-1
    43:    1205.69 cm**-1
    44:    1224.69 cm**-1
    45:    1241.06 cm**-1
    46:    1265.93 cm**-1
    47:    1286.72 cm**-1
    48:    1300.30 cm**-1
    49:    1310.19 cm**-1
    50:    1335.95 cm**-1
    51:    1346.05 cm**-1
    52:    1349.37 cm**-1
    53:    1369.56 cm**-1
    54:    1379.34 cm**-1
    55:    1380.69 cm**-1
    56:    1390.23 cm**-1
    57:    1402.27 cm**-1
    58:    1412.05 cm**-1
    59:    1452.86 cm**-1
    60:    1476.25 cm**-1
    61:    1480.24 cm**-1
    62:    1482.81 cm**-1
    63:    1489.95 cm**-1
    64:    1492.42 cm**-1
    65:    1494.09 cm**-1
    66:    1501.78 cm**-1
    67:    1505.88 cm**-1
    68:    1688.06 cm**-1
    69:    2960.19 cm**-1
    70:    2981.21 cm**-1
    71:    2986.77 cm**-1
    72:    2994.82 cm**-1
    73:    2997.39 cm**-1
    74:    3000.37 cm**-1
    75:    3004.83 cm**-1
    76:    3014.71 cm**-1
    77:    3018.44 cm**-1
    78:    3047.16 cm**-1
    79:    3066.30 cm**-1
    80:    3073.19 cm**-1
    81:    3073.87 cm**-1
    82:    3076.72 cm**-1
    83:    3079.03 cm**-1
    84:    3079.90 cm**-1
    85:    3081.67 cm**-1
    86:    3091.41 cm**-1

IR SPECTRUM
-----------

 Mode   freq       eps      Int      T**2         TX        TY        TZ
       cm**-1   L/(mol*cm) km/mol    a.u.
----------------------------------------------------------------------------
  6:     65.18   0.000014    0.07  0.000066  (-0.000836  0.001015  0.008015)
  7:     92.18   0.000042    0.21  0.000144  (-0.004794  0.006914  0.008529)
  8:    128.76   0.000558    2.82  0.001351  (-0.005532 -0.020621 -0.029924)
  9:    182.17   0.000413    2.09  0.000708  ( 0.021625 -0.012786  0.008754)
 10:    218.67   0.000046    0.23  0.000066  (-0.001885  0.006925  0.003762)
 11:    251.35   0.000032    0.16  0.000040  ( 0.004792 -0.004055  0.000487)
 12:    261.58   0.000002    0.01  0.000002  (-0.001340 -0.000412 -0.000568)
 13:    267.27   0.000201    1.02  0.000235  (-0.010776  0.010689 -0.002127)
 14:    278.22   0.000050    0.25  0.000056  ( 0.007305 -0.000768  0.001535)
 15:    285.68   0.000080    0.41  0.000088  (-0.009228 -0.001597 -0.000187)
 16:    304.76   0.000379    1.91  0.000388  ( 0.015058 -0.011805  0.004672)
 17:    384.51   0.000199    1.01  0.000162  ( 0.006536 -0.009472  0.005420)
 18:    401.77   0.000041    0.21  0.000032  (-0.000977  0.005380 -0.001388)
 19:    408.77   0.000370    1.87  0.000283  (-0.016518  0.002442 -0.001982)
 20:    450.42   0.000379    1.92  0.000263  ( 0.013838  0.008167 -0.002152)
 21:    488.46   0.000023    0.12  0.000015  ( 0.000148 -0.001737 -0.003409)
 22:    562.02   0.000871    4.40  0.000484  (-0.016220  0.014482 -0.003268)
 23:    630.15   0.001050    5.30  0.000520  ( 0.022281 -0.003569 -0.003268)
 24:    674.58   0.000471    2.38  0.000218  (-0.004779  0.009283 -0.010435)
 25:    752.35   0.000872    4.41  0.000362  (-0.013060  0.009135 -0.010387)
 26:    816.27   0.000082    0.41  0.000031  (-0.004634 -0.002800 -0.001357)
 27:    848.32   0.000268    1.35  0.000099  (-0.006921  0.003375 -0.006272)
 28:    878.25   0.001012    5.11  0.000360  (-0.011039 -0.013940  0.006585)
 29:    909.29   0.000105    0.53  0.000036  ( 0.003074 -0.004764 -0.001981)
 30:    926.66   0.000178    0.90  0.000060  (-0.006875  0.001351 -0.003295)
 31:    939.43   0.000121    0.61  0.000040  (-0.000025 -0.000384 -0.006322)
 32:    960.26   0.000477    2.41  0.000155  (-0.010822  0.002806 -0.005473)
 33:    971.82   0.000183    0.92  0.000059  ( 0.006913 -0.002371  0.002315)
 34:    987.68   0.000181    0.91  0.000057  (-0.006943  0.002064 -0.002171)
 35:   1012.82   0.001702    8.60  0.000525  (-0.022815  0.001930 -0.000491)
 36:   1041.26   0.000367    1.85  0.000110  ( 0.007259 -0.007539 -0.000637)
 37:   1052.05   0.001562    7.89  0.000463  ( 0.012626 -0.016892  0.004295)
 38:   1080.87   0.000129    0.65  0.000037  (-0.005923  0.000882 -0.001195)
 39:   1108.79   0.002532   12.80  0.000713  ( 0.026363  0.000348  0.004181)
 40:   1130.87   0.002634   13.31  0.000727  ( 0.026906 -0.001463  0.000879)
 41:   1145.97   0.000231    1.17  0.000063  (-0.004733 -0.004650 -0.004346)
 42:   1174.93   0.001506    7.61  0.000400  ( 0.019557 -0.004069 -0.001020)
 43:   1205.69   0.000648    3.27  0.000168  (-0.012054  0.004621  0.001008)
 44:   1224.69   0.004040   20.42  0.001029  ( 0.029123 -0.013452 -0.000531)
 45:   1241.06   0.000155    0.78  0.000039  ( 0.003495  0.000300 -0.005170)
 46:   1265.93   0.001891    9.56  0.000466  (-0.021469 -0.001467 -0.001751)
 47:   1286.72   0.000561    2.84  0.000136  (-0.011355  0.000647 -0.002594)
 48:   1300.30   0.000223    1.13  0.000054  ( 0.007176  0.001366  0.000390)
 49:   1310.19   0.002060   10.41  0.000491  ( 0.016724 -0.012381  0.007598)
 50:   1335.95   0.001137    5.75  0.000266  (-0.015628  0.003069  0.003449)
 51:   1346.05   0.001326    6.70  0.000307  (-0.001680  0.014130 -0.010246)
 52:   1349.37   0.001125    5.69  0.000260  ( 0.012791  0.009720 -0.001466)
 53:   1369.56   0.000218    1.10  0.000050  ( 0.005730 -0.004086  0.000432)
 54:   1379.34   0.002166   10.95  0.000490  ( 0.019762 -0.007805  0.006214)
 55:   1380.69   0.002046   10.34  0.000462  (-0.020415  0.005640 -0.003726)
 56:   1390.23   0.002239   11.32  0.000503  (-0.000603  0.001421 -0.022368)
 57:   1402.27   0.000705    3.56  0.000157  (-0.011876  0.000931  0.003882)
 58:   1412.05   0.001231    6.22  0.000272  (-0.011542  0.010315  0.005704)
 59:   1452.86   0.001312    6.63  0.000282  ( 0.007935 -0.013517 -0.006010)
 60:   1476.25   0.001381    6.98  0.000292  (-0.010659  0.007388  0.011124)
 61:   1480.24   0.000226    1.14  0.000048  ( 0.002793  0.006039 -0.001836)
 62:   1482.81   0.000541    2.73  0.000114  (-0.005440  0.003221 -0.008591)
 63:   1489.95   0.000700    3.54  0.000147  ( 0.003157 -0.010307  0.005522)
 64:   1492.42   0.002002   10.12  0.000419  ( 0.005477  0.008611  0.017732)
 65:   1494.09   0.000986    4.98  0.000206  (-0.003199  0.006075  0.012601)
 66:   1501.78   0.001566    7.92  0.000326  ( 0.004027 -0.017411  0.002478)
 67:   1505.88   0.002150   10.87  0.000446  ( 0.015159  0.013045 -0.006756)
 68:   1688.06   0.036007  181.97  0.006656  (-0.036378 -0.056560  0.046196)
 69:   2960.19   0.002840   14.35  0.000299  (-0.010139  0.005910  0.012714)
 70:   2981.21   0.000564    2.85  0.000059  (-0.005726 -0.000422  0.005101)
 71:   2986.77   0.003056   15.44  0.000319  (-0.004185 -0.015921  0.006948)
 72:   2994.82   0.003003   15.18  0.000313  (-0.015887 -0.002904 -0.007220)
 73:   2997.39   0.006202   31.34  0.000646  ( 0.012609 -0.005648  0.021326)
 74:   3000.37   0.012486   63.10  0.001299  ( 0.023355 -0.001000 -0.027426)
 75:   3004.83   0.002052   10.37  0.000213  ( 0.009161 -0.008607 -0.007424)
 76:   3014.71   0.006955   35.15  0.000720  (-0.019188  0.015734  0.010211)
 77:   3018.44   0.000879    4.44  0.000091  ( 0.002948  0.008624  0.002798)
 78:   3047.16   0.007016   35.46  0.000719  ( 0.002440  0.025336  0.008408)
 79:   3066.30   0.005161   26.08  0.000525  (-0.005887  0.001791 -0.022076)
 80:   3073.19   0.004953   25.03  0.000503  (-0.003762 -0.015083 -0.016165)
 81:   3073.87   0.002701   13.65  0.000274  ( 0.008648 -0.001084  0.014080)
 82:   3076.72   0.006498   32.84  0.000659  ( 0.014486 -0.013190 -0.016590)
 83:   3079.03   0.013875   70.12  0.001406  ( 0.026715  0.026313  0.000417)
 84:   3079.90   0.003723   18.81  0.000377  ( 0.005994  0.017558  0.005744)
 85:   3081.67   0.008596   43.44  0.000870  (-0.009041  0.019309 -0.020393)
 86:   3091.41   0.004516   22.82  0.000456  (-0.017059  0.009862 -0.008220)

--------------------------
THERMOCHEMISTRY AT 298.15K
--------------------------

Temperature         ...   298.15 K
Pressure            ...     1.00 atm
Total Mass          ...   154.25 AMU
Quasi RRHO          ...     True
Cut-Off Frequency   ...     1.00 cm^-1

Throughout the following assumptions are being made:
  (1) The electronic state is orbitally nondegenerate
  (2) There are no thermally accessible electronically excited states
  (3) Hindered rotations indicated by low frequency modes are not
      treated as such but are treated as vibrations and this may
      cause some error
  (4) All equations used are the standard statistical mechanics
      equations for an ideal gas
  (5) All vibrations are strictly harmonic

freq.      65.18  E(vib)   ...       0.50
freq.      92.18  E(vib)   ...       0.47
freq.     128.76  E(vib)   ...       0.43
freq.     182.17  E(vib)   ...       0.37
freq.     218.67  E(vib)   ...       0.33
freq.     251.35  E(vib)   ...       0.30
freq.     261.58  E(vib)   ...       0.30
freq.     267.27  E(vib)   ...       0.29
freq.     278.22  E(vib)   ...       0.28
freq.     285.68  E(vib)   ...       0.28
freq.     304.76  E(vib)   ...       0.26
freq.     384.51  E(vib)   ...       0.20
freq.     401.77  E(vib)   ...       0.19
freq.     408.77  E(vib)   ...       0.19
freq.     450.42  E(vib)   ...       0.17
freq.     488.46  E(vib)   ...       0.15
freq.     562.02  E(vib)   ...       0.11
freq.     630.15  E(vib)   ...       0.09
freq.     674.58  E(vib)   ...       0.08
freq.     752.35  E(vib)   ...       0.06
freq.     816.27  E(vib)   ...       0.05
freq.     848.32  E(vib)   ...       0.04
freq.     878.25  E(vib)   ...       0.04
freq.     909.29  E(vib)   ...       0.03
freq.     926.66  E(vib)   ...       0.03
freq.     939.43  E(vib)   ...       0.03
freq.     960.26  E(vib)   ...       0.03
freq.     971.82  E(vib)   ...       0.03
freq.     987.68  E(vib)   ...       0.02
freq.    1012.82  E(vib)   ...       0.02
freq.    1041.26  E(vib)   ...       0.02
freq.    1052.05  E(vib)   ...       0.02
freq.    1080.87  E(vib)   ...       0.02
freq.    1108.79  E(vib)   ...       0.02
freq.    1130.87  E(vib)   ...       0.01
freq.    1145.97  E(vib)   ...       0.01
freq.    1174.93  E(vib)   ...       0.01
freq.    1205.69  E(vib)   ...       0.01
freq.    1224.69  E(vib)   ...       0.01
freq.    1241.06  E(vib)   ...       0.01
freq.    1265.93  E(vib)   ...       0.01
freq.    1286.72  E(vib)   ...       0.01
freq.    1300.30  E(vib)   ...       0.01
freq.    1310.19  E(vib)   ...       0.01
freq.    1335.95  E(vib)   ...       0.01
freq.    1346.05  E(vib)   ...       0.01
freq.    1349.37  E(vib)   ...       0.01
freq.    1369.56  E(vib)   ...       0.01
freq.    1379.34  E(vib)   ...       0.01
freq.    1380.69  E(vib)   ...       0.01
freq.    1390.23  E(vib)   ...       0.00
freq.    1402.27  E(vib)   ...       0.00
freq.    1412.05  E(vib)   ...       0.00
freq.    1452.86  E(vib)   ...       0.00
freq.    1476.25  E(vib)   ...       0.00
freq.    1480.24  E(vib)   ...       0.00
freq.    1482.81  E(vib)   ...       0.00
freq.    1489.95  E(vib)   ...       0.00
freq.    1492.42  E(vib)   ...       0.00
freq.    1494.09  E(vib)   ...       0.00
freq.    1501.78  E(vib)   ...       0.00
freq.    1505.88  E(vib)   ...       0.00
freq.    1688.06  E(vib)   ...       0.00
freq.    2960.19  E(vib)   ...       0.00
freq.    2981.21  E(vib)   ...       0.00
freq.    2986.77  E(vib)   ...       0.00
freq.    2994.82  E(vib)   ...       0.00
freq.    2997.39  E(vib)   ...       0.00
freq.    3000.37  E(vib)   ...       0.00
freq.    3004.83  E(vib)   ...       0.00
freq.    3014.71  E(vib)   ...       0.00
freq.    3018.44  E(vib)   ...       0.00
freq.    3047.16  E(vib)   ...       0.00
freq.    3066.30  E(vib)   ...       0.00
freq.    3073.19  E(vib)   ...       0.00
freq.    3073.87  E(vib)   ...       0.00
freq.    3076.72  E(vib)   ...       0.00
freq.    3079.03  E(vib)   ...       0.00
freq.    3079.90  E(vib)   ...       0.00
freq.    3081.67  E(vib)   ...       0.00
freq.    3091.41  E(vib)   ...       0.00

------------
INNER ENERGY
------------

The inner energy is: U= E(el) + E(ZPE) + E(vib) + E(rot) + E(trans)
    E(el)   - is the total energy from the electronic structure calculation
              = E(kin-el) + E(nuc-el) + E(el-el) + E(nuc-nuc)
    E(ZPE)  - the the zero temperature vibrational energy from the frequency calculation
    E(vib)  - the the finite temperature correction to E(ZPE) due to population
              of excited vibrational states
    E(rot)  - is the rotational thermal energy
    E(trans)- is the translational thermal energy

Summary of contributions to the inner energy U:
Electronic energy                ...   -467.04480180 Eh
Zero point energy                ...      0.26191361 Eh     164.35 kcal/mol
Thermal vibrational correction   ...      0.00894012 Eh       5.61 kcal/mol
Thermal rotational correction    ...      0.00141627 Eh       0.89 kcal/mol
Thermal translational correction ...      0.00141627 Eh       0.89 kcal/mol
-----------------------------------------------------------------------
Total thermal energy                   -466.77111553 Eh

Summary of corrections to the electronic energy:
(perhaps to be used in another calculation)
Total thermal correction                  0.01177266 Eh       7.39 kcal/mol
Non-thermal (ZPE) correction              0.26191361 Eh     164.35 kcal/mol
-----------------------------------------------------------------------
Total correction                          0.27368627 Eh     171.74 kcal/mol

--------
ENTHALPY
--------

The enthalpy is H = U + kB*T
                kB is Boltzmann's constant
Total thermal energy              ...   -466.77111553 Eh
Thermal Enthalpy correction       ...      0.00094421 Eh       0.59 kcal/mol
-----------------------------------------------------------------------
Total Enthalpy                    ...   -466.77017132 Eh

Note: Only C1 symmetry has been detected, increase convergence thresholds
      if your molecule has a higher symmetry. Symmetry factor of 1.0 is
      used for the rotational entropy correction.

Note: Rotational entropy computed according to Herzberg
Infrared and Raman Spectra, Chapter V,1, Van Nostrand Reinhold, 1945
Point Group:  C1, Symmetry Number:   1
Rotational constants in cm-1:     0.065139     0.023183     0.019631

Vibrational entropy computed according to the QRRHO of S. Grimme
Chem.Eur.J. 2012 18 9955 using a reference frequency of 100.0 cm-1

-------
ENTROPY
-------

                             ****ORCA TERMINATED NORMALLY****
TOTAL RUN TIME: 0 days 0 hours 41 minutes 47 seconds 517 msec
