                         Program Version 6.0.0  -   RELEASE  -
|  1> ! r2SCAN-3c DEF2-TZVP FREQ
|  2> * xyzfile 0 1 vacuum_censo.xyz
|  3>
|  4>                          ****END OF INPUT****

CARTESIAN COORDINATES (ANGSTROEM)
---------------------------------
  C     -3.702585    0.274443   -0.116799
  C     -2.216925    0.291570    0.233302
  H     -2.110321    0.564561    1.294005
  C     -1.443515    1.318583   -0.595935
  C      0.043298    1.321690   -0.243823
  C      0.689106   -0.061832   -0.466377
  H      0.523013   -0.314701   -1.528021
  C     -0.101792   -1.109559    0.308980
  O      0.414378   -1.899407    1.074791
  C     -1.595617   -1.104787    0.046878
  C      2.201913   -0.127129   -0.194629
  C      2.994445    0.561726   -1.308364
  C      2.590564    0.437848    1.174247
  H     -3.844077    0.009897   -1.171272
  H     -4.245046   -0.458204    0.489158
  H     -4.158024    1.256155    0.049216
  H     -1.572206    1.087396   -1.663834
  H     -1.868488    2.316735   -0.434885
  H      0.575060    2.070725   -0.840671
  H      0.161768    1.611529    0.807494
  H     -1.754176   -1.415802   -0.997263
  H     -2.067166   -1.847573    0.696721
  H      2.464228   -1.192247   -0.195487
  H      2.781330    1.635961   -1.349420
  H      2.763594    0.133505   -2.289886
  H      4.070301    0.450392   -1.138970
  H      3.647716    0.237441    1.375538
  H      2.004613   -0.019631    1.975532
  H      2.452492    1.524237    1.212406

 Total Charge           Charge          ....    0
 Multiplicity           Mult            ....    1
 Number of Electrons    NEL             ....   86
 Basis Dimension        Dim             ....  449

ORBITAL ENERGIES
----------------

  NO   OCC          E(Eh)            E(eV)
   0   2.0000     -18.936600      -515.2911
   1   2.0000     -10.113986      -275.2155
   2   2.0000     -10.049542      -273.4619
   3   2.0000     -10.043391      -273.2946
   4   2.0000     -10.040327      -273.2112
   5   2.0000     -10.038110      -273.1509
   6   2.0000     -10.037811      -273.1427
   7   2.0000     -10.034467      -273.0517
   8   2.0000     -10.029736      -272.9230
   9   2.0000     -10.020744      -272.6783
  10   2.0000     -10.013571      -272.4831
  11   2.0000      -1.000616       -27.2281
  12   2.0000      -0.813691       -22.1417
  13   2.0000      -0.774477       -21.0746
  14   2.0000      -0.720685       -19.6108
  15   2.0000      -0.698192       -18.9988
  16   2.0000      -0.653388       -17.7796
  17   2.0000      -0.647790       -17.6273
  18   2.0000      -0.591101       -16.0847
  19   2.0000      -0.550278       -14.9738
  20   2.0000      -0.535315       -14.5667
  21   2.0000      -0.493156       -13.4195
  22   2.0000      -0.450286       -12.2529
  23   2.0000      -0.436913       -11.8890
  24   2.0000      -0.430422       -11.7124
  25   2.0000      -0.415955       -11.3187
  26   2.0000      -0.411845       -11.2069
  27   2.0000      -0.396801       -10.7975
  28   2.0000      -0.384576       -10.4648
  29   2.0000      -0.376875       -10.2553
  30   2.0000      -0.367545       -10.0014
  31   2.0000      -0.357965        -9.7407
  32   2.0000      -0.349697        -9.5157
  33   2.0000      -0.344530        -9.3751
  34   2.0000      -0.335096        -9.1184
  35   2.0000      -0.323157        -8.7936
  36   2.0000      -0.319966        -8.7067
  37   2.0000      -0.304136        -8.2760
  38   2.0000      -0.301055        -8.1921
  39   2.0000      -0.296812        -8.0767
  40   2.0000      -0.288298        -7.8450
  41   2.0000      -0.279702        -7.6111
  42   2.0000      -0.207878        -5.6567
  43   0.0000      -0.047491        -1.2923
  44   0.0000       0.037193         1.0121
  45   0.0000       0.043050         1.1715
  46   0.0000       0.048536         1.3207
  47   0.0000       0.067276         1.8307

MULLIKEN ATOMIC CHARGES
-----------------------
   0 C :   -0.331689
   1 C :    0.009982
   2 H :    0.060999
   3 C :   -0.180703
   4 C :   -0.247744
   5 C :    0.023476
   6 H :    0.057223
   7 C :    0.132757
   8 O :   -0.319367
   9 C :   -0.166223
  10 C :    0.107573
  11 C :   -0.358779
  12 C :   -0.401016
  13 H :    0.099396
  14 H :    0.113166
  15 H :    0.108604
  16 H :    0.077641
  17 H :    0.095617
  18 H :    0.103479
  19 H :    0.106860
  20 H :    0.095270
  21 H :    0.105290
  22 H :    0.058194
  23 H :    0.097341
  24 H :    0.104205
  25 H :    0.109950
  26 H :    0.105299
  27 H :    0.134351
  28 H :    0.098848
Sum of atomic charges:    0.0000000

LOEWDIN ATOMIC CHARGES
----------------------
   0 C :   -0.280280
   1 C :   -0.277817
   2 H :    0.153014
   3 C :   -0.235714
   4 C :   -0.221637
   5 C :   -0.203050
   6 H :    0.169699
   7 C :   -0.294144
   8 O :    0.130359
   9 C :   -0.192327
  10 C :   -0.282043
  11 C :   -0.283777
  12 C :   -0.282113
  13 H :    0.120934
  14 H :    0.122287
  15 H :    0.121299
  16 H :    0.138191
  17 H :    0.138541
  18 H :    0.138449
  19 H :    0.143428
  20 H :    0.152710
  21 H :    0.145655
  22 H :    0.157957
  23 H :    0.116591
  24 H :    0.118399
  25 H :    0.121676
  26 H :    0.121325
  27 H :    0.125631
  28 H :    0.116756

  Mayer bond orders larger than 0.100000
B(  0-C ,  1-C ) :   0.9410 B(  0-C , 13-H ) :   0.9705 B(  0-C , 14-H ) :   0.9791
B(  0-C , 15-H ) :   0.9773 B(  1-C ,  2-H ) :   0.9579 B(  1-C ,  3-C ) :   0.9832
B(  1-C ,  9-C ) :   0.9459 B(  3-C ,  4-C ) :   0.9913 B(  3-C , 16-H ) :   0.9587
B(  3-C , 17-H ) :   0.9564 B(  4-C ,  5-C ) :   0.9441 B(  4-C , 18-H ) :   0.9607
B(  4-C , 19-H ) :   0.9599 B(  5-C ,  6-H ) :   0.9243 B(  5-C ,  7-C ) :   0.9213
B(  5-C , 10-C ) :   0.9353 B(  7-C ,  8-O ) :   2.0701 B(  7-C ,  9-C ) :   1.0245
B(  9-C , 20-H ) :   0.9358 B(  9-C , 21-H ) :   0.9382 B( 10-C , 11-C ) :   0.9340
B( 10-C , 12-C ) :   0.9500 B( 10-C , 22-H ) :   0.9511 B( 11-C , 23-H ) :   0.9707
B( 11-C , 24-H ) :   0.9776 B( 11-C , 25-H ) :   0.9811 B( 12-C , 26-H ) :   0.9741
B( 12-C , 27-H ) :   0.9749 B( 12-C , 28-H ) :   0.9682

Dispersion correction           -0.010101133
FINAL SINGLE POINT ENERGY      -467.045316980061

DIPOLE MOMENT
-------------

Method             : SCF
Type of density    : Electron Density
Multiplicity       :   1
Irrep              :   0
Energy             :  -467.0479556638691747 Eh
Relativity type    :
Basis              : AO
                                X                 Y                 Z
Electronic contribution:     -0.369972809      -6.470667365       2.756535317
Nuclear contribution   :     -0.153331874       7.261797416      -3.408873217
                        -----------------------------------------
Total Dipole Moment    :     -0.523304683       0.791130051      -0.652337900
                        -----------------------------------------
Magnitude (a.u.)       :      1.151207751
Magnitude (Debye)      :      2.926137559

VIBRATIONAL FREQUENCIES
-----------------------

Scaling factor for frequencies =  1.000000000  (already applied!)

     0:       0.00 cm**-1
     1:       0.00 cm**-1
     2:       0.00 cm**-1
     3:       0.00 cm**-1
     4:       0.00 cm**-1
     5:       0.00 cm**-1
     6:      64.99 cm**-1
     7:      93.37 cm**-1
     8:     113.65 cm**-1
     9:     182.82 cm**-1
    10:     214.57 cm**-1
    11:     244.08 cm**-1
    12:     252.96 cm**-1
    13:     264.85 cm**-1
    14:     274.71 cm**-1
    15:     282.79 cm**-1
    16:     303.12 cm**-1
    17:     379.96 cm**-1
    18:     399.19 cm**-1
    19:     406.07 cm**-1
    20:     447.57 cm**-1
    21:     486.24 cm**-1
    22:     558.52 cm**-1
    23:     624.64 cm**-1
    24:     669.58 cm**-1
    25:     746.10 cm**-1
    26:     814.18 cm**-1
    27:     841.04 cm**-1
    28:     875.95 cm**-1
    29:     906.88 cm**-1
    30:     925.76 cm**-1
    31:     937.63 cm**-1
    32:     958.39 cm**-1
    33:     969.97 cm**-1
    34:     986.07 cm**-1
    35:    1007.30 cm**-1
    36:    1036.90 cm**-1
    37:    1048.76 cm**-1
    38:    1079.53 cm**-1
    39:    1105.33 cm**-1
    40:    1126.88 cm**-1
    41:    1144.81 cm**-1
    42:    1173.86 cm**-1
    43:    1205.86 cm**-1
    44:    1217.72 cm**-1
    45:    1239.57 cm**-1
    46:    1264.61 cm**-1
    47:    1284.53 cm**-1
    48:    1301.46 cm**-1
    49:    1306.74 cm**-1
    50:    1335.20 cm**-1
    51:    1346.49 cm**-1
    52:    1351.98 cm**-1
    53:    1369.85 cm**-1
    54:    1374.20 cm**-1
    55:    1378.76 cm**-1
    56:    1388.01 cm**-1
    57:    1400.40 cm**-1
    58:    1409.79 cm**-1
    59:    1452.56 cm**-1
    60:    1477.02 cm**-1
    61:    1479.02 cm**-1
    62:    1483.27 cm**-1
    63:    1489.07 cm**-1
    64:    1490.52 cm**-1
    65:    1493.58 cm**-1
    66:    1501.56 cm**-1
    67:    1503.92 cm**-1
    68:    1751.72 cm**-1
    69:    2953.92 cm**-1
    70:    2975.48 cm**-1
    71:    2983.26 cm**-1
    72:    2993.20 cm**-1
    73:    2999.63 cm**-1
    74:    3001.17 cm**-1
    75:    3006.62 cm**-1
    76:    3012.75 cm**-1
    77:    3022.48 cm**-1
    78:    3043.31 cm**-1
    79:    3061.66 cm**-1
    80:    3073.46 cm**-1
    81:    3075.68 cm**-1
    82:    3078.83 cm**-1
    83:    3081.11 cm**-1
    84:    3081.54 cm**-1
    85:    3085.60 cm**-1
    86:    3103.05 cm**-1

IR SPECTRUM
-----------

 Mode   freq       eps      Int      T**2         TX        TY        TZ
       cm**-1   L/(mol*cm) km/mol    a.u.
----------------------------------------------------------------------------
  6:     64.99   0.000046    0.23  0.000220  ( 0.000381  0.005467  0.013791)
  7:     93.37   0.000027    0.14  0.000091  (-0.004576 -0.005308 -0.006499)
  8:    113.65   0.000541    2.74  0.001487  ( 0.006750 -0.021799 -0.031077)
  9:    182.82   0.000424    2.14  0.000724  ( 0.022023  0.013391 -0.007755)
 10:    214.57   0.000050    0.25  0.000073  ( 0.003368  0.007359  0.002796)
 11:    244.08   0.000013    0.07  0.000017  (-0.003147 -0.002615  0.000091)
 12:    252.96   0.000006    0.03  0.000007  (-0.002564 -0.000109  0.000454)
 13:    264.85   0.000217    1.09  0.000255  (-0.010896 -0.011306  0.002927)
 14:    274.71   0.000021    0.11  0.000024  ( 0.004655  0.000981 -0.001062)
 15:    282.79   0.000144    0.73  0.000159  ( 0.012599  0.000523 -0.000478)
 16:    303.12   0.000384    1.94  0.000395  ( 0.015164  0.011987 -0.004646)
 17:    379.96   0.000190    0.96  0.000156  ( 0.006786  0.008897 -0.005534)
 18:    399.19   0.000038    0.19  0.000029  (-0.001581 -0.004993  0.001374)
 19:    406.07   0.000363    1.83  0.000279  ( 0.016363  0.002203 -0.002471)
 20:    447.57   0.000342    1.73  0.000238  ( 0.013002 -0.008035  0.002187)
 21:    486.24   0.000024    0.12  0.000015  ( 0.000337  0.001495  0.003593)
 22:    558.52   0.000931    4.71  0.000520  (-0.016680 -0.015210  0.003290)
 23:    624.64   0.000982    4.96  0.000491  (-0.021638 -0.003810 -0.002802)
 24:    669.58   0.000425    2.15  0.000198  (-0.005377 -0.008331  0.009992)
 25:    746.10   0.000985    4.98  0.000412  (-0.013544 -0.010011  0.011330)
 26:    814.18   0.000098    0.49  0.000037  (-0.005339  0.002671  0.001349)
 27:    841.04   0.000243    1.23  0.000090  (-0.004398 -0.004450  0.007137)
 28:    875.95   0.001083    5.47  0.000386  (-0.013327  0.012972 -0.006321)
 29:    906.88   0.000172    0.87  0.000059  ( 0.004741  0.005636  0.002204)
 30:    925.76   0.000214    1.08  0.000072  (-0.007670 -0.001637  0.003275)
 31:    937.63   0.000135    0.68  0.000045  ( 0.001878  0.000905  0.006364)
 32:    958.39   0.000498    2.51  0.000162  ( 0.011069  0.002849 -0.005600)
 33:    969.97   0.000202    1.02  0.000065  ( 0.007307  0.002154 -0.002649)
 34:    986.07   0.000175    0.88  0.000055  (-0.006773 -0.002005  0.002311)
 35:   1007.30   0.002121   10.72  0.000657  (-0.025453 -0.002931  0.000712)
 36:   1036.90   0.001016    5.13  0.000306  ( 0.012913  0.011765 -0.000705)
 37:   1048.76   0.001497    7.56  0.000445  ( 0.013807  0.015274 -0.004622)
 38:   1079.53   0.000238    1.20  0.000069  (-0.008190 -0.000274  0.001268)
 39:   1105.33   0.002864   14.47  0.000809  ( 0.028126  0.000213 -0.004187)
 40:   1126.88   0.002924   14.78  0.000810  ( 0.028373  0.002055 -0.000680)
 41:   1144.81   0.000293    1.48  0.000080  (-0.006503  0.003851  0.004780)
 42:   1173.86   0.001665    8.41  0.000443  ( 0.020542  0.004392  0.001168)
 43:   1205.86   0.000852    4.30  0.000220  ( 0.013919  0.005012  0.001225)
 44:   1217.72   0.004098   20.71  0.001050  ( 0.029010  0.014421 -0.000840)
 45:   1239.57   0.000103    0.52  0.000026  ( 0.002137 -0.000651  0.004563)
 46:   1264.61   0.001746    8.82  0.000431  ( 0.020562 -0.000923 -0.002688)
 47:   1284.53   0.000438    2.21  0.000106  (-0.010063 -0.000115  0.002274)
 48:   1301.46   0.000196    0.99  0.000047  ( 0.006388 -0.002334  0.000845)
 49:   1306.74   0.002077   10.50  0.000496  ( 0.016959  0.012319 -0.007527)
 50:   1335.20   0.001004    5.08  0.000235  (-0.014638 -0.003521 -0.002840)
 51:   1346.49   0.001011    5.11  0.000234  (-0.004416 -0.011025  0.009659)
 52:   1351.98   0.001358    6.86  0.000313  ( 0.012034 -0.012391  0.003878)
 53:   1369.85   0.000427    2.16  0.000097  ( 0.008174  0.004980 -0.002392)
 54:   1374.20   0.002728   13.78  0.000619  (-0.023062 -0.006514  0.006719)
 55:   1378.76   0.000171    0.86  0.000039  ( 0.004174  0.003177 -0.003347)
 56:   1388.01   0.002282   11.53  0.000513  ( 0.002638 -0.000070  0.022497)
 57:   1400.40   0.000604    3.05  0.000135  (-0.010930 -0.000591 -0.003844)
 58:   1409.79   0.001266    6.40  0.000280  (-0.012219 -0.010451 -0.004659)
 59:   1452.56   0.001204    6.09  0.000259  ( 0.007441  0.012945  0.005983)
 60:   1477.02   0.001220    6.17  0.000258  (-0.009536 -0.007606 -0.010439)
 61:   1479.02   0.000202    1.02  0.000043  ( 0.005538 -0.003399  0.000556)
 62:   1483.27   0.000502    2.54  0.000106  (-0.003986 -0.004941  0.008087)
 63:   1489.07   0.000780    3.94  0.000163  ( 0.002696  0.009988 -0.007513)
 64:   1490.52   0.002158   10.91  0.000452  ( 0.004592 -0.009060 -0.018674)
 65:   1493.58   0.000890    4.50  0.000186  ( 0.002406  0.008263  0.010578)
 66:   1501.56   0.001191    6.02  0.000247  ( 0.006292  0.014339 -0.001499)
 67:   1503.92   0.002412   12.19  0.000500  ( 0.014792 -0.014848  0.007825)
 68:   1751.72   0.037396  188.98  0.006662  (-0.037523  0.055676 -0.046413)
 69:   2953.92   0.003003   15.17  0.000317  (-0.009809 -0.006406 -0.013416)
 70:   2975.48   0.000383    1.93  0.000040  (-0.005371  0.001898 -0.002771)
 71:   2983.26   0.003095   15.64  0.000324  (-0.005123  0.014959 -0.008590)
 72:   2993.20   0.004611   23.30  0.000481  ( 0.001157  0.004238  0.021481)
 73:   2999.63   0.006362   32.15  0.000662  ( 0.012610  0.005807 -0.021658)
 74:   3001.17   0.010506   53.09  0.001092  (-0.027412 -0.000114 -0.018466)
 75:   3006.62   0.000766    3.87  0.000080  (-0.004305 -0.005243 -0.005790)
 76:   3012.75   0.008301   41.95  0.000860  ( 0.021382  0.017008  0.010647)
 77:   3022.48   0.001311    6.63  0.000135  ( 0.000206 -0.010942 -0.003949)
 78:   3043.31   0.007580   38.31  0.000777  ( 0.003310 -0.026581 -0.007730)
 79:   3061.66   0.006400   32.34  0.000652  (-0.006317 -0.003215  0.024538)
 80:   3073.46   0.002348   11.87  0.000238  (-0.003700 -0.013225 -0.007057)
 81:   3075.68   0.005005   25.29  0.000508  ( 0.006523 -0.012123 -0.017841)
 82:   3078.83   0.006382   32.25  0.000647  ( 0.001092  0.021878  0.012926)
 83:   3081.11   0.012690   64.13  0.001285  ( 0.032480 -0.013740 -0.006444)
 84:   3081.54   0.005949   30.06  0.000602  ( 0.009476 -0.011778  0.019337)
 85:   3085.60   0.006951   35.13  0.000703  (-0.003463 -0.023775  0.011216)
 86:   3103.05   0.003848   19.45  0.000387  (-0.015154 -0.009311  0.008403)

--------------------------
THERMOCHEMISTRY AT 298.15K
--------------------------

Temperature         ...   298.15 K
Pressure            ...     1.00 atm
Total Mass          ...   154.25 AMU
Quasi RRHO          ...     True
Cut-Off Frequency   ...     1.00 cm^-1

Throughout the following assumptions are being made:
  (1) The electronic state is orbitally nondegenerate
  (2) There are no thermally accessible electronically excited states
  (3) Hindered rotations indicated by low frequency modes are not
      treated as such but are treated as vibrations and this may
      cause some error
  (4) All equations used are the standard statistical mechanics
      equations for an ideal gas
  (5) All vibrations are strictly harmonic

freq.      64.99  E(vib)   ...       0.50
freq.      93.37  E(vib)   ...       0.47
freq.     113.65  E(vib)   ...       0.44
freq.     182.82  E(vib)   ...       0.37
freq.     214.57  E(vib)   ...       0.34
freq.     244.08  E(vib)   ...       0.31
freq.     252.96  E(vib)   ...       0.30
freq.     264.85  E(vib)   ...       0.29
freq.     274.71  E(vib)   ...       0.28
freq.     282.79  E(vib)   ...       0.28
freq.     303.12  E(vib)   ...       0.26
freq.     379.96  E(vib)   ...       0.21
freq.     399.19  E(vib)   ...       0.19
freq.     406.07  E(vib)   ...       0.19
freq.     447.57  E(vib)   ...       0.17
freq.     486.24  E(vib)   ...       0.15
freq.     558.52  E(vib)   ...       0.12
freq.     624.64  E(vib)   ...       0.09
freq.     669.58  E(vib)   ...       0.08
freq.     746.10  E(vib)   ...       0.06
freq.     814.18  E(vib)   ...       0.05
freq.     841.04  E(vib)   ...       0.04
freq.     875.95  E(vib)   ...       0.04
freq.     906.88  E(vib)   ...       0.03
freq.     925.76  E(vib)   ...       0.03
freq.     937.63  E(vib)   ...       0.03
freq.     958.39  E(vib)   ...       0.03
freq.     969.97  E(vib)   ...       0.03
freq.     986.07  E(vib)   ...       0.02
freq.    1007.30  E(vib)   ...       0.02
freq.    1036.90  E(vib)   ...       0.02
freq.    1048.76  E(vib)   ...       0.02
freq.    1079.53  E(vib)   ...       0.02
freq.    1105.33  E(vib)   ...       0.02
freq.    1126.88  E(vib)   ...       0.01
freq.    1144.81  E(vib)   ...       0.01
freq.    1173.86  E(vib)   ...       0.01
freq.    1205.86  E(vib)   ...       0.01
freq.    1217.72  E(vib)   ...       0.01
freq.    1239.57  E(vib)   ...       0.01
freq.    1264.61  E(vib)   ...       0.01
freq.    1284.53  E(vib)   ...       0.01
freq.    1301.46  E(vib)   ...       0.01
freq.    1306.74  E(vib)   ...       0.01
freq.    1335.20  E(vib)   ...       0.01
freq.    1346.49  E(vib)   ...       0.01
freq.    1351.98  E(vib)   ...       0.01
freq.    1369.85  E(vib)   ...       0.01
freq.    1374.20  E(vib)   ...       0.01
freq.    1378.76  E(vib)   ...       0.01
freq.    1388.01  E(vib)   ...       0.00
freq.    1400.40  E(vib)   ...       0.00
freq.    1409.79  E(vib)   ...       0.00
freq.    1452.56  E(vib)   ...       0.00
freq.    1477.02  E(vib)   ...       0.00
freq.    1479.02  E(vib)   ...       0.00
freq.    1483.27  E(vib)   ...       0.00
freq.    1489.07  E(vib)   ...       0.00
freq.    1490.52  E(vib)   ...       0.00
freq.    1493.58  E(vib)   ...       0.00
freq.    1501.56  E(vib)   ...       0.00
freq.    1503.92  E(vib)   ...       0.00
freq.    1751.72  E(vib)   ...       0.00
freq.    2953.92  E(vib)   ...       0.00
freq.    2975.48  E(vib)   ...       0.00
freq.    2983.26  E(vib)   ...       0.00
freq.    2993.20  E(vib)   ...       0.00
freq.    2999.63  E(vib)   ...       0.00
freq.    3001.17  E(vib)   ...       0.00
freq.    3006.62  E(vib)   ...       0.00
freq.    3012.75  E(vib)   ...       0.00
freq.    3022.48  E(vib)   ...       0.00
freq.    3043.31  E(vib)   ...       0.00
freq.    3061.66  E(vib)   ...       0.00
freq.    3073.46  E(vib)   ...       0.00
freq.    3075.68  E(vib)   ...       0.00
freq.    3078.83  E(vib)   ...       0.00
freq.    3081.11  E(vib)   ...       0.00
freq.    3081.54  E(vib)   ...       0.00
freq.    3085.60  E(vib)   ...       0.00
freq.    3103.05  E(vib)   ...       0.00

------------
INNER ENERGY
------------

The inner energy is: U= E(el) + E(ZPE) + E(vib) + E(rot) + E(trans)
    E(el)   - is the total energy from the electronic structure calculation
              = E(kin-el) + E(nuc-el) + E(el-el) + E(nuc-nuc)
    E(ZPE)  - the the zero temperature vibrational energy from the frequency calculation
    E(vib)  - the the finite temperature correction to E(ZPE) due to population
              of excited vibrational states
    E(rot)  - is the rotational thermal energy
    E(trans)- is the translational thermal energy

Summary of contributions to the inner energy U:
Electronic energy                ...   -467.04531698 Eh
Zero point energy                ...      0.26171402 Eh     164.23 kcal/mol
Thermal vibrational correction   ...      0.00903821 Eh       5.67 kcal/mol
Thermal rotational correction    ...      0.00141627 Eh       0.89 kcal/mol
Thermal translational correction ...      0.00141627 Eh       0.89 kcal/mol
-----------------------------------------------------------------------
Total thermal energy                   -466.77173221 Eh

Summary of corrections to the electronic energy:
(perhaps to be used in another calculation)
Total thermal correction                  0.01187075 Eh       7.45 kcal/mol
Non-thermal (ZPE) correction              0.26171402 Eh     164.23 kcal/mol
-----------------------------------------------------------------------
Total correction                          0.27358477 Eh     171.68 kcal/mol

--------
ENTHALPY
--------

The enthalpy is H = U + kB*T
                kB is Boltzmann's constant
Total thermal energy              ...   -466.77173221 Eh
Thermal Enthalpy correction       ...      0.00094421 Eh       0.59 kcal/mol
-----------------------------------------------------------------------
Total Enthalpy                    ...   -466.77078800 Eh

Note: Only C1 symmetry has been detected, increase convergence thresholds
      if your molecule has a higher symmetry. Symmetry factor of 1.0 is
      used for the rotational entropy correction.

Note: Rotational entropy computed according to Herzberg
Infrared and Raman Spectra, Chapter V,1, Van Nostrand Reinhold, 1945
Point Group:  C1, Symmetry Number:   1
Rotational constants in cm-1:     0.065310     0.023137     0.019595

Vibrational entropy computed according to the QRRHO of S. Grimme
Chem.Eur.J. 2012 18 9955 using a reference frequency of 100.0 cm-1

-------
ENTROPY
-------

                             ****ORCA TERMINATED NORMALLY****
TOTAL RUN TIME: 0 days 0 hours 41 minutes 9 seconds 259 msec
