                         Program Version 6.0.1  -  RELEASE   -
|  1> ! r2scan-3c def2/J RI DEFGRID2 scfconv6 printgap
|  2> %output
|  3>     printlevel normal
|  4> end
|  5> * xyz 0 1
|  6> C -3.0021031423 -1.0212960618 1.7429917344
|  7> N -2.1304787994 -0.2905489798 0.8574968519
|  8> C -2.3171775293 -0.2810009176 -0.4838255553
|  9> O -3.2151930925 -0.8427937041 -1.0499665914
| 10> O -1.4180658068 0.4511683313 -1.1947274306
| 11> C -0.2381331051 0.8993870433 -0.6262345128
| 12> C -0.0443095609 2.249793353 -0.4849733912
| 13> C 1.1605060304 2.7397394132 0.0383731571
| 14> C 2.148895856 1.8787388309 0.4233152677
| 15> C 1.9857438599 0.4842741777 0.2823493125
| 16> C 0.7769171337 -0.0268013626 -0.2607011213
| 17> C 0.6313471491 -1.4200692447 -0.4267328124
| 18> C 1.6337549919 -2.2720754756 -0.0550860088
| 19> C 2.8220746912 -1.7722085372 0.4984989072
| 20> C 2.9951695969 -0.4261176719 0.6596035761
| 21> H -3.4910486463 -0.3462185681 2.447662635
| 22> H -2.4400489977 -1.7754927994 2.2974211407
| 23> H -3.7565927963 -1.5094567695 1.1288478718
| 24> H -1.3715692276 0.2348749805 1.262755101
| 25> H -0.8273075658 2.9279758664 -0.7867391175
| 26> H 1.2923028796 3.8063550867 0.1384746229
| 27> H 3.074837412 2.2524314931 0.8349233489
| 28> H -0.2772139386 -1.8058810137 -0.8653077883
| 29> H 1.5167656348 -3.3369147654 -0.1895699417
| 30> H 3.6017712418 -2.4605988712 0.7891711795
| 31> H 3.9123818399 -0.0352095499 1.0758368652
| 32> *
| 33>
| 34>                          ****END OF INPUT****

CARTESIAN COORDINATES (ANGSTROEM)
---------------------------------
  C     -3.002103   -1.021296    1.742992
  N     -2.130479   -0.290549    0.857497
  C     -2.317178   -0.281001   -0.483826
  O     -3.215193   -0.842794   -1.049967
  O     -1.418066    0.451168   -1.194727
  C     -0.238133    0.899387   -0.626235
  C     -0.044310    2.249793   -0.484973
  C      1.160506    2.739739    0.038373
  C      2.148896    1.878739    0.423315
  C      1.985744    0.484274    0.282349
  C      0.776917   -0.026801   -0.260701
  C      0.631347   -1.420069   -0.426733
  C      1.633755   -2.272075   -0.055086
  C      2.822075   -1.772209    0.498499
  C      2.995170   -0.426118    0.659604
  H     -3.491049   -0.346219    2.447663
  H     -2.440049   -1.775493    2.297421
  H     -3.756593   -1.509457    1.128848
  H     -1.371569    0.234875    1.262755
  H     -0.827308    2.927976   -0.786739
  H      1.292303    3.806355    0.138475
  H      3.074837    2.252431    0.834923
  H     -0.277214   -1.805881   -0.865308
  H      1.516766   -3.336915   -0.189570
  H      3.601771   -2.460599    0.789171
  H      3.912382   -0.035210    1.075837

 Total Charge           Charge          ....    0
 Multiplicity           Mult            ....    1
 Number of Electrons    NEL             ....  106
 Basis Dimension        Dim             ....  355

ORBITAL ENERGIES
----------------

  NO   OCC          E(Eh)            E(eV)
   0   2.0000     -19.005825      -517.1748
   1   2.0000     -18.915278      -514.7109
   2   2.0000     -14.193223      -386.2172
   3   2.0000     -10.175347      -276.8853
   4   2.0000     -10.113150      -275.1928
   5   2.0000     -10.067112      -273.9400
   6   2.0000     -10.062856      -273.8242
   7   2.0000     -10.061955      -273.7997
   8   2.0000     -10.052663      -273.5469
   9   2.0000     -10.051302      -273.5098
  10   2.0000     -10.049901      -273.4717
  11   2.0000     -10.049420      -273.4586
  12   2.0000     -10.049408      -273.4583
  13   2.0000     -10.048806      -273.4419
  14   2.0000     -10.048206      -273.4256
  15   2.0000      -1.083226       -29.4761
  16   2.0000      -0.991446       -26.9786
  17   2.0000      -0.898332       -24.4449
  18   2.0000      -0.860560       -23.4170
  19   2.0000      -0.808564       -22.0022
  20   2.0000      -0.757590       -20.6151
  21   2.0000      -0.729943       -19.8628
  22   2.0000      -0.710133       -19.3237
  23   2.0000      -0.681853       -18.5542
  24   2.0000      -0.623542       -16.9674
  25   2.0000      -0.604237       -16.4421
  26   2.0000      -0.598290       -16.2803
  27   2.0000      -0.561151       -15.2697
  28   2.0000      -0.543405       -14.7868
  29   2.0000      -0.501966       -13.6592
  30   2.0000      -0.485256       -13.2045
  31   2.0000      -0.480701       -13.0805
  32   2.0000      -0.459420       -12.5015
  33   2.0000      -0.446318       -12.1449
  34   2.0000      -0.427250       -11.6261
  35   2.0000      -0.412981       -11.2378
  36   2.0000      -0.408526       -11.1166
  37   2.0000      -0.403392       -10.9769
  38   2.0000      -0.393185       -10.6991
  39   2.0000      -0.389178       -10.5901
  40   2.0000      -0.378220       -10.2919
  41   2.0000      -0.373335       -10.1590
  42   2.0000      -0.364667        -9.9231
  43   2.0000      -0.356073        -9.6892
  44   2.0000      -0.330014        -8.9802
  45   2.0000      -0.323241        -8.7958
  46   2.0000      -0.317565        -8.6414
  47   2.0000      -0.289870        -7.8878
  48   2.0000      -0.269367        -7.3298
  49   2.0000      -0.249784        -6.7970
  50   2.0000      -0.247260        -6.7283
  51   2.0000      -0.233183        -6.3452
  52   2.0000      -0.213389        -5.8066
  53   0.0000      -0.081824        -2.2265
  54   0.0000      -0.052145        -1.4189
  55   0.0000      -0.014379        -0.3913
  56   0.0000       0.025576         0.6960
  57   0.0000       0.048408         1.3173

MULLIKEN ATOMIC CHARGES
-----------------------
   0 C :   -0.401555
   1 N :   -0.151063
   2 C :    0.269439
   3 O :   -0.429449
   4 O :   -0.130952
   5 C :    0.175811
   6 C :   -0.219849
   7 C :   -0.129339
   8 C :   -0.268056
   9 C :    0.182638
  10 C :    0.004635
  11 C :   -0.191568
  12 C :   -0.153515
  13 C :   -0.138940
  14 C :   -0.214526
  15 H :    0.144484
  16 H :    0.145969
  17 H :    0.196901
  18 H :    0.246763
  19 H :    0.164425
  20 H :    0.149854
  21 H :    0.146474
  22 H :    0.159561
  23 H :    0.148985
  24 H :    0.147405
  25 H :    0.145467
Sum of atomic charges:   -0.0000000

LOEWDIN ATOMIC CHARGES
----------------------
   0 C :   -0.111002
   1 N :   -0.626140
   2 C :    0.442925
   3 O :   -0.379976
   4 O :   -0.487089
   5 C :    0.195979
   6 C :   -0.123264
   7 C :   -0.154786
   8 C :   -0.147224
   9 C :   -0.055587
  10 C :   -0.035749
  11 C :   -0.120386
  12 C :   -0.155735
  13 C :   -0.157000
  14 C :   -0.141067
  15 H :    0.169438
  16 H :    0.169279
  17 H :    0.207524
  18 H :    0.279044
  19 H :    0.184635
  20 H :    0.171501
  21 H :    0.172588
  22 H :    0.189392
  23 H :    0.170751
  24 H :    0.169584
  25 H :    0.172362

  Mayer bond orders larger than 0.100000
B(  0-C ,  1-N ) :   0.8964 B(  0-C , 15-H ) :   0.9628 B(  0-C , 16-H ) :   0.9607
B(  0-C , 17-H ) :   0.9547 B(  1-N ,  2-C ) :   1.1406 B(  1-N , 18-H ) :   0.9194
B(  2-C ,  3-O ) :   1.9564 B(  2-C ,  4-O ) :   1.0245 B(  4-O ,  5-C ) :   0.9136
B(  5-C ,  6-C ) :   1.5547 B(  5-C , 10-C ) :   1.2215 B(  6-C ,  7-C ) :   1.2167
B(  6-C , 19-H ) :   0.9385 B(  7-C ,  8-C ) :   1.4985 B(  7-C , 20-H ) :   0.9552
B(  8-C ,  9-C ) :   1.1786 B(  8-C , 21-H ) :   0.9479 B(  9-C , 10-C ) :   1.3761
B(  9-C , 14-C ) :   1.1821 B( 10-C , 11-C ) :   1.2794 B( 11-C , 12-C ) :   1.4976
B( 11-C , 22-H ) :   0.9551 B( 12-C , 13-C ) :   1.2485 B( 12-C , 23-H ) :   0.9508
B( 13-C , 14-C ) :   1.5082 B( 13-C , 24-H ) :   0.9500 B( 14-C , 25-H ) :   0.9495

Dispersion correction           -0.011285427
FINAL SINGLE POINT ENERGY      -668.974970325497

DIPOLE MOMENT
-------------

Method             : SCF
Type of density    : Electron Density
Multiplicity       :   1
Irrep              :   0
Energy             :  -668.9784361554619636 Eh
Relativity type    :
Basis              : AO
                                X                 Y                 Z
Electronic contribution:      0.115678998       2.271180007      -6.110450847
Nuclear contribution   :      1.077647070      -1.928896723       7.602058481
                        -----------------------------------------
Total Dipole Moment    :      1.193326068       0.342283284       1.491607634
                        -----------------------------------------
Magnitude (a.u.)       :      1.940638628
Magnitude (Debye)      :      4.932711383

Rotational constants in cm-1:             0.031423             0.016704             0.012936
Rotational constants in MHz :           942.049013           500.769907           387.821874

                             ****ORCA TERMINATED NORMALLY****
TOTAL RUN TIME: 0 days 0 hours 0 minutes 45 seconds 242 msec
