                         Program Version 6.0.1  -  RELEASE   -
|  1> ! r2scan-3c def2/J RI DEFGRID2 scfconv6 printgap
|  2> %output
|  3>     printlevel normal
|  4> end
|  5> * xyz 0 1
|  6> C -2.3693136469 -1.1959778236 -0.3113409812
|  7> C -1.0572149954 -0.6329601321 0.2434838197
|  8> H -1.1114000627 -0.6126288277 1.3444005513
|  9> C -0.7884247178 0.7973701647 -0.2520672638
| 10> H -0.8195318218 0.8019883867 -1.3556321552
| 11> C 0.6115964253 1.2292005259 0.1992995305
| 12> H 0.6098602382 1.3030112812 1.2997111647
| 13> C 1.6627935633 0.1985624551 -0.2227987019
| 14> H 1.6931299484 0.1628373701 -1.3263958849
| 15> C 1.2517838856 -1.1916315501 0.3002397558
| 16> H 1.2597998969 -1.1806771666 1.400579682
| 17> O -0.0434402287 -1.5095415269 -0.1864734561
| 18> O 2.1034004088 -2.1974004963 -0.0796154242
| 19> O 2.9215837591 0.5270622517 0.2918724404
| 20> O 0.9721086071 2.4701145604 -0.3591617361
| 21> O -1.7005390355 1.7336714558 0.2646676843
| 22> O -3.4481380583 -0.4174486737 0.1644194285
| 23> H -2.4550092192 -2.2381634483 0.0155025321
| 24> H -2.3259255442 -1.1762870103 -1.4081102649
| 25> H 2.1411030672 -2.2331415554 -1.0437575806
| 26> H 3.0612239645 1.4672544165 0.1178504154
| 27> H 0.2245985398 3.0657184003 -0.2258866695
| 28> H -2.5729045095 1.3144254158 0.2945814913
| 29> H -4.275034635 -0.8221407541 -0.1175108553
| 30> *
| 31>
| 32>                          ****END OF INPUT****

CARTESIAN COORDINATES (ANGSTROEM)
---------------------------------
  C     -2.369314   -1.195978   -0.311341
  C     -1.057215   -0.632960    0.243484
  H     -1.111400   -0.612629    1.344401
  C     -0.788425    0.797370   -0.252067
  H     -0.819532    0.801988   -1.355632
  C      0.611596    1.229201    0.199300
  H      0.609860    1.303011    1.299711
  C      1.662794    0.198562   -0.222799
  H      1.693130    0.162837   -1.326396
  C      1.251784   -1.191632    0.300240
  H      1.259800   -1.180677    1.400580
  O     -0.043440   -1.509542   -0.186473
  O      2.103400   -2.197400   -0.079615
  O      2.921584    0.527062    0.291872
  O      0.972109    2.470115   -0.359162
  O     -1.700539    1.733671    0.264668
  O     -3.448138   -0.417449    0.164419
  H     -2.455009   -2.238163    0.015503
  H     -2.325926   -1.176287   -1.408110
  H      2.141103   -2.233142   -1.043758
  H      3.061224    1.467254    0.117850
  H      0.224599    3.065718   -0.225887
  H     -2.572905    1.314425    0.294581
  H     -4.275035   -0.822141   -0.117511

 Total Charge           Charge          ....    0
 Multiplicity           Mult            ....    1
 Number of Electrons    NEL             ....   96
 Basis Dimension        Dim             ....  318

ORBITAL ENERGIES
----------------

  NO   OCC          E(Eh)            E(eV)
   0   2.0000     -18.987398      -516.6734
   1   2.0000     -18.973479      -516.2946
   2   2.0000     -18.964945      -516.0624
   3   2.0000     -18.960303      -515.9361
   4   2.0000     -18.954589      -515.7806
   5   2.0000     -18.952204      -515.7157
   6   2.0000     -10.139508      -275.9100
   7   2.0000     -10.101754      -274.8827
   8   2.0000     -10.100731      -274.8549
   9   2.0000     -10.090654      -274.5806
  10   2.0000     -10.088872      -274.5322
  11   2.0000     -10.088521      -274.5226
  12   2.0000      -1.053081       -28.6558
  13   2.0000      -1.025647       -27.9093
  14   2.0000      -1.013282       -27.5728
  15   2.0000      -0.997914       -27.1546
  16   2.0000      -0.985481       -26.8163
  17   2.0000      -0.982361       -26.7314
  18   2.0000      -0.753168       -20.4947
  19   2.0000      -0.742735       -20.2108
  20   2.0000      -0.664911       -18.0931
  21   2.0000      -0.616120       -16.7655
  22   2.0000      -0.594930       -16.1889
  23   2.0000      -0.568050       -15.4574
  24   2.0000      -0.536921       -14.6104
  25   2.0000      -0.518445       -14.1076
  26   2.0000      -0.497280       -13.5317
  27   2.0000      -0.486413       -13.2360
  28   2.0000      -0.465179       -12.6582
  29   2.0000      -0.458626       -12.4798
  30   2.0000      -0.437516       -11.9054
  31   2.0000      -0.433168       -11.7871
  32   2.0000      -0.423795       -11.5320
  33   2.0000      -0.409401       -11.1404
  34   2.0000      -0.376667       -10.2496
  35   2.0000      -0.373945       -10.1756
  36   2.0000      -0.356727        -9.7070
  37   2.0000      -0.345875        -9.4118
  38   2.0000      -0.339599        -9.2409
  39   2.0000      -0.334425        -9.1002
  40   2.0000      -0.308631        -8.3983
  41   2.0000      -0.292161        -7.9501
  42   2.0000      -0.273472        -7.4416
  43   2.0000      -0.267743        -7.2857
  44   2.0000      -0.262024        -7.1300
  45   2.0000      -0.246945        -6.7197
  46   2.0000      -0.236085        -6.4242
  47   2.0000      -0.232407        -6.3241
  48   0.0000       0.015663         0.4262
  49   0.0000       0.051744         1.4080
  50   0.0000       0.063623         1.7313
  51   0.0000       0.083447         2.2707
  52   0.0000       0.089665         2.4399

MULLIKEN ATOMIC CHARGES
-----------------------
   0 C :   -0.201255
   1 C :   -0.123542
   2 H :    0.181878
   3 C :    0.024492
   4 H :    0.169882
   5 C :   -0.019645
   6 H :    0.172280
   7 C :    0.077323
   8 H :    0.158930
   9 C :   -0.173496
  10 H :    0.156195
  11 O :   -0.180485
  12 O :   -0.344796
  13 O :   -0.418435
  14 O :   -0.451281
  15 O :   -0.442279
  16 O :   -0.428254
  17 H :    0.143146
  18 H :    0.135652
  19 H :    0.310679
  20 H :    0.317136
  21 H :    0.316730
  22 H :    0.312818
  23 H :    0.306330
Sum of atomic charges:   -0.0000000

LOEWDIN ATOMIC CHARGES
----------------------
   0 C :    0.057247
   1 C :    0.122694
   2 H :    0.186646
   3 C :    0.103590
   4 H :    0.180663
   5 C :    0.106782
   6 H :    0.186043
   7 C :    0.115472
   8 H :    0.180023
   9 C :    0.301023
  10 H :    0.199387
  11 O :   -0.684800
  12 O :   -0.459588
  13 O :   -0.553906
  14 O :   -0.575387
  15 O :   -0.587788
  16 O :   -0.624749
  17 H :    0.174284
  18 H :    0.169543
  19 H :    0.277117
  20 H :    0.283032
  21 H :    0.283134
  22 H :    0.285343
  23 H :    0.274197

  Mayer bond orders larger than 0.100000
B(  0-C ,  1-C ) :   0.9849 B(  0-C , 16-O ) :   0.9718 B(  0-C , 17-H ) :   0.9564
B(  0-C , 18-H ) :   0.9699 B(  1-C ,  2-H ) :   0.9499 B(  1-C ,  3-C ) :   0.8043
B(  1-C , 11-O ) :   0.8105 B(  3-C ,  4-H ) :   0.9621 B(  3-C ,  5-C ) :   0.8492
B(  3-C , 15-O ) :   0.8590 B(  5-C ,  6-H ) :   0.9916 B(  5-C ,  7-C ) :   0.8770
B(  5-C , 14-O ) :   0.9067 B(  7-C ,  8-H ) :   0.9465 B(  7-C ,  9-C ) :   0.8625
B(  7-C , 13-O ) :   0.8841 B(  9-C , 10-H ) :   0.9990 B(  9-C , 11-O ) :   0.8971
B(  9-C , 12-O ) :   1.1494 B( 12-O , 19-H ) :   0.8775 B( 13-O , 20-H ) :   0.8753
B( 14-O , 21-H ) :   0.8759 B( 15-O , 22-H ) :   0.8455 B( 16-O , 23-H ) :   0.8929

Dispersion correction           -0.007993884
FINAL SINGLE POINT ENERGY      -687.076149775603

DIPOLE MOMENT
-------------

Method             : SCF
Type of density    : Electron Density
Multiplicity       :   1
Irrep              :   0
Energy             :  -687.0881839355957936 Eh
Relativity type    :
Basis              : AO
                                X                 Y                 Z
Electronic contribution:      2.754603786      -0.038286063       0.347633257
Nuclear contribution   :     -4.275596702      -0.129680459      -0.941131217
                        -----------------------------------------
Total Dipole Moment    :     -1.520992916      -0.167966522      -0.593497960
                        -----------------------------------------
Magnitude (a.u.)       :      1.641301932
Magnitude (Debye)      :      4.171857968

Rotational constants in cm-1:             0.043851             0.024638             0.016478
Rotational constants in MHz :          1314.622105           738.622213           494.006446

                             ****ORCA TERMINATED NORMALLY****
TOTAL RUN TIME: 0 days 0 hours 0 minutes 36 seconds 979 msec
