                         Program Version 6.0.1  -  RELEASE   -
|  1> ! pbe def2-sv(p) def2/J RI DEFGRID1 loosescf d4 GCP(DFT/SV(P)) printgap
|  2> %output
|  3>     printlevel normal
|  4> end
|  5> * xyz 0 1
|  6> C -2.022284259 -0.5912720875 -0.6979785495
|  7> C -1.1923106128 -0.0832442526 0.5041263056
|  8> H -1.8470115384 -0.0205443331 1.3808329501
|  9> C -0.6232684216 1.3224586228 0.2550084433
| 10> H -1.3534477905 1.884000053 -0.3474860387
| 11> C 0.7092556344 1.2944413947 -0.5211807583
| 12> H 1.1655944879 2.2956136341 -0.4416992874
| 13> C 1.67567204 0.2747123011 0.118439834
| 14> H 2.5790788661 0.1808108328 -0.4968143122
| 15> C 0.9855109042 -1.103518192 0.1848975529
| 16> H 1.6049033237 -1.7924770269 0.7723488497
| 17> O -0.2131018486 -1.0248852706 0.9150922624
| 18> O 0.8384045329 -1.6813812196 -1.0706327675
| 19> O 2.0970518867 0.7029200103 1.37992888
| 20> O 0.4364635768 0.9886157882 -1.8741489661
| 21> O -0.4510542717 1.9227319007 1.5184871615
| 22> O -2.2968969288 -1.9568219095 -0.5911850445
| 23> H -1.5069365576 -0.3652909889 -1.6430687475
| 24> H -2.9853422438 -0.0750452597 -0.706036534
| 25> H 0.4462991121 -1.0306081514 -1.6749998253
| 26> H 1.3189211024 0.7440727082 1.9582251973
| 27> H 1.2340702249 1.133353426 -2.3966653933
| 28> H -0.137697343 2.8287656552 1.4131379489
| 29> H -1.4702982857 -2.4040225881 -0.3562491261
| 30> *
| 31>
| 32>                          ****END OF INPUT****

CARTESIAN COORDINATES (ANGSTROEM)
---------------------------------
  C     -2.022284   -0.591272   -0.697979
  C     -1.192311   -0.083244    0.504126
  H     -1.847012   -0.020544    1.380833
  C     -0.623268    1.322459    0.255008
  H     -1.353448    1.884000   -0.347486
  C      0.709256    1.294441   -0.521181
  H      1.165594    2.295614   -0.441699
  C      1.675672    0.274712    0.118440
  H      2.579079    0.180811   -0.496814
  C      0.985511   -1.103518    0.184898
  H      1.604903   -1.792477    0.772349
  O     -0.213102   -1.024885    0.915092
  O      0.838405   -1.681381   -1.070633
  O      2.097052    0.702920    1.379929
  O      0.436464    0.988616   -1.874149
  O     -0.451054    1.922732    1.518487
  O     -2.296897   -1.956822   -0.591185
  H     -1.506937   -0.365291   -1.643069
  H     -2.985342   -0.075045   -0.706037
  H      0.446299   -1.030608   -1.675000
  H      1.318921    0.744073    1.958225
  H      1.234070    1.133353   -2.396665
  H     -0.137697    2.828766    1.413138
  H     -1.470298   -2.404023   -0.356249

 Total Charge           Charge          ....    0
 Multiplicity           Mult            ....    1
 Number of Electrons    NEL             ....   96
 Basis Dimension        Dim             ....  192

ORBITAL ENERGIES
----------------

  NO   OCC          E(Eh)            E(eV)
   0   2.0000     -18.797103      -511.4952
   1   2.0000     -18.779866      -511.0261
   2   2.0000     -18.773529      -510.8537
   3   2.0000     -18.761074      -510.5148
   4   2.0000     -18.752828      -510.2904
   5   2.0000     -18.731677      -509.7148
   6   2.0000      -9.986015      -271.7333
   7   2.0000      -9.967329      -271.2248
   8   2.0000      -9.964945      -271.1599
   9   2.0000      -9.950927      -270.7785
  10   2.0000      -9.949267      -270.7333
  11   2.0000      -9.929001      -270.1819
  12   2.0000      -0.991593       -26.9826
  13   2.0000      -0.967429       -26.3251
  14   2.0000      -0.956418       -26.0255
  15   2.0000      -0.931893       -25.3581
  16   2.0000      -0.920703       -25.0536
  17   2.0000      -0.906449       -24.6657
  18   2.0000      -0.719509       -19.5788
  19   2.0000      -0.693133       -18.8611
  20   2.0000      -0.621186       -16.9033
  21   2.0000      -0.601609       -16.3706
  22   2.0000      -0.584356       -15.9011
  23   2.0000      -0.529422       -14.4063
  24   2.0000      -0.516694       -14.0599
  25   2.0000      -0.504227       -13.7207
  26   2.0000      -0.484714       -13.1898
  27   2.0000      -0.460023       -12.5179
  28   2.0000      -0.455272       -12.3886
  29   2.0000      -0.435157       -11.8412
  30   2.0000      -0.425958       -11.5909
  31   2.0000      -0.404289       -11.0013
  32   2.0000      -0.397753       -10.8234
  33   2.0000      -0.384443       -10.4612
  34   2.0000      -0.371092       -10.0979
  35   2.0000      -0.358509        -9.7555
  36   2.0000      -0.341757        -9.2997
  37   2.0000      -0.324184        -8.8215
  38   2.0000      -0.321444        -8.7469
  39   2.0000      -0.297867        -8.1054
  40   2.0000      -0.289825        -7.8865
  41   2.0000      -0.272202        -7.4070
  42   2.0000      -0.269677        -7.3383
  43   2.0000      -0.266050        -7.2396
  44   2.0000      -0.241880        -6.5819
  45   2.0000      -0.236985        -6.4487
  46   2.0000      -0.208625        -5.6770
  47   2.0000      -0.203506        -5.5377
  48   0.0000      -0.008954        -0.2437
  49   0.0000       0.003583         0.0975
  50   0.0000       0.052962         1.4412
  51   0.0000       0.055403         1.5076
  52   0.0000       0.061710         1.6792

MULLIKEN ATOMIC CHARGES
-----------------------
   0 C :    0.015530
   1 C :    0.031791
   2 H :    0.089313
   3 C :    0.032226
   4 H :    0.083970
   5 C :   -0.002596
   6 H :    0.067987
   7 C :    0.036789
   8 H :    0.072723
   9 C :    0.193336
  10 H :    0.081550
  11 O :   -0.314904
  12 O :   -0.411219
  13 O :   -0.421633
  14 O :   -0.407093
  15 O :   -0.407139
  16 O :   -0.433999
  17 H :    0.078903
  18 H :    0.085730
  19 H :    0.304294
  20 H :    0.303457
  21 H :    0.316876
  22 H :    0.305110
  23 H :    0.298997
Sum of atomic charges:   -0.0000000

LOEWDIN ATOMIC CHARGES
----------------------
   0 C :   -0.146773
   1 C :   -0.070264
   2 H :    0.127272
   3 C :   -0.067921
   4 H :    0.112571
   5 C :   -0.083455
   6 H :    0.101582
   7 C :   -0.094315
   8 H :    0.114013
   9 C :   -0.011773
  10 H :    0.114577
  11 O :   -0.138935
  12 O :   -0.308998
  13 O :   -0.311543
  14 O :   -0.304921
  15 O :   -0.302399
  16 O :   -0.333601
  17 H :    0.090155
  18 H :    0.116564
  19 H :    0.267868
  20 H :    0.273598
  21 H :    0.296968
  22 H :    0.287695
  23 H :    0.272036

  Mayer bond orders larger than 0.100000
B(  0-C ,  1-C ) :   1.0383 B(  0-C , 16-O ) :   1.0960 B(  0-C , 17-H ) :   0.8941
B(  0-C , 18-H ) :   0.9121 B(  1-C ,  2-H ) :   0.8902 B(  1-C ,  3-C ) :   0.9930
B(  1-C , 11-O ) :   1.0182 B(  3-C ,  4-H ) :   0.8940 B(  3-C ,  5-C ) :   0.9899
B(  3-C , 15-O ) :   1.0442 B(  5-C ,  6-H ) :   0.9013 B(  5-C ,  7-C ) :   0.9547
B(  5-C , 14-O ) :   1.0253 B(  7-C ,  8-H ) :   0.8950 B(  7-C ,  9-C ) :   0.9872
B(  7-C , 13-O ) :   1.0674 B(  9-C , 10-H ) :   0.9068 B(  9-C , 11-O ) :   1.0254
B(  9-C , 12-O ) :   1.1120 B( 12-O , 19-H ) :   0.7935 B( 13-O , 20-H ) :   0.8137
B( 14-O , 19-H ) :   0.1033 B( 14-O , 21-H ) :   0.8351 B( 15-O , 22-H ) :   0.8386
B( 16-O , 23-H ) :   0.8248

Dispersion correction           -0.026428902
FINAL SINGLE POINT ENERGY      -685.697656950048

DIPOLE MOMENT
-------------

Method             : SCF
Type of density    : Electron Density
Multiplicity       :   1
Irrep              :   0
Energy             :  -685.8324705236985892 Eh
Relativity type    :
Basis              : AO
                                X                 Y                 Z
Electronic contribution:      1.463864516      -1.466273885       1.762803844
Nuclear contribution   :     -0.886926055       3.154190048      -2.377409114
                        -----------------------------------------
Total Dipole Moment    :      0.576938461       1.687916163      -0.614605270
                        -----------------------------------------
Magnitude (a.u.)       :      1.886705753
Magnitude (Debye)      :      4.795624909

Rotational constants in cm-1:             0.041976             0.029040             0.025651
Rotational constants in MHz :          1258.406476           870.591120           769.007863

                             ****ORCA TERMINATED NORMALLY****
TOTAL RUN TIME: 0 days 0 hours 0 minutes 49 seconds 163 msec
