                         Program Version 6.0.1  -  RELEASE   -
|  1> ! r2scan-3c def2/J RI DEFGRID2 scfconv6 printgap
|  2> %output
|  3>     printlevel normal
|  4> end
|  5> * xyz 0 1
|  6> C -2.8478781719 -0.7880863211 0.2850978423
|  7> C -1.7196647024 -0.2167338944 -0.582639032
|  8> H -2.1726762394 0.1528899358 -1.5094224044
|  9> C -0.6592557295 -1.2653787811 -0.9266585162
| 10> C 0.2050589325 -1.6331603509 0.2720292972
| 11> C 0.9247320445 -0.3982468107 0.8330641482
| 12> H 1.4422779296 -0.6974054751 1.753155796
| 13> C -0.1092712532 0.6694220045 1.2100884415
| 14> C -1.1249388677 0.9788299214 0.1373394631
| 15> O -1.5027055551 2.1041847931 -0.0844390953
| 16> C 1.9795944664 0.0952127469 -0.1312623999
| 17> C 1.7769247405 1.0551556597 -1.0186642219
| 18> C 3.3029070174 -0.6026290077 -0.0137858771
| 19> H -3.5823493019 -0.0146427036 0.4982827518
| 20> H -3.3441456597 -1.5994847559 -0.243063883
| 21> H -2.4694916752 -1.1713686835 1.2289686554
| 22> H -1.1540273921 -2.1589207794 -1.3143302329
| 23> H -0.0154812242 -0.8708777712 -1.7157859466
| 24> H -0.4102512306 -2.0765363977 1.0570116561
| 25> H 0.9389579437 -2.3825893267 -0.0303300441
| 26> H -0.6794785086 0.3105822986 2.0724551731
| 27> H 0.3858432105 1.5974946723 1.5022864509
| 28> H 2.5560303581 1.3644961689 -1.6955088384
| 29> H 0.8441559372 1.5820893032 -1.1086712491
| 30> H 3.9806018828 -0.2889659157 -0.8028850527
| 31> H 3.7617858919 -0.3732018416 0.9481683635
| 32> H 3.1773762105 -1.6830680189 -0.0698833151
| 33> *
| 34>
| 35>                          ****END OF INPUT****

CARTESIAN COORDINATES (ANGSTROEM)
---------------------------------
  C     -2.847878   -0.788086    0.285098
  C     -1.719665   -0.216734   -0.582639
  H     -2.172676    0.152890   -1.509422
  C     -0.659256   -1.265379   -0.926659
  C      0.205059   -1.633160    0.272029
  C      0.924732   -0.398247    0.833064
  H      1.442278   -0.697405    1.753156
  C     -0.109271    0.669422    1.210088
  C     -1.124939    0.978830    0.137339
  O     -1.502706    2.104185   -0.084439
  C      1.979594    0.095213   -0.131262
  C      1.776925    1.055156   -1.018664
  C      3.302907   -0.602629   -0.013786
  H     -3.582349   -0.014643    0.498283
  H     -3.344146   -1.599485   -0.243064
  H     -2.469492   -1.171369    1.228969
  H     -1.154027   -2.158921   -1.314330
  H     -0.015481   -0.870878   -1.715786
  H     -0.410251   -2.076536    1.057012
  H      0.938958   -2.382589   -0.030330
  H     -0.679479    0.310582    2.072455
  H      0.385843    1.597495    1.502286
  H      2.556030    1.364496   -1.695509
  H      0.844156    1.582089   -1.108671
  H      3.980602   -0.288966   -0.802885
  H      3.761786   -0.373202    0.948168
  H      3.177376   -1.683068   -0.069883

 Total Charge           Charge          ....    0
 Multiplicity           Mult            ....    1
 Number of Electrons    NEL             ....   84
 Basis Dimension        Dim             ....  294

ORBITAL ENERGIES
----------------

  NO   OCC          E(Eh)            E(eV)
   0   2.0000     -18.932966      -515.1922
   1   2.0000     -10.111696      -275.1532
   2   2.0000     -10.051403      -273.5126
   3   2.0000     -10.044771      -273.3321
   4   2.0000     -10.041560      -273.2447
   5   2.0000     -10.038522      -273.1621
   6   2.0000     -10.037022      -273.1213
   7   2.0000     -10.032609      -273.0012
   8   2.0000     -10.031826      -272.9799
   9   2.0000     -10.029984      -272.9297
  10   2.0000     -10.015381      -272.5324
  11   2.0000      -1.003992       -27.3200
  12   2.0000      -0.822332       -22.3768
  13   2.0000      -0.774819       -21.0839
  14   2.0000      -0.728236       -19.8163
  15   2.0000      -0.707043       -19.2396
  16   2.0000      -0.659884       -17.9563
  17   2.0000      -0.646133       -17.5822
  18   2.0000      -0.592375       -16.1193
  19   2.0000      -0.567297       -15.4369
  20   2.0000      -0.508712       -13.8428
  21   2.0000      -0.475714       -12.9448
  22   2.0000      -0.457644       -12.4531
  23   2.0000      -0.440666       -11.9911
  24   2.0000      -0.434435       -11.8216
  25   2.0000      -0.416636       -11.3372
  26   2.0000      -0.414665       -11.2836
  27   2.0000      -0.390751       -10.6329
  28   2.0000      -0.386955       -10.5296
  29   2.0000      -0.381596       -10.3838
  30   2.0000      -0.370759       -10.0889
  31   2.0000      -0.368964       -10.0400
  32   2.0000      -0.361164        -9.8278
  33   2.0000      -0.340311        -9.2603
  34   2.0000      -0.336962        -9.1692
  35   2.0000      -0.325242        -8.8503
  36   2.0000      -0.310887        -8.4597
  37   2.0000      -0.301880        -8.2146
  38   2.0000      -0.291763        -7.9393
  39   2.0000      -0.284751        -7.7485
  40   2.0000      -0.231679        -6.3043
  41   2.0000      -0.204490        -5.5644
  42   0.0000      -0.044774        -1.2184
  43   0.0000      -0.013872        -0.3775
  44   0.0000       0.062906         1.7118
  45   0.0000       0.089497         2.4353
  46   0.0000       0.092413         2.5147

MULLIKEN ATOMIC CHARGES
-----------------------
   0 C :   -0.533161
   1 C :    0.037207
   2 H :    0.176531
   3 C :   -0.325538
   4 C :   -0.393190
   5 C :    0.083744
   6 H :    0.160970
   7 C :   -0.396589
   8 C :    0.091695
   9 O :   -0.323993
  10 C :   -0.003983
  11 C :   -0.323054
  12 C :   -0.521802
  13 H :    0.167863
  14 H :    0.155131
  15 H :    0.156083
  16 H :    0.152470
  17 H :    0.178462
  18 H :    0.168575
  19 H :    0.154024
  20 H :    0.182855
  21 H :    0.189022
  22 H :    0.141209
  23 H :    0.159496
  24 H :    0.152601
  25 H :    0.164138
  26 H :    0.149234
Sum of atomic charges:    0.0000000

LOEWDIN ATOMIC CHARGES
----------------------
   0 C :   -0.388227
   1 C :   -0.205447
   2 H :    0.180493
   3 C :   -0.283479
   4 C :   -0.277422
   5 C :   -0.196751
   6 H :    0.169117
   7 C :   -0.253400
   8 C :    0.216589
   9 O :   -0.459009
  10 C :   -0.123742
  11 C :   -0.307898
  12 C :   -0.391611
  13 H :    0.164391
  14 H :    0.158316
  15 H :    0.152592
  16 H :    0.160885
  17 H :    0.172169
  18 H :    0.159228
  19 H :    0.162271
  20 H :    0.184579
  21 H :    0.188060
  22 H :    0.158982
  23 H :    0.176623
  24 H :    0.160013
  25 H :    0.163124
  26 H :    0.159553

  Mayer bond orders larger than 0.100000
B(  0-C ,  1-C ) :   0.8919 B(  0-C , 13-H ) :   0.9678 B(  0-C , 14-H ) :   0.9682
B(  0-C , 15-H ) :   0.9756 B(  1-C ,  2-H ) :   0.9509 B(  1-C ,  3-C ) :   0.8719
B(  1-C ,  8-C ) :   0.8872 B(  3-C ,  4-C ) :   0.8733 B(  3-C , 16-H ) :   0.9507
B(  3-C , 17-H ) :   0.9596 B(  4-C ,  5-C ) :   0.8638 B(  4-C , 18-H ) :   1.0084
B(  4-C , 19-H ) :   0.9517 B(  5-C ,  6-H ) :   0.9554 B(  5-C ,  7-C ) :   0.8927
B(  5-C , 10-C ) :   0.8759 B(  7-C ,  8-C ) :   0.8900 B(  7-C , 20-H ) :   0.9511
B(  7-C , 21-H ) :   0.9534 B(  8-C ,  9-O ) :   1.9933 B( 10-C , 11-C ) :   1.8676
B( 10-C , 12-C ) :   0.8738 B( 11-C , 22-H ) :   0.9725 B( 11-C , 23-H ) :   0.9495
B( 12-C , 24-H ) :   0.9895 B( 12-C , 25-H ) :   0.9759 B( 12-C , 26-H ) :   0.9683

Dispersion correction           -0.010219859
FINAL SINGLE POINT ENERGY      -465.779104817159

DIPOLE MOMENT
-------------

Method             : SCF
Type of density    : Electron Density
Multiplicity       :   1
Irrep              :   0
Energy             :  -465.7801049981792403 Eh
Relativity type    :
Basis              : AO
                                X                 Y                 Z
Electronic contribution:     -2.605073763       6.477672032      -0.237262987
Nuclear contribution   :      3.035321699      -7.764501146       0.533922989
                        -----------------------------------------
Total Dipole Moment    :      0.430247935      -1.286829114       0.296660003
                        -----------------------------------------
Magnitude (a.u.)       :      1.388902304
Magnitude (Debye)      :      3.530309099

Rotational constants in cm-1:             0.061265             0.028722             0.024027
Rotational constants in MHz :          1836.663940           861.066673           720.308279

                             ****ORCA TERMINATED NORMALLY****
TOTAL RUN TIME: 0 days 0 hours 0 minutes 49 seconds 37 msec
