                         Program Version 6.0.1  -  RELEASE   -
|  1> ! r2scan-3c def2/J RI DEFGRID2 scfconv6 printgap
|  2> %output
|  3>     printlevel normal
|  4> end
|  5> * xyz 0 1
|  6> C 1.4755264957 -0.1274897209 1.1662716527
|  7> C 0.7217206518 0.1521772335 -0.1013477401
|  8> C 1.3248589405 0.6650799224 -1.1680153927
|  9> C -0.7217118656 -0.1521773088 -0.1013862069
| 10> C -1.3248882733 -0.6650580018 -1.1680223775
| 11> C -1.4755015861 0.1274752267 1.166280377
| 12> H 1.1564504159 0.5475200462 1.9594341797
| 13> H 2.5431821642 0.0056331168 1.0115124587
| 14> H 1.2940805977 -1.1486709372 1.499213604
| 15> H 0.7854781739 0.8991876428 -2.0692555082
| 16> H 2.3798939619 0.8827062558 -1.1721917985
| 17> H -2.3799395654 -0.8825304345 -1.1721488631
| 18> H -0.7854692502 -0.8992736123 -2.0691980223
| 19> H -2.5431206877 -0.0062874641 1.0116459791
| 20> H -1.1560703106 -0.54721503 1.9596244736
| 21> H -1.2945374936 1.1488428142 1.4988539902
| 22> *
| 23>
| 24>                          ****END OF INPUT****

CARTESIAN COORDINATES (ANGSTROEM)
---------------------------------
  C      1.475526   -0.127490    1.166272
  C      0.721721    0.152177   -0.101348
  C      1.324859    0.665080   -1.168015
  C     -0.721712   -0.152177   -0.101386
  C     -1.324888   -0.665058   -1.168022
  C     -1.475502    0.127475    1.166280
  H      1.156450    0.547520    1.959434
  H      2.543182    0.005633    1.011512
  H      1.294081   -1.148671    1.499214
  H      0.785478    0.899188   -2.069256
  H      2.379894    0.882706   -1.172192
  H     -2.379940   -0.882530   -1.172149
  H     -0.785469   -0.899274   -2.069198
  H     -2.543121   -0.006287    1.011646
  H     -1.156070   -0.547215    1.959624
  H     -1.294537    1.148843    1.498854

 Total Charge           Charge          ....    0
 Multiplicity           Mult            ....    1
 Number of Electrons    NEL             ....   46
 Basis Dimension        Dim             ....  164

ORBITAL ENERGIES
----------------

  NO   OCC          E(Eh)            E(eV)
   0   2.0000     -10.042524      -273.2710
   1   2.0000     -10.042318      -273.2654
   2   2.0000     -10.027336      -272.8577
   3   2.0000     -10.027329      -272.8575
   4   2.0000     -10.015370      -272.5321
   5   2.0000     -10.015363      -272.5319
   6   2.0000      -0.799647       -21.7595
   7   2.0000      -0.725681       -19.7468
   8   2.0000      -0.668716       -18.1967
   9   2.0000      -0.640316       -17.4239
  10   2.0000      -0.561242       -15.2722
  11   2.0000      -0.468697       -12.7539
  12   2.0000      -0.445282       -12.1167
  13   2.0000      -0.417953       -11.3731
  14   2.0000      -0.405025       -11.0213
  15   2.0000      -0.383174       -10.4267
  16   2.0000      -0.378031       -10.2867
  17   2.0000      -0.359536        -9.7835
  18   2.0000      -0.345707        -9.4072
  19   2.0000      -0.321957        -8.7609
  20   2.0000      -0.303078        -8.2472
  21   2.0000      -0.260033        -7.0759
  22   2.0000      -0.209865        -5.7107
  23   0.0000      -0.042627        -1.1599
  24   0.0000       0.030593         0.8325
  25   0.0000       0.093547         2.5455
  26   0.0000       0.113740         3.0950
  27   0.0000       0.118369         3.2210

MULLIKEN ATOMIC CHARGES
-----------------------
   0 C :   -0.507299
   1 C :    0.091241
   2 C :   -0.349986
   3 C :    0.091189
   4 C :   -0.349978
   5 C :   -0.507232
   6 H :    0.159938
   7 H :    0.150130
   8 H :    0.168590
   9 H :    0.147992
  10 H :    0.139397
  11 H :    0.139396
  12 H :    0.147992
  13 H :    0.150115
  14 H :    0.159914
  15 H :    0.168601
Sum of atomic charges:   -0.0000000

LOEWDIN ATOMIC CHARGES
----------------------
   0 C :   -0.389458
   1 C :   -0.116363
   2 C :   -0.300749
   3 C :   -0.116359
   4 C :   -0.300751
   5 C :   -0.389459
   6 H :    0.164111
   7 H :    0.160555
   8 H :    0.162662
   9 H :    0.162860
  10 H :    0.156381
  11 H :    0.156384
  12 H :    0.162861
  13 H :    0.160551
  14 H :    0.164109
  15 H :    0.162666

  Mayer bond orders larger than 0.100000
B(  0-C ,  1-C ) :   0.8610 B(  0-C ,  6-H ) :   0.9618 B(  0-C ,  7-H ) :   0.9807
B(  0-C ,  8-H ) :   0.9833 B(  1-C ,  2-C ) :   1.8526 B(  1-C ,  3-C ) :   0.9849
B(  2-C ,  9-H ) :   0.9781 B(  2-C , 10-H ) :   0.9661 B(  3-C ,  4-C ) :   1.8526
B(  3-C ,  5-C ) :   0.8610 B(  4-C , 11-H ) :   0.9661 B(  4-C , 12-H ) :   0.9781
B(  5-C , 13-H ) :   0.9807 B(  5-C , 14-H ) :   0.9618 B(  5-C , 15-H ) :   0.9832

Dispersion correction           -0.004233687
FINAL SINGLE POINT ENERGY      -234.538157072727

DIPOLE MOMENT
-------------

Method             : SCF
Type of density    : Electron Density
Multiplicity       :   1
Irrep              :   0
Energy             :  -234.5400380112511414 Eh
Relativity type    :
Basis              : AO
                                X                 Y                 Z
Electronic contribution:      0.000085262       0.000084667      -1.995057360
Nuclear contribution   :     -0.000048779      -0.000082185       2.305531557
                        -----------------------------------------
Total Dipole Moment    :      0.000036483       0.000002481       0.310474197
                        -----------------------------------------
Magnitude (a.u.)       :      0.310474200
Magnitude (Debye)      :      0.789162700

Rotational constants in cm-1:             0.160331             0.107519             0.071886
Rotational constants in MHz :          4806.616316          3223.325846          2155.085094

                             ****ORCA TERMINATED NORMALLY****
TOTAL RUN TIME: 0 days 0 hours 0 minutes 15 seconds 813 msec
