                         Program Version 6.0.1  -  RELEASE   -
|  1> ! r2scan-3c def2/J RI DEFGRID2 scfconv6 printgap
|  2> %output
|  3>     printlevel normal
|  4> end
|  5> * xyz 0 1
|  6> C -1.4241813606 -1.2090770797 0.0045974027
|  7> C -0.0515018881 -1.2097744711 0.0004642377
|  8> C 0.6420604664 1.48562e-05 -0.0004181566
|  9> C -0.0515159097 1.2097960163 0.0013262272
| 10> C -1.4241975189 1.2090448622 0.0054611025
| 11> C -2.137056215 -2.57353e-05 0.007104729
| 12> N -3.4942683781 2.70244e-05 -0.0285096015
| 13> N 2.0665294317 3.3732e-06 -0.0012371869
| 14> O 2.6375732258 1.0754315262 -0.0021519568
| 15> O 2.6375547134 -1.0754361564 -0.0002616733
| 16> H -1.9687647301 -2.1413380905 0.005235673
| 17> H 0.508127524 -2.1323663223 -0.000100418
| 18> H 0.5080511636 2.1324233332 0.0012972757
| 19> H -1.9688118976 2.1412872532 0.0069058319
| 20> H -3.9939042254 0.8601139635 0.1092434357
| 21> H -3.9938668222 -0.8602122446 0.1082353195
| 22> *
| 23>
| 24>                          ****END OF INPUT****

CARTESIAN COORDINATES (ANGSTROEM)
---------------------------------
  C     -1.424181   -1.209077    0.004597
  C     -0.051502   -1.209774    0.000464
  C      0.642060    0.000015   -0.000418
  C     -0.051516    1.209796    0.001326
  C     -1.424198    1.209045    0.005461
  C     -2.137056   -0.000026    0.007105
  N     -3.494268    0.000027   -0.028510
  N      2.066529    0.000003   -0.001237
  O      2.637573    1.075432   -0.002152
  O      2.637555   -1.075436   -0.000262
  H     -1.968765   -2.141338    0.005236
  H      0.508128   -2.132366   -0.000100
  H      0.508051    2.132423    0.001297
  H     -1.968812    2.141287    0.006906
  H     -3.993904    0.860114    0.109243
  H     -3.993867   -0.860212    0.108235

 Total Charge           Charge          ....    0
 Multiplicity           Mult            ....    1
 Number of Electrons    NEL             ....   72
 Basis Dimension        Dim             ....  240

ORBITAL ENERGIES
----------------

  NO   OCC          E(Eh)            E(eV)
   0   2.0000     -18.961247      -515.9618
   1   2.0000     -18.961242      -515.9616
   2   2.0000     -14.374576      -391.1521
   3   2.0000     -14.203495      -386.4967
   4   2.0000     -10.110274      -275.1146
   5   2.0000     -10.081815      -274.3401
   6   2.0000     -10.061184      -273.7787
   7   2.0000     -10.061174      -273.7785
   8   2.0000     -10.055189      -273.6156
   9   2.0000     -10.055183      -273.6154
  10   2.0000      -1.185614       -32.2622
  11   2.0000      -1.007020       -27.4024
  12   2.0000      -0.928092       -25.2547
  13   2.0000      -0.847222       -23.0541
  14   2.0000      -0.763031       -20.7631
  15   2.0000      -0.744192       -20.2505
  16   2.0000      -0.661955       -18.0127
  17   2.0000      -0.613792       -16.7021
  18   2.0000      -0.568582       -15.4719
  19   2.0000      -0.529042       -14.3960
  20   2.0000      -0.521829       -14.1997
  21   2.0000      -0.502705       -13.6793
  22   2.0000      -0.494559       -13.4576
  23   2.0000      -0.465750       -12.6737
  24   2.0000      -0.433567       -11.7980
  25   2.0000      -0.424899       -11.5621
  26   2.0000      -0.415652       -11.3105
  27   2.0000      -0.393676       -10.7125
  28   2.0000      -0.387551       -10.5458
  29   2.0000      -0.334719        -9.1082
  30   2.0000      -0.317715        -8.6455
  31   2.0000      -0.274816        -7.4781
  32   2.0000      -0.262562        -7.1447
  33   2.0000      -0.260424        -7.0865
  34   2.0000      -0.240004        -6.5308
  35   2.0000      -0.214881        -5.8472
  36   0.0000      -0.100064        -2.7229
  37   0.0000      -0.052928        -1.4403
  38   0.0000      -0.007987        -0.2173
  39   0.0000       0.049728         1.3532
  40   0.0000       0.071648         1.9497

MULLIKEN ATOMIC CHARGES
-----------------------
   0 C :   -0.364163
   1 C :   -0.202996
   2 C :   -0.002846
   3 C :   -0.203038
   4 C :   -0.364141
   5 C :    0.590818
   6 N :   -0.487911
   7 N :    0.357910
   8 O :   -0.248738
   9 O :   -0.248743
  10 H :    0.142684
  11 H :    0.184476
  12 H :    0.184472
  13 H :    0.142681
  14 H :    0.259777
  15 H :    0.259759
Sum of atomic charges:   -0.0000000

LOEWDIN ATOMIC CHARGES
----------------------
   0 C :   -0.152995
   1 C :   -0.064359
   2 C :    0.165161
   3 C :   -0.064364
   4 C :   -0.152987
   5 C :    0.152325
   6 N :   -0.563380
   7 N :   -0.512561
   8 O :   -0.033197
   9 O :   -0.033205
  10 H :    0.173288
  11 H :    0.199338
  12 H :    0.199333
  13 H :    0.173288
  14 H :    0.257166
  15 H :    0.257150

  Mayer bond orders larger than 0.100000
B(  0-C ,  1-C ) :   1.3840 B(  0-C ,  5-C ) :   1.2458 B(  0-C , 10-H ) :   0.9466
B(  1-C ,  2-C ) :   1.4140 B(  1-C , 11-H ) :   0.9210 B(  2-C ,  3-C ) :   1.4140
B(  2-C ,  7-N ) :   1.0066 B(  3-C ,  4-C ) :   1.3840 B(  3-C , 12-H ) :   0.9210
B(  4-C ,  5-C ) :   1.2458 B(  4-C , 13-H ) :   0.9466 B(  5-C ,  6-N ) :   0.9743
B(  6-N , 14-H ) :   0.9298 B(  6-N , 15-H ) :   0.9298 B(  7-N ,  8-O ) :   1.8380
B(  7-N ,  9-O ) :   1.8380 B(  8-O ,  9-O ) :   0.2285

Dispersion correction           -0.005544119
FINAL SINGLE POINT ENERGY      -492.027131456671

DIPOLE MOMENT
-------------

Method             : SCF
Type of density    : Electron Density
Multiplicity       :   1
Irrep              :   0
Energy             :  -492.0336034852090847 Eh
Relativity type    :
Basis              : AO
                                X                 Y                 Z
Electronic contribution:      7.146823302       0.000019313      -0.065786317
Nuclear contribution   :    -10.164422720      -0.000086314       0.216347055
                        -----------------------------------------
Total Dipole Moment    :     -3.017599418      -0.000067001       0.150560738
                        -----------------------------------------
Magnitude (a.u.)       :      3.021353138
Magnitude (Debye)      :      7.679669364

Rotational constants in cm-1:             0.132507             0.027976             0.023102
Rotational constants in MHz :          3972.461915           838.712029           692.572380

                             ****ORCA TERMINATED NORMALLY****
TOTAL RUN TIME: 0 days 0 hours 0 minutes 30 seconds 37 msec
