                         Program Version 6.0.1  -  RELEASE   -
|  1> ! pbe def2-sv(p) def2/J RI DEFGRID1 loosescf d4 GCP(DFT/SV(P)) printgap
|  2> %output
|  3>     printlevel normal
|  4> end
|  5> * xyz 0 1
|  6> C -2.5180002976 0.1984512992 6.75844e-05
|  7> C -1.1594064734 -0.3975369947 -4.3406e-05
|  8> C -0.0195370658 0.2948262069 -0.0001223954
|  9> C 1.2864561027 -0.3494462741 -2.82328e-05
| 10> O 2.3461211557 0.2253760678 7.55098e-05
| 11> H -2.475304736 1.2841975712 -0.0003880337
| 12> H -3.0705638486 -0.1374532837 0.8775118496
| 13> H -3.0711396946 -0.1381902746 -0.8766980352
| 14> H -1.1207992484 -1.4808702907 1.51043e-05
| 15> H -0.0185230479 1.376254163 -0.0001870395
| 16> H 1.2394512777 -1.4581813053 5.43948e-05
| 17> *
| 18>
| 19>                          ****END OF INPUT****

CARTESIAN COORDINATES (ANGSTROEM)
---------------------------------
  C     -2.518000    0.198451    0.000068
  C     -1.159406   -0.397537   -0.000043
  C     -0.019537    0.294826   -0.000122
  C      1.286456   -0.349446   -0.000028
  O      2.346121    0.225376    0.000076
  H     -2.475305    1.284198   -0.000388
  H     -3.070564   -0.137453    0.877512
  H     -3.071140   -0.138190   -0.876698
  H     -1.120799   -1.480870    0.000015
  H     -0.018523    1.376254   -0.000187
  H      1.239451   -1.458181    0.000054

 Total Charge           Charge          ....    0
 Multiplicity           Mult            ....    1
 Number of Electrons    NEL             ....   38
 Basis Dimension        Dim             ....   82

ORBITAL ENERGIES
----------------

  NO   OCC          E(Eh)            E(eV)
   0   2.0000     -18.743112      -510.0260
   1   2.0000      -9.964453      -271.1465
   2   2.0000      -9.923016      -270.0190
   3   2.0000      -9.902888      -269.4713
   4   2.0000      -9.902680      -269.4656
   5   2.0000      -0.938791       -25.5458
   6   2.0000      -0.741795       -20.1853
   7   2.0000      -0.656588       -17.8667
   8   2.0000      -0.541637       -14.7387
   9   2.0000      -0.512646       -13.9498
  10   2.0000      -0.439577       -11.9615
  11   2.0000      -0.399550       -10.8723
  12   2.0000      -0.393754       -10.7146
  13   2.0000      -0.367121        -9.9899
  14   2.0000      -0.354332        -9.6419
  15   2.0000      -0.352436        -9.5903
  16   2.0000      -0.333615        -9.0781
  17   2.0000      -0.251304        -6.8383
  18   2.0000      -0.200929        -5.4676
  19   0.0000      -0.088697        -2.4136
  20   0.0000       0.024571         0.6686
  21   0.0000       0.043813         1.1922
  22   0.0000       0.049943         1.3590
  23   0.0000       0.092861         2.5269

MULLIKEN ATOMIC CHARGES
-----------------------
   0 C :   -0.231450
   1 C :   -0.138498
   2 C :   -0.080873
   3 C :    0.045076
   4 O :   -0.169045
   5 H :    0.117557
   6 H :    0.129548
   7 H :    0.129524
   8 H :    0.089490
   9 H :    0.074789
  10 H :    0.033883
Sum of atomic charges:    0.0000000

LOEWDIN ATOMIC CHARGES
----------------------
   0 C :   -0.332411
   1 C :   -0.086458
   2 C :   -0.182535
   3 C :   -0.016110
   4 O :   -0.125246
   5 H :    0.130938
   6 H :    0.140922
   7 H :    0.140905
   8 H :    0.126005
   9 H :    0.130287
  10 H :    0.073703

  Mayer bond orders larger than 0.100000
B(  0-C ,  1-C ) :   1.1207 B(  0-C ,  5-H ) :   0.9490 B(  0-C ,  6-H ) :   0.9278
B(  0-C ,  7-H ) :   0.9278 B(  1-C ,  2-C ) :   1.7963 B(  1-C ,  4-O ) :   0.1039
B(  1-C ,  8-H ) :   0.9281 B(  2-C ,  3-C ) :   1.0551 B(  2-C ,  9-H ) :   0.9297
B(  3-C ,  4-O ) :   2.1020 B(  3-C , 10-H ) :   0.9109

Dispersion correction           -0.006608283
FINAL SINGLE POINT ENERGY      -230.722111059173

DIPOLE MOMENT
-------------

Method             : SCF
Type of density    : Electron Density
Multiplicity       :   1
Irrep              :   0
Energy             :  -230.7569601218476976 Eh
Relativity type    :
Basis              : AO
                                X                 Y                 Z
Electronic contribution:      6.504950113       0.212132373      -0.000261204
Nuclear contribution   :     -7.955493669      -0.516633230       0.000290301
                        -----------------------------------------
Total Dipole Moment    :     -1.450543555      -0.304500857       0.000029097
                        -----------------------------------------
Magnitude (a.u.)       :      1.482159701
Magnitude (Debye)      :      3.767350563

Rotational constants in cm-1:             1.108384             0.073359             0.069687
Rotational constants in MHz :         33228.507698          2199.234252          2089.162733

                             ****ORCA TERMINATED NORMALLY****
TOTAL RUN TIME: 0 days 0 hours 0 minutes 12 seconds 329 msec
