                         Program Version 6.0.1  -  RELEASE   -
|  1> ! r2scan-3c def2/J RI DEFGRID2 scfconv6 printgap
|  2> %output
|  3>     printlevel normal
|  4> end
|  5> * xyz 0 1
|  6> C 0.0022258299 1.2485896705 0.1126634127
|  7> C 1.2257120128 0.3370158245 -0.0882968321
|  8> C 0.6585224476 -1.0454156195 0.0372324492
|  9> C -0.6622615336 -1.0430700451 0.0371819144
| 10> C -1.2244975278 0.3413524191 -0.088274661
| 11> H 0.0037239033 2.0925425882 -0.5748582801
| 12> H 0.00298959 1.6439443838 1.1288821262
| 13> H 1.6676482491 0.4686977215 -1.0803203643
| 14> H 2.0089805548 0.5278271273 0.646893468
| 15> H 1.2960023936 -1.9111132873 0.0937515186
| 16> H -1.3027071242 -1.9065705232 0.093781945
| 17> H -1.6660181689 0.4746360043 -1.0802760433
| 18> H -2.0070589855 0.5349390625 0.6469437579
| 19> *
| 20>
| 21>                          ****END OF INPUT****

CARTESIAN COORDINATES (ANGSTROEM)
---------------------------------
  C      0.002226    1.248590    0.112663
  C      1.225712    0.337016   -0.088297
  C      0.658522   -1.045416    0.037232
  C     -0.662262   -1.043070    0.037182
  C     -1.224498    0.341352   -0.088275
  H      0.003724    2.092543   -0.574858
  H      0.002990    1.643944    1.128882
  H      1.667648    0.468698   -1.080320
  H      2.008981    0.527827    0.646893
  H      1.296002   -1.911113    0.093752
  H     -1.302707   -1.906571    0.093782
  H     -1.666018    0.474636   -1.080276
  H     -2.007059    0.534939    0.646944

 Total Charge           Charge          ....    0
 Multiplicity           Mult            ....    1
 Number of Electrons    NEL             ....   38
 Basis Dimension        Dim             ....  135

ORBITAL ENERGIES
----------------

  NO   OCC          E(Eh)            E(eV)
   0   2.0000     -10.025481      -272.8072
   1   2.0000     -10.025477      -272.8071
   2   2.0000     -10.024117      -272.7701
   3   2.0000     -10.020659      -272.6760
   4   2.0000     -10.019843      -272.6538
   5   2.0000      -0.807915       -21.9845
   6   2.0000      -0.673816       -18.3355
   7   2.0000      -0.671796       -18.2805
   8   2.0000      -0.537919       -14.6375
   9   2.0000      -0.495582       -13.4855
  10   2.0000      -0.464637       -12.6434
  11   2.0000      -0.436934       -11.8896
  12   2.0000      -0.367160        -9.9909
  13   2.0000      -0.346686        -9.4338
  14   2.0000      -0.317550        -8.6410
  15   2.0000      -0.311730        -8.4826
  16   2.0000      -0.310574        -8.4511
  17   2.0000      -0.310547        -8.4504
  18   2.0000      -0.214955        -5.8492
  19   0.0000      -0.000776        -0.0211
  20   0.0000       0.098284         2.6744
  21   0.0000       0.124286         3.3820
  22   0.0000       0.132774         3.6130
  23   0.0000       0.133466         3.6318

MULLIKEN ATOMIC CHARGES
-----------------------
   0 C :   -0.343276
   1 C :   -0.245284
   2 C :   -0.179200
   3 C :   -0.179209
   4 C :   -0.245281
   5 H :    0.150303
   6 H :    0.156060
   7 H :    0.145301
   8 H :    0.144913
   9 H :    0.152728
  10 H :    0.152729
  11 H :    0.145301
  12 H :    0.144915
Sum of atomic charges:   -0.0000000

LOEWDIN ATOMIC CHARGES
----------------------
   0 C :   -0.296955
   1 C :   -0.294426
   2 C :   -0.193556
   3 C :   -0.193559
   4 C :   -0.294419
   5 H :    0.155694
   6 H :    0.158075
   7 H :    0.159818
   8 H :    0.157547
   9 H :    0.162204
  10 H :    0.162208
  11 H :    0.159819
  12 H :    0.157550

  Mayer bond orders larger than 0.100000
B(  0-C ,  1-C ) :   0.9281 B(  0-C ,  4-C ) :   0.9281 B(  0-C ,  5-H ) :   0.9794
B(  0-C ,  6-H ) :   0.9925 B(  1-C ,  2-C ) :   0.9548 B(  1-C ,  7-H ) :   0.9497
B(  1-C ,  8-H ) :   0.9753 B(  2-C ,  3-C ) :   1.9437 B(  2-C ,  9-H ) :   0.9317
B(  3-C ,  4-C ) :   0.9548 B(  3-C , 10-H ) :   0.9317 B(  4-C , 11-H ) :   0.9497
B(  4-C , 12-H ) :   0.9753

Dispersion correction           -0.002993132
FINAL SINGLE POINT ENERGY      -195.258178056809

DIPOLE MOMENT
-------------

Method             : SCF
Type of density    : Electron Density
Multiplicity       :   1
Irrep              :   0
Energy             :  -195.2594328234993668 Eh
Relativity type    :
Basis              : AO
                                X                 Y                 Z
Electronic contribution:     -0.003153332      -1.702728574       0.083923733
Nuclear contribution   :      0.003340256       1.805877462      -0.117460064
                        -----------------------------------------
Total Dipole Moment    :      0.000186924       0.103148888      -0.033536331
                        -----------------------------------------
Magnitude (a.u.)       :      0.108463881
Magnitude (Debye)      :      0.275693276

Rotational constants in cm-1:             0.246495             0.244778             0.132895
Rotational constants in MHz :          7389.725894          7338.252101          3984.101750

                             ****ORCA TERMINATED NORMALLY****
TOTAL RUN TIME: 0 days 0 hours 0 minutes 10 seconds 666 msec
