                         Program Version 6.0.1  -  RELEASE   -
|  1> ! pbe def2-sv(p) def2/J RI DEFGRID1 loosescf d4 GCP(DFT/SV(P)) printgap
|  2> %output
|  3>     printlevel normal
|  4> end
|  5> * xyz 0 1
|  6> C -2.4389855935 -0.8638924223 -0.2456273105
|  7> C -1.0978421613 -0.6176677503 0.4789178937
|  8> H -1.1398020809 -1.0358340782 1.4950078033
|  9> C -0.7592004209 0.8822315569 0.6006759521
| 10> H -1.6624994142 1.467404563 0.3867945317
| 11> C 0.3351171422 1.2147044109 -0.4418526612
| 12> H 0.565331004 2.2853769299 -0.4227161289
| 13> C 1.6131493869 0.4199587608 -0.0820711525
| 14> H 2.2832639162 0.4237578655 -0.9503423196
| 15> C 1.2101025044 -1.0458679638 0.2512517721
| 16> H 1.2151118257 -1.1806397959 1.3441727109
| 17> O -0.0921178904 -1.3047335993 -0.2529192294
| 18> O 2.0757882056 -1.9916013174 -0.251652958
| 19> O 2.3307461822 1.0204833092 0.9552487739
| 20> O -0.1062692704 0.9259932489 -1.7459001801
| 21> O -0.3047150232 1.1376219833 1.916575042
| 22> O -2.8543707546 0.1777128287 -1.0831543885
| 23> H -3.2355122515 -0.9789122816 0.4917741587
| 24> H -2.3341692253 -1.8051527193 -0.8028213798
| 25> H 2.0276785218 -1.9951413419 -1.2154542644
| 26> H 1.7704241642 1.0154683835 1.7461428877
| 27> H -0.1125526158 -0.0411832641 -1.830330637
| 28> H -0.3377636817 2.086658813 2.0813598263
| 29> H -2.1349857002 0.43174866 -1.6817955466
| 30> *
| 31>
| 32>                          ****END OF INPUT****

CARTESIAN COORDINATES (ANGSTROEM)
---------------------------------
  C     -2.438986   -0.863892   -0.245627
  C     -1.097842   -0.617668    0.478918
  H     -1.139802   -1.035834    1.495008
  C     -0.759200    0.882232    0.600676
  H     -1.662499    1.467405    0.386795
  C      0.335117    1.214704   -0.441853
  H      0.565331    2.285377   -0.422716
  C      1.613149    0.419959   -0.082071
  H      2.283264    0.423758   -0.950342
  C      1.210103   -1.045868    0.251252
  H      1.215112   -1.180640    1.344173
  O     -0.092118   -1.304734   -0.252919
  O      2.075788   -1.991601   -0.251653
  O      2.330746    1.020483    0.955249
  O     -0.106269    0.925993   -1.745900
  O     -0.304715    1.137622    1.916575
  O     -2.854371    0.177713   -1.083154
  H     -3.235512   -0.978912    0.491774
  H     -2.334169   -1.805153   -0.802821
  H      2.027679   -1.995141   -1.215454
  H      1.770424    1.015468    1.746143
  H     -0.112553   -0.041183   -1.830331
  H     -0.337764    2.086659    2.081360
  H     -2.134986    0.431749   -1.681796

 Total Charge           Charge          ....    0
 Multiplicity           Mult            ....    1
 Number of Electrons    NEL             ....   96
 Basis Dimension        Dim             ....  192

ORBITAL ENERGIES
----------------

  NO   OCC          E(Eh)            E(eV)
   0   2.0000     -18.790312      -511.3104
   1   2.0000     -18.786010      -511.1933
   2   2.0000     -18.773235      -510.8457
   3   2.0000     -18.766955      -510.6748
   4   2.0000     -18.748853      -510.1822
   5   2.0000     -18.748282      -510.1667
   6   2.0000      -9.994331      -271.9596
   7   2.0000      -9.957454      -270.9561
   8   2.0000      -9.955799      -270.9111
   9   2.0000      -9.951908      -270.8052
  10   2.0000      -9.945312      -270.6257
  11   2.0000      -9.940928      -270.5064
  12   2.0000      -1.000000       -27.2114
  13   2.0000      -0.962568       -26.1928
  14   2.0000      -0.949747       -25.8439
  15   2.0000      -0.934380       -25.4258
  16   2.0000      -0.926006       -25.1979
  17   2.0000      -0.923165       -25.1206
  18   2.0000      -0.709392       -19.3035
  19   2.0000      -0.691548       -18.8180
  20   2.0000      -0.625174       -17.0118
  21   2.0000      -0.604894       -16.4600
  22   2.0000      -0.576676       -15.6921
  23   2.0000      -0.543189       -14.7809
  24   2.0000      -0.509274       -13.8580
  25   2.0000      -0.505179       -13.7466
  26   2.0000      -0.490356       -13.3433
  27   2.0000      -0.464975       -12.6526
  28   2.0000      -0.457048       -12.4369
  29   2.0000      -0.450794       -12.2667
  30   2.0000      -0.420300       -11.4369
  31   2.0000      -0.399287       -10.8651
  32   2.0000      -0.394014       -10.7217
  33   2.0000      -0.381656       -10.3854
  34   2.0000      -0.361936        -9.8488
  35   2.0000      -0.358127        -9.7451
  36   2.0000      -0.345749        -9.4083
  37   2.0000      -0.336391        -9.1537
  38   2.0000      -0.317858        -8.6493
  39   2.0000      -0.309757        -8.4289
  40   2.0000      -0.288365        -7.8468
  41   2.0000      -0.286776        -7.8036
  42   2.0000      -0.271385        -7.3848
  43   2.0000      -0.265611        -7.2276
  44   2.0000      -0.251068        -6.8319
  45   2.0000      -0.226442        -6.1618
  46   2.0000      -0.220023        -5.9871
  47   2.0000      -0.204485        -5.5643
  48   0.0000      -0.002592        -0.0705
  49   0.0000       0.014182         0.3859
  50   0.0000       0.032040         0.8719
  51   0.0000       0.052225         1.4211
  52   0.0000       0.056522         1.5380

MULLIKEN ATOMIC CHARGES
-----------------------
   0 C :    0.083024
   1 C :   -0.032956
   2 H :    0.085525
   3 C :   -0.004164
   4 H :    0.098317
   5 C :    0.023266
   6 H :    0.075667
   7 C :    0.065146
   8 H :    0.065007
   9 C :    0.183939
  10 H :    0.062504
  11 O :   -0.314985
  12 O :   -0.370329
  13 O :   -0.423940
  14 O :   -0.418884
  15 O :   -0.416062
  16 O :   -0.431204
  17 H :    0.092001
  18 H :    0.089270
  19 H :    0.299920
  20 H :    0.291656
  21 H :    0.300787
  22 H :    0.313087
  23 H :    0.283409
Sum of atomic charges:   -0.0000000

LOEWDIN ATOMIC CHARGES
----------------------
   0 C :   -0.124163
   1 C :   -0.073719
   2 H :    0.118838
   3 C :   -0.087907
   4 H :    0.116329
   5 C :   -0.084293
   6 H :    0.115294
   7 C :   -0.093098
   8 H :    0.116304
   9 C :   -0.002172
  10 H :    0.104948
  11 O :   -0.164803
  12 O :   -0.281022
  13 O :   -0.312562
  14 O :   -0.306469
  15 O :   -0.310651
  16 O :   -0.332807
  17 H :    0.119666
  18 H :    0.106041
  19 H :    0.284918
  20 H :    0.266923
  21 H :    0.265825
  22 H :    0.294416
  23 H :    0.264164

  Mayer bond orders larger than 0.100000
B(  0-C ,  1-C ) :   1.0238 B(  0-C , 16-O ) :   1.1057 B(  0-C , 17-H ) :   0.9212
B(  0-C , 18-H ) :   0.9161 B(  1-C ,  2-H ) :   0.8806 B(  1-C ,  3-C ) :   0.9873
B(  1-C , 11-O ) :   0.9864 B(  3-C ,  4-H ) :   0.8872 B(  3-C ,  5-C ) :   0.9764
B(  3-C , 15-O ) :   1.0282 B(  5-C ,  6-H ) :   0.8921 B(  5-C ,  7-C ) :   0.9607
B(  5-C , 14-O ) :   1.0176 B(  7-C ,  8-H ) :   0.8914 B(  7-C ,  9-C ) :   0.9746
B(  7-C , 13-O ) :   1.0567 B(  9-C , 10-H ) :   0.8738 B(  9-C , 11-O ) :   0.9921
B(  9-C , 12-O ) :   1.1502 B( 12-O , 19-H ) :   0.8443 B( 13-O , 20-H ) :   0.8174
B( 14-O , 21-H ) :   0.7999 B( 14-O , 23-H ) :   0.1174 B( 15-O , 22-H ) :   0.8399
B( 16-O , 23-H ) :   0.8009

Dispersion correction           -0.025734154
FINAL SINGLE POINT ENERGY      -685.688798902370

DIPOLE MOMENT
-------------

Method             : SCF
Type of density    : Electron Density
Multiplicity       :   1
Irrep              :   0
Energy             :  -685.8244900831733730 Eh
Relativity type    :
Basis              : AO
                                X                 Y                 Z
Electronic contribution:      2.630928967      -0.396178212      -0.406643735
Nuclear contribution   :     -2.888541339       0.631394661       0.595268365
                        -----------------------------------------
Total Dipole Moment    :     -0.257612372       0.235216448       0.188624631
                        -----------------------------------------
Magnitude (a.u.)       :      0.396573024
Magnitude (Debye)      :      1.008008519

Rotational constants in cm-1:             0.044059             0.026844             0.023257
Rotational constants in MHz :          1320.852924           804.772503           697.213201

                             ****ORCA TERMINATED NORMALLY****
TOTAL RUN TIME: 0 days 0 hours 0 minutes 11 seconds 117 msec
