                         Program Version 6.0.1  -  RELEASE   -
|  1> ! pbe def2-sv(p) def2/J RI DEFGRID1 loosescf d4 GCP(DFT/SV(P)) printgap
|  2> %output
|  3>     printlevel normal
|  4> end
|  5> * xyz 0 1
|  6> C -2.5321316717 -0.9344262679 0.269588075
|  7> C -1.1176098205 -0.4778781095 0.6282314783
|  8> H -1.0394183438 -0.4012700688 1.7247512468
|  9> C -0.8339811325 0.9093707898 0.033846615
| 10> H -1.0574754098 0.8847028797 -1.0423865747
| 11> C 0.6432921594 1.2760126303 0.2162498361
| 12> H 0.857251492 1.3884331371 1.2928920042
| 13> C 1.5182811617 0.1524015018 -0.3340894946
| 14> H 1.3307072133 0.0429078735 -1.4153316656
| 15> C 1.1289918399 -1.163446765 0.3668617016
| 16> H 1.3527462207 -1.0691952919 1.4454861915
| 17> O -0.2204841102 -1.4580576491 0.1512646295
| 18> O 1.8878494161 -2.2223628782 -0.1150214231
| 19> O 2.8701691043 0.4655470197 -0.1010497629
| 20> O 0.8746591121 2.4972603056 -0.4436861397
| 21> O -1.6589985816 1.8365697333 0.6911957865
| 22> O -2.6806019637 -0.9277305514 -1.1300006652
| 23> H -3.2352654272 -0.2393524643 0.7447162874
| 24> H -2.6797940308 -1.9446333202 0.6723107107
| 25> H 1.4019230375 -2.605225781 -0.8565521362
| 26> H 3.3749460241 -0.3559651102 -0.1599880467
| 27> H 1.830662894 2.6174093777 -0.493899048
| 28> H -1.3753217318 2.7129111156 0.401218343
| 29> H -3.5686112886 -1.2304332991 -1.3459123095
| 30> *
| 31>
| 32>                          ****END OF INPUT****

CARTESIAN COORDINATES (ANGSTROEM)
---------------------------------
  C     -2.532132   -0.934426    0.269588
  C     -1.117610   -0.477878    0.628231
  H     -1.039418   -0.401270    1.724751
  C     -0.833981    0.909371    0.033847
  H     -1.057475    0.884703   -1.042387
  C      0.643292    1.276013    0.216250
  H      0.857251    1.388433    1.292892
  C      1.518281    0.152402   -0.334089
  H      1.330707    0.042908   -1.415332
  C      1.128992   -1.163447    0.366862
  H      1.352746   -1.069195    1.445486
  O     -0.220484   -1.458058    0.151265
  O      1.887849   -2.222363   -0.115021
  O      2.870169    0.465547   -0.101050
  O      0.874659    2.497260   -0.443686
  O     -1.658999    1.836570    0.691196
  O     -2.680602   -0.927731   -1.130001
  H     -3.235265   -0.239352    0.744716
  H     -2.679794   -1.944633    0.672311
  H      1.401923   -2.605226   -0.856552
  H      3.374946   -0.355965   -0.159988
  H      1.830663    2.617409   -0.493899
  H     -1.375322    2.712911    0.401218
  H     -3.568611   -1.230433   -1.345912

 Total Charge           Charge          ....    0
 Multiplicity           Mult            ....    1
 Number of Electrons    NEL             ....   96
 Basis Dimension        Dim             ....  192

ORBITAL ENERGIES
----------------

  NO   OCC          E(Eh)            E(eV)
   0   2.0000     -18.775906      -510.9184
   1   2.0000     -18.767245      -510.6827
   2   2.0000     -18.756350      -510.3862
   3   2.0000     -18.751568      -510.2561
   4   2.0000     -18.750658      -510.2313
   5   2.0000     -18.747248      -510.1386
   6   2.0000      -9.989753      -271.8350
   7   2.0000      -9.948373      -270.7090
   8   2.0000      -9.937512      -270.4135
   9   2.0000      -9.936818      -270.3946
  10   2.0000      -9.935169      -270.3497
  11   2.0000      -9.933371      -270.3008
  12   2.0000      -0.992277       -27.0012
  13   2.0000      -0.944640       -25.7050
  14   2.0000      -0.937848       -25.5201
  15   2.0000      -0.925499       -25.1841
  16   2.0000      -0.917150       -24.9569
  17   2.0000      -0.913747       -24.8643
  18   2.0000      -0.703755       -19.1502
  19   2.0000      -0.694233       -18.8910
  20   2.0000      -0.615017       -16.7355
  21   2.0000      -0.583496       -15.8777
  22   2.0000      -0.554947       -15.1009
  23   2.0000      -0.534732       -14.5508
  24   2.0000      -0.507108       -13.7991
  25   2.0000      -0.486919       -13.2498
  26   2.0000      -0.476959       -12.9787
  27   2.0000      -0.446908       -12.1610
  28   2.0000      -0.445404       -12.1200
  29   2.0000      -0.435376       -11.8472
  30   2.0000      -0.413179       -11.2432
  31   2.0000      -0.408884       -11.1263
  32   2.0000      -0.393876       -10.7179
  33   2.0000      -0.372022       -10.1232
  34   2.0000      -0.351892        -9.5755
  35   2.0000      -0.348488        -9.4828
  36   2.0000      -0.328911        -8.9501
  37   2.0000      -0.325626        -8.8607
  38   2.0000      -0.307598        -8.3702
  39   2.0000      -0.300195        -8.1687
  40   2.0000      -0.288401        -7.8478
  41   2.0000      -0.269795        -7.3415
  42   2.0000      -0.253723        -6.9042
  43   2.0000      -0.241644        -6.5755
  44   2.0000      -0.224963        -6.1216
  45   2.0000      -0.221447        -6.0259
  46   2.0000      -0.213065        -5.7978
  47   2.0000      -0.205189        -5.5835
  48   0.0000       0.020884         0.5683
  49   0.0000       0.027270         0.7421
  50   0.0000       0.034994         0.9522
  51   0.0000       0.048609         1.3227
  52   0.0000       0.068329         1.8593

MULLIKEN ATOMIC CHARGES
-----------------------
   0 C :    0.068151
   1 C :    0.024583
   2 H :    0.062769
   3 C :    0.050213
   4 H :    0.073436
   5 C :    0.066921
   6 H :    0.049254
   7 C :    0.042412
   8 H :    0.046106
   9 C :    0.169340
  10 H :    0.051348
  11 O :   -0.304917
  12 O :   -0.394585
  13 O :   -0.425447
  14 O :   -0.425862
  15 O :   -0.423442
  16 O :   -0.435095
  17 H :    0.085323
  18 H :    0.078554
  19 H :    0.307295
  20 H :    0.306432
  21 H :    0.313608
  22 H :    0.311218
  23 H :    0.302383
Sum of atomic charges:    0.0000000

LOEWDIN ATOMIC CHARGES
----------------------
   0 C :   -0.122824
   1 C :   -0.053836
   2 H :    0.109814
   3 C :   -0.068633
   4 H :    0.112312
   5 C :   -0.079142
   6 H :    0.101467
   7 C :   -0.101356
   8 H :    0.101962
   9 C :   -0.002126
  10 H :    0.094202
  11 O :   -0.138268
  12 O :   -0.302573
  13 O :   -0.327776
  14 O :   -0.326425
  15 O :   -0.318776
  16 O :   -0.337835
  17 H :    0.108797
  18 H :    0.101817
  19 H :    0.291514
  20 H :    0.286567
  21 H :    0.291681
  22 H :    0.290475
  23 H :    0.288961

  Mayer bond orders larger than 0.100000
B(  0-C ,  1-C ) :   1.0712 B(  0-C , 16-O ) :   1.0889 B(  0-C , 17-H ) :   0.9065
B(  0-C , 18-H ) :   0.9124 B(  1-C ,  2-H ) :   0.8768 B(  1-C ,  3-C ) :   1.0252
B(  1-C , 11-O ) :   0.9818 B(  3-C ,  4-H ) :   0.8627 B(  3-C ,  5-C ) :   1.0348
B(  3-C , 15-O ) :   1.0572 B(  5-C ,  6-H ) :   0.8730 B(  5-C ,  7-C ) :   1.0080
B(  5-C , 14-O ) :   1.0809 B(  7-C ,  8-H ) :   0.8584 B(  7-C ,  9-C ) :   0.9835
B(  7-C , 13-O ) :   1.0705 B(  9-C , 10-H ) :   0.8795 B(  9-C , 11-O ) :   1.0380
B(  9-C , 12-O ) :   1.1031 B( 12-O , 19-H ) :   0.8418 B( 13-O , 20-H ) :   0.8310
B( 14-O , 21-H ) :   0.8375 B( 15-O , 22-H ) :   0.8382 B( 16-O , 23-H ) :   0.8510

Dispersion correction           -0.023909628
FINAL SINGLE POINT ENERGY      -685.699489196913

DIPOLE MOMENT
-------------

Method             : SCF
Type of density    : Electron Density
Multiplicity       :   1
Irrep              :   0
Energy             :  -685.8300571632266838 Eh
Relativity type    :
Basis              : AO
                                X                 Y                 Z
Electronic contribution:      2.342382387      -0.214369328      -1.081013370
Nuclear contribution   :     -2.618162803      -0.184529932       0.893462917
                        -----------------------------------------
Total Dipole Moment    :     -0.275780416      -0.398899260      -0.187550453
                        -----------------------------------------
Magnitude (a.u.)       :      0.519952526
Magnitude (Debye)      :      1.321614291

Rotational constants in cm-1:             0.039386             0.027157             0.017942
Rotational constants in MHz :          1180.755302           814.156172           537.891545

                             ****ORCA TERMINATED NORMALLY****
TOTAL RUN TIME: 0 days 0 hours 0 minutes 9 seconds 758 msec
