                         Program Version 6.0.1  -  RELEASE   -
|  1> ! pbe def2-sv(p) def2/J RI DEFGRID1 loosescf d4 GCP(DFT/SV(P)) printgap
|  2> %output
|  3>     printlevel normal
|  4> end
|  5> * xyz 0 1
|  6> C -2.5416392664 -0.6503215976 1.150054501
|  7> C -2.0303130744 -0.4303006425 -0.2780967952
|  8> H -2.9041147275 -0.4268455134 -0.9406605138
|  9> C -1.0598232082 -1.517015999 -0.7339796523
| 10> C 0.2563141564 -1.5018777525 0.047630478
| 11> C 0.7781172115 -0.0743007192 0.3114934078
| 12> H 0.5267978917 0.2079272657 1.3389318574
| 13> C 0.0886279558 0.9436596195 -0.6095665523
| 14> C -1.3995470633 0.947908813 -0.3709747106
| 15> O -2.0416768578 1.9611382833 -0.2454217246
| 16> C 2.2821643287 0.021299641 0.1585872873
| 17> C 2.8948741459 -0.254453592 -0.9814190053
| 18> C 3.0270862857 0.4627111833 1.3799968594
| 19> H -3.0684747306 -1.5995635308 1.217240131
| 20> H -1.7206308953 -0.6577578837 1.8619055474
| 21> H -3.2249654395 0.1503700242 1.4220416442
| 22> H -1.5319962035 -2.4955027855 -0.6240407983
| 23> H -0.8539366413 -1.3761709221 -1.7973216883
| 24> H 0.1218624413 -2.0141983595 1.0014664361
| 25> H 1.000989093 -2.0671310206 -0.5146975241
| 26> H 0.4846648328 1.9461182583 -0.4377276965
| 27> H 0.2723292219 0.684074744 -1.6537911634
| 28> H 3.9637153617 -0.1791754142 -1.0832676004
| 29> H 2.3602075068 -0.5685329325 -1.8620406882
| 30> H 2.8551533031 -0.2373729671 2.1975218742
| 31> H 4.0952583138 0.5223510429 1.1896962925
| 32> H 2.6732573331 1.4419351476 1.7019872093
| 33> *
| 34>
| 35>                          ****END OF INPUT****

CARTESIAN COORDINATES (ANGSTROEM)
---------------------------------
  C     -2.541639   -0.650322    1.150055
  C     -2.030313   -0.430301   -0.278097
  H     -2.904115   -0.426846   -0.940661
  C     -1.059823   -1.517016   -0.733980
  C      0.256314   -1.501878    0.047630
  C      0.778117   -0.074301    0.311493
  H      0.526798    0.207927    1.338932
  C      0.088628    0.943660   -0.609567
  C     -1.399547    0.947909   -0.370975
  O     -2.041677    1.961138   -0.245422
  C      2.282164    0.021300    0.158587
  C      2.894874   -0.254454   -0.981419
  C      3.027086    0.462711    1.379997
  H     -3.068475   -1.599564    1.217240
  H     -1.720631   -0.657758    1.861906
  H     -3.224965    0.150370    1.422042
  H     -1.531996   -2.495503   -0.624041
  H     -0.853937   -1.376171   -1.797322
  H      0.121862   -2.014198    1.001466
  H      1.000989   -2.067131   -0.514698
  H      0.484665    1.946118   -0.437728
  H      0.272329    0.684075   -1.653791
  H      3.963715   -0.179175   -1.083268
  H      2.360208   -0.568533   -1.862041
  H      2.855153   -0.237373    2.197522
  H      4.095258    0.522351    1.189696
  H      2.673257    1.441935    1.701987

 Total Charge           Charge          ....    0
 Multiplicity           Mult            ....    1
 Number of Electrons    NEL             ....   84
 Basis Dimension        Dim             ....  186

ORBITAL ENERGIES
----------------

  NO   OCC          E(Eh)            E(eV)
   0   2.0000     -18.738182      -509.8919
   1   2.0000      -9.968019      -271.2436
   2   2.0000      -9.908490      -269.6237
   3   2.0000      -9.904606      -269.5180
   4   2.0000      -9.900874      -269.4165
   5   2.0000      -9.893143      -269.2061
   6   2.0000      -9.893076      -269.2043
   7   2.0000      -9.891600      -269.1641
   8   2.0000      -9.887219      -269.0449
   9   2.0000      -9.885657      -269.0024
  10   2.0000      -9.876624      -268.7566
  11   2.0000      -0.938060       -25.5259
  12   2.0000      -0.773113       -21.0375
  13   2.0000      -0.730458       -19.8768
  14   2.0000      -0.682431       -18.5699
  15   2.0000      -0.658479       -17.9181
  16   2.0000      -0.619427       -16.8555
  17   2.0000      -0.612824       -16.6758
  18   2.0000      -0.554452       -15.0874
  19   2.0000      -0.532938       -14.5020
  20   2.0000      -0.472481       -12.8569
  21   2.0000      -0.459714       -12.5095
  22   2.0000      -0.445249       -12.1158
  23   2.0000      -0.423775       -11.5315
  24   2.0000      -0.412256       -11.2180
  25   2.0000      -0.405810       -11.0426
  26   2.0000      -0.389811       -10.6073
  27   2.0000      -0.376868       -10.2551
  28   2.0000      -0.371458       -10.1079
  29   2.0000      -0.362430        -9.8622
  30   2.0000      -0.356805        -9.7092
  31   2.0000      -0.344102        -9.3635
  32   2.0000      -0.343045        -9.3347
  33   2.0000      -0.327564        -8.9135
  34   2.0000      -0.320466        -8.7203
  35   2.0000      -0.315772        -8.5926
  36   2.0000      -0.309391        -8.4190
  37   2.0000      -0.289813        -7.8862
  38   2.0000      -0.279019        -7.5925
  39   2.0000      -0.274727        -7.4757
  40   2.0000      -0.222174        -6.0457
  41   2.0000      -0.189248        -5.1497
  42   0.0000      -0.051861        -1.4112
  43   0.0000      -0.017424        -0.4741
  44   0.0000       0.022526         0.6130
  45   0.0000       0.035572         0.9680
  46   0.0000       0.053064         1.4440

MULLIKEN ATOMIC CHARGES
-----------------------
   0 C :   -0.254867
   1 C :   -0.179968
   2 H :    0.091317
   3 C :   -0.088918
   4 C :   -0.121998
   5 C :   -0.191010
   6 H :    0.064746
   7 C :   -0.057180
   8 C :    0.012422
   9 O :   -0.155061
  10 C :   -0.021039
  11 C :   -0.249054
  12 C :   -0.211807
  13 H :    0.106051
  14 H :    0.106769
  15 H :    0.119760
  16 H :    0.085963
  17 H :    0.076223
  18 H :    0.086003
  19 H :    0.092469
  20 H :    0.089723
  21 H :    0.100705
  22 H :    0.087304
  23 H :    0.089903
  24 H :    0.110698
  25 H :    0.097035
  26 H :    0.113813
Sum of atomic charges:   -0.0000000

LOEWDIN ATOMIC CHARGES
----------------------
   0 C :   -0.319707
   1 C :   -0.176322
   2 H :    0.137440
   3 C :   -0.219959
   4 C :   -0.216058
   5 C :   -0.129755
   6 H :    0.118139
   7 C :   -0.228950
   8 C :    0.050094
   9 O :   -0.122962
  10 C :   -0.044614
  11 C :   -0.267764
  12 C :   -0.321110
  13 H :    0.121756
  14 H :    0.117845
  15 H :    0.128564
  16 H :    0.121729
  17 H :    0.116898
  18 H :    0.119770
  19 H :    0.124822
  20 H :    0.131892
  21 H :    0.139941
  22 H :    0.120709
  23 H :    0.115040
  24 H :    0.129025
  25 H :    0.123543
  26 H :    0.129993

  Mayer bond orders larger than 0.100000
B(  0-C ,  1-C ) :   1.0953 B(  0-C , 13-H ) :   0.9477 B(  0-C , 14-H ) :   0.9451
B(  0-C , 15-H ) :   0.9427 B(  1-C ,  2-H ) :   0.8709 B(  1-C ,  3-C ) :   1.1009
B(  1-C ,  8-C ) :   0.9191 B(  3-C ,  4-C ) :   1.1558 B(  3-C , 16-H ) :   0.9102
B(  3-C , 17-H ) :   0.8933 B(  4-C ,  5-C ) :   1.0624 B(  4-C , 18-H ) :   0.9140
B(  4-C , 19-H ) :   0.9060 B(  5-C ,  6-H ) :   0.8835 B(  5-C ,  7-C ) :   1.1129
B(  5-C , 10-C ) :   0.9850 B(  7-C ,  8-C ) :   1.0631 B(  7-C , 20-H ) :   0.8975
B(  7-C , 21-H ) :   0.8513 B(  8-C ,  9-O ) :   2.1950 B( 10-C , 11-C ) :   2.0372
B( 10-C , 12-C ) :   1.1400 B( 11-C , 22-H ) :   0.9031 B( 11-C , 23-H ) :   0.9052
B( 12-C , 24-H ) :   0.9276 B( 12-C , 25-H ) :   0.9394 B( 12-C , 26-H ) :   0.9273

Dispersion correction           -0.028704081
FINAL SINGLE POINT ENERGY      -464.822223304574

DIPOLE MOMENT
-------------

Method             : SCF
Type of density    : Electron Density
Multiplicity       :   1
Irrep              :   0
Energy             :  -464.9075226888219277 Eh
Relativity type    :
Basis              : AO
                                X                 Y                 Z
Electronic contribution:     -4.231918697       5.359118745      -2.714541790
Nuclear contribution   :      4.707574936      -6.227996900       2.827037441
                        -----------------------------------------
Total Dipole Moment    :      0.475656239      -0.868878155       0.112495651
                        -----------------------------------------
Magnitude (a.u.)       :      0.996921951
Magnitude (Debye)      :      2.533974222

Rotational constants in cm-1:             0.061934             0.024071             0.021660
Rotational constants in MHz :          1856.721297           721.635247           649.362659

                             ****ORCA TERMINATED NORMALLY****
TOTAL RUN TIME: 0 days 0 hours 0 minutes 26 seconds 917 msec
