                         Program Version 6.0.1  -  RELEASE   -
|  1> ! pbe def2-sv(p) def2/J RI DEFGRID1 loosescf d4 GCP(DFT/SV(P)) printgap
|  2> %output
|  3>     printlevel normal
|  4> end
|  5> * xyz 0 1
|  6> C -2.4858335481 -0.7398316688 1.2457345179
|  7> C -2.05350579 -0.4171593247 -0.1904280778
|  8> H -2.960397224 -0.3242979496 -0.7961241353
|  9> C -1.1383492181 -1.5099315081 -0.7775181432
| 10> C 0.2845987815 -1.0132404216 -1.0190967678
| 11> C 0.7961170835 -0.2920595526 0.2308815811
| 12> H 0.5954478088 -0.9373487541 1.0920261444
| 13> C 0.0094729693 1.0178301509 0.3779061091
| 14> C -1.3962154862 0.9498445648 -0.1712225499
| 15> O -1.9826298971 1.9399549651 -0.5339988347
| 16> C 2.2858134221 -0.0304066996 0.1780645549
| 17> C 2.8548248202 0.6239757266 -0.8215317974
| 18> C 3.0744748607 -0.5618586863 1.3356040682
| 19> H -3.1198424253 0.0538803299 1.635558221
| 20> H -3.0512629205 -1.6691404951 1.2615214432
| 21> H -1.6240671228 -0.8472689627 1.8995767897
| 22> H -1.1065665562 -2.358026718 -0.0899577165
| 23> H -1.555291686 -1.8699575879 -1.7192491565
| 24> H 0.9331127276 -1.857588151 -1.2596849773
| 25> H 0.2999316599 -0.3254945338 -1.8661754464
| 26> H -0.0640825209 1.3111197874 1.4287666812
| 27> H 0.5246466355 1.8311804158 -0.1378290687
| 28> H 3.9157857894 0.8044447864 -0.8485233932
| 29> H 2.2911182751 1.0067039323 -1.6548824812
| 30> H 2.9665030245 -1.6446593044 1.399206848
| 31> H 4.1296103316 -0.3226039428 1.2351891461
| 32> H 2.7063628964 -0.1357580381 2.268846491
| 33> *
| 34>
| 35>                          ****END OF INPUT****

CARTESIAN COORDINATES (ANGSTROEM)
---------------------------------
  C     -2.485834   -0.739832    1.245735
  C     -2.053506   -0.417159   -0.190428
  H     -2.960397   -0.324298   -0.796124
  C     -1.138349   -1.509932   -0.777518
  C      0.284599   -1.013240   -1.019097
  C      0.796117   -0.292060    0.230882
  H      0.595448   -0.937349    1.092026
  C      0.009473    1.017830    0.377906
  C     -1.396215    0.949845   -0.171223
  O     -1.982630    1.939955   -0.533999
  C      2.285813   -0.030407    0.178065
  C      2.854825    0.623976   -0.821532
  C      3.074475   -0.561859    1.335604
  H     -3.119842    0.053880    1.635558
  H     -3.051263   -1.669140    1.261521
  H     -1.624067   -0.847269    1.899577
  H     -1.106567   -2.358027   -0.089958
  H     -1.555292   -1.869958   -1.719249
  H      0.933113   -1.857588   -1.259685
  H      0.299932   -0.325495   -1.866175
  H     -0.064083    1.311120    1.428767
  H      0.524647    1.831180   -0.137829
  H      3.915786    0.804445   -0.848523
  H      2.291118    1.006704   -1.654882
  H      2.966503   -1.644659    1.399207
  H      4.129610   -0.322604    1.235189
  H      2.706363   -0.135758    2.268846

 Total Charge           Charge          ....    0
 Multiplicity           Mult            ....    1
 Number of Electrons    NEL             ....   84
 Basis Dimension        Dim             ....  186

ORBITAL ENERGIES
----------------

  NO   OCC          E(Eh)            E(eV)
   0   2.0000     -18.731594      -509.7126
   1   2.0000      -9.967714      -271.2353
   2   2.0000      -9.907652      -269.6009
   3   2.0000      -9.902982      -269.4738
   4   2.0000      -9.900776      -269.4138
   5   2.0000      -9.894462      -269.2420
   6   2.0000      -9.893872      -269.2259
   7   2.0000      -9.892978      -269.2016
   8   2.0000      -9.890522      -269.1348
   9   2.0000      -9.885649      -269.0022
  10   2.0000      -9.871098      -268.6062
  11   2.0000      -0.935007       -25.4428
  12   2.0000      -0.773318       -21.0431
  13   2.0000      -0.729505       -19.8508
  14   2.0000      -0.683377       -18.5956
  15   2.0000      -0.664100       -18.0711
  16   2.0000      -0.617662       -16.8074
  17   2.0000      -0.602616       -16.3980
  18   2.0000      -0.555277       -15.1098
  19   2.0000      -0.541390       -14.7320
  20   2.0000      -0.476097       -12.9553
  21   2.0000      -0.461980       -12.5711
  22   2.0000      -0.438099       -11.9213
  23   2.0000      -0.418350       -11.3839
  24   2.0000      -0.416524       -11.3342
  25   2.0000      -0.401553       -10.9268
  26   2.0000      -0.389923       -10.6103
  27   2.0000      -0.378274       -10.2934
  28   2.0000      -0.368772       -10.0348
  29   2.0000      -0.365369        -9.9422
  30   2.0000      -0.354662        -9.6508
  31   2.0000      -0.349418        -9.5082
  32   2.0000      -0.344544        -9.3755
  33   2.0000      -0.327505        -8.9119
  34   2.0000      -0.322416        -8.7734
  35   2.0000      -0.312690        -8.5087
  36   2.0000      -0.304336        -8.2814
  37   2.0000      -0.291707        -7.9377
  38   2.0000      -0.280834        -7.6419
  39   2.0000      -0.275622        -7.5001
  40   2.0000      -0.219515        -5.9733
  41   2.0000      -0.186768        -5.0822
  42   0.0000      -0.047511        -1.2928
  43   0.0000      -0.017649        -0.4803
  44   0.0000       0.022801         0.6205
  45   0.0000       0.044659         1.2152
  46   0.0000       0.054559         1.4846

MULLIKEN ATOMIC CHARGES
-----------------------
   0 C :   -0.279352
   1 C :   -0.136903
   2 H :    0.072676
   3 C :   -0.085704
   4 C :   -0.132031
   5 C :   -0.158380
   6 H :    0.052896
   7 C :   -0.100994
   8 C :   -0.012832
   9 O :   -0.148885
  10 C :   -0.015755
  11 C :   -0.253965
  12 C :   -0.215037
  13 H :    0.117270
  14 H :    0.117165
  15 H :    0.110771
  16 H :    0.073219
  17 H :    0.090396
  18 H :    0.092245
  19 H :    0.093831
  20 H :    0.112945
  21 H :    0.105149
  22 H :    0.086540
  23 H :    0.096353
  24 H :    0.111434
  25 H :    0.097600
  26 H :    0.109346
Sum of atomic charges:    0.0000000

LOEWDIN ATOMIC CHARGES
----------------------
   0 C :   -0.320645
   1 C :   -0.171423
   2 H :    0.128782
   3 C :   -0.214094
   4 C :   -0.210618
   5 C :   -0.135048
   6 H :    0.114520
   7 C :   -0.233669
   8 C :    0.044807
   9 O :   -0.123205
  10 C :   -0.047961
  11 C :   -0.265659
  12 C :   -0.322134
  13 H :    0.125780
  14 H :    0.125207
  15 H :    0.117019
  16 H :    0.116443
  17 H :    0.124344
  18 H :    0.122131
  19 H :    0.121095
  20 H :    0.144924
  21 H :    0.140911
  22 H :    0.120111
  23 H :    0.117879
  24 H :    0.128554
  25 H :    0.123879
  26 H :    0.128072

  Mayer bond orders larger than 0.100000
B(  0-C ,  1-C ) :   1.0845 B(  0-C , 13-H ) :   0.9448 B(  0-C , 14-H ) :   0.9431
B(  0-C , 15-H ) :   0.9455 B(  1-C ,  2-H ) :   0.8752 B(  1-C ,  3-C ) :   1.0271
B(  1-C ,  8-C ) :   1.0099 B(  3-C ,  4-C ) :   1.1822 B(  3-C , 16-H ) :   0.9070
B(  3-C , 17-H ) :   0.9094 B(  4-C ,  5-C ) :   1.1242 B(  4-C , 18-H ) :   0.9219
B(  4-C , 19-H ) :   0.8830 B(  5-C ,  6-H ) :   0.8674 B(  5-C ,  7-C ) :   1.0465
B(  5-C , 10-C ) :   0.9916 B(  7-C ,  8-C ) :   1.0027 B(  7-C , 20-H ) :   0.8809
B(  7-C , 21-H ) :   0.8842 B(  8-C ,  9-O ) :   2.2017 B( 10-C , 11-C ) :   2.0354
B( 10-C , 12-C ) :   1.1395 B( 11-C , 22-H ) :   0.9028 B( 11-C , 23-H ) :   0.9067
B( 12-C , 24-H ) :   0.9278 B( 12-C , 25-H ) :   0.9390 B( 12-C , 26-H ) :   0.9287

Dispersion correction           -0.028544796
FINAL SINGLE POINT ENERGY      -464.820665495682

DIPOLE MOMENT
-------------

Method             : SCF
Type of density    : Electron Density
Multiplicity       :   1
Irrep              :   0
Energy             :  -464.9059431730654524 Eh
Relativity type    :
Basis              : AO
                                X                 Y                 Z
Electronic contribution:     -4.114161200       5.840248287      -3.141343033
Nuclear contribution   :      4.549799091      -6.805602744       3.602395300
                        -----------------------------------------
Total Dipole Moment    :      0.435637891      -0.965354457       0.461052268
                        -----------------------------------------
Magnitude (a.u.)       :      1.155101205
Magnitude (Debye)      :      2.936033932

Rotational constants in cm-1:             0.061461             0.023892             0.021830
Rotational constants in MHz :          1842.560505           716.252054           654.446669

                             ****ORCA TERMINATED NORMALLY****
TOTAL RUN TIME: 0 days 0 hours 0 minutes 26 seconds 136 msec
