                         Program Version 6.0.1  -  RELEASE   -
|  1> ! pbe def2-sv(p) def2/J RI DEFGRID1 loosescf d4 GCP(DFT/SV(P)) printgap
|  2> %output
|  3>     printlevel normal
|  4> end
|  5> * xyz 0 1
|  6> C 1.0828662077 -1.499418061 0.4017559907
|  7> C 0.7507197517 -0.0082282661 0.4007070392
|  8> C 1.5846616003 0.7595349795 -0.6459360455
|  9> C -0.7243736578 0.2520080797 0.1331055377
| 10> O -1.3631215897 1.0183991368 0.8090969712
| 11> C -1.3313649656 -0.4904042366 -1.0304328348
| 12> H 2.1207994056 -1.6417047759 0.6949479541
| 13> H 0.4537441407 -2.030660119 1.112872912
| 14> H 0.9437918624 -1.9371546058 -0.5833195873
| 15> H 0.9634319139 0.3957822039 1.3951068262
| 16> H 2.2728808594 0.0882300459 -1.1537721557
| 17> H 2.1637388116 1.548085646 -0.1743840101
| 18> H 0.9484632482 1.2242539512 -1.3963563056
| 19> H -0.6406027938 -0.5555855858 -1.8656476381
| 20> H -2.2509789829 -0.0006884665 -1.3403562975
| 21> H -1.5739064944 -1.5005528496 -0.7046820602
| 22> *
| 23>
| 24>                          ****END OF INPUT****

CARTESIAN COORDINATES (ANGSTROEM)
---------------------------------
  C      1.082866   -1.499418    0.401756
  C      0.750720   -0.008228    0.400707
  C      1.584662    0.759535   -0.645936
  C     -0.724374    0.252008    0.133106
  O     -1.363122    1.018399    0.809097
  C     -1.331365   -0.490404   -1.030433
  H      2.120799   -1.641705    0.694948
  H      0.453744   -2.030660    1.112873
  H      0.943792   -1.937155   -0.583320
  H      0.963432    0.395782    1.395107
  H      2.272881    0.088230   -1.153772
  H      2.163739    1.548086   -0.174384
  H      0.948463    1.224254   -1.396356
  H     -0.640603   -0.555586   -1.865648
  H     -2.250979   -0.000688   -1.340356
  H     -1.573906   -1.500553   -0.704682

 Total Charge           Charge          ....    0
 Multiplicity           Mult            ....    1
 Number of Electrons    NEL             ....   48
 Basis Dimension        Dim             ....  104

ORBITAL ENERGIES
----------------

  NO   OCC          E(Eh)            E(eV)
   0   2.0000     -18.733573      -509.7664
   1   2.0000      -9.968657      -271.2609
   2   2.0000      -9.901552      -269.4349
   3   2.0000      -9.888254      -269.0731
   4   2.0000      -9.887487      -269.0522
   5   2.0000      -9.885665      -269.0026
   6   2.0000      -0.936270       -25.4772
   7   2.0000      -0.732976       -19.9453
   8   2.0000      -0.660415       -17.9708
   9   2.0000      -0.624509       -16.9937
  10   2.0000      -0.556867       -15.1531
  11   2.0000      -0.466866       -12.7041
  12   2.0000      -0.419647       -11.4192
  13   2.0000      -0.413303       -11.2465
  14   2.0000      -0.405528       -11.0350
  15   2.0000      -0.370878       -10.0921
  16   2.0000      -0.364435        -9.9168
  17   2.0000      -0.357324        -9.7233
  18   2.0000      -0.349866        -9.5203
  19   2.0000      -0.321863        -8.7583
  20   2.0000      -0.320789        -8.7291
  21   2.0000      -0.299134        -8.1399
  22   2.0000      -0.295724        -8.0471
  23   2.0000      -0.189797        -5.1646
  24   0.0000      -0.042549        -1.1578
  25   0.0000       0.028385         0.7724
  26   0.0000       0.062468         1.6998
  27   0.0000       0.074561         2.0289
  28   0.0000       0.082841         2.2542

MULLIKEN ATOMIC CHARGES
-----------------------
   0 C :   -0.267554
   1 C :   -0.154043
   2 C :   -0.260247
   3 C :   -0.013088
   4 O :   -0.154638
   5 C :   -0.271263
   6 H :    0.112353
   7 H :    0.112291
   8 H :    0.106238
   9 H :    0.082198
  10 H :    0.101763
  11 H :    0.117079
  12 H :    0.117486
  13 H :    0.120036
  14 H :    0.119557
  15 H :    0.131832
Sum of atomic charges:   -0.0000000

LOEWDIN ATOMIC CHARGES
----------------------
   0 C :   -0.329697
   1 C :   -0.179936
   2 C :   -0.324823
   3 C :    0.040477
   4 O :   -0.123812
   5 C :   -0.364866
   6 H :    0.124596
   7 H :    0.121639
   8 H :    0.117616
   9 H :    0.126327
  10 H :    0.122168
  11 H :    0.130973
  12 H :    0.124140
  13 H :    0.131766
  14 H :    0.136064
  15 H :    0.147368

  Mayer bond orders larger than 0.100000
B(  0-C ,  1-C ) :   1.1110 B(  0-C ,  6-H ) :   0.9434 B(  0-C ,  7-H ) :   0.9537
B(  0-C ,  8-H ) :   0.9352 B(  1-C ,  2-C ) :   1.0551 B(  1-C ,  3-C ) :   0.9602
B(  1-C ,  9-H ) :   0.8961 B(  2-C , 10-H ) :   0.9515 B(  2-C , 11-H ) :   0.9507
B(  2-C , 12-H ) :   0.9518 B(  3-C ,  4-O ) :   2.2136 B(  3-C ,  5-C ) :   1.0530
B(  5-C , 13-H ) :   0.9287 B(  5-C , 14-H ) :   0.9318 B(  5-C , 15-H ) :   0.9169

Dispersion correction           -0.012015647
FINAL SINGLE POINT ENERGY      -271.136905035155

DIPOLE MOMENT
-------------

Method             : SCF
Type of density    : Electron Density
Multiplicity       :   1
Irrep              :   0
Energy             :  -271.1905840197979387 Eh
Relativity type    :
Basis              : AO
                                X                 Y                 Z
Electronic contribution:     -4.441195075       3.493044223       3.208385063
Nuclear contribution   :      5.047152398      -4.122198931      -3.755287086
                        -----------------------------------------
Total Dipole Moment    :      0.605957323      -0.629154708      -0.546902023
                        -----------------------------------------
Magnitude (a.u.)       :      1.030592910
Magnitude (Debye)      :      2.619558998

Rotational constants in cm-1:             0.151881             0.091405             0.081774
Rotational constants in MHz :          4553.273526          2740.258921          2451.533489

                             ****ORCA TERMINATED NORMALLY****
TOTAL RUN TIME: 0 days 0 hours 0 minutes 4 seconds 823 msec
