                         Program Version 6.0.1  -  RELEASE   -
|  1> ! r2scan-3c def2/J RI DEFGRID2 scfconv6 printgap
|  2> %output
|  3>     printlevel normal
|  4> end
|  5> * xyz 0 1
|  6> C 1.5307893726 1.1930340341 1.92496e-05
|  7> C 0.1485580833 1.2361422305 -0.0001370579
|  8> C -0.5528196961 0.0288663312 -7.29183e-05
|  9> C 0.1794414894 -1.163911088 -0.0001780036
| 10> N 1.495044461 -1.1942746839 3.98307e-05
| 11> C 2.1549281695 -0.0478462718 0.0002295343
| 12> C -1.96534359 0.0035029708 -9.36602e-05
| 13> N -3.1111436389 -0.0229630324 0.0002271922
| 14> H 2.1124856886 2.1013166712 -0.0001643106
| 15> H -0.3860686128 2.175166049 -0.0003619018
| 16> H -0.3232778855 -2.1220049305 -0.0006272508
| 17> H 3.2333518465 -0.1321765991 0.0002175804
| 18> *
| 19>
| 20>                          ****END OF INPUT****

CARTESIAN COORDINATES (ANGSTROEM)
---------------------------------
  C      1.530789    1.193034    0.000019
  C      0.148558    1.236142   -0.000137
  C     -0.552820    0.028866   -0.000073
  C      0.179441   -1.163911   -0.000178
  N      1.495044   -1.194275    0.000040
  C      2.154928   -0.047846    0.000230
  C     -1.965344    0.003503   -0.000094
  N     -3.111144   -0.022963    0.000227
  H      2.112486    2.101317   -0.000164
  H     -0.386069    2.175166   -0.000362
  H     -0.323278   -2.122005   -0.000627
  H      3.233352   -0.132177    0.000218

 Total Charge           Charge          ....    0
 Multiplicity           Mult            ....    1
 Number of Electrons    NEL             ....   54
 Basis Dimension        Dim             ....  182

ORBITAL ENERGIES
----------------

  NO   OCC          E(Eh)            E(eV)
   0   2.0000     -14.185320      -386.0022
   1   2.0000     -14.168088      -385.5333
   2   2.0000     -10.104151      -274.9479
   3   2.0000     -10.103676      -274.9350
   4   2.0000     -10.099006      -274.8079
   5   2.0000     -10.091280      -274.5977
   6   2.0000     -10.080674      -274.3091
   7   2.0000     -10.076088      -274.1843
   8   2.0000      -0.950155       -25.8550
   9   2.0000      -0.890947       -24.2439
  10   2.0000      -0.817058       -22.2333
  11   2.0000      -0.774784       -21.0830
  12   2.0000      -0.660383       -17.9699
  13   2.0000      -0.635018       -17.2797
  14   2.0000      -0.554367       -15.0851
  15   2.0000      -0.504932       -13.7399
  16   2.0000      -0.493084       -13.4175
  17   2.0000      -0.440290       -11.9809
  18   2.0000      -0.418087       -11.3767
  19   2.0000      -0.407216       -11.0809
  20   2.0000      -0.378840       -10.3088
  21   2.0000      -0.355977        -9.6866
  22   2.0000      -0.340426        -9.2635
  23   2.0000      -0.328409        -8.9365
  24   2.0000      -0.300352        -8.1730
  25   2.0000      -0.271235        -7.3807
  26   2.0000      -0.252581        -6.8731
  27   0.0000      -0.099559        -2.7091
  28   0.0000      -0.080361        -2.1867
  29   0.0000      -0.006186        -0.1683
  30   0.0000       0.028954         0.7879
  31   0.0000       0.050284         1.3683

MULLIKEN ATOMIC CHARGES
-----------------------
   0 C :   -0.107262
   1 C :   -0.168934
   2 C :    0.131981
   3 C :   -0.147749
   4 N :   -0.178707
   5 C :   -0.060135
   6 C :    0.149015
   7 N :   -0.231439
   8 H :    0.155846
   9 H :    0.166032
  10 H :    0.150135
  11 H :    0.141217
Sum of atomic charges:   -0.0000000

LOEWDIN ATOMIC CHARGES
----------------------
   0 C :   -0.132050
   1 C :   -0.075709
   2 C :   -0.053229
   3 C :    0.129531
   4 N :   -0.594280
   5 C :    0.102766
   6 C :    0.158926
   7 N :   -0.285397
   8 H :    0.176535
   9 H :    0.184064
  10 H :    0.198732
  11 H :    0.190111

  Mayer bond orders larger than 0.100000
B(  0-C ,  1-C ) :   1.4180 B(  0-C ,  5-C ) :   1.3425 B(  0-C ,  8-H ) :   0.9418
B(  1-C ,  2-C ) :   1.3318 B(  1-C ,  9-H ) :   0.9493 B(  2-C ,  3-C ) :   1.2524
B(  2-C ,  6-C ) :   1.0567 B(  3-C ,  4-N ) :   1.4921 B(  3-C , 10-H ) :   0.9954
B(  4-N ,  5-C ) :   1.4501 B(  5-C , 11-H ) :   0.9788 B(  6-C ,  7-N ) :   2.8297

Dispersion correction           -0.003886756
FINAL SINGLE POINT ENERGY      -340.437241729411

DIPOLE MOMENT
-------------

Method             : SCF
Type of density    : Electron Density
Multiplicity       :   1
Irrep              :   0
Energy             :  -340.4382365800935304 Eh
Relativity type    :
Basis              : AO
                                X                 Y                 Z
Electronic contribution:     -2.966486032      -1.115960798       0.000480237
Nuclear contribution   :      4.340948013       1.890578268      -0.000876552
                        -----------------------------------------
Total Dipole Moment    :      1.374461981       0.774617470      -0.000396316
                        -----------------------------------------
Magnitude (a.u.)       :      1.577712939
Magnitude (Debye)      :      4.010227592

Rotational constants in cm-1:             0.197120             0.053210             0.041900
Rotational constants in MHz :          5909.497433          1595.193859          1256.120176

                             ****ORCA TERMINATED NORMALLY****
TOTAL RUN TIME: 0 days 0 hours 0 minutes 16 seconds 53 msec
