                         Program Version 6.0.1  -  RELEASE   -
|  1> ! pbe def2-sv(p) def2/J RI DEFGRID1 loosescf d4 GCP(DFT/SV(P)) printgap
|  2> %output
|  3>     printlevel normal
|  4> end
|  5> * xyz 0 1
|  6> C -1.265637519 1.2549772695 0.7262593467
|  7> C -0.5221630231 0.3127254189 0.0302155997
|  8> C -1.1732394818 -0.7512408547 -0.5930163142
|  9> C -2.5587943253 -0.8749966463 -0.507388113
| 10> C -3.2998154495 0.0707917653 0.2012749708
| 11> C -2.6432426407 1.1378075902 0.8144815436
| 12> Cl -3.5450335928 2.3106142872 1.6818103272
| 13> Cl -5.002109223 -0.0804648345 0.3088803295
| 14> Cl -3.3540781917 -2.1841102487 -1.2732267413
| 15> Cl -0.2699683116 -1.8997988939 -1.4929091823
| 16> C 0.9487445897 0.4404306718 -0.0615803914
| 17> C 1.5351899759 1.4426628729 -0.8328535348
| 18> C 2.9118036244 1.5562718187 -0.9394415293
| 19> C 3.7256355327 0.659699444 -0.2647683947
| 20> C 3.1688877797 -0.3491667367 0.5222334679
| 21> C 1.7816714752 -0.4484899761 0.6166990716
| 22> Cl 1.0836571962 -1.6664761635 1.6011651961
| 23> Cl 4.1739432131 -1.4523669007 1.3642830981
| 24> Cl 5.4283384964 0.7956001783 -0.3971783737
| 25> Cl 0.5279356513 2.5434075271 -1.6856743046
| 26> H -0.7675028285 2.0816220909 1.2067177157
| 27> H 3.349598623 2.3327120821 -1.5450680163
| 28> *
| 29>
| 30>                          ****END OF INPUT****

CARTESIAN COORDINATES (ANGSTROEM)
---------------------------------
  C     -1.265638    1.254977    0.726259
  C     -0.522163    0.312725    0.030216
  C     -1.173239   -0.751241   -0.593016
  C     -2.558794   -0.874997   -0.507388
  C     -3.299815    0.070792    0.201275
  C     -2.643243    1.137808    0.814482
  Cl    -3.545034    2.310614    1.681810
  Cl    -5.002109   -0.080465    0.308880
  Cl    -3.354078   -2.184110   -1.273227
  Cl    -0.269968   -1.899799   -1.492909
  C      0.948745    0.440431   -0.061580
  C      1.535190    1.442663   -0.832854
  C      2.911804    1.556272   -0.939442
  C      3.725636    0.659699   -0.264768
  C      3.168888   -0.349167    0.522233
  C      1.781671   -0.448490    0.616699
  Cl     1.083657   -1.666476    1.601165
  Cl     4.173943   -1.452367    1.364283
  Cl     5.428338    0.795600   -0.397178
  Cl     0.527936    2.543408   -1.685674
  H     -0.767503    2.081622    1.206718
  H      3.349599    2.332712   -1.545068

 Total Charge           Charge          ....    0
 Multiplicity           Mult            ....    1
 Number of Electrons    NEL             ....  210
 Basis Dimension        Dim             ....  316

ORBITAL ENERGIES
----------------

  NO   OCC          E(Eh)            E(eV)
   0   2.0000    -100.664222     -2739.2127
   1   2.0000    -100.663986     -2739.2063
   2   2.0000    -100.663886     -2739.2036
   3   2.0000    -100.662264     -2739.1595
   4   2.0000    -100.661578     -2739.1408
   5   2.0000    -100.661083     -2739.1273
   6   2.0000    -100.660794     -2739.1195
   7   2.0000    -100.659153     -2739.0748
   8   2.0000      -9.985183      -271.7106
   9   2.0000      -9.984588      -271.6945
  10   2.0000      -9.982352      -271.6336
  11   2.0000      -9.981375      -271.6070
  12   2.0000      -9.981291      -271.6047
  13   2.0000      -9.981149      -271.6009
  14   2.0000      -9.979051      -271.5438
  15   2.0000      -9.977583      -271.5038
  16   2.0000      -9.949013      -270.7264
  17   2.0000      -9.947080      -270.6738
  18   2.0000      -9.932394      -270.2742
  19   2.0000      -9.930243      -270.2157
  20   2.0000      -9.200004      -250.3448
  21   2.0000      -9.199885      -250.3416
  22   2.0000      -9.199723      -250.3372
  23   2.0000      -9.198088      -250.2927
  24   2.0000      -9.197422      -250.2746
  25   2.0000      -9.196938      -250.2614
  26   2.0000      -9.196456      -250.2483
  27   2.0000      -9.195108      -250.2116
  28   2.0000      -7.031466      -191.3359
  29   2.0000      -7.031438      -191.3352
  30   2.0000      -7.031314      -191.3318
  31   2.0000      -7.029834      -191.2915
  32   2.0000      -7.029152      -191.2730
  33   2.0000      -7.028681      -191.2601
  34   2.0000      -7.028049      -191.2429
  35   2.0000      -7.026679      -191.2057
  36   2.0000      -7.020060      -191.0255
  37   2.0000      -7.019925      -191.0219
  38   2.0000      -7.019784      -191.0180
  39   2.0000      -7.019180      -191.0016
  40   2.0000      -7.018918      -190.9945
  41   2.0000      -7.018735      -190.9895
  42   2.0000      -7.018111      -190.9725
  43   2.0000      -7.017497      -190.9558
  44   2.0000      -7.017010      -190.9426
  45   2.0000      -7.016990      -190.9420
  46   2.0000      -7.016470      -190.9278
  47   2.0000      -7.016294      -190.9231
  48   2.0000      -7.015825      -190.9103
  49   2.0000      -7.015544      -190.9027
  50   2.0000      -7.015112      -190.8909
  51   2.0000      -7.014202      -190.8661
  52   2.0000      -0.878723       -23.9113
  53   2.0000      -0.870152       -23.6781
  54   2.0000      -0.837698       -22.7949
  55   2.0000      -0.832716       -22.6593
  56   2.0000      -0.826854       -22.4998
  57   2.0000      -0.811488       -22.0817
  58   2.0000      -0.793800       -21.6004
  59   2.0000      -0.785769       -21.3819
  60   2.0000      -0.768528       -20.9127
  61   2.0000      -0.757784       -20.6203
  62   2.0000      -0.711388       -19.3578
  63   2.0000      -0.674854       -18.3637
  64   2.0000      -0.668758       -18.1978
  65   2.0000      -0.654832       -17.8189
  66   2.0000      -0.589813       -16.0496
  67   2.0000      -0.574228       -15.6255
  68   2.0000      -0.563316       -15.3286
  69   2.0000      -0.545764       -14.8510
  70   2.0000      -0.498841       -13.5741
  71   2.0000      -0.494422       -13.4539
  72   2.0000      -0.484836       -13.1931
  73   2.0000      -0.473215       -12.8768
  74   2.0000      -0.444484       -12.0950
  75   2.0000      -0.434613       -11.8264
  76   2.0000      -0.423454       -11.5228
  77   2.0000      -0.421975       -11.4825
  78   2.0000      -0.420778       -11.4500
  79   2.0000      -0.413282       -11.2460
  80   2.0000      -0.411770       -11.2048
  81   2.0000      -0.396460       -10.7882
  82   2.0000      -0.380031       -10.3412
  83   2.0000      -0.375602       -10.2206
  84   2.0000      -0.368370       -10.0239
  85   2.0000      -0.359649        -9.7866
  86   2.0000      -0.352343        -9.5877
  87   2.0000      -0.345804        -9.4098
  88   2.0000      -0.333342        -9.0707
  89   2.0000      -0.312467        -8.5027
  90   2.0000      -0.306746        -8.3470
  91   2.0000      -0.304291        -8.2802
  92   2.0000      -0.302519        -8.2320
  93   2.0000      -0.297165        -8.0863
  94   2.0000      -0.294094        -8.0027
  95   2.0000      -0.293658        -7.9908
  96   2.0000      -0.282725        -7.6933
  97   2.0000      -0.281453        -7.6587
  98   2.0000      -0.281244        -7.6530
  99   2.0000      -0.268491        -7.3060
 100   2.0000      -0.263675        -7.1750
 101   2.0000      -0.242488        -6.5984
 102   2.0000      -0.233545        -6.3551
 103   2.0000      -0.228047        -6.2055
 104   2.0000      -0.224551        -6.1103
 105   0.0000      -0.085296        -2.3210
 106   0.0000      -0.074552        -2.0287
 107   0.0000      -0.068248        -1.8571
 108   0.0000      -0.063074        -1.7163
 109   0.0000      -0.053023        -1.4428

MULLIKEN ATOMIC CHARGES
-----------------------
   0 C :   -0.154247
   1 C :   -0.012406
   2 C :    0.062084
   3 C :    0.005146
   4 C :    0.028823
   5 C :    0.086879
   6 Cl:   -0.039481
   7 Cl:   -0.012756
   8 Cl:   -0.013939
   9 Cl:   -0.019625
  10 C :    0.028205
  11 C :    0.083347
  12 C :   -0.154202
  13 C :    0.074475
  14 C :    0.048463
  15 C :   -0.005111
  16 Cl:   -0.012280
  17 Cl:   -0.015495
  18 Cl:   -0.033022
  19 Cl:   -0.041842
  20 H :    0.048692
  21 H :    0.048291
Sum of atomic charges:   -0.0000000

LOEWDIN ATOMIC CHARGES
----------------------
   0 C :   -0.121104
   1 C :   -0.061996
   2 C :   -0.152288
   3 C :   -0.176618
   4 C :   -0.178516
   5 C :   -0.159779
   6 Cl:    0.164745
   7 Cl:    0.177872
   8 Cl:    0.177766
   9 Cl:    0.178614
  10 C :   -0.076557
  11 C :   -0.125187
  12 C :   -0.155125
  13 C :   -0.151568
  14 C :   -0.185996
  15 C :   -0.143357
  16 Cl:    0.187209
  17 Cl:    0.174581
  18 Cl:    0.171616
  19 Cl:    0.172193
  20 H :    0.140464
  21 H :    0.143030

  Mayer bond orders larger than 0.100000
B(  0-C ,  1-C ) :   1.3108 B(  0-C ,  5-C ) :   1.3177 B(  0-C , 20-H ) :   0.9801
B(  1-C ,  2-C ) :   1.3963 B(  1-C , 10-C ) :   0.9556 B(  2-C ,  3-C ) :   1.3930
B(  2-C ,  9-Cl) :   1.1201 B(  3-C ,  4-C ) :   1.4143 B(  3-C ,  8-Cl) :   1.1216
B(  4-C ,  5-C ) :   1.3931 B(  4-C ,  7-Cl) :   1.1213 B(  5-C ,  6-Cl) :   1.0370
B( 10-C , 11-C ) :   1.4144 B( 10-C , 15-C ) :   1.4248 B( 11-C , 12-C ) :   1.2926
B( 11-C , 19-Cl) :   1.0329 B( 12-C , 13-C ) :   1.3199 B( 12-C , 21-H ) :   0.9840
B( 13-C , 14-C ) :   1.3911 B( 13-C , 18-Cl) :   1.0412 B( 14-C , 15-C ) :   1.3820
B( 14-C , 17-Cl) :   1.1210 B( 15-C , 16-Cl) :   1.1276

Dispersion correction           -0.054275182
FINAL SINGLE POINT ENERGY     -4136.515737163866

DIPOLE MOMENT
-------------

Method             : SCF
Type of density    : Electron Density
Multiplicity       :   1
Irrep              :   0
Energy             : -4136.5273799781180060 Eh
Relativity type    :
Basis              : AO
                                X                 Y                 Z
Electronic contribution:     -3.395756942      -5.955918319       0.421282677
Nuclear contribution   :      3.707381706       6.334056757      -0.461250966
                        -----------------------------------------
Total Dipole Moment    :      0.311624764       0.378138438      -0.039968290
                        -----------------------------------------
Magnitude (a.u.)       :      0.491626012
Magnitude (Debye)      :      1.249614014

Rotational constants in cm-1:             0.010564             0.003501             0.003182
Rotational constants in MHz :           316.715697           104.945750            95.403555

                             ****ORCA TERMINATED NORMALLY****
TOTAL RUN TIME: 0 days 0 hours 0 minutes 25 seconds 840 msec
