                         Program Version 6.0.1  -  RELEASE   -
|  1> ! r2scan-3c def2/J RI DEFGRID2 scfconv6 printgap
|  2> %output
|  3>     printlevel normal
|  4> end
|  5> * xyz 0 1
|  6> C 2.3023842121 2.7575580218 0.9739266557
|  7> C 2.265451828 1.749601609 -0.1737414921
|  8> C 3.0916265898 0.4785092857 0.1493896802
|  9> C 2.0539837894 -0.6032696655 0.1423032111
| 10> C 2.1543582671 -1.958162867 0.3704091891
| 11> C 1.0026339213 -2.728599459 0.2993412274
| 12> C -0.2211583522 -2.1529135842 0.0030553175
| 13> C -0.3281634286 -0.7862967231 -0.2213377235
| 14> C 0.8257710567 -0.0144255832 -0.1466514955
| 15> O 0.8947467945 1.3213712627 -0.3375807405
| 16> O -1.5199142029 -0.1641108238 -0.5659868579
| 17> C -2.6464002003 -0.4444633846 0.1431388954
| 18> O -2.7161301027 -1.1864525007 1.0878714698
| 19> N -3.6784098743 0.2460995717 -0.3886891482
| 20> C -5.002960629 0.2138959974 0.175182868
| 21> C 2.7088857181 2.3986055509 -1.4838914888
| 22> H 1.6520839532 3.5985436459 0.747521996
| 23> H 1.9524361866 2.2886141645 1.8908524046
| 24> H 3.3157700947 3.1212906735 1.122230113
| 25> H 3.861036365 0.3003573539 -0.6041469889
| 26> H 3.5822008354 0.5577677223 1.1211073307
| 27> H 3.1083204598 -2.4076479069 0.6001612154
| 28> H 1.0566052974 -3.7916627223 0.4746632751
| 29> H -1.1101693611 -2.760595887 -0.0433016128
| 30> H -3.4820977944 0.8684276305 -1.1556768133
| 31> H -5.7301465371 -0.1109882017 -0.5713028905
| 32> H -5.2922681362 1.1967034182 0.553672527
| 33> H -4.98795947 -0.4977284146 0.9988881952
| 34> H 3.7321255099 2.754903261 -1.3989180581
| 35> H 2.0585232326 3.2372297687 -1.718572541
| 36> H 2.6471817652 1.6770623 -2.2955188365
| 37> *
| 38>
| 39>                          ****END OF INPUT****

CARTESIAN COORDINATES (ANGSTROEM)
---------------------------------
  C      2.302384    2.757558    0.973927
  C      2.265452    1.749602   -0.173741
  C      3.091627    0.478509    0.149390
  C      2.053984   -0.603270    0.142303
  C      2.154358   -1.958163    0.370409
  C      1.002634   -2.728599    0.299341
  C     -0.221158   -2.152914    0.003055
  C     -0.328163   -0.786297   -0.221338
  C      0.825771   -0.014426   -0.146651
  O      0.894747    1.321371   -0.337581
  O     -1.519914   -0.164111   -0.565987
  C     -2.646400   -0.444463    0.143139
  O     -2.716130   -1.186453    1.087871
  N     -3.678410    0.246100   -0.388689
  C     -5.002961    0.213896    0.175183
  C      2.708886    2.398606   -1.483891
  H      1.652084    3.598544    0.747522
  H      1.952436    2.288614    1.890852
  H      3.315770    3.121291    1.122230
  H      3.861036    0.300357   -0.604147
  H      3.582201    0.557768    1.121107
  H      3.108320   -2.407648    0.600161
  H      1.056605   -3.791663    0.474663
  H     -1.110169   -2.760596   -0.043302
  H     -3.482098    0.868428   -1.155677
  H     -5.730147   -0.110988   -0.571303
  H     -5.292268    1.196703    0.553673
  H     -4.987959   -0.497728    0.998888
  H      3.732126    2.754903   -1.398918
  H      2.058523    3.237230   -1.718573
  H      2.647182    1.677062   -2.295519

 Total Charge           Charge          ....    0
 Multiplicity           Mult            ....    1
 Number of Electrons    NEL             ....  118
 Basis Dimension        Dim             ....  399

ORBITAL ENERGIES
----------------

  NO   OCC          E(Eh)            E(eV)
   0   2.0000     -19.000517      -517.0304
   1   2.0000     -18.979269      -516.4522
   2   2.0000     -18.916153      -514.7347
   3   2.0000     -14.188440      -386.0871
   4   2.0000     -10.171180      -276.7719
   5   2.0000     -10.105211      -274.9768
   6   2.0000     -10.092542      -274.6320
   7   2.0000     -10.087040      -274.4823
   8   2.0000     -10.065455      -273.8950
   9   2.0000     -10.043012      -273.2842
  10   2.0000     -10.036781      -273.1147
  11   2.0000     -10.029730      -272.9228
  12   2.0000     -10.029078      -272.9051
  13   2.0000     -10.026764      -272.8421
  14   2.0000     -10.026137      -272.8250
  15   2.0000     -10.024889      -272.7911
  16   2.0000      -1.077919       -29.3317
  17   2.0000      -1.039850       -28.2957
  18   2.0000      -0.984694       -26.7949
  19   2.0000      -0.898473       -24.4487
  20   2.0000      -0.821768       -22.3615
  21   2.0000      -0.782951       -21.3052
  22   2.0000      -0.736711       -20.0469
  23   2.0000      -0.718600       -19.5541
  24   2.0000      -0.676680       -18.4134
  25   2.0000      -0.667165       -18.1545
  26   2.0000      -0.655357       -17.8332
  27   2.0000      -0.599982       -16.3263
  28   2.0000      -0.579387       -15.7659
  29   2.0000      -0.552394       -15.0314
  30   2.0000      -0.542638       -14.7659
  31   2.0000      -0.521433       -14.1889
  32   2.0000      -0.478979       -13.0337
  33   2.0000      -0.455707       -12.4004
  34   2.0000      -0.449514       -12.2319
  35   2.0000      -0.445166       -12.1136
  36   2.0000      -0.441821       -12.0226
  37   2.0000      -0.433431       -11.7943
  38   2.0000      -0.415358       -11.3025
  39   2.0000      -0.408862       -11.1257
  40   2.0000      -0.395322       -10.7573
  41   2.0000      -0.387140       -10.5346
  42   2.0000      -0.382669       -10.4129
  43   2.0000      -0.374169       -10.1817
  44   2.0000      -0.369094       -10.0435
  45   2.0000      -0.362139        -9.8543
  46   2.0000      -0.356954        -9.7132
  47   2.0000      -0.348060        -9.4712
  48   2.0000      -0.340750        -9.2723
  49   2.0000      -0.333467        -9.0741
  50   2.0000      -0.326992        -8.8979
  51   2.0000      -0.315734        -8.5916
  52   2.0000      -0.298157        -8.1133
  53   2.0000      -0.289027        -7.8648
  54   2.0000      -0.283571        -7.7164
  55   2.0000      -0.244181        -6.6445
  56   2.0000      -0.232967        -6.3393
  57   2.0000      -0.215859        -5.8738
  58   2.0000      -0.189047        -5.1442
  59   0.0000      -0.027176        -0.7395
  60   0.0000      -0.008971        -0.2441
  61   0.0000       0.032060         0.8724
  62   0.0000       0.052077         1.4171
  63   0.0000       0.070434         1.9166

MULLIKEN ATOMIC CHARGES
-----------------------
   0 C :   -0.493542
   1 C :    0.306671
   2 C :   -0.466287
   3 C :    0.227999
   4 C :   -0.278899
   5 C :   -0.161926
   6 C :   -0.225897
   7 C :    0.031536
   8 C :    0.078386
   9 O :   -0.171631
  10 O :   -0.151026
  11 C :    0.338778
  12 O :   -0.474820
  13 N :   -0.157673
  14 C :   -0.394394
  15 C :   -0.494216
  16 H :    0.159472
  17 H :    0.159688
  18 H :    0.157132
  19 H :    0.171368
  20 H :    0.171329
  21 H :    0.148711
  22 H :    0.145899
  23 H :    0.167407
  24 H :    0.250071
  25 H :    0.143242
  26 H :    0.142923
  27 H :    0.195109
  28 H :    0.156824
  29 H :    0.159995
  30 H :    0.157772
Sum of atomic charges:    0.0000000

LOEWDIN ATOMIC CHARGES
----------------------
   0 C :   -0.368357
   1 C :    0.102010
   2 C :   -0.219261
   3 C :   -0.056165
   4 C :   -0.157631
   5 C :   -0.176784
   6 C :   -0.110524
   7 C :    0.214505
   8 C :    0.238195
   9 O :   -0.630393
  10 O :   -0.480874
  11 C :    0.458112
  12 O :   -0.405316
  13 N :   -0.608669
  14 C :   -0.110608
  15 C :   -0.368792
  16 H :    0.164970
  17 H :    0.166310
  18 H :    0.160715
  19 H :    0.174832
  20 H :    0.175264
  21 H :    0.169590
  22 H :    0.167918
  23 H :    0.190285
  24 H :    0.277259
  25 H :    0.168554
  26 H :    0.167742
  27 H :    0.205875
  28 H :    0.160919
  29 H :    0.164967
  30 H :    0.165354

  Mayer bond orders larger than 0.100000
B(  0-C ,  1-C ) :   0.9624 B(  0-C , 16-H ) :   0.9721 B(  0-C , 17-H ) :   0.9646
B(  0-C , 18-H ) :   0.9776 B(  1-C ,  2-C ) :   0.8822 B(  1-C ,  8-C ) :   0.1348
B(  1-C ,  9-O ) :   0.6428 B(  1-C , 15-C ) :   0.9612 B(  2-C ,  3-C ) :   0.6725
B(  2-C , 19-H ) :   0.9707 B(  2-C , 20-H ) :   0.9621 B(  3-C ,  4-C ) :   1.2914
B(  3-C ,  8-C ) :   1.3929 B(  4-C ,  5-C ) :   1.4092 B(  4-C , 21-H ) :   0.9402
B(  5-C ,  6-C ) :   1.3923 B(  5-C , 22-H ) :   0.9566 B(  6-C ,  7-C ) :   1.3467
B(  6-C , 23-H ) :   0.9307 B(  7-C ,  8-C ) :   1.5859 B(  7-C , 10-O ) :   0.8202
B(  8-C ,  9-O ) :   1.1249 B( 10-O , 11-C ) :   1.0741 B( 11-C , 12-O ) :   1.8567
B( 11-C , 13-N ) :   1.2568 B( 13-N , 14-C ) :   0.9009 B( 13-N , 24-H ) :   0.9087
B( 14-C , 25-H ) :   0.9636 B( 14-C , 26-H ) :   0.9598 B( 14-C , 27-H ) :   0.9600
B( 15-C , 28-H ) :   0.9767 B( 15-C , 29-H ) :   0.9727 B( 15-C , 30-H ) :   0.9661

Dispersion correction           -0.011823424
FINAL SINGLE POINT ENERGY      -746.591447835443

DIPOLE MOMENT
-------------

Method             : SCF
Type of density    : Electron Density
Multiplicity       :   1
Irrep              :   0
Energy             :  -746.5997996884830172 Eh
Relativity type    :
Basis              : AO
                                X                 Y                 Z
Electronic contribution:     -5.609072838      -8.502935153      -0.323673877
Nuclear contribution   :      5.900492560       9.412899464      -0.260533392
                        -----------------------------------------
Total Dipole Moment    :      0.291419722       0.909964311      -0.584207269
                        -----------------------------------------
Magnitude (a.u.)       :      1.119936889
Magnitude (Debye)      :      2.846653344

Rotational constants in cm-1:             0.029500             0.011082             0.008745
Rotational constants in MHz :           884.397649           332.238876           262.175585

                             ****ORCA TERMINATED NORMALLY****
TOTAL RUN TIME: 0 days 0 hours 1 minutes 27 seconds 214 msec
