                         Program Version 6.0.1  -  RELEASE   -
|  1> ! r2scan-3c def2/J RI DEFGRID2 scfconv6 printgap
|  2> %output
|  3>     printlevel normal
|  4> end
|  5> * xyz 0 1
|  6> C -2.8858508406 -0.0659694536 -0.0056079022
|  7> C -1.3908603326 -0.0040600407 0.0023830074
|  8> C -0.7161904137 1.2126026661 0.0026830368
|  9> C 0.6664047108 1.2271273665 0.002098663
| 10> C 1.3545977895 0.0169092105 0.0007396351
| 11> N 0.7138470033 -1.145164799 0.002242647
| 12> C -0.6053991546 -1.1508609228 0.0032480659
| 13> C 2.8502772067 -0.0445749813 -0.0045471243
| 14> H -3.2745628494 0.3356352895 -0.9413552977
| 15> H -3.2308746184 -1.091393416 0.1005415349
| 16> H -3.2964884661 0.5296370555 0.8085368959
| 17> H -1.2735000028 2.1396750439 0.0040115342
| 18> H 1.2064223049 2.1624100004 0.0035330919
| 19> H -1.0624573456 -2.1332946599 0.0046897454
| 20> H 3.2834891157 0.950770255 0.0414702576
| 21> H 3.1977594292 -0.6300985742 0.84406228
| 22> H 3.1937473309 -0.544132003 -0.9085415703
| 23> *
| 24>
| 25>                          ****END OF INPUT****

CARTESIAN COORDINATES (ANGSTROEM)
---------------------------------
  C     -2.885851   -0.065969   -0.005608
  C     -1.390860   -0.004060    0.002383
  C     -0.716190    1.212603    0.002683
  C      0.666405    1.227127    0.002099
  C      1.354598    0.016909    0.000740
  N      0.713847   -1.145165    0.002243
  C     -0.605399   -1.150861    0.003248
  C      2.850277   -0.044575   -0.004547
  H     -3.274563    0.335635   -0.941355
  H     -3.230875   -1.091393    0.100542
  H     -3.296488    0.529637    0.808537
  H     -1.273500    2.139675    0.004012
  H      1.206422    2.162410    0.003533
  H     -1.062457   -2.133295    0.004690
  H      3.283489    0.950770    0.041470
  H      3.197759   -0.630099    0.844062
  H      3.193747   -0.544132   -0.908542

 Total Charge           Charge          ....    0
 Multiplicity           Mult            ....    1
 Number of Electrons    NEL             ....   58
 Basis Dimension        Dim             ....  202

ORBITAL ENERGIES
----------------

  NO   OCC          E(Eh)            E(eV)
   0   2.0000     -14.145081      -384.9072
   1   2.0000     -10.068440      -273.9762
   2   2.0000     -10.058290      -273.7000
   3   2.0000     -10.046519      -273.3797
   4   2.0000     -10.045727      -273.3581
   5   2.0000     -10.037440      -273.1326
   6   2.0000     -10.033981      -273.0385
   7   2.0000     -10.022134      -272.7161
   8   2.0000      -0.911085       -24.7919
   9   2.0000      -0.783112       -21.3096
  10   2.0000      -0.753025       -20.4908
  11   2.0000      -0.697974       -18.9928
  12   2.0000      -0.636857       -17.3298
  13   2.0000      -0.597406       -16.2563
  14   2.0000      -0.561276       -15.2731
  15   2.0000      -0.471265       -12.8238
  16   2.0000      -0.460937       -12.5427
  17   2.0000      -0.421153       -11.4602
  18   2.0000      -0.407656       -11.0929
  19   2.0000      -0.391011       -10.6399
  20   2.0000      -0.381481       -10.3806
  21   2.0000      -0.372908       -10.1474
  22   2.0000      -0.358588        -9.7577
  23   2.0000      -0.347246        -9.4491
  24   2.0000      -0.339692        -9.2435
  25   2.0000      -0.322704        -8.7812
  26   2.0000      -0.263183        -7.1616
  27   2.0000      -0.226382        -6.1602
  28   2.0000      -0.216831        -5.9003
  29   0.0000      -0.050464        -1.3732
  30   0.0000      -0.028838        -0.7847
  31   0.0000       0.074519         2.0278
  32   0.0000       0.096817         2.6345
  33   0.0000       0.104494         2.8434

MULLIKEN ATOMIC CHARGES
-----------------------
   0 C :   -0.543293
   1 C :    0.246087
   2 C :   -0.205943
   3 C :   -0.208389
   4 C :    0.262635
   5 N :   -0.167607
   6 C :   -0.199511
   7 C :   -0.572071
   8 H :    0.163631
   9 H :    0.152826
  10 H :    0.157916
  11 H :    0.146983
  12 H :    0.150960
  13 H :    0.134298
  14 H :    0.145335
  15 H :    0.168141
  16 H :    0.168003
Sum of atomic charges:   -0.0000000

LOEWDIN ATOMIC CHARGES
----------------------
   0 C :   -0.389276
   1 C :   -0.089974
   2 C :   -0.120348
   3 C :   -0.142579
   4 C :    0.120898
   5 N :   -0.612917
   6 C :    0.082200
   7 C :   -0.361253
   8 H :    0.165326
   9 H :    0.161593
  10 H :    0.164114
  11 H :    0.170402
  12 H :    0.169240
  13 H :    0.184318
  14 H :    0.154221
  15 H :    0.172218
  16 H :    0.171816

  Mayer bond orders larger than 0.100000
B(  0-C ,  1-C ) :   0.8020 B(  0-C ,  8-H ) :   0.9736 B(  0-C ,  9-H ) :   0.9883
B(  0-C , 10-H ) :   0.9790 B(  1-C ,  2-C ) :   1.3572 B(  1-C ,  6-C ) :   1.3154
B(  2-C ,  3-C ) :   1.4773 B(  2-C , 11-H ) :   0.9575 B(  3-C ,  4-C ) :   1.4132
B(  3-C , 12-H ) :   0.9088 B(  4-C ,  5-N ) :   1.3166 B(  4-C ,  7-C ) :   0.8598
B(  5-N ,  6-C ) :   1.5213 B(  6-C , 13-H ) :   0.9908 B(  7-C , 14-H ) :   0.9991
B(  7-C , 15-H ) :   0.9650 B(  7-C , 16-H ) :   0.9609

Dispersion correction           -0.005182453
FINAL SINGLE POINT ENERGY      -326.823642849467

DIPOLE MOMENT
-------------

Method             : SCF
Type of density    : Electron Density
Multiplicity       :   1
Irrep              :   0
Energy             :  -326.8261977057368313 Eh
Relativity type    :
Basis              : AO
                                X                 Y                 Z
Electronic contribution:      0.766736479      -0.936054113       0.030354965
Nuclear contribution   :     -1.174861997       1.606628837      -0.040377292
                        -----------------------------------------
Total Dipole Moment    :     -0.408125518       0.670574724      -0.010022327
                        -----------------------------------------
Magnitude (a.u.)       :      0.785071555
Magnitude (Debye)      :      1.995493309

Rotational constants in cm-1:             0.186598             0.050021             0.040030
Rotational constants in MHz :          5594.075543          1499.582552          1200.071280

                             ****ORCA TERMINATED NORMALLY****
TOTAL RUN TIME: 0 days 0 hours 0 minutes 24 seconds 786 msec
