                         Program Version 6.0.1  -  RELEASE   -
|  1> ! pbe def2-sv(p) def2/J RI DEFGRID1 loosescf d4 GCP(DFT/SV(P)) printgap
|  2> %output
|  3>     printlevel normal
|  4> end
|  5> * xyz 0 1
|  6> C -2.2838303038 -0.9737998809 0.4577201983
|  7> C -0.9530616576 -0.3132630725 0.8451017239
|  8> H -1.0515845581 0.0667278626 1.8704310934
|  9> C -0.6704058433 0.8796046693 -0.0751852819
| 10> H -0.92548219 0.5984383952 -1.1087953981
| 11> C 0.8053376893 1.3353022916 -0.0628710317
| 12> H 0.9502340678 2.0371600565 0.7672192212
| 13> C 1.7995345559 0.1633354405 0.1277797558
| 14> H 2.6257773172 0.2828137666 -0.5790583962
| 15> C 1.0687507048 -1.1669417603 -0.1181743547
| 16> H 1.751894471 -2.0088522258 0.0864318625
| 17> O 0.0684045506 -1.304715426 0.8536540137
| 18> O 0.6005054403 -1.2235260832 -1.4281693707
| 19> O 2.3647467489 0.1507928285 1.410065367
| 20> O 1.0713142025 2.0708350741 -1.2320491487
| 21> O -1.5177506827 1.9233218641 0.3512696557
| 22> O -2.1625968613 -1.5180495486 -0.8436393781
| 23> H -3.0686135521 -0.2103427938 0.4939509479
| 24> H -2.5035512046 -1.7669300215 1.1820618854
| 25> H -0.2727748101 -1.6508703766 -1.4160856602
| 26> H 1.7246430949 -0.2486709229 2.0150004841
| 27> H 1.0713866807 1.459197176 -1.9793824809
| 28> H -1.2641067512 2.7180734246 -0.1344609547
| 29> H -2.9936226654 -1.9400036081 -1.0822235483
| 30> *
| 31>
| 32>                          ****END OF INPUT****

CARTESIAN COORDINATES (ANGSTROEM)
---------------------------------
  C     -2.283830   -0.973800    0.457720
  C     -0.953062   -0.313263    0.845102
  H     -1.051585    0.066728    1.870431
  C     -0.670406    0.879605   -0.075185
  H     -0.925482    0.598438   -1.108795
  C      0.805338    1.335302   -0.062871
  H      0.950234    2.037160    0.767219
  C      1.799535    0.163335    0.127780
  H      2.625777    0.282814   -0.579058
  C      1.068751   -1.166942   -0.118174
  H      1.751894   -2.008852    0.086432
  O      0.068405   -1.304715    0.853654
  O      0.600505   -1.223526   -1.428169
  O      2.364747    0.150793    1.410065
  O      1.071314    2.070835   -1.232049
  O     -1.517751    1.923322    0.351270
  O     -2.162597   -1.518050   -0.843639
  H     -3.068614   -0.210343    0.493951
  H     -2.503551   -1.766930    1.182062
  H     -0.272775   -1.650870   -1.416086
  H      1.724643   -0.248671    2.015000
  H      1.071387    1.459197   -1.979382
  H     -1.264107    2.718073   -0.134461
  H     -2.993623   -1.940004   -1.082224

 Total Charge           Charge          ....    0
 Multiplicity           Mult            ....    1
 Number of Electrons    NEL             ....   96
 Basis Dimension        Dim             ....  192

ORBITAL ENERGIES
----------------

  NO   OCC          E(Eh)            E(eV)
   0   2.0000     -18.781890      -511.0812
   1   2.0000     -18.781579      -511.0727
   2   2.0000     -18.754715      -510.3417
   3   2.0000     -18.751070      -510.2425
   4   2.0000     -18.748382      -510.1694
   5   2.0000     -18.744976      -510.0767
   6   2.0000      -9.984068      -271.6803
   7   2.0000      -9.954895      -270.8865
   8   2.0000      -9.946955      -270.6704
   9   2.0000      -9.939516      -270.4680
  10   2.0000      -9.934115      -270.3210
  11   2.0000      -9.933427      -270.3023
  12   2.0000      -0.991430       -26.9782
  13   2.0000      -0.950845       -25.8738
  14   2.0000      -0.939336       -25.5606
  15   2.0000      -0.925361       -25.1803
  16   2.0000      -0.919277       -25.0148
  17   2.0000      -0.909369       -24.7452
  18   2.0000      -0.711477       -19.3603
  19   2.0000      -0.682835       -18.5809
  20   2.0000      -0.626099       -17.0370
  21   2.0000      -0.588474       -16.0132
  22   2.0000      -0.569842       -15.5062
  23   2.0000      -0.525482       -14.2991
  24   2.0000      -0.507896       -13.8205
  25   2.0000      -0.484823       -13.1927
  26   2.0000      -0.471904       -12.8412
  27   2.0000      -0.453815       -12.3489
  28   2.0000      -0.447055       -12.1650
  29   2.0000      -0.440108       -11.9759
  30   2.0000      -0.420554       -11.4439
  31   2.0000      -0.408894       -11.1266
  32   2.0000      -0.385483       -10.4895
  33   2.0000      -0.374112       -10.1801
  34   2.0000      -0.368350       -10.0233
  35   2.0000      -0.351056        -9.5527
  36   2.0000      -0.339704        -9.2438
  37   2.0000      -0.323589        -8.8053
  38   2.0000      -0.305656        -8.3173
  39   2.0000      -0.301384        -8.2011
  40   2.0000      -0.284000        -7.7280
  41   2.0000      -0.269300        -7.3280
  42   2.0000      -0.254716        -6.9312
  43   2.0000      -0.245285        -6.6745
  44   2.0000      -0.241879        -6.5818
  45   2.0000      -0.231735        -6.3058
  46   2.0000      -0.212859        -5.7922
  47   2.0000      -0.195558        -5.3214
  48   0.0000       0.006659         0.1812
  49   0.0000       0.026646         0.7251
  50   0.0000       0.045306         1.2328
  51   0.0000       0.054898         1.4938
  52   0.0000       0.064068         1.7434

MULLIKEN ATOMIC CHARGES
-----------------------
   0 C :    0.062224
   1 C :    0.002734
   2 H :    0.080814
   3 C :    0.061591
   4 H :    0.050243
   5 C :    0.072931
   6 H :    0.064851
   7 C :    0.052116
   8 H :    0.074900
   9 C :    0.139857
  10 H :    0.072225
  11 O :   -0.315422
  12 O :   -0.421823
  13 O :   -0.418212
  14 O :   -0.427027
  15 O :   -0.421653
  16 O :   -0.447418
  17 H :    0.095513
  18 H :    0.085985
  19 H :    0.310844
  20 H :    0.298792
  21 H :    0.302470
  22 H :    0.306453
  23 H :    0.317012
Sum of atomic charges:   -0.0000000

LOEWDIN ATOMIC CHARGES
----------------------
   0 C :   -0.125068
   1 C :   -0.064785
   2 H :    0.119956
   3 C :   -0.087492
   4 H :    0.102996
   5 C :   -0.078287
   6 H :    0.118357
   7 C :   -0.087581
   8 H :    0.119039
   9 C :   -0.007674
  10 H :    0.098716
  11 O :   -0.140467
  12 O :   -0.326320
  13 O :   -0.311114
  14 O :   -0.316229
  15 O :   -0.324890
  16 O :   -0.329900
  17 H :    0.113967
  18 H :    0.105624
  19 H :    0.274022
  20 H :    0.278224
  21 H :    0.283346
  22 H :    0.288532
  23 H :    0.297027

  Mayer bond orders larger than 0.100000
B(  0-C ,  1-C ) :   1.0722 B(  0-C , 16-O ) :   1.0363 B(  0-C , 17-H ) :   0.9107
B(  0-C , 18-H ) :   0.9124 B(  1-C ,  2-H ) :   0.8836 B(  1-C ,  3-C ) :   0.9981
B(  1-C , 11-O ) :   0.9691 B(  3-C ,  4-H ) :   0.8584 B(  3-C ,  5-C ) :   1.0380
B(  3-C , 15-O ) :   1.0450 B(  5-C ,  6-H ) :   0.8644 B(  5-C ,  7-C ) :   0.9462
B(  5-C , 14-O ) :   1.0162 B(  7-C ,  8-H ) :   0.8849 B(  7-C ,  9-C ) :   1.0200
B(  7-C , 13-O ) :   1.0534 B(  9-C , 10-H ) :   0.9020 B(  9-C , 11-O ) :   1.0342
B(  9-C , 12-O ) :   1.1003 B( 12-O , 19-H ) :   0.7866 B( 13-O , 20-H ) :   0.8368
B( 14-O , 21-H ) :   0.8459 B( 15-O , 22-H ) :   0.8406 B( 16-O , 19-H ) :   0.1079
B( 16-O , 23-H ) :   0.8419

Dispersion correction           -0.025513781
FINAL SINGLE POINT ENERGY      -685.693390934239

DIPOLE MOMENT
-------------

Method             : SCF
Type of density    : Electron Density
Multiplicity       :   1
Irrep              :   0
Energy             :  -685.8271533430240652 Eh
Relativity type    :
Basis              : AO
                                X                 Y                 Z
Electronic contribution:      2.259118935      -0.051618860      -0.314442973
Nuclear contribution   :     -3.704922867      -0.620788446       0.094804973
                        -----------------------------------------
Total Dipole Moment    :     -1.445803932      -0.672407307      -0.219638000
                        -----------------------------------------
Magnitude (a.u.)       :      1.609571821
Magnitude (Debye)      :      4.091206435

Rotational constants in cm-1:             0.040581             0.028907             0.023594
Rotational constants in MHz :          1216.593629           866.616727           707.341133

                             ****ORCA TERMINATED NORMALLY****
TOTAL RUN TIME: 0 days 0 hours 0 minutes 8 seconds 457 msec
