                         Program Version 6.0.1  -  RELEASE   -
|  1> ! pbe def2-sv(p) def2/J RI DEFGRID1 loosescf d4 GCP(DFT/SV(P)) printgap
|  2> %output
|  3>     printlevel normal
|  4> end
|  5> * xyz 0 1
|  6> C -2.1949054672 -0.9053948771 -0.1494005616
|  7> C -1.1279067309 -0.3284726645 0.8050239765
|  8> H -1.5947695078 -0.3101823655 1.7987853003
|  9> C -0.7259131881 1.1289156391 0.4898211697
| 10> H -1.5854499921 1.6461347384 0.0477040209
| 11> C 0.4712053754 1.2449364687 -0.4858260724
| 12> H 0.7990329899 2.2959433566 -0.4510596092
| 13> C 1.606590933 0.3331014812 0.000795536
| 14> H 2.4079062309 0.313864973 -0.7536710321
| 15> C 1.068631536 -1.1107005551 0.1274524067
| 16> H 1.8421921906 -1.7277761547 0.6066942835
| 17> O -0.0216406893 -1.2113414468 0.9814247808
| 18> O 0.8377017235 -1.6146956511 -1.1626703874
| 19> O 2.1045100696 0.7261727267 1.2571761128
| 20> O 0.108741198 0.9594283608 -1.816950573
| 21> O -0.4363021545 1.8216730375 1.6758027523
| 22> O -1.7938117662 -1.0285907656 -1.4905391024
| 23> H -3.0944306826 -0.2819906217 -0.0694181465
| 24> H -2.4374841904 -1.9184841445 0.1809130119
| 25> H -0.1268802066 -1.749662779 -1.2852638981
| 26> H 2.5480979063 1.5782837514 1.1691814337
| 27> H 0.5213946633 0.1150908213 -2.0699022179
| 28> H 0.3260645065 1.3864978868 2.0898893141
| 29> H -1.5395947373 -0.1523238303 -1.8306693799
| 30> *
| 31>
| 32>                          ****END OF INPUT****

CARTESIAN COORDINATES (ANGSTROEM)
---------------------------------
  C     -2.194905   -0.905395   -0.149401
  C     -1.127907   -0.328473    0.805024
  H     -1.594770   -0.310182    1.798785
  C     -0.725913    1.128916    0.489821
  H     -1.585450    1.646135    0.047704
  C      0.471205    1.244936   -0.485826
  H      0.799033    2.295943   -0.451060
  C      1.606591    0.333101    0.000796
  H      2.407906    0.313865   -0.753671
  C      1.068632   -1.110701    0.127452
  H      1.842192   -1.727776    0.606694
  O     -0.021641   -1.211341    0.981425
  O      0.837702   -1.614696   -1.162670
  O      2.104510    0.726173    1.257176
  O      0.108741    0.959428   -1.816951
  O     -0.436302    1.821673    1.675803
  O     -1.793812   -1.028591   -1.490539
  H     -3.094431   -0.281991   -0.069418
  H     -2.437484   -1.918484    0.180913
  H     -0.126880   -1.749663   -1.285264
  H      2.548098    1.578284    1.169181
  H      0.521395    0.115091   -2.069902
  H      0.326065    1.386498    2.089889
  H     -1.539595   -0.152324   -1.830669

 Total Charge           Charge          ....    0
 Multiplicity           Mult            ....    1
 Number of Electrons    NEL             ....   96
 Basis Dimension        Dim             ....  192

ORBITAL ENERGIES
----------------

  NO   OCC          E(Eh)            E(eV)
   0   2.0000     -18.785482      -511.1789
   1   2.0000     -18.778311      -510.9838
   2   2.0000     -18.772879      -510.8360
   3   2.0000     -18.772502      -510.8257
   4   2.0000     -18.761585      -510.5287
   5   2.0000     -18.747183      -510.1368
   6   2.0000      -9.994148      -271.9546
   7   2.0000      -9.959597      -271.0144
   8   2.0000      -9.955694      -270.9082
   9   2.0000      -9.952859      -270.8311
  10   2.0000      -9.951629      -270.7976
  11   2.0000      -9.946383      -270.6548
  12   2.0000      -0.994993       -27.0751
  13   2.0000      -0.960061       -26.1246
  14   2.0000      -0.950991       -25.8778
  15   2.0000      -0.941256       -25.6129
  16   2.0000      -0.931061       -25.3355
  17   2.0000      -0.911791       -24.8111
  18   2.0000      -0.708740       -19.2858
  19   2.0000      -0.702441       -19.1144
  20   2.0000      -0.634549       -17.2669
  21   2.0000      -0.596060       -16.2196
  22   2.0000      -0.592720       -16.1287
  23   2.0000      -0.533487       -14.5169
  24   2.0000      -0.505901       -13.7663
  25   2.0000      -0.503406       -13.6984
  26   2.0000      -0.486601       -13.2411
  27   2.0000      -0.464220       -12.6321
  28   2.0000      -0.450604       -12.2616
  29   2.0000      -0.435000       -11.8369
  30   2.0000      -0.428498       -11.6600
  31   2.0000      -0.422937       -11.5087
  32   2.0000      -0.393447       -10.7062
  33   2.0000      -0.385655       -10.4942
  34   2.0000      -0.381222       -10.3736
  35   2.0000      -0.351624        -9.5682
  36   2.0000      -0.346285        -9.4229
  37   2.0000      -0.336336        -9.1522
  38   2.0000      -0.325263        -8.8509
  39   2.0000      -0.306547        -8.3416
  40   2.0000      -0.301227        -8.1968
  41   2.0000      -0.285643        -7.7727
  42   2.0000      -0.269409        -7.3310
  43   2.0000      -0.259392        -7.0584
  44   2.0000      -0.250607        -6.8194
  45   2.0000      -0.226767        -6.1706
  46   2.0000      -0.223297        -6.0762
  47   2.0000      -0.210238        -5.7209
  48   0.0000       0.001842         0.0501
  49   0.0000       0.021596         0.5877
  50   0.0000       0.044117         1.2005
  51   0.0000       0.060742         1.6529
  52   0.0000       0.067284         1.8309

MULLIKEN ATOMIC CHARGES
-----------------------
   0 C :    0.033637
   1 C :    0.018435
   2 H :    0.086531
   3 C :    0.059829
   4 H :    0.077139
   5 C :    0.038615
   6 H :    0.071639
   7 C :   -0.039831
   8 H :    0.094338
   9 C :    0.228584
  10 H :    0.077994
  11 O :   -0.301870
  12 O :   -0.437868
  13 O :   -0.407455
  14 O :   -0.428823
  15 O :   -0.432519
  16 O :   -0.452958
  17 H :    0.092116
  18 H :    0.101527
  19 H :    0.306433
  20 H :    0.313402
  21 H :    0.301922
  22 H :    0.297072
  23 H :    0.302112
Sum of atomic charges:    0.0000000

LOEWDIN ATOMIC CHARGES
----------------------
   0 C :   -0.136395
   1 C :   -0.080949
   2 H :    0.129328
   3 C :   -0.072848
   4 H :    0.118422
   5 C :   -0.079901
   6 H :    0.108036
   7 C :   -0.099875
   8 H :    0.112711
   9 C :    0.008699
  10 H :    0.108571
  11 O :   -0.129202
  12 O :   -0.335061
  13 O :   -0.299790
  14 O :   -0.315344
  15 O :   -0.320337
  16 O :   -0.326751
  17 H :    0.110381
  18 H :    0.120479
  19 H :    0.272368
  20 H :    0.293989
  21 H :    0.272464
  22 H :    0.270216
  23 H :    0.270788

  Mayer bond orders larger than 0.100000
B(  0-C ,  1-C ) :   1.0344 B(  0-C , 16-O ) :   1.0451 B(  0-C , 17-H ) :   0.9139
B(  0-C , 18-H ) :   0.9172 B(  1-C ,  2-H ) :   0.8800 B(  1-C ,  3-C ) :   0.9760
B(  1-C , 11-O ) :   0.9786 B(  3-C ,  4-H ) :   0.8956 B(  3-C ,  5-C ) :   0.9593
B(  3-C , 15-O ) :   1.0443 B(  5-C ,  6-H ) :   0.9017 B(  5-C ,  7-C ) :   0.9942
B(  5-C , 14-O ) :   1.0481 B(  7-C ,  8-H ) :   0.9012 B(  7-C ,  9-C ) :   0.9617
B(  7-C , 13-O ) :   1.0400 B(  9-C , 10-H ) :   0.9054 B(  9-C , 11-O ) :   1.0923
B(  9-C , 12-O ) :   1.0709 B( 12-O , 19-H ) :   0.7513 B( 12-O , 21-H ) :   0.1334
B( 13-O , 20-H ) :   0.8378 B( 13-O , 22-H ) :   0.1005 B( 14-O , 21-H ) :   0.7777
B( 14-O , 23-H ) :   0.1304 B( 15-O , 22-H ) :   0.8144 B( 16-O , 19-H ) :   0.1554
B( 16-O , 23-H ) :   0.7805

Dispersion correction           -0.026962183
FINAL SINGLE POINT ENERGY      -685.703401646532

DIPOLE MOMENT
-------------

Method             : SCF
Type of density    : Electron Density
Multiplicity       :   1
Irrep              :   0
Energy             :  -685.8421883269919590 Eh
Relativity type    :
Basis              : AO
                                X                 Y                 Z
Electronic contribution:      2.115182941      -0.623614533       0.618104670
Nuclear contribution   :     -1.802507015       1.116338592      -0.540003945
                        -----------------------------------------
Total Dipole Moment    :      0.312675926       0.492724059       0.078100725
                        -----------------------------------------
Magnitude (a.u.)       :      0.588763922
Magnitude (Debye)      :      1.496518961

Rotational constants in cm-1:             0.041577             0.031581             0.027599
Rotational constants in MHz :          1246.448822           946.782516           827.409617

                             ****ORCA TERMINATED NORMALLY****
TOTAL RUN TIME: 0 days 0 hours 26 minutes 20 seconds 362 msec
