                         Program Version 6.0.1  -  RELEASE   -
|  1> ! pbe def2-sv(p) def2/J RI DEFGRID1 loosescf d4 GCP(DFT/SV(P)) printgap
|  2> %output
|  3>     printlevel normal
|  4> end
|  5> * xyz 0 1
|  6> C -3.8016615983 0.7378350908 0.0005046708
|  7> O -2.3843264449 0.808731862 0.0090687255
|  8> C -1.7098634725 -0.3539628726 -0.0024907187
|  9> O -2.2476743792 -1.4356419243 -0.0101853799
| 10> C -0.2456364204 -0.1532644138 0.0015821941
| 11> C 0.5746640278 -1.2794621002 0.0062313308
| 12> C 1.9467470483 -1.1455656445 0.0058450852
| 13> C 2.5219749515 0.1228590342 -8.52568e-05
| 14> C 1.7043133778 1.252926639 -0.0035773007
| 15> C 0.3339399386 1.115174329 -0.0027342089
| 16> O 3.8634705379 0.305370379 -0.0027631696
| 17> H -4.1287609928 -0.2520930309 0.3247296462
| 18> H -4.1672843427 0.9287998609 -1.0104065277
| 19> H -4.1697886037 1.5053044296 0.6795318001
| 20> H 0.1134358015 -2.2551991958 0.0099074521
| 21> H 2.5806581269 -2.0225049362 0.0095888701
| 22> H 2.1704625888 2.22527369 -0.0075986676
| 23> H -0.2989683809 1.9880493881 -0.0062268725
| 24> H 4.3162791112 -0.547336205 -0.0008082935
| 25> *
| 26>
| 27>                          ****END OF INPUT****

CARTESIAN COORDINATES (ANGSTROEM)
---------------------------------
  C     -3.801662    0.737835    0.000505
  O     -2.384326    0.808732    0.009069
  C     -1.709863   -0.353963   -0.002491
  O     -2.247674   -1.435642   -0.010185
  C     -0.245636   -0.153264    0.001582
  C      0.574664   -1.279462    0.006231
  C      1.946747   -1.145566    0.005845
  C      2.521975    0.122859   -0.000085
  C      1.704313    1.252927   -0.003577
  C      0.333940    1.115174   -0.002734
  O      3.863471    0.305370   -0.002763
  H     -4.128761   -0.252093    0.324730
  H     -4.167284    0.928800   -1.010407
  H     -4.169789    1.505304    0.679532
  H      0.113436   -2.255199    0.009907
  H      2.580658   -2.022505    0.009589
  H      2.170463    2.225274   -0.007599
  H     -0.298968    1.988049   -0.006227
  H      4.316279   -0.547336   -0.000808

 Total Charge           Charge          ....    0
 Multiplicity           Mult            ....    1
 Number of Electrons    NEL             ....   80
 Basis Dimension        Dim             ....  170

ORBITAL ENERGIES
----------------

  NO   OCC          E(Eh)            E(eV)
   0   2.0000     -18.797951      -511.5182
   1   2.0000     -18.795110      -511.4409
   2   2.0000     -18.731964      -509.7226
   3   2.0000     -10.002247      -272.1750
   4   2.0000      -9.966126      -271.1921
   5   2.0000      -9.934632      -270.3351
   6   2.0000      -9.902787      -269.4685
   7   2.0000      -9.902424      -269.4587
   8   2.0000      -9.901468      -269.4326
   9   2.0000      -9.901357      -269.4296
  10   2.0000      -9.895894      -269.2810
  11   2.0000      -1.000495       -27.2249
  12   2.0000      -0.980240       -26.6737
  13   2.0000      -0.910568       -24.7778
  14   2.0000      -0.783424       -21.3180
  15   2.0000      -0.696043       -18.9403
  16   2.0000      -0.683275       -18.5929
  17   2.0000      -0.648460       -17.6455
  18   2.0000      -0.582891       -15.8613
  19   2.0000      -0.555278       -15.1099
  20   2.0000      -0.509215       -13.8564
  21   2.0000      -0.505287       -13.7496
  22   2.0000      -0.480125       -13.0649
  23   2.0000      -0.431618       -11.7449
  24   2.0000      -0.429446       -11.6858
  25   2.0000      -0.411284       -11.1916
  26   2.0000      -0.392065       -10.6686
  27   2.0000      -0.386806       -10.5255
  28   2.0000      -0.382875       -10.4186
  29   2.0000      -0.378910       -10.3107
  30   2.0000      -0.358150        -9.7458
  31   2.0000      -0.351870        -9.5749
  32   2.0000      -0.333703        -9.0805
  33   2.0000      -0.306773        -8.3477
  34   2.0000      -0.301417        -8.2020
  35   2.0000      -0.293186        -7.9780
  36   2.0000      -0.253805        -6.9064
  37   2.0000      -0.238991        -6.5033
  38   2.0000      -0.222850        -6.0641
  39   2.0000      -0.207734        -5.6527
  40   0.0000      -0.062824        -1.7095
  41   0.0000      -0.042401        -1.1538
  42   0.0000       0.015085         0.4105
  43   0.0000       0.031355         0.8532
  44   0.0000       0.050422         1.3720

MULLIKEN ATOMIC CHARGES
-----------------------
   0 C :   -0.127282
   1 O :   -0.253609
   2 C :    0.151331
   3 O :   -0.185829
   4 C :    0.039873
   5 C :   -0.103154
   6 C :   -0.148247
   7 C :    0.245924
   8 C :   -0.113035
   9 C :   -0.086036
  10 O :   -0.319543
  11 H :    0.130653
  12 H :    0.118083
  13 H :    0.118931
  14 H :    0.065142
  15 H :    0.035393
  16 H :    0.050790
  17 H :    0.060657
  18 H :    0.319961
Sum of atomic charges:    0.0000000

LOEWDIN ATOMIC CHARGES
----------------------
   0 C :   -0.211142
   1 O :   -0.079095
   2 C :    0.045310
   3 O :   -0.162360
   4 C :   -0.099414
   5 C :   -0.080768
   6 C :   -0.172958
   7 C :    0.032810
   8 C :   -0.146318
   9 C :   -0.089933
  10 O :   -0.220509
  11 H :    0.122989
  12 H :    0.117232
  13 H :    0.118342
  14 H :    0.136481
  15 H :    0.123063
  16 H :    0.133061
  17 H :    0.132795
  18 H :    0.300413

  Mayer bond orders larger than 0.100000
B(  0-C ,  1-O ) :   0.9479 B(  0-C , 11-H ) :   0.9300 B(  0-C , 12-H ) :   0.9589
B(  0-C , 13-H ) :   0.9606 B(  1-O ,  2-C ) :   1.2147 B(  2-C ,  3-O ) :   2.0800
B(  2-C ,  4-C ) :   0.9509 B(  4-C ,  5-C ) :   1.3773 B(  4-C ,  9-C ) :   1.3334
B(  5-C ,  6-C ) :   1.3569 B(  5-C , 14-H ) :   0.9552 B(  6-C ,  7-C ) :   1.2881
B(  6-C , 15-H ) :   0.9594 B(  7-C ,  8-C ) :   1.3398 B(  7-C , 10-O ) :   1.2070
B(  8-C ,  9-C ) :   1.3648 B(  8-C , 16-H ) :   0.9666 B(  9-C , 17-H ) :   0.9608
B( 10-O , 18-H ) :   0.8408

Dispersion correction           -0.019651727
FINAL SINGLE POINT ENERGY      -534.245411933149

DIPOLE MOMENT
-------------

Method             : SCF
Type of density    : Electron Density
Multiplicity       :   1
Irrep              :   0
Energy             :  -534.3109725252725184 Eh
Relativity type    :
Basis              : AO
                                X                 Y                 Z
Electronic contribution:      3.924183236      -1.299808349       0.005960441
Nuclear contribution   :     -3.373756521       1.468443278      -0.001260749
                        -----------------------------------------
Total Dipole Moment    :      0.550426716       0.168634929       0.004699692
                        -----------------------------------------
Magnitude (a.u.)       :      0.575699050
Magnitude (Debye)      :      1.463310693

Rotational constants in cm-1:             0.115460             0.019460             0.016706
Rotational constants in MHz :          3461.403888           583.381243           500.828471

                             ****ORCA TERMINATED NORMALLY****
TOTAL RUN TIME: 0 days 0 hours 0 minutes 17 seconds 360 msec
