                         Program Version 6.0.0  -   RELEASE  -
|  1> ! r2SCAN-3c DEF2-TZVP FREQ
|  2> * xyzfile 0 1 censo.xyz
|  3>
|  4>                          ****END OF INPUT****

CARTESIAN COORDINATES (ANGSTROEM)
---------------------------------
  C     -2.569631   -0.449316   -0.000003
  C     -1.591689    0.695802    0.000001
  I      0.493384   -0.021886   -0.000001
  H     -2.462732   -1.075314    0.889249
  H     -3.584035   -0.029392   -0.000013
  H     -2.462718   -1.075322   -0.889248
  H     -1.649979    1.313949    0.894296
  H     -1.649952    1.313932   -0.894307

 Total Charge           Charge          ....    0
 Multiplicity           Mult            ....    1
 Number of Electrons    NEL             ....   42
 Basis Dimension        Dim             ....  142

ORBITAL ENERGIES
----------------

  NO   OCC          E(Eh)            E(eV)
   0   2.0000     -10.090567      -274.5783
   1   2.0000     -10.044531      -273.3256
   2   2.0000      -6.769045      -184.1951
   3   2.0000      -4.790351      -130.3521
   4   2.0000      -4.778345      -130.0254
   5   2.0000      -4.777983      -130.0155
   6   2.0000      -1.840787       -50.0904
   7   2.0000      -1.838391       -50.0252
   8   2.0000      -1.838181       -50.0194
   9   2.0000      -1.828026       -49.7431
  10   2.0000      -1.828006       -49.7426
  11   2.0000      -0.759183       -20.6584
  12   2.0000      -0.651781       -17.7359
  13   2.0000      -0.581143       -15.8137
  14   2.0000      -0.443817       -12.0769
  15   2.0000      -0.410493       -11.1701
  16   2.0000      -0.378225       -10.2920
  17   2.0000      -0.346297        -9.4232
  18   2.0000      -0.305415        -8.3108
  19   2.0000      -0.233260        -6.3473
  20   2.0000      -0.232425        -6.3246
  21   0.0000      -0.059970        -1.6319
  22   0.0000       0.048882         1.3301
  23   0.0000       0.085836         2.3357
  24   0.0000       0.093809         2.5527
  25   0.0000       0.104856         2.8533

MULLIKEN ATOMIC CHARGES
-----------------------
   0 C :   -0.300160
   1 C :   -0.182170
   2 I :   -0.137584
   3 H :    0.122344
   4 H :    0.110270
   5 H :    0.122345
   6 H :    0.132478
   7 H :    0.132478
Sum of atomic charges:   -0.0000000

LOEWDIN ATOMIC CHARGES
----------------------
   0 C :   -0.341683
   1 C :   -0.447575
   2 I :    0.165783
   3 H :    0.123935
   4 H :    0.127725
   5 H :    0.123935
   6 H :    0.123940
   7 H :    0.123940

  Mayer bond orders larger than 0.100000
B(  0-C ,  1-C ) :   0.9986 B(  0-C ,  3-H ) :   0.9700 B(  0-C ,  4-H ) :   0.9479
B(  0-C ,  5-H ) :   0.9700 B(  1-C ,  2-I ) :   1.0077 B(  1-C ,  6-H ) :   0.9565
B(  1-C ,  7-H ) :   0.9565

Dispersion correction           -0.001518653
FINAL SINGLE POINT ENERGY      -377.023635201512

DIPOLE MOMENT
-------------

Method             : SCF
Type of density    : Electron Density
Multiplicity       :   1
Irrep              :   0
Energy             :  -377.0257391615485290 Eh
Relativity type    :
Basis              : AO
                                X                 Y                 Z
Electronic contribution:     45.691740995      -2.087449135       0.000018579
Nuclear contribution   :    -46.558985968       2.284143732      -0.000022246
                        -----------------------------------------
Total Dipole Moment    :     -0.867244973       0.196694597      -0.000003667
                        -----------------------------------------
Magnitude (a.u.)       :      0.889270829
Magnitude (Debye)      :      2.260346815

VIBRATIONAL FREQUENCIES
-----------------------

Scaling factor for frequencies =  1.000000000  (already applied!)

     0:       0.00 cm**-1
     1:       0.00 cm**-1
     2:       0.00 cm**-1
     3:       0.00 cm**-1
     4:       0.00 cm**-1
     5:       0.00 cm**-1
     6:     251.41 cm**-1
     7:     275.72 cm**-1
     8:     474.04 cm**-1
     9:     756.90 cm**-1
    10:     970.80 cm**-1
    11:     989.62 cm**-1
    12:    1069.36 cm**-1
    13:    1218.98 cm**-1
    14:    1258.81 cm**-1
    15:    1402.28 cm**-1
    16:    1473.28 cm**-1
    17:    1475.14 cm**-1
    18:    1491.67 cm**-1
    19:    2999.73 cm**-1
    20:    3074.90 cm**-1
    21:    3092.40 cm**-1
    22:    3109.35 cm**-1
    23:    3165.40 cm**-1

IR SPECTRUM
-----------

 Mode   freq       eps      Int      T**2         TX        TY        TZ
       cm**-1   L/(mol*cm) km/mol    a.u.
----------------------------------------------------------------------------
  6:    251.41   0.000410    2.07  0.000508  ( 0.022520 -0.001107  0.000000)
  7:    275.72   0.000002    0.01  0.000002  ( 0.000001 -0.000000 -0.001349)
  8:    474.04   0.002180   11.01  0.001435  ( 0.037877 -0.000371  0.000000)
  9:    756.90   0.000980    4.95  0.000404  (-0.000001  0.000000  0.020103)
 10:    970.80   0.004058   20.51  0.001304  ( 0.036110 -0.000626  0.000000)
 11:    989.62   0.000023    0.12  0.000007  (-0.000006  0.000000  0.002703)
 12:   1069.36   0.000143    0.72  0.000042  ( 0.006234 -0.001719 -0.000000)
 13:   1218.98   0.016289   82.32  0.004170  ( 0.063273 -0.012904 -0.000000)
 14:   1258.81   0.000083    0.42  0.000020  (-0.000001  0.000000 -0.004525)
 15:   1402.28   0.000973    4.92  0.000217  ( 0.003408  0.014317  0.000000)
 16:   1473.28   0.000282    1.42  0.000060  (-0.000841  0.007681 -0.000002)
 17:   1475.14   0.002346   11.85  0.000496  ( 0.000000 -0.000000 -0.022277)
 18:   1491.67   0.000483    2.44  0.000101  ( 0.006004 -0.008062  0.000000)
 19:   2999.73   0.004639   23.44  0.000483  ( 0.021414  0.004902  0.000000)
 20:   3074.90   0.000454    2.29  0.000046  ( 0.003618 -0.005742  0.000000)
 21:   3092.40   0.003112   15.73  0.000314  ( 0.006661 -0.016421 -0.000000)
 22:   3109.35   0.001726    8.72  0.000173  ( 0.000000 -0.000001  0.013160)
 23:   3165.40   0.000781    3.95  0.000077  ( 0.000000 -0.000001 -0.008773)

--------------------------
THERMOCHEMISTRY AT 298.15K
--------------------------

Temperature         ...   298.15 K
Pressure            ...     1.00 atm
Total Mass          ...   155.96 AMU
Quasi RRHO          ...     True
Cut-Off Frequency   ...     1.00 cm^-1

Throughout the following assumptions are being made:
  (1) The electronic state is orbitally nondegenerate
  (2) There are no thermally accessible electronically excited states
  (3) Hindered rotations indicated by low frequency modes are not
      treated as such but are treated as vibrations and this may
      cause some error
  (4) All equations used are the standard statistical mechanics
      equations for an ideal gas
  (5) All vibrations are strictly harmonic

freq.     251.41  E(vib)   ...       0.30
freq.     275.72  E(vib)   ...       0.28
freq.     474.04  E(vib)   ...       0.15
freq.     756.90  E(vib)   ...       0.06
freq.     970.80  E(vib)   ...       0.03
freq.     989.62  E(vib)   ...       0.02
freq.    1069.36  E(vib)   ...       0.02
freq.    1218.98  E(vib)   ...       0.01
freq.    1258.81  E(vib)   ...       0.01
freq.    1402.28  E(vib)   ...       0.00
freq.    1473.28  E(vib)   ...       0.00
freq.    1475.14  E(vib)   ...       0.00
freq.    1491.67  E(vib)   ...       0.00
freq.    2999.73  E(vib)   ...       0.00
freq.    3074.90  E(vib)   ...       0.00
freq.    3092.40  E(vib)   ...       0.00
freq.    3109.35  E(vib)   ...       0.00
freq.    3165.40  E(vib)   ...       0.00

------------
INNER ENERGY
------------

The inner energy is: U= E(el) + E(ZPE) + E(vib) + E(rot) + E(trans)
    E(el)   - is the total energy from the electronic structure calculation
              = E(kin-el) + E(nuc-el) + E(el-el) + E(nuc-nuc)
    E(ZPE)  - the the zero temperature vibrational energy from the frequency calculation
    E(vib)  - the the finite temperature correction to E(ZPE) due to population
              of excited vibrational states
    E(rot)  - is the rotational thermal energy
    E(trans)- is the translational thermal energy

Summary of contributions to the inner energy U:
Electronic energy                ...   -377.02363520 Eh
Zero point energy                ...      0.06504125 Eh      40.81 kcal/mol
Thermal vibrational correction   ...      0.00143167 Eh       0.90 kcal/mol
Thermal rotational correction    ...      0.00141627 Eh       0.89 kcal/mol
Thermal translational correction ...      0.00141627 Eh       0.89 kcal/mol
-----------------------------------------------------------------------
Total thermal energy                   -376.95432974 Eh

Summary of corrections to the electronic energy:
(perhaps to be used in another calculation)
Total thermal correction                  0.00426422 Eh       2.68 kcal/mol
Non-thermal (ZPE) correction              0.06504125 Eh      40.81 kcal/mol
-----------------------------------------------------------------------
Total correction                          0.06930547 Eh      43.49 kcal/mol

--------
ENTHALPY
--------

The enthalpy is H = U + kB*T
                kB is Boltzmann's constant
Total thermal energy              ...   -376.95432974 Eh
Thermal Enthalpy correction       ...      0.00094421 Eh       0.59 kcal/mol
-----------------------------------------------------------------------
Total Enthalpy                    ...   -376.95338553 Eh

Note: Rotational entropy computed according to Herzberg
Infrared and Raman Spectra, Chapter V,1, Van Nostrand Reinhold, 1945
Point Group:  Cs, Symmetry Number:   1
Rotational constants in cm-1:     0.973495     0.096607     0.090926

Vibrational entropy computed according to the QRRHO of S. Grimme
Chem.Eur.J. 2012 18 9955 using a reference frequency of 100.0 cm-1

-------
ENTROPY
-------

The entropy contributions are T*S = T*(S(el)+S(vib)+S(rot)+S(trans))
     S(el)   - electronic entropy
     S(vib)  - vibrational entropy
     S(rot)  - rotational entropy
     S(trans)- translational entropy
The entropies will be listed as multiplied by the temperature to get
units of energy

Electronic entropy                ...      0.00000000 Eh      0.00 kcal/mol
Vibrational entropy               ...      0.00221633 Eh      1.39 kcal/mol
Rotational entropy                ...      0.01175875 Eh      7.38 kcal/mol
Translational entropy             ...      0.01950069 Eh     12.24 kcal/mol
-----------------------------------------------------------------------
Final entropy term                ...      0.03347577 Eh     21.01 kcal/mol

In case the symmetry of your molecule has not been determined correctly
or in case you have a reason to use a different symmetry number we print
out the resulting rotational entropy values for sn=1,12:

 non-linear molecules -----------------------------------
|  sn= 1 | S(rot)=       0.01175875 Eh      7.38 kcal/mol|
|  sn= 2 | S(rot)=       0.01110429 Eh      6.97 kcal/mol|
|  sn= 3 | S(rot)=       0.01072146 Eh      6.73 kcal/mol|
|  sn= 4 | S(rot)=       0.01044984 Eh      6.56 kcal/mol|
|  sn= 5 | S(rot)=       0.01023915 Eh      6.43 kcal/mol|
|  sn= 6 | S(rot)=       0.01006701 Eh      6.32 kcal/mol|
|  sn= 7 | S(rot)=       0.00992146 Eh      6.23 kcal/mol|
|  sn= 8 | S(rot)=       0.00979538 Eh      6.15 kcal/mol|
|  sn= 9 | S(rot)=       0.00968417 Eh      6.08 kcal/mol|
|  sn=10 | S(rot)=       0.00958469 Eh      6.01 kcal/mol|
|  sn=11 | S(rot)=       0.00949470 Eh      5.96 kcal/mol|
|  sn=12 | S(rot)=       0.00941255 Eh      5.91 kcal/mol|
 linear molecules ---------------------------------------
|  Dinfh | S(rot)=       0.00758968 Eh      4.76 kcal/mol|
|  Cinfv | S(rot)=       0.00824414 Eh      5.17 kcal/mol|
 --------------------------------------------------------

-------------------
GIBBS FREE ENERGY
-------------------

The Gibbs free energy is G = H - T*S

Total enthalpy                    ...   -376.95338553 Eh
Total entropy correction          ...     -0.03347577 Eh    -21.01 kcal/mol
-----------------------------------------------------------------------
Final Gibbs free energy         ...   -376.98686130 Eh

For completeness - the Gibbs free energy minus the electronic energy
G-E(el)                           ...      0.03677390 Eh     23.08 kcal/mol

                             ****ORCA TERMINATED NORMALLY****
TOTAL RUN TIME: 0 days 0 hours 1 minutes 34 seconds 329 msec
