                         Program Version 6.0.0  -   RELEASE  -
|  1> ! r2SCAN-3c DEF2-TZVP FREQ
|  2> * xyzfile 0 1 vacuum_censo.xyz
|  3>
|  4>                          ****END OF INPUT****

CARTESIAN COORDINATES (ANGSTROEM)
---------------------------------
  C     -2.560710   -0.448074    0.000002
  C     -1.574315    0.696222    0.000001
  I      0.497466   -0.020061   -0.000004
  H     -3.579520   -0.039562    0.000007
  H     -2.445283   -1.076491   -0.886081
  H     -2.445276   -1.076497    0.886081
  H     -1.643383    1.318112    0.891545
  H     -1.643402    1.318127   -0.891532

 Total Charge           Charge          ....    0
 Multiplicity           Mult            ....    1
 Number of Electrons    NEL             ....   42
 Basis Dimension        Dim             ....  142

ORBITAL ENERGIES
----------------

  NO   OCC          E(Eh)            E(eV)
   0   2.0000     -10.089831      -274.5583
   1   2.0000     -10.044013      -273.3115
   2   2.0000      -6.769838      -184.2167
   3   2.0000      -4.791157      -130.3740
   4   2.0000      -4.779140      -130.0470
   5   2.0000      -4.778776      -130.0371
   6   2.0000      -1.841632       -50.1134
   7   2.0000      -1.839222       -50.0478
   8   2.0000      -1.839006       -50.0419
   9   2.0000      -1.828818       -49.7647
  10   2.0000      -1.828798       -49.7641
  11   2.0000      -0.758498       -20.6398
  12   2.0000      -0.652506       -17.7556
  13   2.0000      -0.580959       -15.8087
  14   2.0000      -0.442266       -12.0347
  15   2.0000      -0.410746       -11.1770
  16   2.0000      -0.376434       -10.2433
  17   2.0000      -0.345091        -9.3904
  18   2.0000      -0.307639        -8.3713
  19   2.0000      -0.233718        -6.3598
  20   2.0000      -0.232816        -6.3353
  21   0.0000      -0.058291        -1.5862
  22   0.0000       0.049341         1.3426
  23   0.0000       0.086204         2.3457
  24   0.0000       0.094029         2.5587
  25   0.0000       0.105816         2.8794

MULLIKEN ATOMIC CHARGES
-----------------------
   0 C :   -0.302594
   1 C :   -0.184414
   2 I :   -0.129378
   3 H :    0.110885
   4 H :    0.121658
   5 H :    0.121658
   6 H :    0.131093
   7 H :    0.131093
Sum of atomic charges:   -0.0000000

LOEWDIN ATOMIC CHARGES
----------------------
   0 C :   -0.341669
   1 C :   -0.455696
   2 I :    0.176789
   3 H :    0.126494
   4 H :    0.123381
   5 H :    0.123380
   6 H :    0.123661
   7 H :    0.123660

  Mayer bond orders larger than 0.100000
B(  0-C ,  1-C ) :   0.9961 B(  0-C ,  3-H ) :   0.9489 B(  0-C ,  4-H ) :   0.9705
B(  0-C ,  5-H ) :   0.9705 B(  1-C ,  2-I ) :   1.0119 B(  1-C ,  6-H ) :   0.9568
B(  1-C ,  7-H ) :   0.9568

Dispersion correction           -0.001519599
FINAL SINGLE POINT ENERGY      -377.023794884488

DIPOLE MOMENT
-------------

Method             : SCF
Type of density    : Electron Density
Multiplicity       :   1
Irrep              :   0
Energy             :  -377.0259109954025689 Eh
Relativity type    :
Basis              : AO
                                X                 Y                 Z
Electronic contribution:     45.576224153      -2.061461013      -0.000111965
Nuclear contribution   :    -46.419976417       2.255440079       0.000116282
                        -----------------------------------------
Total Dipole Moment    :     -0.843752264       0.193979066       0.000004317
                        -----------------------------------------
Magnitude (a.u.)       :      0.865763109
Magnitude (Debye)      :      2.200594938

VIBRATIONAL FREQUENCIES
-----------------------

Scaling factor for frequencies =  1.000000000  (already applied!)

     0:       0.00 cm**-1
     1:       0.00 cm**-1
     2:       0.00 cm**-1
     3:       0.00 cm**-1
     4:       0.00 cm**-1
     5:       0.00 cm**-1
     6:     254.80 cm**-1
     7:     271.76 cm**-1
     8:     486.37 cm**-1
     9:     755.26 cm**-1
    10:     966.74 cm**-1
    11:     990.65 cm**-1
    12:    1064.32 cm**-1
    13:    1226.57 cm**-1
    14:    1257.94 cm**-1
    15:    1401.74 cm**-1
    16:    1473.78 cm**-1
    17:    1475.00 cm**-1
    18:    1492.23 cm**-1
    19:    3002.68 cm**-1
    20:    3076.52 cm**-1
    21:    3090.53 cm**-1
    22:    3109.75 cm**-1
    23:    3158.24 cm**-1

IR SPECTRUM
-----------

 Mode   freq       eps      Int      T**2         TX        TY        TZ
       cm**-1   L/(mol*cm) km/mol    a.u.
----------------------------------------------------------------------------
  6:    254.80   0.000345    1.74  0.000423  (-0.020529  0.001152  0.000000)
  7:    271.76   0.000001    0.00  0.000001  ( 0.000000 -0.000000  0.000929)
  8:    486.37   0.001939    9.80  0.001244  ( 0.035271  0.000117 -0.000000)
  9:    755.26   0.001026    5.19  0.000424  ( 0.000000 -0.000000  0.020594)
 10:    966.74   0.003721   18.80  0.001201  (-0.034652  0.000589  0.000000)
 11:    990.65   0.000028    0.14  0.000009  (-0.000002  0.000000 -0.002959)
 12:   1064.32   0.000056    0.28  0.000016  (-0.003652  0.001725 -0.000000)
 13:   1226.57   0.015868   80.19  0.004037  (-0.062131  0.013301 -0.000000)
 14:   1257.94   0.000095    0.48  0.000024  (-0.000001  0.000000  0.004858)
 15:   1401.74   0.000976    4.93  0.000217  (-0.003454 -0.014329 -0.000000)
 16:   1473.78   0.000257    1.30  0.000054  ( 0.000721  0.007339  0.000001)
 17:   1475.00   0.002392   12.09  0.000506  (-0.000000  0.000000 -0.022497)
 18:   1492.23   0.000500    2.53  0.000105  ( 0.006201 -0.008130 -0.000000)
 19:   3002.68   0.004700   23.75  0.000488  (-0.021449 -0.005333  0.000000)
 20:   3076.52   0.000044    0.22  0.000004  (-0.001705  0.001243 -0.000000)
 21:   3090.53   0.003733   18.86  0.000377  (-0.007923  0.017724 -0.000000)
 22:   3109.75   0.001702    8.60  0.000171  (-0.000000  0.000001  0.013070)
 23:   3158.24   0.000987    4.99  0.000098  (-0.000000  0.000000 -0.009877)

--------------------------
THERMOCHEMISTRY AT 298.15K
--------------------------

Temperature         ...   298.15 K
Pressure            ...     1.00 atm
Total Mass          ...   155.96 AMU
Quasi RRHO          ...     True
Cut-Off Frequency   ...     1.00 cm^-1

Throughout the following assumptions are being made:
  (1) The electronic state is orbitally nondegenerate
  (2) There are no thermally accessible electronically excited states
  (3) Hindered rotations indicated by low frequency modes are not
      treated as such but are treated as vibrations and this may
      cause some error
  (4) All equations used are the standard statistical mechanics
      equations for an ideal gas
  (5) All vibrations are strictly harmonic

freq.     254.80  E(vib)   ...       0.30
freq.     271.76  E(vib)   ...       0.29
freq.     486.37  E(vib)   ...       0.15
freq.     755.26  E(vib)   ...       0.06
freq.     966.74  E(vib)   ...       0.03
freq.     990.65  E(vib)   ...       0.02
freq.    1064.32  E(vib)   ...       0.02
freq.    1226.57  E(vib)   ...       0.01
freq.    1257.94  E(vib)   ...       0.01
freq.    1401.74  E(vib)   ...       0.00
freq.    1473.78  E(vib)   ...       0.00
freq.    1475.00  E(vib)   ...       0.00
freq.    1492.23  E(vib)   ...       0.00
freq.    3002.68  E(vib)   ...       0.00
freq.    3076.52  E(vib)   ...       0.00
freq.    3090.53  E(vib)   ...       0.00
freq.    3109.75  E(vib)   ...       0.00
freq.    3158.24  E(vib)   ...       0.00

------------
INNER ENERGY
------------

The inner energy is: U= E(el) + E(ZPE) + E(vib) + E(rot) + E(trans)
    E(el)   - is the total energy from the electronic structure calculation
              = E(kin-el) + E(nuc-el) + E(el-el) + E(nuc-nuc)
    E(ZPE)  - the the zero temperature vibrational energy from the frequency calculation
    E(vib)  - the the finite temperature correction to E(ZPE) due to population
              of excited vibrational states
    E(rot)  - is the rotational thermal energy
    E(trans)- is the translational thermal energy

Summary of contributions to the inner energy U:
Electronic energy                ...   -377.02379488 Eh
Zero point energy                ...      0.06505279 Eh      40.82 kcal/mol
Thermal vibrational correction   ...      0.00142375 Eh       0.89 kcal/mol
Thermal rotational correction    ...      0.00141627 Eh       0.89 kcal/mol
Thermal translational correction ...      0.00141627 Eh       0.89 kcal/mol
-----------------------------------------------------------------------
Total thermal energy                   -376.95448580 Eh

Summary of corrections to the electronic energy:
(perhaps to be used in another calculation)
Total thermal correction                  0.00425629 Eh       2.67 kcal/mol
Non-thermal (ZPE) correction              0.06505279 Eh      40.82 kcal/mol
-----------------------------------------------------------------------
Total correction                          0.06930909 Eh      43.49 kcal/mol

--------
ENTHALPY
--------

The enthalpy is H = U + kB*T
                kB is Boltzmann's constant
Total thermal energy              ...   -376.95448580 Eh
Thermal Enthalpy correction       ...      0.00094421 Eh       0.59 kcal/mol
-----------------------------------------------------------------------
Total Enthalpy                    ...   -376.95354159 Eh

Note: Rotational entropy computed according to Herzberg
Infrared and Raman Spectra, Chapter V,1, Van Nostrand Reinhold, 1945
Point Group:  Cs, Symmetry Number:   1
Rotational constants in cm-1:     0.974198     0.097153     0.091394

Vibrational entropy computed according to the QRRHO of S. Grimme
Chem.Eur.J. 2012 18 9955 using a reference frequency of 100.0 cm-1

-------
ENTROPY
-------

The entropy contributions are T*S = T*(S(el)+S(vib)+S(rot)+S(trans))
     S(el)   - electronic entropy
     S(vib)  - vibrational entropy
     S(rot)  - rotational entropy
     S(trans)- translational entropy
The entropies will be listed as multiplied by the temperature to get
units of energy

Electronic entropy                ...      0.00000000 Eh      0.00 kcal/mol
Vibrational entropy               ...      0.00220275 Eh      1.38 kcal/mol
Rotational entropy                ...      0.01175333 Eh      7.38 kcal/mol
Translational entropy             ...      0.01950069 Eh     12.24 kcal/mol
-----------------------------------------------------------------------
Final entropy term                ...      0.03345677 Eh     20.99 kcal/mol

In case the symmetry of your molecule has not been determined correctly
or in case you have a reason to use a different symmetry number we print
out the resulting rotational entropy values for sn=1,12:

 non-linear molecules -----------------------------------
|  sn= 1 | S(rot)=       0.01175333 Eh      7.38 kcal/mol|
|  sn= 2 | S(rot)=       0.01109887 Eh      6.96 kcal/mol|
|  sn= 3 | S(rot)=       0.01071604 Eh      6.72 kcal/mol|
|  sn= 4 | S(rot)=       0.01044441 Eh      6.55 kcal/mol|
|  sn= 5 | S(rot)=       0.01023373 Eh      6.42 kcal/mol|
|  sn= 6 | S(rot)=       0.01006158 Eh      6.31 kcal/mol|
|  sn= 7 | S(rot)=       0.00991603 Eh      6.22 kcal/mol|
|  sn= 8 | S(rot)=       0.00978996 Eh      6.14 kcal/mol|
|  sn= 9 | S(rot)=       0.00967875 Eh      6.07 kcal/mol|
|  sn=10 | S(rot)=       0.00957927 Eh      6.01 kcal/mol|
|  sn=11 | S(rot)=       0.00948928 Eh      5.95 kcal/mol|
|  sn=12 | S(rot)=       0.00940712 Eh      5.90 kcal/mol|
 linear molecules ---------------------------------------
|  Dinfh | S(rot)=       0.00758483 Eh      4.76 kcal/mol|
|  Cinfv | S(rot)=       0.00823929 Eh      5.17 kcal/mol|
 --------------------------------------------------------

-------------------
GIBBS FREE ENERGY
-------------------

The Gibbs free energy is G = H - T*S

Total enthalpy                    ...   -376.95354159 Eh
Total entropy correction          ...     -0.03345677 Eh    -20.99 kcal/mol
-----------------------------------------------------------------------
Final Gibbs free energy         ...   -376.98699836 Eh

For completeness - the Gibbs free energy minus the electronic energy
G-E(el)                           ...      0.03679653 Eh     23.09 kcal/mol

                             ****ORCA TERMINATED NORMALLY****
TOTAL RUN TIME: 0 days 0 hours 1 minutes 39 seconds 255 msec
