                         Program Version 6.0.1  -  RELEASE   -
|  1> ! pbe def2-sv(p) def2/J RI DEFGRID1 loosescf d4 GCP(DFT/SV(P)) printgap
|  2> %output
|  3>     printlevel normal
|  4> end
|  5> * xyz 0 1
|  6> C 1.0515697089 1.2529659549 -0.2312329781
|  7> C 0.5211205898 0.0076484458 0.4845597317
|  8> C 1.0162974779 -1.2608828455 -0.2130295081
|  9> C -0.9847800715 0.0449772695 0.5526531151
| 10> C -1.7884870486 -0.042217423 -0.4907847684
| 11> H 2.1393836769 1.247684734 -0.2442846868
| 12> H 0.7154232487 2.1552548599 0.2750496013
| 13> H 0.6926886175 1.282182782 -1.2570229098
| 14> H 0.9130478887 0.0087319221 1.5073949739
| 15> H 0.691159698 -1.2813670315 -1.2497356182
| 16> H 2.1033362114 -1.3013974257 -0.1929104193
| 17> H 0.6274257815 -2.1455378197 0.2865416915
| 18> H -1.4096636256 0.1650368503 1.540800604
| 19> H -2.8596413288 -0.0018429057 -0.3879619472
| 20> H -1.4171296132 -0.1584356435 -1.4953640247
| 21> *
| 22>
| 23>                          ****END OF INPUT****

CARTESIAN COORDINATES (ANGSTROEM)
---------------------------------
  C      1.051570    1.252966   -0.231233
  C      0.521121    0.007648    0.484560
  C      1.016297   -1.260883   -0.213030
  C     -0.984780    0.044977    0.552653
  C     -1.788487   -0.042217   -0.490785
  H      2.139384    1.247685   -0.244285
  H      0.715423    2.155255    0.275050
  H      0.692689    1.282183   -1.257023
  H      0.913048    0.008732    1.507395
  H      0.691160   -1.281367   -1.249736
  H      2.103336   -1.301397   -0.192910
  H      0.627426   -2.145538    0.286542
  H     -1.409664    0.165037    1.540801
  H     -2.859641   -0.001843   -0.387962
  H     -1.417130   -0.158436   -1.495364

 Total Charge           Charge          ....    0
 Multiplicity           Mult            ....    1
 Number of Electrons    NEL             ....   40
 Basis Dimension        Dim             ....   90

ORBITAL ENERGIES
----------------

  NO   OCC          E(Eh)            E(eV)
   0   2.0000      -9.897438      -269.3230
   1   2.0000      -9.887821      -269.0613
   2   2.0000      -9.873775      -268.6791
   3   2.0000      -9.873181      -268.6629
   4   2.0000      -9.872776      -268.6519
   5   2.0000      -0.734336       -19.9823
   6   2.0000      -0.655647       -17.8411
   7   2.0000      -0.609602       -16.5881
   8   2.0000      -0.547940       -14.9102
   9   2.0000      -0.468584       -12.7508
  10   2.0000      -0.437236       -11.8978
  11   2.0000      -0.392054       -10.6683
  12   2.0000      -0.368672       -10.0321
  13   2.0000      -0.363263        -9.8849
  14   2.0000      -0.344236        -9.3671
  15   2.0000      -0.339206        -9.2303
  16   2.0000      -0.299767        -8.1571
  17   2.0000      -0.288614        -7.8536
  18   2.0000      -0.277476        -7.5505
  19   2.0000      -0.224105        -6.0982
  20   0.0000      -0.016985        -0.4622
  21   0.0000       0.039043         1.0624
  22   0.0000       0.059692         1.6243
  23   0.0000       0.082461         2.2439
  24   0.0000       0.095734         2.6051

MULLIKEN ATOMIC CHARGES
-----------------------
   0 C :   -0.239175
   1 C :   -0.136927
   2 C :   -0.242997
   3 C :   -0.089302
   4 C :   -0.218712
   5 H :    0.097126
   6 H :    0.101224
   7 H :    0.097553
   8 H :    0.066072
   9 H :    0.098060
  10 H :    0.096669
  11 H :    0.103407
  12 H :    0.068891
  13 H :    0.098765
  14 H :    0.099345
Sum of atomic charges:   -0.0000000

LOEWDIN ATOMIC CHARGES
----------------------
   0 C :   -0.321682
   1 C :   -0.157986
   2 C :   -0.323108
   3 C :   -0.124273
   4 C :   -0.252801
   5 H :    0.115815
   6 H :    0.119344
   7 H :    0.117190
   8 H :    0.116653
   9 H :    0.116564
  10 H :    0.116338
  11 H :    0.119872
  12 H :    0.119293
  13 H :    0.121969
  14 H :    0.116812

  Mayer bond orders larger than 0.100000
B(  0-C ,  1-C ) :   1.1033 B(  0-C ,  5-H ) :   0.9498 B(  0-C ,  6-H ) :   0.9518
B(  0-C ,  7-H ) :   0.9503 B(  1-C ,  2-C ) :   1.1071 B(  1-C ,  3-C ) :   1.0340
B(  1-C ,  8-H ) :   0.8996 B(  2-C ,  9-H ) :   0.9481 B(  2-C , 10-H ) :   0.9500
B(  2-C , 11-H ) :   0.9531 B(  3-C ,  4-C ) :   2.0622 B(  3-C , 12-H ) :   0.9360
B(  4-C , 13-H ) :   0.9228 B(  4-C , 14-H ) :   0.9208

Dispersion correction           -0.010669154
FINAL SINGLE POINT ENERGY      -196.023629007519

DIPOLE MOMENT
-------------

Method             : SCF
Type of density    : Electron Density
Multiplicity       :   1
Irrep              :   0
Energy             :  -196.0713380757260893 Eh
Relativity type    :
Basis              : AO
                                X                 Y                 Z
Electronic contribution:     -1.954529275       0.037888691       1.209188754
Nuclear contribution   :      2.060234700      -0.027853758      -1.142206685
                        -----------------------------------------
Total Dipole Moment    :      0.105705426       0.010034932       0.066982068
                        -----------------------------------------
Magnitude (a.u.)       :      0.125542560
Magnitude (Debye)      :      0.319103828

Rotational constants in cm-1:             0.224800             0.135769             0.107311
Rotational constants in MHz :          6739.343323          4070.244595          3217.116368

                             ****ORCA TERMINATED NORMALLY****
TOTAL RUN TIME: 0 days 0 hours 0 minutes 17 seconds 265 msec
