                         Program Version 6.0.1  -  RELEASE   -
|  1> ! r2scan-3c def2/J RI DEFGRID2 scfconv6 printgap
|  2> %output
|  3>     printlevel normal
|  4> end
|  5> * xyz 0 1
|  6> C -1.9489147209 0.4368334342 0.1416047049
|  7> C -0.8873494375 -0.607625342 -0.1848581679
|  8> C 0.5566954173 -0.1642488207 -0.0115698618
|  9> O 1.4447294013 -0.9438606645 0.2522933071
| 10> N 0.7989930685 1.1536743337 -0.1965483831
| 11> H -2.9298628099 -0.0330169491 0.1535912358
| 12> H -1.7715574749 0.8742160593 1.1218196715
| 13> H -1.9769066574 1.2319750867 -0.6013490271
| 14> H -0.9962330568 -0.9387140177 -1.2213451122
| 15> H -1.0192729589 -1.4871631321 0.4473732671
| 16> H 0.076663078 1.8131806699 -0.416824449
| 17> H 1.7452980198 1.4824811228 -0.1034306288
| 18> *
| 19>
| 20>                          ****END OF INPUT****

CARTESIAN COORDINATES (ANGSTROEM)
---------------------------------
  C     -1.948915    0.436833    0.141605
  C     -0.887349   -0.607625   -0.184858
  C      0.556695   -0.164249   -0.011570
  O      1.444729   -0.943861    0.252293
  N      0.798993    1.153674   -0.196548
  H     -2.929863   -0.033017    0.153591
  H     -1.771557    0.874216    1.121820
  H     -1.976907    1.231975   -0.601349
  H     -0.996233   -0.938714   -1.221345
  H     -1.019273   -1.487163    0.447373
  H      0.076663    1.813181   -0.416824
  H      1.745298    1.482481   -0.103431

 Total Charge           Charge          ....    0
 Multiplicity           Mult            ....    1
 Number of Electrons    NEL             ....   40
 Basis Dimension        Dim             ....  140

ORBITAL ENERGIES
----------------

  NO   OCC          E(Eh)            E(eV)
   0   2.0000     -18.907524      -514.4999
   1   2.0000     -14.180558      -385.8726
   2   2.0000     -10.126931      -275.5678
   3   2.0000     -10.042147      -273.2607
   4   2.0000     -10.038007      -273.1481
   5   2.0000      -0.999829       -27.2067
   6   2.0000      -0.873707       -23.7748
   7   2.0000      -0.750047       -20.4098
   8   2.0000      -0.628142       -17.0926
   9   2.0000      -0.554687       -15.0938
  10   2.0000      -0.513928       -13.9847
  11   2.0000      -0.444224       -12.0880
  12   2.0000      -0.422469       -11.4960
  13   2.0000      -0.396114       -10.7788
  14   2.0000      -0.373482       -10.1630
  15   2.0000      -0.352500        -9.5920
  16   2.0000      -0.340547        -9.2667
  17   2.0000      -0.322066        -8.7639
  18   2.0000      -0.244443        -6.6516
  19   2.0000      -0.214820        -5.8455
  20   0.0000       0.003194         0.0869
  21   0.0000       0.063022         1.7149
  22   0.0000       0.115360         3.1391
  23   0.0000       0.122788         3.3412
  24   0.0000       0.131450         3.5769

MULLIKEN ATOMIC CHARGES
-----------------------
   0 C :   -0.486263
   1 C :   -0.291355
   2 C :    0.278200
   3 O :   -0.408751
   4 N :   -0.368320
   5 H :    0.155358
   6 H :    0.167612
   7 H :    0.130431
   8 H :    0.169516
   9 H :    0.165812
  10 H :    0.243451
  11 H :    0.244310
Sum of atomic charges:   -0.0000000

LOEWDIN ATOMIC CHARGES
----------------------
   0 C :   -0.414476
   1 C :   -0.254847
   2 C :    0.295674
   3 O :   -0.453594
   4 N :   -0.507427
   5 H :    0.157162
   6 H :    0.157486
   7 H :    0.145187
   8 H :    0.177806
   9 H :    0.179343
  10 H :    0.256782
  11 H :    0.260904

  Mayer bond orders larger than 0.100000
B(  0-C ,  1-C ) :   0.8730 B(  0-C ,  5-H ) :   0.9627 B(  0-C ,  6-H ) :   0.9843
B(  0-C ,  7-H ) :   0.9731 B(  1-C ,  2-C ) :   0.9952 B(  1-C ,  8-H ) :   0.9234
B(  1-C ,  9-H ) :   0.9611 B(  2-C ,  3-O ) :   1.9640 B(  2-C ,  4-N ) :   1.0921
B(  4-N , 10-H ) :   0.9132 B(  4-N , 11-H ) :   0.9185

Dispersion correction           -0.002478630
FINAL SINGLE POINT ENERGY      -248.471419922871

DIPOLE MOMENT
-------------

Method             : SCF
Type of density    : Electron Density
Multiplicity       :   1
Irrep              :   0
Energy             :  -248.4773821549690638 Eh
Relativity type    :
Basis              : AO
                                X                 Y                 Z
Electronic contribution:      5.487341209      -1.579926502       0.253710947
Nuclear contribution   :     -6.421169393       2.753316686      -0.579155302
                        -----------------------------------------
Total Dipole Moment    :     -0.933828185       1.173390184      -0.325444355
                        -----------------------------------------
Magnitude (a.u.)       :      1.534533685
Magnitude (Debye)      :      3.900474651

Rotational constants in cm-1:             0.309361             0.130297             0.097178
Rotational constants in MHz :          9274.419138          3906.215240          2913.311811

                             ****ORCA TERMINATED NORMALLY****
TOTAL RUN TIME: 0 days 0 hours 0 minutes 29 seconds 65 msec
