                         Program Version 6.0.1  -  RELEASE   -
|  1> ! pbe def2-sv(p) def2/J RI DEFGRID1 loosescf d4 GCP(DFT/SV(P)) printgap
|  2> %output
|  3>     printlevel normal
|  4> end
|  5> * xyz 0 1
|  6> C -2.7694978816 -0.1384586748 -0.1824798162
|  7> O -1.4672894073 -0.4663637896 -0.6567728141
|  8> C -0.418266354 0.0049025058 0.0229919923
|  9> O -0.4812122184 0.6842371947 1.0058584702
| 10> C 0.8616439118 -0.4702246911 -0.6595495558
| 11> C 2.0506918369 0.0162465913 -0.0061481923
| 12> N 3.0060836045 0.3901198296 0.4941458374
| 13> H -3.3200003736 -1.0683826312 -0.0448056344
| 14> H -3.2647313699 0.479093219 -0.9319749307
| 15> H -2.697137985 0.4038808507 0.7615344025
| 16> H 0.8504935998 -0.1289526475 -1.698618447
| 17> H 0.868837427 -1.5640603329 -0.6610035728
| 18> *
| 19>
| 20>                          ****END OF INPUT****

CARTESIAN COORDINATES (ANGSTROEM)
---------------------------------
  C     -2.769498   -0.138459   -0.182480
  O     -1.467289   -0.466364   -0.656773
  C     -0.418266    0.004903    0.022992
  O     -0.481212    0.684237    1.005858
  C      0.861644   -0.470225   -0.659550
  C      2.050692    0.016247   -0.006148
  N      3.006084    0.390120    0.494146
  H     -3.320000   -1.068383   -0.044806
  H     -3.264731    0.479093   -0.931975
  H     -2.697138    0.403881    0.761534
  H      0.850494   -0.128953   -1.698618
  H      0.868837   -1.564060   -0.661004

 Total Charge           Charge          ....    0
 Multiplicity           Mult            ....    1
 Number of Electrons    NEL             ....   52
 Basis Dimension        Dim             ....  108

ORBITAL ENERGIES
----------------

  NO   OCC          E(Eh)            E(eV)
   0   2.0000     -18.825637      -512.2716
   1   2.0000     -18.765319      -510.6303
   2   2.0000     -13.986535      -380.5930
   3   2.0000     -10.037962      -273.1468
   4   2.0000      -9.955893      -270.9136
   5   2.0000      -9.955454      -270.9017
   6   2.0000      -9.932317      -270.2721
   7   2.0000      -1.031974       -28.0815
   8   2.0000      -0.945546       -25.7296
   9   2.0000      -0.821501       -22.3542
  10   2.0000      -0.741268       -20.1709
  11   2.0000      -0.672482       -18.2992
  12   2.0000      -0.540912       -14.7190
  13   2.0000      -0.489471       -13.3192
  14   2.0000      -0.470873       -12.8131
  15   2.0000      -0.467782       -12.7290
  16   2.0000      -0.429290       -11.6816
  17   2.0000      -0.424787       -11.5590
  18   2.0000      -0.393998       -10.7212
  19   2.0000      -0.366744        -9.9796
  20   2.0000      -0.325124        -8.8471
  21   2.0000      -0.301835        -8.2134
  22   2.0000      -0.299851        -8.1594
  23   2.0000      -0.298320        -8.1177
  24   2.0000      -0.280320        -7.6279
  25   2.0000      -0.253200        -6.8899
  26   0.0000      -0.044588        -1.2133
  27   0.0000      -0.006040        -0.1644
  28   0.0000       0.002096         0.0570
  29   0.0000       0.030233         0.8227
  30   0.0000       0.051349         1.3973

MULLIKEN ATOMIC CHARGES
-----------------------
   0 C :   -0.138888
   1 O :   -0.244718
   2 C :    0.106402
   3 O :   -0.149259
   4 C :   -0.130954
   5 C :   -0.234481
   6 N :    0.078529
   7 H :    0.129549
   8 H :    0.129563
   9 H :    0.142611
  10 H :    0.155678
  11 H :    0.155968
Sum of atomic charges:    0.0000000

LOEWDIN ATOMIC CHARGES
----------------------
   0 C :   -0.208656
   1 O :   -0.077374
   2 C :    0.042517
   3 O :   -0.123695
   4 C :   -0.263904
   5 C :   -0.049862
   6 N :   -0.044591
   7 H :    0.123917
   8 H :    0.123588
   9 H :    0.127944
  10 H :    0.174747
  11 H :    0.175370

  Mayer bond orders larger than 0.100000
B(  0-C ,  1-O ) :   0.9321 B(  0-C ,  7-H ) :   0.9594 B(  0-C ,  8-H ) :   0.9591
B(  0-C ,  9-H ) :   0.9297 B(  1-O ,  2-C ) :   1.2115 B(  1-O ,  3-O ) :   0.1072
B(  2-C ,  3-O ) :   2.1328 B(  2-C ,  4-C ) :   0.9625 B(  4-C ,  5-C ) :   1.1603
B(  4-C , 10-H ) :   0.8618 B(  4-C , 11-H ) :   0.8593 B(  5-C ,  6-N ) :   3.0709

Dispersion correction           -0.008589182
FINAL SINGLE POINT ENERGY      -359.878917509808

DIPOLE MOMENT
-------------

Method             : SCF
Type of density    : Electron Density
Multiplicity       :   1
Irrep              :   0
Energy             :  -359.9219943536016899 Eh
Relativity type    :
Basis              : AO
                                X                 Y                 Z
Electronic contribution:      5.512670842       0.992537181       1.354371279
Nuclear contribution   :     -7.107303084      -1.756912808      -2.407784912
                        -----------------------------------------
Total Dipole Moment    :     -1.594632241      -0.764375626      -1.053413633
                        -----------------------------------------
Magnitude (a.u.)       :      2.058349427
Magnitude (Debye)      :      5.231908458

Rotational constants in cm-1:             0.317772             0.047330             0.041848
Rotational constants in MHz :          9526.560094          1418.908448          1254.569872

                             ****ORCA TERMINATED NORMALLY****
TOTAL RUN TIME: 0 days 0 hours 0 minutes 7 seconds 856 msec
