                         Program Version 6.0.1  -  RELEASE   -
|  1> ! r2scan-3c def2/J RI DEFGRID2 scfconv6 printgap
|  2> %output
|  3>     printlevel normal
|  4> end
|  5> * xyz 0 1
|  6> C 2.3961298844 -0.6569425769 -0.1037649546
|  7> C 1.0808691764 -0.1222098347 0.4477314799
|  8> H 1.1053577251 -0.1717654162 1.5492669204
|  9> C 0.7629222847 1.3094720486 -0.0002401986
| 10> C -0.7612914811 1.3113453962 -0.0019362774
| 11> C -1.0839961035 -0.1197856596 -0.4491091992
| 12> H -1.1190466704 -0.1684551858 -1.550253798
| 13> O 0.0003132206 -0.9275398698 -0.0070627487
| 14> C -2.3949560435 -0.6534588752 0.1139558461
| 15> H 3.2230349283 -0.0481773662 0.2528859697
| 16> H 2.5415155858 -1.6831578984 0.2214283389
| 17> H 2.3789374528 -0.638610153 -1.1907266659
| 18> H 1.1936724355 2.0541932895 0.6653302853
| 19> H 1.1437279839 1.4727991648 -1.0099059627
| 20> H -1.1414059874 1.4767703396 1.0076482071
| 21> H -1.1901767894 2.0568116858 -0.6678834706
| 22> H -2.543284182 -1.6799873359 -0.2091815586
| 23> H -3.2246587095 -0.0446916036 -0.236388789
| 24> H -2.3688052394 -0.6341799748 1.2008060057
| 25> *
| 26>
| 27>                          ****END OF INPUT****

CARTESIAN COORDINATES (ANGSTROEM)
---------------------------------
  C      2.396130   -0.656943   -0.103765
  C      1.080869   -0.122210    0.447731
  H      1.105358   -0.171765    1.549267
  C      0.762922    1.309472   -0.000240
  C     -0.761291    1.311345   -0.001936
  C     -1.083996   -0.119786   -0.449109
  H     -1.119047   -0.168455   -1.550254
  O      0.000313   -0.927540   -0.007063
  C     -2.394956   -0.653459    0.113956
  H      3.223035   -0.048177    0.252886
  H      2.541516   -1.683158    0.221428
  H      2.378937   -0.638610   -1.190727
  H      1.193672    2.054193    0.665330
  H      1.143728    1.472799   -1.009906
  H     -1.141406    1.476770    1.007648
  H     -1.190177    2.056812   -0.667883
  H     -2.543284   -1.679987   -0.209182
  H     -3.224659   -0.044692   -0.236389
  H     -2.368805   -0.634180    1.200806

 Total Charge           Charge          ....    0
 Multiplicity           Mult            ....    1
 Number of Electrons    NEL             ....   56
 Basis Dimension        Dim             ....  198

ORBITAL ENERGIES
----------------

  NO   OCC          E(Eh)            E(eV)
   0   2.0000     -18.938584      -515.3451
   1   2.0000     -10.076453      -274.1942
   2   2.0000     -10.076437      -274.1938
   3   2.0000     -10.028776      -272.8969
   4   2.0000     -10.028633      -272.8930
   5   2.0000     -10.014497      -272.5083
   6   2.0000     -10.014476      -272.5077
   7   2.0000      -0.994616       -27.0649
   8   2.0000      -0.752596       -20.4792
   9   2.0000      -0.745424       -20.2840
  10   2.0000      -0.677492       -18.4355
  11   2.0000      -0.607669       -16.5355
  12   2.0000      -0.560271       -15.2458
  13   2.0000      -0.520221       -14.1559
  14   2.0000      -0.472146       -12.8477
  15   2.0000      -0.449012       -12.2182
  16   2.0000      -0.399194       -10.8626
  17   2.0000      -0.396976       -10.8023
  18   2.0000      -0.388025       -10.5587
  19   2.0000      -0.371066       -10.0972
  20   2.0000      -0.354021        -9.6334
  21   2.0000      -0.338982        -9.2242
  22   2.0000      -0.332459        -9.0467
  23   2.0000      -0.310535        -8.4501
  24   2.0000      -0.299062        -8.1379
  25   2.0000      -0.295332        -8.0364
  26   2.0000      -0.276994        -7.5374
  27   2.0000      -0.207449        -5.6450
  28   0.0000       0.080970         2.2033
  29   0.0000       0.097510         2.6534
  30   0.0000       0.109745         2.9863
  31   0.0000       0.114794         3.1237
  32   0.0000       0.128972         3.5095

MULLIKEN ATOMIC CHARGES
-----------------------
   0 C :   -0.497002
   1 C :    0.053060
   2 H :    0.135741
   3 C :   -0.332443
   4 C :   -0.332621
   5 C :    0.052931
   6 H :    0.135861
   7 O :   -0.250781
   8 C :   -0.496991
   9 H :    0.141222
  10 H :    0.155023
  11 H :    0.149589
  12 H :    0.155463
  13 H :    0.164853
  14 H :    0.164913
  15 H :    0.155516
  16 H :    0.155097
  17 H :    0.141230
  18 H :    0.149339
Sum of atomic charges:    0.0000000

LOEWDIN ATOMIC CHARGES
----------------------
   0 C :   -0.386875
   1 C :    0.064455
   2 H :    0.164393
   3 C :   -0.266853
   4 C :   -0.267042
   5 C :    0.064334
   6 H :    0.164616
   7 O :   -0.748950
   8 C :   -0.387141
   9 H :    0.156688
  10 H :    0.160038
  11 H :    0.157644
  12 H :    0.163153
  13 H :    0.162109
  14 H :    0.162068
  15 H :    0.163186
  16 H :    0.160030
  17 H :    0.156661
  18 H :    0.157487

  Mayer bond orders larger than 0.100000
B(  0-C ,  1-C ) :   0.9510 B(  0-C ,  9-H ) :   0.9739 B(  0-C , 10-H ) :   0.9712
B(  0-C , 11-H ) :   0.9865 B(  1-C ,  2-H ) :   0.9108 B(  1-C ,  3-C ) :   0.9258
B(  1-C ,  7-O ) :   0.8235 B(  3-C ,  4-C ) :   0.8699 B(  3-C , 12-H ) :   0.9672
B(  3-C , 13-H ) :   0.9989 B(  4-C ,  5-C ) :   0.9261 B(  4-C , 14-H ) :   0.9991
B(  4-C , 15-H ) :   0.9668 B(  5-C ,  6-H ) :   0.9107 B(  5-C ,  7-O ) :   0.8259
B(  5-C ,  8-C ) :   0.9521 B(  8-C , 16-H ) :   0.9713 B(  8-C , 17-H ) :   0.9738
B(  8-C , 18-H ) :   0.9864

Dispersion correction           -0.004973740
FINAL SINGLE POINT ENERGY      -310.996846595750

DIPOLE MOMENT
-------------

Method             : SCF
Type of density    : Electron Density
Multiplicity       :   1
Irrep              :   0
Energy             :  -311.0019266025424258 Eh
Relativity type    :
Basis              : AO
                                X                 Y                 Z
Electronic contribution:      0.000790276      -1.248597949      -0.027210131
Nuclear contribution   :     -0.001056856       1.854642981       0.030878586
                        -----------------------------------------
Total Dipole Moment    :     -0.000266581       0.606045032       0.003668455
                        -----------------------------------------
Magnitude (a.u.)       :      0.606056194
Magnitude (Debye)      :      1.540472421

Rotational constants in cm-1:             0.166838             0.067623             0.052917
Rotational constants in MHz :          5001.667307          2027.289088          1586.412387

                             ****ORCA TERMINATED NORMALLY****
TOTAL RUN TIME: 0 days 0 hours 0 minutes 19 seconds 769 msec
