                         Program Version 6.0.1  -  RELEASE   -
|  1> ! pbe def2-sv(p) def2/J RI DEFGRID1 loosescf d4 GCP(DFT/SV(P)) printgap
|  2> %output
|  3>     printlevel normal
|  4> end
|  5> * xyz 0 1
|  6> C 2.873090118 2.2088193699 1.2143523045
|  7> C 2.1611554896 1.7201858515 -0.0463699096
|  8> C 2.8602453005 0.4736186935 -0.6470978773
|  9> C 1.8620916639 -0.6169009656 -0.4012625648
| 10> C 1.9136514624 -1.9686255311 -0.6573006483
| 11> C 0.815614188 -2.751295812 -0.3229623033
| 12> C -0.3052743575 -2.183769712 0.2556605676
| 13> C -0.3682486632 -0.8159688079 0.5156280845
| 14> C 0.7317914929 -0.0351153288 0.1743843241
| 15> O 0.8325464252 1.2973842234 0.3379537417
| 16> O -1.4566718163 -0.253807631 1.1593130278
| 17> C -2.6696158271 -0.1582986844 0.5573546162
| 18> O -3.6311441949 0.1754950577 1.1953078156
| 19> N -2.6953985958 -0.4557775194 -0.7649042862
| 20> C -3.9066066885 -0.3629277163 -1.5408467423
| 21> C 2.0136319878 2.84921597 -1.0627260791
| 22> H 2.9540323648 1.3964913957 1.9333203228
| 23> H 3.8680806209 2.5708336308 0.9691265206
| 24> H 2.302626534 3.0142334937 1.6691584879
| 25> H 3.0547254115 0.5989905624 -1.7145806408
| 26> H 3.8111094592 0.2727553873 -0.1523055381
| 27> H 2.7903005281 -2.410312298 -1.1051543823
| 28> H 0.8362011888 -3.8134739745 -0.5095591257
| 29> H -1.1528026544 -2.7956588697 0.5255907463
| 30> H -1.833441379 -0.6574620963 -1.2473165186
| 31> H -4.1205128791 -1.3162909356 -2.0277049667
| 32> H -3.8266367867 0.4185626462 -2.2994180174
| 33> H -4.7144745622 -0.1161104986 -0.854387452
| 34> H 1.4504430269 3.6677913677 -0.6227407473
| 35> H 1.4786012067 2.4963402801 -1.9417146266
| 36> H 2.9928967804 3.211982186 -1.3632458721
| 37> *
| 38>
| 39>                          ****END OF INPUT****

CARTESIAN COORDINATES (ANGSTROEM)
---------------------------------
  C      2.873090    2.208819    1.214352
  C      2.161155    1.720186   -0.046370
  C      2.860245    0.473619   -0.647098
  C      1.862092   -0.616901   -0.401263
  C      1.913651   -1.968626   -0.657301
  C      0.815614   -2.751296   -0.322962
  C     -0.305274   -2.183770    0.255661
  C     -0.368249   -0.815969    0.515628
  C      0.731791   -0.035115    0.174384
  O      0.832546    1.297384    0.337954
  O     -1.456672   -0.253808    1.159313
  C     -2.669616   -0.158299    0.557355
  O     -3.631144    0.175495    1.195308
  N     -2.695399   -0.455778   -0.764904
  C     -3.906607   -0.362928   -1.540847
  C      2.013632    2.849216   -1.062726
  H      2.954032    1.396491    1.933320
  H      3.868081    2.570834    0.969127
  H      2.302627    3.014233    1.669158
  H      3.054725    0.598991   -1.714581
  H      3.811109    0.272755   -0.152306
  H      2.790301   -2.410312   -1.105154
  H      0.836201   -3.813474   -0.509559
  H     -1.152803   -2.795659    0.525591
  H     -1.833441   -0.657462   -1.247317
  H     -4.120513   -1.316291   -2.027705
  H     -3.826637    0.418563   -2.299418
  H     -4.714475   -0.116110   -0.854387
  H      1.450443    3.667791   -0.622741
  H      1.478601    2.496340   -1.941715
  H      2.992897    3.211982   -1.363246

 Total Charge           Charge          ....    0
 Multiplicity           Mult            ....    1
 Number of Electrons    NEL             ....  118
 Basis Dimension        Dim             ....  254

ORBITAL ENERGIES
----------------

  NO   OCC          E(Eh)            E(eV)
   0   2.0000     -18.797325      -511.5012
   1   2.0000     -18.791771      -511.3501
   2   2.0000     -18.704573      -508.9773
   3   2.0000     -14.016974      -381.4213
   4   2.0000     -10.018269      -272.6109
   5   2.0000      -9.970540      -271.3122
   6   2.0000      -9.957359      -270.9535
   7   2.0000      -9.954580      -270.8779
   8   2.0000      -9.916313      -269.8366
   9   2.0000      -9.908233      -269.6167
  10   2.0000      -9.908142      -269.6143
  11   2.0000      -9.902703      -269.4663
  12   2.0000      -9.902294      -269.4551
  13   2.0000      -9.898847      -269.3613
  14   2.0000      -9.889874      -269.1172
  15   2.0000      -9.887639      -269.0563
  16   2.0000      -1.007143       -27.4058
  17   2.0000      -0.986778       -26.8516
  18   2.0000      -0.913573       -24.8596
  19   2.0000      -0.834572       -22.7099
  20   2.0000      -0.784565       -21.3491
  21   2.0000      -0.745246       -20.2792
  22   2.0000      -0.702213       -19.1082
  23   2.0000      -0.678054       -18.4508
  24   2.0000      -0.638371       -17.3710
  25   2.0000      -0.633527       -17.2392
  26   2.0000      -0.626180       -17.0392
  27   2.0000      -0.580385       -15.7931
  28   2.0000      -0.562055       -15.2943
  29   2.0000      -0.529906       -14.4195
  30   2.0000      -0.523784       -14.2529
  31   2.0000      -0.511637       -13.9224
  32   2.0000      -0.466223       -12.6866
  33   2.0000      -0.446851       -12.1594
  34   2.0000      -0.439382       -11.9562
  35   2.0000      -0.435790       -11.8584
  36   2.0000      -0.430095       -11.7035
  37   2.0000      -0.413701       -11.2574
  38   2.0000      -0.399893       -10.8816
  39   2.0000      -0.381934       -10.3929
  40   2.0000      -0.378523       -10.3001
  41   2.0000      -0.370955       -10.0942
  42   2.0000      -0.368140       -10.0176
  43   2.0000      -0.362564        -9.8659
  44   2.0000      -0.361384        -9.8337
  45   2.0000      -0.348914        -9.4944
  46   2.0000      -0.345241        -9.3945
  47   2.0000      -0.340197        -9.2572
  48   2.0000      -0.330736        -8.9998
  49   2.0000      -0.328442        -8.9374
  50   2.0000      -0.320930        -8.7329
  51   2.0000      -0.310994        -8.4626
  52   2.0000      -0.293916        -7.9979
  53   2.0000      -0.286854        -7.8057
  54   2.0000      -0.258479        -7.0336
  55   2.0000      -0.226836        -6.1725
  56   2.0000      -0.216622        -5.8946
  57   2.0000      -0.209742        -5.7074
  58   2.0000      -0.193678        -5.2702
  59   0.0000      -0.046318        -1.2604
  60   0.0000      -0.028178        -0.7668
  61   0.0000       0.021707         0.5907
  62   0.0000       0.031763         0.8643
  63   0.0000       0.041419         1.1271

MULLIKEN ATOMIC CHARGES
-----------------------
   0 C :   -0.194170
   1 C :   -0.092025
   2 C :   -0.005053
   3 C :   -0.048318
   4 C :   -0.149548
   5 C :   -0.046713
   6 C :   -0.137956
   7 C :    0.032411
   8 C :    0.204396
   9 O :   -0.235379
  10 O :   -0.201757
  11 C :    0.202060
  12 O :   -0.195647
  13 N :   -0.335798
  14 C :   -0.179733
  15 C :   -0.201445
  16 H :    0.109167
  17 H :    0.103434
  18 H :    0.114320
  19 H :    0.092787
  20 H :    0.095082
  21 H :    0.035245
  22 H :    0.053589
  23 H :    0.050617
  24 H :    0.246323
  25 H :    0.110401
  26 H :    0.111839
  27 H :    0.139454
  28 H :    0.113777
  29 H :    0.102879
  30 H :    0.105761
Sum of atomic charges:   -0.0000000

LOEWDIN ATOMIC CHARGES
----------------------
   0 C :   -0.326867
   1 C :    0.015618
   2 C :   -0.199476
   3 C :   -0.067775
   4 C :   -0.126581
   5 C :   -0.140685
   6 C :   -0.139843
   7 C :   -0.015889
   8 C :    0.019098
   9 O :   -0.060788
  10 O :   -0.037473
  11 C :    0.028880
  12 O :   -0.182070
  13 N :   -0.195265
  14 C :   -0.258570
  15 C :   -0.326672
  16 H :    0.126338
  17 H :    0.124703
  18 H :    0.128346
  19 H :    0.131514
  20 H :    0.133859
  21 H :    0.125506
  22 H :    0.125837
  23 H :    0.135137
  24 H :    0.237077
  25 H :    0.115398
  26 H :    0.115380
  27 H :    0.138304
  28 H :    0.128259
  29 H :    0.122437
  30 H :    0.126261

  Mayer bond orders larger than 0.100000
B(  0-C ,  1-C ) :   1.0996 B(  0-C , 16-H ) :   0.9372 B(  0-C , 17-H ) :   0.9396
B(  0-C , 18-H ) :   0.9394 B(  1-C ,  2-C ) :   1.0553 B(  1-C ,  9-O ) :   0.9368
B(  1-C , 15-C ) :   1.1031 B(  2-C ,  3-C ) :   1.0658 B(  2-C , 19-H ) :   0.8786
B(  2-C , 20-H ) :   0.8804 B(  3-C ,  4-C ) :   1.3879 B(  3-C ,  6-C ) :   0.1025
B(  3-C ,  8-C ) :   1.3273 B(  4-C ,  5-C ) :   1.2984 B(  4-C , 21-H ) :   0.9853
B(  5-C ,  6-C ) :   1.3341 B(  5-C , 22-H ) :   0.9646 B(  6-C ,  7-C ) :   1.3701
B(  6-C , 23-H ) :   0.9723 B(  7-C ,  8-C ) :   1.3307 B(  7-C , 10-O ) :   1.0586
B(  8-C ,  9-O ) :   1.1739 B( 10-O , 11-C ) :   1.0548 B( 11-C , 12-O ) :   2.0973
B( 11-C , 13-N ) :   1.1821 B( 13-N , 14-C ) :   1.0296 B( 13-N , 24-H ) :   0.8390
B( 14-C , 25-H ) :   0.9580 B( 14-C , 26-H ) :   0.9591 B( 14-C , 27-H ) :   0.9346
B( 15-C , 28-H ) :   0.9407 B( 15-C , 29-H ) :   0.9380 B( 15-C , 30-H ) :   0.9409

Dispersion correction           -0.036289825
FINAL SINGLE POINT ENERGY      -745.170353260265

DIPOLE MOMENT
-------------

Method             : SCF
Type of density    : Electron Density
Multiplicity       :   1
Irrep              :   0
Energy             :  -745.2718447424510941 Eh
Relativity type    :
Basis              : AO
                                X                 Y                 Z
Electronic contribution:     -7.578459384      -6.351881756       6.538458288
Nuclear contribution   :      9.201747351       6.149945646      -8.164787671
                        -----------------------------------------
Total Dipole Moment    :      1.623287967      -0.201936110      -1.626329383
                        -----------------------------------------
Magnitude (a.u.)       :      2.306683610
Magnitude (Debye)      :      5.863123787

Rotational constants in cm-1:             0.027665             0.012060             0.010008
Rotational constants in MHz :           829.373661           361.556825           300.022945

                             ****ORCA TERMINATED NORMALLY****
TOTAL RUN TIME: 0 days 0 hours 0 minutes 29 seconds 293 msec
