                         Program Version 6.0.1  -  RELEASE   -
|  1> ! r2scan-3c def2/J RI DEFGRID2 scfconv6 printgap
|  2> %output
|  3>     printlevel normal
|  4> end
|  5> * xyz 0 1
|  6> C -3.1949444991 0.5598243351 0.0104779034
|  7> O -2.2939970297 -0.5167975825 -0.0004215167
|  8> C -0.9515849906 -0.2379844131 -0.0019854843
|  9> C -0.1001920055 -1.3422567694 -0.0023580803
| 10> C 1.266797677 -1.1770017069 -0.0073526699
| 11> C 1.8303221516 0.0999727532 -0.0104715112
| 12> C 0.9756773556 1.19729399 -0.0124779409
| 13> C -0.3991479394 1.0357033873 -0.0069999033
| 14> N 3.2052110224 0.2679832712 0.0631758039
| 15> H -3.0881677555 1.1860523654 -0.8822487599
| 16> H -3.0720295477 1.1809581641 0.9045360486
| 17> H -4.1887230473 0.1140668532 0.0179102718
| 18> H -0.5382299259 -2.3278120222 -0.0012517499
| 19> H 1.9138773354 -2.0423688495 -0.0068615249
| 20> H 1.3925598423 2.194526994 -0.0160901444
| 21> H -1.0235703121 1.9154244888 -0.0092966411
| 22> H 3.7545755624 -0.5161688696 -0.2515004504
| 23> H 3.5512830524 1.1594740388 -0.2550337746
| 24> *
| 25>
| 26>                          ****END OF INPUT****

CARTESIAN COORDINATES (ANGSTROEM)
---------------------------------
  C     -3.194944    0.559824    0.010478
  O     -2.293997   -0.516798   -0.000422
  C     -0.951585   -0.237984   -0.001985
  C     -0.100192   -1.342257   -0.002358
  C      1.266798   -1.177002   -0.007353
  C      1.830322    0.099973   -0.010472
  C      0.975677    1.197294   -0.012478
  C     -0.399148    1.035703   -0.007000
  N      3.205211    0.267983    0.063176
  H     -3.088168    1.186052   -0.882249
  H     -3.072030    1.180958    0.904536
  H     -4.188723    0.114067    0.017910
  H     -0.538230   -2.327812   -0.001252
  H      1.913877   -2.042369   -0.006862
  H      1.392560    2.194527   -0.016090
  H     -1.023570    1.915424   -0.009297
  H      3.754576   -0.516169   -0.251500
  H      3.551283    1.159474   -0.255034

 Total Charge           Charge          ....    0
 Multiplicity           Mult            ....    1
 Number of Electrons    NEL             ....   66
 Basis Dimension        Dim             ....  226

ORBITAL ENERGIES
----------------

  NO   OCC          E(Eh)            E(eV)
   0   2.0000     -18.973342      -516.2909
   1   2.0000     -14.161624      -385.3574
   2   2.0000     -10.078870      -274.2600
   3   2.0000     -10.078290      -274.2442
   4   2.0000     -10.063628      -273.8452
   5   2.0000     -10.027546      -272.8634
   6   2.0000     -10.025461      -272.8067
   7   2.0000     -10.024768      -272.7878
   8   2.0000     -10.024174      -272.7716
   9   2.0000      -1.022329       -27.8190
  10   2.0000      -0.884045       -24.0561
  11   2.0000      -0.802340       -21.8328
  12   2.0000      -0.715593       -19.4723
  13   2.0000      -0.703635       -19.1469
  14   2.0000      -0.649440       -17.6721
  15   2.0000      -0.583532       -15.8787
  16   2.0000      -0.554985       -15.1019
  17   2.0000      -0.501429       -13.6446
  18   2.0000      -0.484713       -13.1897
  19   2.0000      -0.470038       -12.7904
  20   2.0000      -0.429107       -11.6766
  21   2.0000      -0.425130       -11.5684
  22   2.0000      -0.410813       -11.1788
  23   2.0000      -0.387426       -10.5424
  24   2.0000      -0.372762       -10.1434
  25   2.0000      -0.364066        -9.9067
  26   2.0000      -0.352697        -9.5974
  27   2.0000      -0.320193        -8.7129
  28   2.0000      -0.310995        -8.4626
  29   2.0000      -0.288307        -7.8452
  30   2.0000      -0.248692        -6.7672
  31   2.0000      -0.231139        -6.2896
  32   2.0000      -0.164856        -4.4860
  33   0.0000      -0.026937        -0.7330
  34   0.0000       0.006070         0.1652
  35   0.0000       0.071882         1.9560
  36   0.0000       0.078004         2.1226
  37   0.0000       0.091906         2.5009

MULLIKEN ATOMIC CHARGES
-----------------------
   0 C :   -0.342119
   1 O :   -0.186502
   2 C :    0.299251
   3 C :   -0.285194
   4 C :   -0.355629
   5 C :    0.521448
   6 C :   -0.391445
   7 C :   -0.248289
   8 N :   -0.547712
   9 H :    0.148082
  10 H :    0.148923
  11 H :    0.151286
  12 H :    0.156733
  13 H :    0.138501
  14 H :    0.137196
  15 H :    0.147752
  16 H :    0.254037
  17 H :    0.253680
Sum of atomic charges:    0.0000000

LOEWDIN ATOMIC CHARGES
----------------------
   0 C :   -0.060435
   1 O :   -0.695155
   2 C :    0.166871
   3 C :   -0.121658
   4 C :   -0.151786
   5 C :    0.109659
   6 C :   -0.156967
   7 C :   -0.163262
   8 N :   -0.620299
   9 H :    0.161445
  10 H :    0.161976
  11 H :    0.178321
  12 H :    0.180232
  13 H :    0.169083
  14 H :    0.168134
  15 H :    0.174551
  16 H :    0.249685
  17 H :    0.249605

  Mayer bond orders larger than 0.100000
B(  0-C ,  1-O ) :   0.8672 B(  0-C ,  9-H ) :   0.9643 B(  0-C , 10-H ) :   0.9641
B(  0-C , 11-H ) :   0.9687 B(  1-O ,  2-C ) :   1.0308 B(  2-C ,  3-C ) :   1.4308
B(  2-C ,  7-C ) :   1.4039 B(  3-C ,  4-C ) :   1.3901 B(  3-C , 12-H ) :   0.9345
B(  4-C ,  5-C ) :   1.3182 B(  4-C , 13-H ) :   0.9402 B(  5-C ,  6-C ) :   1.3684
B(  5-C ,  8-N ) :   0.9201 B(  6-C ,  7-C ) :   1.3817 B(  6-C , 14-H ) :   0.9353
B(  7-C , 15-H ) :   0.9111 B(  8-N , 16-H ) :   0.9275 B(  8-N , 17-H ) :   0.9271

Dispersion correction           -0.005695297
FINAL SINGLE POINT ENERGY      -402.026846138598

DIPOLE MOMENT
-------------

Method             : SCF
Type of density    : Electron Density
Multiplicity       :   1
Irrep              :   0
Energy             :  -402.0310702855758791 Eh
Relativity type    :
Basis              : AO
                                X                 Y                 Z
Electronic contribution:      1.555981350      -2.219035042       0.135771346
Nuclear contribution   :     -1.234548364       2.680874152      -0.468591253
                        -----------------------------------------
Total Dipole Moment    :      0.321432986       0.461839110      -0.332819907
                        -----------------------------------------
Magnitude (a.u.)       :      0.653745836
Magnitude (Debye)      :      1.661689859

Rotational constants in cm-1:             0.164136             0.033244             0.027809
Rotational constants in MHz :          4920.670079           996.638772           833.702180

                             ****ORCA TERMINATED NORMALLY****
TOTAL RUN TIME: 0 days 0 hours 0 minutes 24 seconds 399 msec
