                         Program Version 6.0.1  -  RELEASE   -
|  1> ! pbe def2-sv(p) def2/J RI DEFGRID1 loosescf d4 GCP(DFT/SV(P)) printgap
|  2> %output
|  3>     printlevel normal
|  4> end
|  5> * xyz 0 1
|  6> C -2.434361156 -0.8720840962 -0.2410089589
|  7> C -1.1111810891 -0.6101963954 0.5124780074
|  8> H -1.1851435752 -1.004673487 1.5402835432
|  9> C -0.7646070368 0.8946181967 0.5886447687
| 10> H -1.6560699739 1.4809723549 0.331722291
| 11> C 0.3407313874 1.1929797834 -0.4510215102
| 12> H 0.5585320345 2.2653010874 -0.4475299407
| 13> C 1.6144546787 0.417722716 -0.0637007686
| 14> H 2.2935187904 0.3808726066 -0.9227008721
| 15> C 1.2137544848 -1.0426410568 0.2752208591
| 16> H 1.2572517458 -1.1809595454 1.3753100748
| 17> O -0.1018373529 -1.3380330544 -0.1686944604
| 18> O 2.0717761657 -1.8987692353 -0.3835432461
| 19> O 2.3206385054 1.0307087434 0.9694804203
| 20> O -0.0962496739 0.8640049673 -1.7463381819
| 21> O -0.2846553743 1.2662438686 1.8659228745
| 22> O -2.8091055746 0.1428816532 -1.1254521388
| 23> H -3.2550692515 -0.9581094926 0.4750051004
| 24> H -2.3209821187 -1.8326878819 -0.7630749843
| 25> H 1.7737617685 -2.8082484719 -0.2592411572
| 26> H 1.6965746937 1.2356777939 1.681107364
| 27> H 0.0400081964 -0.0888673426 -1.8631115463
| 28> H -1.0206606806 1.2954546109 2.4861022773
| 29> H -2.0524912677 0.3847041928 -1.6857949237
| 30> *
| 31>
| 32>                          ****END OF INPUT****

CARTESIAN COORDINATES (ANGSTROEM)
---------------------------------
  C     -2.434361   -0.872084   -0.241009
  C     -1.111181   -0.610196    0.512478
  H     -1.185144   -1.004673    1.540284
  C     -0.764607    0.894618    0.588645
  H     -1.656070    1.480972    0.331722
  C      0.340731    1.192980   -0.451022
  H      0.558532    2.265301   -0.447530
  C      1.614455    0.417723   -0.063701
  H      2.293519    0.380873   -0.922701
  C      1.213754   -1.042641    0.275221
  H      1.257252   -1.180960    1.375310
  O     -0.101837   -1.338033   -0.168694
  O      2.071776   -1.898769   -0.383543
  O      2.320639    1.030709    0.969480
  O     -0.096250    0.864005   -1.746338
  O     -0.284655    1.266244    1.865923
  O     -2.809106    0.142882   -1.125452
  H     -3.255069   -0.958109    0.475005
  H     -2.320982   -1.832688   -0.763075
  H      1.773762   -2.808248   -0.259241
  H      1.696575    1.235678    1.681107
  H      0.040008   -0.088867   -1.863112
  H     -1.020661    1.295455    2.486102
  H     -2.052491    0.384704   -1.685795

 Total Charge           Charge          ....    0
 Multiplicity           Mult            ....    1
 Number of Electrons    NEL             ....   96
 Basis Dimension        Dim             ....  192

ORBITAL ENERGIES
----------------

  NO   OCC          E(Eh)            E(eV)
   0   2.0000     -18.786860      -511.2165
   1   2.0000     -18.783913      -511.1362
   2   2.0000     -18.772803      -510.8339
   3   2.0000     -18.767692      -510.6949
   4   2.0000     -18.744147      -510.0542
   5   2.0000     -18.740979      -509.9680
   6   2.0000      -9.991274      -271.8764
   7   2.0000      -9.956414      -270.9278
   8   2.0000      -9.954932      -270.8875
   9   2.0000      -9.952159      -270.8120
  10   2.0000      -9.940853      -270.5043
  11   2.0000      -9.939695      -270.4729
  12   2.0000      -0.997766       -27.1506
  13   2.0000      -0.961093       -26.1527
  14   2.0000      -0.948377       -25.8066
  15   2.0000      -0.930982       -25.3333
  16   2.0000      -0.921453       -25.0740
  17   2.0000      -0.919922       -25.0324
  18   2.0000      -0.707183       -19.2434
  19   2.0000      -0.692508       -18.8441
  20   2.0000      -0.629587       -17.1319
  21   2.0000      -0.592673       -16.1274
  22   2.0000      -0.572041       -15.5660
  23   2.0000      -0.533268       -14.5110
  24   2.0000      -0.510722       -13.8975
  25   2.0000      -0.504164       -13.7190
  26   2.0000      -0.492141       -13.3918
  27   2.0000      -0.472244       -12.8504
  28   2.0000      -0.459153       -12.4942
  29   2.0000      -0.434536       -11.8243
  30   2.0000      -0.413901       -11.2628
  31   2.0000      -0.402591       -10.9551
  32   2.0000      -0.396239       -10.7822
  33   2.0000      -0.379362       -10.3230
  34   2.0000      -0.366995        -9.9864
  35   2.0000      -0.358336        -9.7508
  36   2.0000      -0.337097        -9.1729
  37   2.0000      -0.332103        -9.0370
  38   2.0000      -0.318251        -8.6601
  39   2.0000      -0.313748        -8.5375
  40   2.0000      -0.284665        -7.7461
  41   2.0000      -0.271558        -7.3895
  42   2.0000      -0.268332        -7.3017
  43   2.0000      -0.256076        -6.9682
  44   2.0000      -0.247458        -6.7337
  45   2.0000      -0.225473        -6.1354
  46   2.0000      -0.216931        -5.9030
  47   2.0000      -0.207584        -5.6486
  48   0.0000      -0.001212        -0.0330
  49   0.0000       0.020022         0.5448
  50   0.0000       0.035726         0.9722
  51   0.0000       0.050109         1.3635
  52   0.0000       0.058621         1.5952

MULLIKEN ATOMIC CHARGES
-----------------------
   0 C :    0.089854
   1 C :   -0.026514
   2 H :    0.055135
   3 C :   -0.000820
   4 H :    0.098475
   5 C :    0.027738
   6 H :    0.092200
   7 C :    0.060818
   8 H :    0.086820
   9 C :    0.178391
  10 H :    0.041166
  11 O :   -0.321102
  12 O :   -0.373352
  13 O :   -0.419815
  14 O :   -0.420208
  15 O :   -0.427973
  16 O :   -0.434049
  17 H :    0.082130
  18 H :    0.083611
  19 H :    0.302878
  20 H :    0.304510
  21 H :    0.315324
  22 H :    0.315691
  23 H :    0.289091
Sum of atomic charges:   -0.0000000

LOEWDIN ATOMIC CHARGES
----------------------
   0 C :   -0.125233
   1 C :   -0.084138
   2 H :    0.103431
   3 C :   -0.087668
   4 H :    0.117266
   5 C :   -0.068634
   6 H :    0.123493
   7 C :   -0.084576
   8 H :    0.125236
   9 C :   -0.002091
  10 H :    0.083394
  11 O :   -0.167231
  12 O :   -0.288506
  13 O :   -0.309137
  14 O :   -0.299239
  15 O :   -0.315764
  16 O :   -0.335850
  17 H :    0.113606
  18 H :    0.103700
  19 H :    0.287498
  20 H :    0.272794
  21 H :    0.276982
  22 H :    0.295019
  23 H :    0.265648

  Mayer bond orders larger than 0.100000
B(  0-C ,  1-C ) :   1.0114 B(  0-C , 16-O ) :   1.1127 B(  0-C , 17-H ) :   0.9216
B(  0-C , 18-H ) :   0.9138 B(  1-C ,  2-H ) :   0.8844 B(  1-C ,  3-C ) :   0.9716
B(  1-C , 11-O ) :   0.9889 B(  3-C ,  4-H ) :   0.8880 B(  3-C ,  5-C ) :   0.9882
B(  3-C , 15-O ) :   1.0170 B(  5-C ,  6-H ) :   0.8950 B(  5-C ,  7-C ) :   1.0009
B(  5-C , 14-O ) :   1.0191 B(  7-C ,  8-H ) :   0.8872 B(  7-C ,  9-C ) :   0.9590
B(  7-C , 13-O ) :   1.0745 B(  9-C , 10-H ) :   0.8783 B(  9-C , 11-O ) :   0.9999
B(  9-C , 12-O ) :   1.1695 B( 12-O , 19-H ) :   0.8417 B( 13-O , 20-H ) :   0.8176
B( 14-O , 21-H ) :   0.8065 B( 14-O , 23-H ) :   0.1257 B( 15-O , 22-H ) :   0.8417
B( 16-O , 23-H ) :   0.7932

Dispersion correction           -0.025722957
FINAL SINGLE POINT ENERGY      -685.691959403454

DIPOLE MOMENT
-------------

Method             : SCF
Type of density    : Electron Density
Multiplicity       :   1
Irrep              :   0
Energy             :  -685.8274432561854610 Eh
Relativity type    :
Basis              : AO
                                X                 Y                 Z
Electronic contribution:      2.923269118       0.099347478      -0.817440002
Nuclear contribution   :     -3.615136073      -0.778216809       1.818907665
                        -----------------------------------------
Total Dipole Moment    :     -0.691866955      -0.678869331       1.001467664
                        -----------------------------------------
Magnitude (a.u.)       :      1.393729146
Magnitude (Debye)      :      3.542577956

Rotational constants in cm-1:             0.043859             0.027190             0.023353
Rotational constants in MHz :          1314.856292           815.127259           700.093901

                             ****ORCA TERMINATED NORMALLY****
TOTAL RUN TIME: 0 days 0 hours 0 minutes 23 seconds 138 msec
