                         Program Version 6.0.1  -  RELEASE   -
|  1> ! pbe def2-sv(p) def2/J RI DEFGRID1 loosescf d4 GCP(DFT/SV(P)) printgap
|  2> %output
|  3>     printlevel normal
|  4> end
|  5> * xyz 0 1
|  6> C -2.3915449163 -0.8607934707 0.4019106834
|  7> C -0.9456522833 -0.4137099618 0.653717786
|  8> H -0.6978472287 -0.5276264753 1.7202281065
|  9> C -0.7474955619 1.0651423147 0.2476618329
| 10> H -1.5556169945 1.3640284884 -0.4316447942
| 11> C 0.6065859756 1.2365848841 -0.4768480132
| 12> H 0.8892356824 2.3014264968 -0.4043282281
| 13> C 1.6517897277 0.3677430741 0.2409247715
| 14> H 2.6294248552 0.4854964866 -0.2426744124
| 15> C 1.25152383 -1.1196329188 0.0712445835
| 16> H 1.5757446042 -1.6710872228 0.9679276024
| 17> O -0.1347133415 -1.2731487185 -0.1225210846
| 18> O 1.8874930836 -1.6863041568 -1.0108346873
| 19> O 1.7227445693 0.6841664606 1.6148756213
| 20> O 0.5804706237 0.8269561419 -1.8223687787
| 21> O -0.8361985755 1.923337784 1.3511139804
| 22> O -2.7035300337 -0.7860233743 -0.9627300403
| 23> H -3.0795369225 -0.1947677228 0.9255298631
| 24> H -2.5178200222 -1.8853340295 0.7755142164
| 25> H 1.5572421999 -1.236074174 -1.8030823556
| 26> H 2.2525121098 1.4816529705 1.7265201343
| 27> H -0.208889253 1.1867626021 -2.2437011116
| 28> H -0.1605094174 1.6495772057 1.9890336599
| 29> H -2.0294203043 -1.2981051611 -1.4285697381
| 30> *
| 31>
| 32>                          ****END OF INPUT****

CARTESIAN COORDINATES (ANGSTROEM)
---------------------------------
  C     -2.391545   -0.860793    0.401911
  C     -0.945652   -0.413710    0.653718
  H     -0.697847   -0.527626    1.720228
  C     -0.747496    1.065142    0.247662
  H     -1.555617    1.364028   -0.431645
  C      0.606586    1.236585   -0.476848
  H      0.889236    2.301426   -0.404328
  C      1.651790    0.367743    0.240925
  H      2.629425    0.485496   -0.242674
  C      1.251524   -1.119633    0.071245
  H      1.575745   -1.671087    0.967928
  O     -0.134713   -1.273149   -0.122521
  O      1.887493   -1.686304   -1.010835
  O      1.722745    0.684166    1.614876
  O      0.580471    0.826956   -1.822369
  O     -0.836199    1.923338    1.351114
  O     -2.703530   -0.786023   -0.962730
  H     -3.079537   -0.194768    0.925530
  H     -2.517820   -1.885334    0.775514
  H      1.557242   -1.236074   -1.803082
  H      2.252512    1.481653    1.726520
  H     -0.208889    1.186763   -2.243701
  H     -0.160509    1.649577    1.989034
  H     -2.029420   -1.298105   -1.428570

 Total Charge           Charge          ....    0
 Multiplicity           Mult            ....    1
 Number of Electrons    NEL             ....   96
 Basis Dimension        Dim             ....  192

ORBITAL ENERGIES
----------------

  NO   OCC          E(Eh)            E(eV)
   0   2.0000     -18.786129      -511.1966
   1   2.0000     -18.773141      -510.8431
   2   2.0000     -18.770132      -510.7612
   3   2.0000     -18.751523      -510.2549
   4   2.0000     -18.748394      -510.1697
   5   2.0000     -18.748160      -510.1634
   6   2.0000      -9.988035      -271.7883
   7   2.0000      -9.953301      -270.8431
   8   2.0000      -9.950091      -270.7557
   9   2.0000      -9.943454      -270.5751
  10   2.0000      -9.942193      -270.5408
  11   2.0000      -9.931999      -270.2634
  12   2.0000      -0.988699       -26.9039
  13   2.0000      -0.958453       -26.0808
  14   2.0000      -0.946679       -25.7605
  15   2.0000      -0.933645       -25.4058
  16   2.0000      -0.925871       -25.1942
  17   2.0000      -0.908886       -24.7320
  18   2.0000      -0.701575       -19.0908
  19   2.0000      -0.691264       -18.8103
  20   2.0000      -0.622460       -16.9380
  21   2.0000      -0.591684       -16.1005
  22   2.0000      -0.571752       -15.5582
  23   2.0000      -0.527797       -14.3621
  24   2.0000      -0.504885       -13.7386
  25   2.0000      -0.503144       -13.6912
  26   2.0000      -0.474073       -12.9002
  27   2.0000      -0.468695       -12.7538
  28   2.0000      -0.446769       -12.1572
  29   2.0000      -0.444665       -12.1000
  30   2.0000      -0.425007       -11.5650
  31   2.0000      -0.393954       -10.7200
  32   2.0000      -0.388207       -10.5637
  33   2.0000      -0.375431       -10.2160
  34   2.0000      -0.362777        -9.8717
  35   2.0000      -0.351619        -9.5680
  36   2.0000      -0.343813        -9.3556
  37   2.0000      -0.331353        -9.0166
  38   2.0000      -0.308345        -8.3905
  39   2.0000      -0.300104        -8.1662
  40   2.0000      -0.283720        -7.7204
  41   2.0000      -0.280714        -7.6386
  42   2.0000      -0.256835        -6.9888
  43   2.0000      -0.251759        -6.8507
  44   2.0000      -0.247406        -6.7323
  45   2.0000      -0.223894        -6.0925
  46   2.0000      -0.217114        -5.9080
  47   2.0000      -0.199839        -5.4379
  48   0.0000      -0.003772        -0.1027
  49   0.0000       0.012063         0.3282
  50   0.0000       0.050338         1.3698
  51   0.0000       0.055685         1.5153
  52   0.0000       0.064194         1.7468

MULLIKEN ATOMIC CHARGES
-----------------------
   0 C :    0.070720
   1 C :   -0.001552
   2 H :    0.060033
   3 C :    0.052083
   4 H :    0.068063
   5 C :    0.054336
   6 H :    0.061247
   7 C :   -0.052925
   8 H :    0.090717
   9 C :    0.238677
  10 H :    0.070754
  11 O :   -0.310165
  12 O :   -0.392487
  13 O :   -0.414121
  14 O :   -0.421210
  15 O :   -0.426271
  16 O :   -0.440596
  17 H :    0.097940
  18 H :    0.082415
  19 H :    0.300900
  20 H :    0.313321
  21 H :    0.310720
  22 H :    0.288725
  23 H :    0.298678
Sum of atomic charges:   -0.0000000

LOEWDIN ATOMIC CHARGES
----------------------
   0 C :   -0.121994
   1 C :   -0.081228
   2 H :    0.106173
   3 C :   -0.079467
   4 H :    0.113013
   5 C :   -0.084175
   6 H :    0.097358
   7 C :   -0.091609
   8 H :    0.115328
   9 C :    0.011873
  10 H :    0.102496
  11 O :   -0.154631
  12 O :   -0.291169
  13 O :   -0.308451
  14 O :   -0.316274
  15 O :   -0.315199
  16 O :   -0.333220
  17 H :    0.120275
  18 H :    0.102810
  19 H :    0.278022
  20 H :    0.294952
  21 H :    0.289910
  22 H :    0.266534
  23 H :    0.278673

  Mayer bond orders larger than 0.100000
B(  0-C ,  1-C ) :   1.0461 B(  0-C , 16-O ) :   1.0569 B(  0-C , 17-H ) :   0.9240
B(  0-C , 18-H ) :   0.9113 B(  1-C ,  2-H ) :   0.8757 B(  1-C ,  3-C ) :   0.9670
B(  1-C , 11-O ) :   1.0210 B(  3-C ,  4-H ) :   0.8812 B(  3-C ,  5-C ) :   0.9755
B(  3-C , 15-O ) :   1.0371 B(  5-C ,  6-H ) :   0.8956 B(  5-C ,  7-C ) :   1.0080
B(  5-C , 14-O ) :   1.0363 B(  7-C ,  8-H ) :   0.9051 B(  7-C ,  9-C ) :   0.9548
B(  7-C , 13-O ) :   1.0381 B(  9-C , 10-H ) :   0.9012 B(  9-C , 11-O ) :   1.0120
B(  9-C , 12-O ) :   1.1458 B( 12-O , 19-H ) :   0.8293 B( 13-O , 20-H ) :   0.8390
B( 14-O , 21-H ) :   0.8382 B( 15-O , 22-H ) :   0.8235 B( 16-O , 23-H ) :   0.8379

Dispersion correction           -0.025530459
FINAL SINGLE POINT ENERGY      -685.695239339612

DIPOLE MOMENT
-------------

Method             : SCF
Type of density    : Electron Density
Multiplicity       :   1
Irrep              :   0
Energy             :  -685.8280333024960100 Eh
Relativity type    :
Basis              : AO
                                X                 Y                 Z
Electronic contribution:      1.857179828      -0.815708999      -1.330227694
Nuclear contribution   :     -1.254641556       1.548954763       1.440759787
                        -----------------------------------------
Total Dipole Moment    :      0.602538272       0.733245764       0.110532093
                        -----------------------------------------
Magnitude (a.u.)       :      0.955467982
Magnitude (Debye)      :      2.428606605

Rotational constants in cm-1:             0.039108             0.029760             0.023747
Rotational constants in MHz :          1172.419664           892.175568           711.926507

                             ****ORCA TERMINATED NORMALLY****
TOTAL RUN TIME: 0 days 0 hours 7 minutes 7 seconds 651 msec
