                         Program Version 6.0.1  -  RELEASE   -
|  1> ! r2scan-3c def2/J RI DEFGRID2 scfconv6 printgap
|  2> %output
|  3>     printlevel normal
|  4> end
|  5> * xyz 0 1
|  6> C 0.7163049478 -1.1918935052 0.2643171089
|  7> C -0.7164176303 -1.191894752 -0.2643633571
|  8> N -1.3869167008 -1.76106e-05 0.2236411465
|  9> C -0.7163538899 1.191871809 -0.2642800897
| 10> C 0.7164352999 1.1919339678 0.2642655288
| 11> N 1.3869496103 -8.8276e-06 -0.223587386
| 12> H 1.2496025069 -2.0712953174 -0.103258603
| 13> H 0.681054722 -1.2290248563 1.3667304443
| 14> H -0.6811437579 -1.2288893851 -1.3667930677
| 15> H -1.2497832634 -2.071309382 0.1030933739
| 16> H -2.358661078 -1.32038e-05 -0.0714868851
| 17> H -0.6811909623 1.2290442056 -1.3667060381
| 18> H -1.2496275839 2.0712680017 0.103338033
| 19> H 1.2497655771 2.0712890199 -0.1034091006
| 20> H 0.6812688074 1.2291256784 1.3666890899
| 21> H 2.3586303631 -3.61286e-05 0.0717803
| 22> *
| 23>
| 24>                          ****END OF INPUT****

CARTESIAN COORDINATES (ANGSTROEM)
---------------------------------
  C      0.716305   -1.191894    0.264317
  C     -0.716418   -1.191895   -0.264363
  N     -1.386917   -0.000018    0.223641
  C     -0.716354    1.191872   -0.264280
  C      0.716435    1.191934    0.264266
  N      1.386950   -0.000009   -0.223587
  H      1.249603   -2.071295   -0.103259
  H      0.681055   -1.229025    1.366730
  H     -0.681144   -1.228889   -1.366793
  H     -1.249783   -2.071309    0.103093
  H     -2.358661   -0.000013   -0.071487
  H     -0.681191    1.229044   -1.366706
  H     -1.249628    2.071268    0.103338
  H      1.249766    2.071289   -0.103409
  H      0.681269    1.229126    1.366689
  H      2.358630   -0.000036    0.071780

 Total Charge           Charge          ....    0
 Multiplicity           Mult            ....    1
 Number of Electrons    NEL             ....   48
 Basis Dimension        Dim             ....  174

ORBITAL ENERGIES
----------------

  NO   OCC          E(Eh)            E(eV)
   0   2.0000     -14.139774      -384.7628
   1   2.0000     -14.139772      -384.7627
   2   2.0000     -10.045654      -273.3561
   3   2.0000     -10.045650      -273.3560
   4   2.0000     -10.045521      -273.3525
   5   2.0000     -10.045518      -273.3524
   6   2.0000      -0.896532       -24.3959
   7   2.0000      -0.841849       -22.9079
   8   2.0000      -0.720371       -19.6023
   9   2.0000      -0.633638       -17.2422
  10   2.0000      -0.594574       -16.1792
  11   2.0000      -0.517091       -14.0708
  12   2.0000      -0.492601       -13.4043
  13   2.0000      -0.435243       -11.8436
  14   2.0000      -0.419470       -11.4144
  15   2.0000      -0.406359       -11.0576
  16   2.0000      -0.393553       -10.7091
  17   2.0000      -0.373421       -10.1613
  18   2.0000      -0.351653        -9.5690
  19   2.0000      -0.311866        -8.4863
  20   2.0000      -0.300402        -8.1743
  21   2.0000      -0.292497        -7.9593
  22   2.0000      -0.194229        -5.2853
  23   2.0000      -0.189687        -5.1617
  24   0.0000       0.066120         1.7992
  25   0.0000       0.086631         2.3573
  26   0.0000       0.113774         3.0959
  27   0.0000       0.126880         3.4526
  28   0.0000       0.136986         3.7276

MULLIKEN ATOMIC CHARGES
-----------------------
   0 C :   -0.214046
   1 C :   -0.214041
   2 N :   -0.340351
   3 C :   -0.214085
   4 C :   -0.214023
   5 N :   -0.340391
   6 H :    0.135828
   7 H :    0.135943
   8 H :    0.135945
   9 H :    0.135826
  10 H :    0.224923
  11 H :    0.135944
  12 H :    0.135830
  13 H :    0.135830
  14 H :    0.135935
  15 H :    0.224934
Sum of atomic charges:    0.0000000

LOEWDIN ATOMIC CHARGES
----------------------
   0 C :   -0.040218
   1 C :   -0.040222
   2 N :   -0.837358
   3 C :   -0.040221
   4 C :   -0.040225
   5 N :   -0.837354
   6 H :    0.174589
   7 H :    0.160290
   8 H :    0.160291
   9 H :    0.174592
  10 H :    0.248040
  11 H :    0.160285
  12 H :    0.174591
  13 H :    0.174594
  14 H :    0.160284
  15 H :    0.248041

  Mayer bond orders larger than 0.100000
B(  0-C ,  1-C ) :   0.9522 B(  0-C ,  5-N ) :   0.9713 B(  0-C ,  6-H ) :   0.9588
B(  0-C ,  7-H ) :   0.9652 B(  1-C ,  2-N ) :   0.9712 B(  1-C ,  8-H ) :   0.9652
B(  1-C ,  9-H ) :   0.9588 B(  2-N ,  3-C ) :   0.9713 B(  2-N , 10-H ) :   0.9098
B(  3-C ,  4-C ) :   0.9522 B(  3-C , 11-H ) :   0.9652 B(  3-C , 12-H ) :   0.9588
B(  4-C ,  5-N ) :   0.9713 B(  4-C , 13-H ) :   0.9588 B(  4-C , 14-H ) :   0.9652
B(  5-N , 15-H ) :   0.9098

Dispersion correction           -0.004175941
FINAL SINGLE POINT ENERGY      -267.844916610516

DIPOLE MOMENT
-------------

Method             : SCF
Type of density    : Electron Density
Multiplicity       :   1
Irrep              :   0
Energy             :  -267.8565480080775387 Eh
Relativity type    :
Basis              : AO
                                X                 Y                 Z
Electronic contribution:     -0.000039543      -0.000146083       0.000100031
Nuclear contribution   :     -0.000079254       0.000148679      -0.000020771
                        -----------------------------------------
Total Dipole Moment    :     -0.000118797       0.000002595       0.000079260
                        -----------------------------------------
Magnitude (a.u.)       :      0.000142834
Magnitude (Debye)      :      0.000363055

Rotational constants in cm-1:             0.162408             0.152878             0.088840
Rotational constants in MHz :          4868.875565          4583.174256          2663.363877

                             ****ORCA TERMINATED NORMALLY****
TOTAL RUN TIME: 0 days 0 hours 0 minutes 38 seconds 707 msec
