                         Program Version 6.0.1  -  RELEASE   -
|  1> ! pbe def2-sv(p) def2/J RI DEFGRID1 loosescf d4 GCP(DFT/SV(P)) printgap
|  2> %output
|  3>     printlevel normal
|  4> end
|  5> * xyz 0 1
|  6> C -2.292219761 0.1994656075 0.2979113181
|  7> C -0.9570913767 0.3114940371 -0.4333040909
|  8> C 0.001180097 -0.753292021 0.0039881373
|  9> C 1.3052814001 -0.5977351749 0.1732843236
| 10> C 2.0555640211 0.6813142804 -0.0451206343
| 11> H -2.1462763011 0.3057090713 1.3707721674
| 12> H -2.7524173245 -0.7681982344 0.1090781598
| 13> H -2.9771081249 0.9762574894 -0.035051262
| 14> H -1.1309831551 0.2100591783 -1.5101281141
| 15> H -0.5265296497 1.2988463258 -0.2612237228
| 16> H -0.444900676 -1.7236886212 0.1796056644
| 17> H 1.8984387782 -1.444805961 0.4898909252
| 18> H 3.1175538215 0.5402389477 0.1359720748
| 19> H 1.69471421 1.4607229193 0.6263548532
| 20> H 1.9243072868 1.036698885 -1.0666488549
| 21> *
| 22>
| 23>                          ****END OF INPUT****

CARTESIAN COORDINATES (ANGSTROEM)
---------------------------------
  C     -2.292220    0.199466    0.297911
  C     -0.957091    0.311494   -0.433304
  C      0.001180   -0.753292    0.003988
  C      1.305281   -0.597735    0.173284
  C      2.055564    0.681314   -0.045121
  H     -2.146276    0.305709    1.370772
  H     -2.752417   -0.768198    0.109078
  H     -2.977108    0.976257   -0.035051
  H     -1.130983    0.210059   -1.510128
  H     -0.526530    1.298846   -0.261224
  H     -0.444901   -1.723689    0.179606
  H      1.898439   -1.444806    0.489891
  H      3.117554    0.540239    0.135972
  H      1.694714    1.460723    0.626355
  H      1.924307    1.036699   -1.066649

 Total Charge           Charge          ....    0
 Multiplicity           Mult            ....    1
 Number of Electrons    NEL             ....   40
 Basis Dimension        Dim             ....   90

ORBITAL ENERGIES
----------------

  NO   OCC          E(Eh)            E(eV)
   0   2.0000      -9.885304      -268.9928
   1   2.0000      -9.879199      -268.8267
   2   2.0000      -9.876785      -268.7610
   3   2.0000      -9.876587      -268.7556
   4   2.0000      -9.874166      -268.6897
   5   2.0000      -0.723129       -19.6773
   6   2.0000      -0.672399       -18.2969
   7   2.0000      -0.604689       -16.4544
   8   2.0000      -0.546120       -14.8607
   9   2.0000      -0.466978       -12.7071
  10   2.0000      -0.425470       -11.5776
  11   2.0000      -0.391822       -10.6620
  12   2.0000      -0.380972       -10.3668
  13   2.0000      -0.363743        -9.8980
  14   2.0000      -0.334776        -9.1097
  15   2.0000      -0.324979        -8.8431
  16   2.0000      -0.315157        -8.5759
  17   2.0000      -0.299307        -8.1445
  18   2.0000      -0.279155        -7.5962
  19   2.0000      -0.208068        -5.6618
  20   0.0000      -0.008854        -0.2409
  21   0.0000       0.044126         1.2007
  22   0.0000       0.064173         1.7462
  23   0.0000       0.068918         1.8754
  24   0.0000       0.091708         2.4955

MULLIKEN ATOMIC CHARGES
-----------------------
   0 C :   -0.296134
   1 C :   -0.129153
   2 C :   -0.135339
   3 C :   -0.163493
   4 C :   -0.240940
   5 H :    0.107146
   6 H :    0.103890
   7 H :    0.101695
   8 H :    0.101158
   9 H :    0.088272
  10 H :    0.057571
  11 H :    0.065224
  12 H :    0.101661
  13 H :    0.120478
  14 H :    0.117964
Sum of atomic charges:    0.0000000

LOEWDIN ATOMIC CHARGES
----------------------
   0 C :   -0.337344
   1 C :   -0.232125
   2 C :   -0.149719
   3 C :   -0.158300
   4 C :   -0.342705
   5 H :    0.119560
   6 H :    0.117442
   7 H :    0.118238
   8 H :    0.127182
   9 H :    0.119828
  10 H :    0.116781
  11 H :    0.117729
  12 H :    0.123893
  13 H :    0.130156
  14 H :    0.129385

  Mayer bond orders larger than 0.100000
B(  0-C ,  1-C ) :   1.1336 B(  0-C ,  5-H ) :   0.9596 B(  0-C ,  6-H ) :   0.9560
B(  0-C ,  7-H ) :   0.9522 B(  1-C ,  2-C ) :   1.0831 B(  1-C ,  8-H ) :   0.9074
B(  1-C ,  9-H ) :   0.9109 B(  2-C ,  3-C ) :   2.0001 B(  2-C , 10-H ) :   0.9326
B(  3-C ,  4-C ) :   1.1127 B(  3-C , 11-H ) :   0.9323 B(  4-C , 12-H ) :   0.9473
B(  4-C , 13-H ) :   0.9344 B(  4-C , 14-H ) :   0.9390

Dispersion correction           -0.009752733
FINAL SINGLE POINT ENERGY      -196.028859876277

DIPOLE MOMENT
-------------

Method             : SCF
Type of density    : Electron Density
Multiplicity       :   1
Irrep              :   0
Energy             :  -196.0769661088493194 Eh
Relativity type    :
Basis              : AO
                                X                 Y                 Z
Electronic contribution:      1.249875837      -1.657265720      -0.087711829
Nuclear contribution   :     -1.260141659       1.774854365       0.036233631
                        -----------------------------------------
Total Dipole Moment    :     -0.010265822       0.117588645      -0.051478198
                        -----------------------------------------
Magnitude (a.u.)       :      0.128772984
Magnitude (Debye)      :      0.327314914

Rotational constants in cm-1:             0.420128             0.085393             0.076792
Rotational constants in MHz :         12595.125456          2560.028876          2302.171951

                             ****ORCA TERMINATED NORMALLY****
TOTAL RUN TIME: 0 days 0 hours 0 minutes 6 seconds 189 msec
