                         Program Version 6.0.1  -  RELEASE   -
|  1> ! pbe def2-sv(p) def2/J RI DEFGRID1 loosescf d4 GCP(DFT/SV(P)) printgap
|  2> %output
|  3>     printlevel normal
|  4> end
|  5> * xyz 0 1
|  6> C -0.6518281895 -0.49223955 0.4059224807
|  7> C 0.6548555631 -0.5055884038 -0.3840088757
|  8> O 1.5258536307 0.4552686414 0.1686305317
|  9> O -1.528541336 0.4382528013 -0.1882314058
| 10> H -0.4192095391 -0.2153313256 1.4407047892
| 11> H -1.1002654491 -1.4965378238 0.39400377
| 12> H 0.4206955881 -0.2758211338 -1.4299312687
| 13> H 1.1093699902 -1.505674606 -0.3281337681
| 14> H 2.2635668938 0.5982622285 -0.4323449566
| 15> H -2.2675696402 0.6023202255 0.4057043269
| 16> *
| 17>
| 18>                          ****END OF INPUT****

CARTESIAN COORDINATES (ANGSTROEM)
---------------------------------
  C     -0.651828   -0.492240    0.405922
  C      0.654856   -0.505588   -0.384009
  O      1.525854    0.455269    0.168631
  O     -1.528541    0.438253   -0.188231
  H     -0.419210   -0.215331    1.440705
  H     -1.100265   -1.496538    0.394004
  H      0.420696   -0.275821   -1.429931
  H      1.109370   -1.505675   -0.328134
  H      2.263567    0.598262   -0.432345
  H     -2.267570    0.602320    0.405704

 Total Charge           Charge          ....    0
 Multiplicity           Mult            ....    1
 Number of Electrons    NEL             ....   34
 Basis Dimension        Dim             ....   68

ORBITAL ENERGIES
----------------

  NO   OCC          E(Eh)            E(eV)
   0   2.0000     -18.737536      -509.8743
   1   2.0000     -18.737462      -509.8723
   2   2.0000      -9.926422      -270.1117
   3   2.0000      -9.926361      -270.1100
   4   2.0000      -0.922701       -25.1080
   5   2.0000      -0.907715       -24.7002
   6   2.0000      -0.658926       -17.9303
   7   2.0000      -0.537352       -14.6221
   8   2.0000      -0.474017       -12.8987
   9   2.0000      -0.461527       -12.5588
  10   2.0000      -0.377305       -10.2670
  11   2.0000      -0.365589        -9.9482
  12   2.0000      -0.365051        -9.9335
  13   2.0000      -0.291607        -7.9350
  14   2.0000      -0.265080        -7.2132
  15   2.0000      -0.213027        -5.7968
  16   2.0000      -0.205588        -5.5943
  17   0.0000       0.031211         0.8493
  18   0.0000       0.038194         1.0393
  19   0.0000       0.080968         2.2032
  20   0.0000       0.105689         2.8759
  21   0.0000       0.109595         2.9822

MULLIKEN ATOMIC CHARGES
-----------------------
   0 C :   -0.005863
   1 C :   -0.005840
   2 O :   -0.440126
   3 O :   -0.440156
   4 H :    0.084066
   5 H :    0.065817
   6 H :    0.084074
   7 H :    0.065777
   8 H :    0.296135
   9 H :    0.296116
Sum of atomic charges:    0.0000000

LOEWDIN ATOMIC CHARGES
----------------------
   0 C :   -0.134138
   1 C :   -0.134148
   2 O :   -0.348222
   3 O :   -0.348246
   4 H :    0.105072
   5 H :    0.093361
   6 H :    0.105070
   7 H :    0.093351
   8 H :    0.283956
   9 H :    0.283943

  Mayer bond orders larger than 0.100000
B(  0-C ,  1-C ) :   1.1064 B(  0-C ,  3-O ) :   1.0845 B(  0-C ,  4-H ) :   0.9198
B(  0-C ,  5-H ) :   0.9207 B(  1-C ,  2-O ) :   1.0845 B(  1-C ,  6-H ) :   0.9198
B(  1-C ,  7-H ) :   0.9206 B(  2-O ,  8-H ) :   0.8550 B(  3-O ,  9-H ) :   0.8550

Dispersion correction           -0.004745879
FINAL SINGLE POINT ENERGY      -229.719895748305

DIPOLE MOMENT
-------------

Method             : SCF
Type of density    : Electron Density
Multiplicity       :   1
Irrep              :   0
Energy             :  -229.7703507557110925 Eh
Relativity type    :
Basis              : AO
                                X                 Y                 Z
Electronic contribution:     -0.005224868       1.765162443      -0.038641706
Nuclear contribution   :      0.006140652      -2.137766367       0.046620481
                        -----------------------------------------
Total Dipole Moment    :      0.000915784      -0.372603923       0.007978774
                        -----------------------------------------
Magnitude (a.u.)       :      0.372690465
Magnitude (Debye)      :      0.947303879

Rotational constants in cm-1:             0.617864             0.156685             0.145529
Rotational constants in MHz :         18523.098652          4697.299391          4362.860749

                             ****ORCA TERMINATED NORMALLY****
TOTAL RUN TIME: 0 days 0 hours 0 minutes 6 seconds 5 msec
