                         Program Version 6.0.1  -  RELEASE   -
|  1> ! pbe def2-sv(p) def2/J RI DEFGRID1 loosescf d4 GCP(DFT/SV(P)) printgap
|  2> %output
|  3>     printlevel normal
|  4> end
|  5> * xyz 0 1
|  6> C 3.7463154537 -0.1866966839 -0.1034252771
|  7> C 2.2899474937 -0.198185654 0.3519438303
|  8> H 2.2613699786 -0.0810415303 1.4410010901
|  9> C 1.6031270492 -1.5109386878 -0.0153257475
| 10> C 0.1506320453 -1.4941636836 0.4450426571
| 11> C -0.653225958 -0.3401186524 -0.1670449839
| 12> H -0.6184427366 -0.4437035026 -1.259629668
| 13> C 0.0424122594 0.9940792188 0.1584279988
| 14> H -0.006936778 1.1940769028 1.2328020954
| 15> C 1.5124744956 0.9502080216 -0.2832412183
| 16> O -0.5889102777 2.1018496029 -0.4500696713
| 17> C -2.1379152289 -0.4720786504 0.2784410929
| 18> C -2.7755706094 0.7859872965 0.864943407
| 19> C -2.9837508119 -0.9713147255 -0.8940700763
| 20> H 4.2968745564 -1.002544712 0.3595279548
| 21> H 3.8084663127 -0.3015739761 -1.1837337923
| 22> H 4.2258587087 0.7503765728 0.1698589796
| 23> H 1.6455659898 -1.6511809006 -1.0983153383
| 24> H 2.1253636764 -2.349727724 0.4497508401
| 25> H -0.327329775 -2.4394560331 0.178153665
| 26> H 0.1237534014 -1.4017317091 1.5337345058
| 27> H 1.5468070485 0.8445930193 -1.3727684161
| 28> H 1.9732347515 1.9073279089 -0.0292912467
| 29> H -0.5757214195 1.9640715856 -1.4044437559
| 30> H -2.1752958321 -1.2376083226 1.0624377422
| 31> H -2.7847095844 1.5988342717 0.1461901948
| 32> H -2.242295612 1.1205298374 1.7500902161
| 33> H -3.8016535638 0.5641033891 1.152728573
| 34> H -2.5688191368 -1.8882112238 -1.3083504086
| 35> H -3.023289222 -0.2207348218 -1.6812933639
| 36> H -4.0017431948 -1.1756208641 -0.5694927345
| 37> *
| 38>
| 39>                          ****END OF INPUT****

CARTESIAN COORDINATES (ANGSTROEM)
---------------------------------
  C      3.746315   -0.186697   -0.103425
  C      2.289947   -0.198186    0.351944
  H      2.261370   -0.081042    1.441001
  C      1.603127   -1.510939   -0.015326
  C      0.150632   -1.494164    0.445043
  C     -0.653226   -0.340119   -0.167045
  H     -0.618443   -0.443704   -1.259630
  C      0.042412    0.994079    0.158428
  H     -0.006937    1.194077    1.232802
  C      1.512474    0.950208   -0.283241
  O     -0.588910    2.101850   -0.450070
  C     -2.137915   -0.472079    0.278441
  C     -2.775571    0.785987    0.864943
  C     -2.983751   -0.971315   -0.894070
  H      4.296875   -1.002545    0.359528
  H      3.808466   -0.301574   -1.183734
  H      4.225859    0.750377    0.169859
  H      1.645566   -1.651181   -1.098315
  H      2.125364   -2.349728    0.449751
  H     -0.327330   -2.439456    0.178154
  H      0.123753   -1.401732    1.533735
  H      1.546807    0.844593   -1.372768
  H      1.973235    1.907328   -0.029291
  H     -0.575721    1.964072   -1.404444
  H     -2.175296   -1.237608    1.062438
  H     -2.784710    1.598834    0.146190
  H     -2.242296    1.120530    1.750090
  H     -3.801654    0.564103    1.152729
  H     -2.568819   -1.888211   -1.308350
  H     -3.023289   -0.220735   -1.681293
  H     -4.001743   -1.175621   -0.569493

 Total Charge           Charge          ....    0
 Multiplicity           Mult            ....    1
 Number of Electrons    NEL             ....   88
 Basis Dimension        Dim             ....  194

ORBITAL ENERGIES
----------------

  NO   OCC          E(Eh)            E(eV)
   0   2.0000     -18.738057      -509.8885
   1   2.0000      -9.932431      -270.2752
   2   2.0000      -9.893977      -269.2288
   3   2.0000      -9.889892      -269.1176
   4   2.0000      -9.888317      -269.0748
   5   2.0000      -9.883936      -268.9556
   6   2.0000      -9.881442      -268.8877
   7   2.0000      -9.880001      -268.8485
   8   2.0000      -9.873076      -268.6601
   9   2.0000      -9.870155      -268.5806
  10   2.0000      -9.857872      -268.2463
  11   2.0000      -0.920248       -25.0412
  12   2.0000      -0.759401       -20.6643
  13   2.0000      -0.720398       -19.6030
  14   2.0000      -0.670596       -18.2479
  15   2.0000      -0.654794       -17.8178
  16   2.0000      -0.603347       -16.4179
  17   2.0000      -0.602591       -16.3973
  18   2.0000      -0.550809       -14.9883
  19   2.0000      -0.532287       -14.4843
  20   2.0000      -0.506883       -13.7930
  21   2.0000      -0.495738       -13.4897
  22   2.0000      -0.443222       -12.0607
  23   2.0000      -0.420584       -11.4447
  24   2.0000      -0.406831       -11.0704
  25   2.0000      -0.402359       -10.9487
  26   2.0000      -0.394293       -10.7292
  27   2.0000      -0.376666       -10.2496
  28   2.0000      -0.366787        -9.9808
  29   2.0000      -0.357225        -9.7206
  30   2.0000      -0.349802        -9.5186
  31   2.0000      -0.339211        -9.2304
  32   2.0000      -0.332261        -9.0413
  33   2.0000      -0.322247        -8.7688
  34   2.0000      -0.315712        -8.5910
  35   2.0000      -0.307625        -8.3709
  36   2.0000      -0.297864        -8.1053
  37   2.0000      -0.289960        -7.8902
  38   2.0000      -0.284357        -7.7378
  39   2.0000      -0.282795        -7.6952
  40   2.0000      -0.272634        -7.4187
  41   2.0000      -0.259878        -7.0716
  42   2.0000      -0.250324        -6.8117
  43   2.0000      -0.204156        -5.5554
  44   0.0000       0.024415         0.6644
  45   0.0000       0.035566         0.9678
  46   0.0000       0.042042         1.1440
  47   0.0000       0.049964         1.3596
  48   0.0000       0.073825         2.0089

MULLIKEN ATOMIC CHARGES
-----------------------
   0 C :   -0.196906
   1 C :   -0.209973
   2 H :    0.065102
   3 C :   -0.088542
   4 C :   -0.132133
   5 C :   -0.135286
   6 H :    0.035484
   7 C :    0.060610
   8 H :    0.057256
   9 C :   -0.087107
  10 O :   -0.414086
  11 C :   -0.128114
  12 C :   -0.193510
  13 C :   -0.264432
  14 H :    0.095517
  15 H :    0.088965
  16 H :    0.097061
  17 H :    0.064475
  18 H :    0.078064
  19 H :    0.085240
  20 H :    0.075468
  21 H :    0.047100
  22 H :    0.084275
  23 H :    0.291538
  24 H :    0.064559
  25 H :    0.097222
  26 H :    0.088230
  27 H :    0.087184
  28 H :    0.098183
  29 H :    0.091499
  30 H :    0.097055
Sum of atomic charges:    0.0000000

LOEWDIN ATOMIC CHARGES
----------------------
   0 C :   -0.326369
   1 C :   -0.153924
   2 H :    0.114897
   3 C :   -0.217709
   4 C :   -0.214915
   5 C :   -0.146952
   6 H :    0.107726
   7 C :   -0.050882
   8 H :    0.111972
   9 C :   -0.224585
  10 O :   -0.311151
  11 C :   -0.144882
  12 C :   -0.335591
  13 C :   -0.327889
  14 H :    0.117199
  15 H :    0.116172
  16 H :    0.117709
  17 H :    0.112943
  18 H :    0.115890
  19 H :    0.116704
  20 H :    0.115894
  21 H :    0.107483
  22 H :    0.119060
  23 H :    0.278074
  24 H :    0.114088
  25 H :    0.119658
  26 H :    0.114461
  27 H :    0.112701
  28 H :    0.113365
  29 H :    0.112845
  30 H :    0.116006

  Mayer bond orders larger than 0.100000
B(  0-C ,  1-C ) :   1.1101 B(  0-C , 14-H ) :   0.9479 B(  0-C , 15-H ) :   0.9462
B(  0-C , 16-H ) :   0.9489 B(  1-C ,  2-H ) :   0.8931 B(  1-C ,  3-C ) :   1.0890
B(  1-C ,  9-C ) :   1.0754 B(  3-C ,  4-C ) :   1.1371 B(  3-C , 17-H ) :   0.9038
B(  3-C , 18-H ) :   0.9115 B(  4-C ,  5-C ) :   1.0866 B(  4-C , 19-H ) :   0.9087
B(  4-C , 20-H ) :   0.8997 B(  5-C ,  6-H ) :   0.8697 B(  5-C ,  7-C ) :   1.0637
B(  5-C , 11-C ) :   0.9943 B(  7-C ,  8-H ) :   0.8715 B(  7-C ,  9-C ) :   1.0912
B(  7-C , 10-O ) :   1.0026 B(  9-C , 21-H ) :   0.8903 B(  9-C , 22-H ) :   0.9065
B( 10-O , 23-H ) :   0.8510 B( 11-C , 12-C ) :   1.1747 B( 11-C , 13-C ) :   1.1082
B( 11-C , 24-H ) :   0.8927 B( 12-C , 25-H ) :   0.9245 B( 12-C , 26-H ) :   0.9346
B( 12-C , 27-H ) :   0.9419 B( 13-C , 28-H ) :   0.9475 B( 13-C , 29-H ) :   0.9493
B( 13-C , 30-H ) :   0.9487

Dispersion correction           -0.031319409
FINAL SINGLE POINT ENERGY      -467.193817355878

DIPOLE MOMENT
-------------

Method             : SCF
Type of density    : Electron Density
Multiplicity       :   1
Irrep              :   0
Energy             :  -467.3066549642885548 Eh
Relativity type    :
Basis              : AO
                                X                 Y                 Z
Electronic contribution:      0.394586060       3.525862032       0.146904168
Nuclear contribution   :     -0.120325431      -3.955282741      -0.411066921
                        -----------------------------------------
Total Dipole Moment    :      0.274260629      -0.429420709      -0.264162753
                        -----------------------------------------
Magnitude (a.u.)       :      0.573936406
Magnitude (Debye)      :      1.458830408

Rotational constants in cm-1:             0.064361             0.022633             0.018721
Rotational constants in MHz :          1929.488154           678.509825           561.229640

                             ****ORCA TERMINATED NORMALLY****
TOTAL RUN TIME: 0 days 0 hours 0 minutes 11 seconds 906 msec
