                         Program Version 6.0.1  -  RELEASE   -
|  1> ! pbe def2-sv(p) def2/J RI DEFGRID1 loosescf d4 GCP(DFT/SV(P)) printgap
|  2> %output
|  3>     printlevel normal
|  4> end
|  5> * xyz 0 1
|  6> C 3.5761245368 -1.4842170399 -0.0644470725
|  7> C 4.6802147058 -0.6068445409 -0.5899415418
|  8> C 4.5821339399 0.7016836581 -0.7784928398
|  9> C 3.3669293931 1.5276115964 -0.4527893456
| 10> C 2.4664773418 0.6943443618 0.4443410862
| 11> H 2.9551945301 0.5934988697 1.4229399133
| 12> C 2.2779550229 -0.6994018618 -0.1521809868
| 13> H 2.0100598151 -0.5935854607 -1.2123620199
| 14> C 1.0311607124 -1.2037943571 0.5310583238
| 15> O 0.6568914718 -2.3153150397 0.7436248645
| 16> N 0.3099774217 -0.0394133683 0.8628731301
| 17> C 1.0574464733 1.1464846735 0.741339656
| 18> O 0.6162790828 2.2424227776 0.9037373348
| 19> S -1.2921352117 -0.070290748 1.4103373932
| 20> C -2.1750859284 0.005297189 -0.1989780047
| 21> Cl -3.8886855512 -0.074832776 0.2093750063
| 22> Cl -1.8237633678 1.5161065631 -1.0675826466
| 23> Cl -1.7315239196 -1.3629298893 -1.2452749857
| 24> H 3.7856232805 -1.7713369647 0.970232696
| 25> H 3.5176572429 -2.4034608201 -0.6495587163
| 26> H 5.60238098 -1.1162403954 -0.8291879792
| 27> H 5.4191809437 1.2499142484 -1.1858030011
| 28> H 3.6645483948 2.4530979818 0.0428330363
| 29> H 2.8454608995 1.8058145981 -1.3735094765
| 30> *
| 31>
| 32>                          ****END OF INPUT****

CARTESIAN COORDINATES (ANGSTROEM)
---------------------------------
  C      3.576125   -1.484217   -0.064447
  C      4.680215   -0.606845   -0.589942
  C      4.582134    0.701684   -0.778493
  C      3.366929    1.527612   -0.452789
  C      2.466477    0.694344    0.444341
  H      2.955195    0.593499    1.422940
  C      2.277955   -0.699402   -0.152181
  H      2.010060   -0.593585   -1.212362
  C      1.031161   -1.203794    0.531058
  O      0.656891   -2.315315    0.743625
  N      0.309977   -0.039413    0.862873
  C      1.057446    1.146485    0.741340
  O      0.616279    2.242423    0.903737
  S     -1.292135   -0.070291    1.410337
  C     -2.175086    0.005297   -0.198978
  Cl    -3.888686   -0.074833    0.209375
  Cl    -1.823763    1.516107   -1.067583
  Cl    -1.731524   -1.362930   -1.245275
  H      3.785623   -1.771337    0.970233
  H      3.517657   -2.403461   -0.649559
  H      5.602381   -1.116240   -0.829188
  H      5.419181    1.249914   -1.185803
  H      3.664548    2.453098    0.042833
  H      2.845461    1.805815   -1.373509

 Total Charge           Charge          ....    0
 Multiplicity           Mult            ....    1
 Number of Electrons    NEL             ....  152
 Basis Dimension        Dim             ....  256

ORBITAL ENERGIES
----------------

  NO   OCC          E(Eh)            E(eV)
   0   2.0000    -100.669840     -2739.3656
   1   2.0000    -100.660846     -2739.1209
   2   2.0000    -100.658169     -2739.0480
   3   2.0000     -88.092146     -2397.1092
   4   2.0000     -18.760531      -510.5000
   5   2.0000     -18.759604      -510.4748
   6   2.0000     -14.073882      -382.9698
   7   2.0000     -10.087039      -274.4823
   8   2.0000     -10.017497      -272.5900
   9   2.0000     -10.016965      -272.5755
  10   2.0000      -9.930768      -270.2299
  11   2.0000      -9.930047      -270.2103
  12   2.0000      -9.913927      -269.7717
  13   2.0000      -9.913508      -269.7603
  14   2.0000      -9.906011      -269.5563
  15   2.0000      -9.905418      -269.5401
  16   2.0000      -9.206372      -250.5181
  17   2.0000      -9.197063      -250.2648
  18   2.0000      -9.194544      -250.1963
  19   2.0000      -7.733165      -210.4301
  20   2.0000      -7.038410      -191.5249
  21   2.0000      -7.029117      -191.2720
  22   2.0000      -7.026676      -191.2056
  23   2.0000      -7.025901      -191.1845
  24   2.0000      -7.025414      -191.1712
  25   2.0000      -7.016608      -190.9316
  26   2.0000      -7.016103      -190.9179
  27   2.0000      -7.013990      -190.8604
  28   2.0000      -7.013587      -190.8494
  29   2.0000      -5.764134      -156.8501
  30   2.0000      -5.758294      -156.6911
  31   2.0000      -5.747115      -156.3869
  32   2.0000      -0.990808       -26.9613
  33   2.0000      -0.969984       -26.3946
  34   2.0000      -0.896944       -24.4071
  35   2.0000      -0.875030       -23.8108
  36   2.0000      -0.798688       -21.7334
  37   2.0000      -0.776648       -21.1337
  38   2.0000      -0.767604       -20.8876
  39   2.0000      -0.735839       -20.0232
  40   2.0000      -0.700521       -19.0621
  41   2.0000      -0.677289       -18.4300
  42   2.0000      -0.618556       -16.8318
  43   2.0000      -0.597237       -16.2516
  44   2.0000      -0.563291       -15.3279
  45   2.0000      -0.559393       -15.2219
  46   2.0000      -0.507985       -13.8230
  47   2.0000      -0.502401       -13.6710
  48   2.0000      -0.469465       -12.7748
  49   2.0000      -0.457990       -12.4625
  50   2.0000      -0.453843       -12.3497
  51   2.0000      -0.444805       -12.1038
  52   2.0000      -0.429922       -11.6988
  53   2.0000      -0.421611       -11.4726
  54   2.0000      -0.417035       -11.3481
  55   2.0000      -0.392820       -10.6892
  56   2.0000      -0.392785       -10.6882
  57   2.0000      -0.387187       -10.5359
  58   2.0000      -0.377967       -10.2850
  59   2.0000      -0.374564       -10.1924
  60   2.0000      -0.364556        -9.9201
  61   2.0000      -0.353187        -9.6107
  62   2.0000      -0.322769        -8.7830
  63   2.0000      -0.319352        -8.6900
  64   2.0000      -0.315397        -8.5824
  65   2.0000      -0.313584        -8.5331
  66   2.0000      -0.310278        -8.4431
  67   2.0000      -0.302703        -8.2370
  68   2.0000      -0.286962        -7.8086
  69   2.0000      -0.285363        -7.7651
  70   2.0000      -0.266711        -7.2576
  71   2.0000      -0.262698        -7.1484
  72   2.0000      -0.244512        -6.6535
  73   2.0000      -0.236822        -6.4443
  74   2.0000      -0.235500        -6.4083
  75   2.0000      -0.222459        -6.0534
  76   0.0000      -0.069857        -1.9009
  77   0.0000      -0.066406        -1.8070
  78   0.0000      -0.045280        -1.2321
  79   0.0000      -0.038565        -1.0494
  80   0.0000      -0.029262        -0.7963

MULLIKEN ATOMIC CHARGES
-----------------------
   0 C :    0.001872
   1 C :   -0.139527
   2 C :   -0.137775
   3 C :    0.000875
   4 C :   -0.262304
   5 H :    0.124603
   6 C :   -0.250657
   7 H :    0.123749
   8 C :    0.202997
   9 O :   -0.108493
  10 N :   -0.386918
  11 C :    0.211784
  12 O :   -0.111819
  13 S :    0.277463
  14 C :   -0.140647
  15 Cl:    0.013352
  16 Cl:    0.011720
  17 Cl:    0.007871
  18 H :    0.102554
  19 H :    0.108093
  20 H :    0.069602
  21 H :    0.069702
  22 H :    0.108164
  23 H :    0.103739
Sum of atomic charges:   -0.0000000

LOEWDIN ATOMIC CHARGES
----------------------
   0 C :   -0.205766
   1 C :   -0.141236
   2 C :   -0.141407
   3 C :   -0.205021
   4 C :   -0.151610
   5 H :    0.152299
   6 C :   -0.152540
   7 H :    0.151899
   8 C :    0.027326
   9 O :   -0.108003
  10 N :   -0.172353
  11 C :    0.029138
  12 O :   -0.111008
  13 S :    0.365625
  14 C :   -0.454709
  15 Cl:    0.119731
  16 Cl:    0.103833
  17 Cl:    0.103520
  18 H :    0.134265
  19 H :    0.135415
  20 H :    0.125170
  21 H :    0.125261
  22 H :    0.135423
  23 H :    0.134747

  Mayer bond orders larger than 0.100000
B(  0-C ,  1-C ) :   1.0497 B(  0-C ,  6-C ) :   1.1053 B(  0-C , 18-H ) :   0.8888
B(  0-C , 19-H ) :   0.8986 B(  1-C ,  2-C ) :   1.9571 B(  1-C , 20-H ) :   0.9365
B(  2-C ,  3-C ) :   1.0504 B(  2-C , 21-H ) :   0.9364 B(  3-C ,  4-C ) :   1.1076
B(  3-C , 22-H ) :   0.8981 B(  3-C , 23-H ) :   0.8888 B(  4-C ,  5-H ) :   0.8546
B(  4-C ,  6-C ) :   1.0272 B(  4-C , 11-C ) :   0.9241 B(  6-C ,  7-H ) :   0.8542
B(  6-C ,  8-C ) :   0.9208 B(  8-C ,  9-O ) :   2.2711 B(  8-C , 10-N ) :   0.9497
B( 10-N , 11-C ) :   0.9602 B( 10-N , 13-S ) :   0.9777 B( 11-C , 12-O ) :   2.2607
B( 13-S , 14-C ) :   0.9502 B( 14-C , 15-Cl) :   1.0340 B( 14-C , 16-Cl) :   1.0352
B( 14-C , 17-Cl) :   1.0270

Dispersion correction           -0.040839983
FINAL SINGLE POINT ENERGY     -2329.330761447738

DIPOLE MOMENT
-------------

Method             : SCF
Type of density    : Electron Density
Multiplicity       :   1
Irrep              :   0
Energy             : -2329.3845826032675177 Eh
Relativity type    :
Basis              : AO
                                X                 Y                 Z
Electronic contribution:    -36.889491029      -0.079521972      -0.534933730
Nuclear contribution   :     38.007025392       0.099828524       0.171186299
                        -----------------------------------------
Total Dipole Moment    :      1.117534363       0.020306552      -0.363747431
                        -----------------------------------------
Magnitude (a.u.)       :      1.175418054
Magnitude (Debye)      :      2.987675259

Rotational constants in cm-1:             0.024991             0.007651             0.006966
Rotational constants in MHz :           749.206602           229.360933           208.844485

                             ****ORCA TERMINATED NORMALLY****
TOTAL RUN TIME: 0 days 0 hours 0 minutes 26 seconds 473 msec
