                         Program Version 6.0.1  -  RELEASE   -
|  1> ! pbe def2-sv(p) def2/J RI DEFGRID1 loosescf d4 GCP(DFT/SV(P)) printgap
|  2> %output
|  3>     printlevel normal
|  4> end
|  5> * xyz 0 1
|  6> C -1.4710442729 -0.0671942828 1.5402704959
|  7> C -1.6215870306 -0.1013736074 0.0441119157
|  8> O -2.7131311155 -0.1847746885 -0.4671445765
|  9> C -0.3834405942 -0.0308013567 -0.8413296281
| 10> C 0.543457176 -1.2522992887 -0.7004829446
| 11> C 1.5932272678 -1.1434788261 0.4016626559
| 12> C 2.3844857794 0.1512282854 0.2640644828
| 13> C 1.4389496741 1.3403092609 0.3785296086
| 14> C 0.3859272588 1.2975827153 -0.7250695911
| 15> H -2.4555874554 -0.1286893457 1.9986180645
| 16> H -0.8666688717 -0.9043194804 1.8783916786
| 17> H -0.9895315661 0.856020336 1.8505144088
| 18> H -0.7998444499 -0.0667119916 -1.8563556835
| 19> H -0.0651348592 -2.1473962381 -0.5519823337
| 20> H 1.0704128835 -1.3713176935 -1.6505057021
| 21> H 1.1309617402 -1.174836955 1.3889347632
| 22> H 2.2645655933 -2.0023071454 0.3296035727
| 23> H 3.1508373854 0.2061326559 1.0397560942
| 24> H 2.8854223035 0.1734075886 -0.706292638
| 25> H 0.9745637702 1.3317922025 1.3651977639
| 26> H 1.9989319951 2.2741960438 0.2904723458
| 27> H -0.3281347439 2.1141323593 -0.5943915132
| 28> H 0.8963529597 1.4614629478 -1.6775162633
| 29> *
| 30>
| 31>                          ****END OF INPUT****

CARTESIAN COORDINATES (ANGSTROEM)
---------------------------------
  C     -1.471044   -0.067194    1.540270
  C     -1.621587   -0.101374    0.044112
  O     -2.713131   -0.184775   -0.467145
  C     -0.383441   -0.030801   -0.841330
  C      0.543457   -1.252299   -0.700483
  C      1.593227   -1.143479    0.401663
  C      2.384486    0.151228    0.264064
  C      1.438950    1.340309    0.378530
  C      0.385927    1.297583   -0.725070
  H     -2.455587   -0.128689    1.998618
  H     -0.866669   -0.904319    1.878392
  H     -0.989532    0.856020    1.850514
  H     -0.799844   -0.066712   -1.856356
  H     -0.065135   -2.147396   -0.551982
  H      1.070413   -1.371318   -1.650506
  H      1.130962   -1.174837    1.388935
  H      2.264566   -2.002307    0.329604
  H      3.150837    0.206133    1.039756
  H      2.885422    0.173408   -0.706293
  H      0.974564    1.331792    1.365198
  H      1.998932    2.274196    0.290472
  H     -0.328135    2.114132   -0.594392
  H      0.896353    1.461463   -1.677516

 Total Charge           Charge          ....    0
 Multiplicity           Mult            ....    1
 Number of Electrons    NEL             ....   70
 Basis Dimension        Dim             ....  154

ORBITAL ENERGIES
----------------

  NO   OCC          E(Eh)            E(eV)
   0   2.0000     -18.732701      -509.7427
   1   2.0000      -9.968460      -271.2556
   2   2.0000      -9.896783      -269.3052
   3   2.0000      -9.894580      -269.2452
   4   2.0000      -9.894523      -269.2437
   5   2.0000      -9.889811      -269.1155
   6   2.0000      -9.889764      -269.1142
   7   2.0000      -9.888246      -269.0729
   8   2.0000      -9.885559      -268.9997
   9   2.0000      -0.934887       -25.4396
  10   2.0000      -0.763670       -20.7805
  11   2.0000      -0.689396       -18.7594
  12   2.0000      -0.675781       -18.3889
  13   2.0000      -0.658894       -17.9294
  14   2.0000      -0.563604       -15.3364
  15   2.0000      -0.552145       -15.0246
  16   2.0000      -0.511081       -13.9072
  17   2.0000      -0.457449       -12.4478
  18   2.0000      -0.442389       -12.0380
  19   2.0000      -0.420618       -11.4456
  20   2.0000      -0.408454       -11.1146
  21   2.0000      -0.403219       -10.9722
  22   2.0000      -0.379822       -10.3355
  23   2.0000      -0.371077       -10.0975
  24   2.0000      -0.360453        -9.8084
  25   2.0000      -0.352806        -9.6003
  26   2.0000      -0.340495        -9.2653
  27   2.0000      -0.333590        -9.0775
  28   2.0000      -0.321026        -8.7356
  29   2.0000      -0.318703        -8.6723
  30   2.0000      -0.300733        -8.1834
  31   2.0000      -0.282551        -7.6886
  32   2.0000      -0.267456        -7.2778
  33   2.0000      -0.266492        -7.2516
  34   2.0000      -0.188830        -5.1383
  35   0.0000      -0.043242        -1.1767
  36   0.0000       0.023613         0.6426
  37   0.0000       0.034774         0.9463
  38   0.0000       0.058539         1.5929
  39   0.0000       0.066432         1.8077

MULLIKEN ATOMIC CHARGES
-----------------------
   0 C :   -0.266886
   1 C :   -0.030031
   2 O :   -0.156157
   3 C :   -0.094473
   4 C :   -0.145459
   5 C :   -0.155289
   6 C :   -0.161519
   7 C :   -0.155186
   8 C :   -0.144855
   9 H :    0.110564
  10 H :    0.133298
  11 H :    0.134078
  12 H :    0.067617
  13 H :    0.096632
  14 H :    0.084474
  15 H :    0.080858
  16 H :    0.088809
  17 H :    0.087037
  18 H :    0.076542
  19 H :    0.080528
  20 H :    0.088850
  21 H :    0.096309
  22 H :    0.084259
Sum of atomic charges:    0.0000000

LOEWDIN ATOMIC CHARGES
----------------------
   0 C :   -0.366407
   1 C :    0.046302
   2 O :   -0.124449
   3 C :   -0.168237
   4 C :   -0.213062
   5 C :   -0.230401
   6 C :   -0.225719
   7 C :   -0.230500
   8 C :   -0.213208
   9 H :    0.133914
  10 H :    0.139595
  11 H :    0.139846
  12 H :    0.129144
  13 H :    0.120600
  14 H :    0.123444
  15 H :    0.111843
  16 H :    0.120150
  17 H :    0.117525
  18 H :    0.113846
  19 H :    0.111855
  20 H :    0.120090
  21 H :    0.120431
  22 H :    0.123400

  Mayer bond orders larger than 0.100000
B(  0-C ,  1-C ) :   1.0784 B(  0-C ,  9-H ) :   0.9228 B(  0-C , 10-H ) :   0.9120
B(  0-C , 11-H ) :   0.9117 B(  1-C ,  2-O ) :   2.2025 B(  1-C ,  3-C ) :   0.9607
B(  3-C ,  4-C ) :   1.0614 B(  3-C ,  8-C ) :   1.0611 B(  3-C , 12-H ) :   0.8604
B(  4-C ,  5-C ) :   1.1232 B(  4-C , 13-H ) :   0.9206 B(  4-C , 14-H ) :   0.9084
B(  5-C ,  6-C ) :   1.1257 B(  5-C , 15-H ) :   0.9080 B(  5-C , 16-H ) :   0.9135
B(  6-C ,  7-C ) :   1.1260 B(  6-C , 17-H ) :   0.9187 B(  6-C , 18-H ) :   0.9176
B(  7-C ,  8-C ) :   1.1228 B(  7-C , 19-H ) :   0.9080 B(  7-C , 20-H ) :   0.9137
B(  8-C , 21-H ) :   0.9207 B(  8-C , 22-H ) :   0.9083

Dispersion correction           -0.022878753
FINAL SINGLE POINT ENERGY      -387.602950395341

DIPOLE MOMENT
-------------

Method             : SCF
Type of density    : Electron Density
Multiplicity       :   1
Irrep              :   0
Energy             :  -387.6797797646102595 Eh
Relativity type    :
Basis              : AO
                                X                 Y                 Z
Electronic contribution:     -7.236437938      -0.504684518      -2.525167420
Nuclear contribution   :      8.278617127       0.580391026       2.905556113
                        -----------------------------------------
Total Dipole Moment    :      1.042179189       0.075706508       0.380388693
                        -----------------------------------------
Magnitude (a.u.)       :      1.112009216
Magnitude (Debye)      :      2.826502800

Rotational constants in cm-1:             0.090089             0.039108             0.037358
Rotational constants in MHz :          2700.809845          1172.422827          1119.971987

                             ****ORCA TERMINATED NORMALLY****
TOTAL RUN TIME: 0 days 0 hours 0 minutes 10 seconds 991 msec
