                         Program Version 6.0.0  -   RELEASE  -
|  1> ! r2SCAN-3c DEF2-TZVP FREQ
|  2> * xyzfile 0 1 censo.xyz
|  3>
|  4>                          ****END OF INPUT****

CARTESIAN COORDINATES (ANGSTROEM)
---------------------------------
  C      0.977984    2.103046   -0.383637
  C      0.348287    0.856372    0.203111
  H      0.113113    0.989117    1.260993
  C     -0.878612    0.463935   -0.580427
  Cl    -1.780503   -0.935053    0.171523
  Cl     1.581441   -0.522924    0.165524
  H      0.264836    2.930028   -0.300774
  H      1.881793    2.373038    0.166129
  H      1.229006    1.960820   -1.438335
  H     -1.574129    1.306934   -0.588486
  H     -0.635063    0.174508   -1.604124

 Total Charge           Charge          ....    0
 Multiplicity           Mult            ....    1
 Number of Electrons    NEL             ....   58
 Basis Dimension        Dim             ....  203

ORBITAL ENERGIES
----------------

  NO   OCC          E(Eh)            E(eV)
   0   2.0000    -101.180025     -2753.2485
   1   2.0000    -101.175516     -2753.1258
   2   2.0000     -10.120276      -275.3867
   3   2.0000     -10.111707      -275.1535
   4   2.0000     -10.053293      -273.5640
   5   2.0000      -9.355936      -254.5880
   6   2.0000      -9.351554      -254.4687
   7   2.0000      -7.100961      -193.2270
   8   2.0000      -7.096290      -193.0999
   9   2.0000      -7.090682      -192.9473
  10   2.0000      -7.090582      -192.9445
  11   2.0000      -7.086512      -192.8338
  12   2.0000      -7.086310      -192.8283
  13   2.0000      -0.848571       -23.0908
  14   2.0000      -0.793672       -21.5969
  15   2.0000      -0.730692       -19.8831
  16   2.0000      -0.660254       -17.9664
  17   2.0000      -0.572669       -15.5831
  18   2.0000      -0.472125       -12.8472
  19   2.0000      -0.440992       -12.0000
  20   2.0000      -0.426750       -11.6124
  21   2.0000      -0.404066       -10.9952
  22   2.0000      -0.365837        -9.9549
  23   2.0000      -0.361468        -9.8360
  24   2.0000      -0.348921        -9.4946
  25   2.0000      -0.280936        -7.6447
  26   2.0000      -0.278157        -7.5690
  27   2.0000      -0.272137        -7.4052
  28   2.0000      -0.267870        -7.2891
  29   0.0000      -0.029406        -0.8002
  30   0.0000      -0.005881        -0.1600
  31   0.0000       0.040056         1.0900
  32   0.0000       0.071426         1.9436
  33   0.0000       0.078228         2.1287

MULLIKEN ATOMIC CHARGES
-----------------------
   0 C :   -0.326141
   1 C :    0.039529
   2 H :    0.113062
   3 C :   -0.088375
   4 Cl:   -0.166966
   5 Cl:   -0.187597
   6 H :    0.110278
   7 H :    0.133512
   8 H :    0.118065
   9 H :    0.122599
  10 H :    0.132034
Sum of atomic charges:    0.0000000

LOEWDIN ATOMIC CHARGES
----------------------
   0 C :   -0.302161
   1 C :   -0.501691
   2 H :    0.142592
   3 C :   -0.471629
   4 Cl:    0.239742
   5 Cl:    0.244398
   6 H :    0.128730
   7 H :    0.129818
   8 H :    0.127175
   9 H :    0.132901
  10 H :    0.130122

  Mayer bond orders larger than 0.100000
B(  0-C ,  1-C ) :   0.9743 B(  0-C ,  6-H ) :   0.9546 B(  0-C ,  7-H ) :   0.9656
B(  0-C ,  8-H ) :   0.9661 B(  1-C ,  2-H ) :   0.9564 B(  1-C ,  3-C ) :   0.9883
B(  1-C ,  5-Cl) :   1.0009 B(  3-C ,  4-Cl) :   1.0433 B(  3-C ,  9-H ) :   0.9486
B(  3-C , 10-H ) :   0.9543

Dispersion correction           -0.002938851
FINAL SINGLE POINT ENERGY     -1038.268780864804

DIPOLE MOMENT
-------------

Method             : SCF
Type of density    : Electron Density
Multiplicity       :   1
Irrep              :   0
Energy             : -1038.2747769932750543 Eh
Relativity type    :
Basis              : AO
                                X                 Y                 Z
Electronic contribution:     -1.554623121      -9.852225147       2.508376890
Nuclear contribution   :      1.477814456      11.109326432      -2.809567258
                        -----------------------------------------
Total Dipole Moment    :     -0.076808665       1.257101285      -0.301190368
                        -----------------------------------------
Magnitude (a.u.)       :      1.294959014
Magnitude (Debye)      :      3.291524233

VIBRATIONAL FREQUENCIES
-----------------------

Scaling factor for frequencies =  1.000000000  (already applied!)

     0:       0.00 cm**-1
     1:       0.00 cm**-1
     2:       0.00 cm**-1
     3:       0.00 cm**-1
     4:       0.00 cm**-1
     5:       0.00 cm**-1
     6:     123.99 cm**-1
     7:     194.84 cm**-1
     8:     258.32 cm**-1
     9:     312.11 cm**-1
    10:     381.40 cm**-1
    11:     408.39 cm**-1
    12:     574.29 cm**-1
    13:     706.11 cm**-1
    14:     890.74 cm**-1
    15:     919.79 cm**-1
    16:    1012.00 cm**-1
    17:    1090.02 cm**-1
    18:    1129.26 cm**-1
    19:    1183.68 cm**-1
    20:    1273.83 cm**-1
    21:    1285.17 cm**-1
    22:    1348.86 cm**-1
    23:    1401.92 cm**-1
    24:    1454.38 cm**-1
    25:    1478.17 cm**-1
    26:    1488.42 cm**-1
    27:    3017.18 cm**-1
    28:    3058.10 cm**-1
    29:    3088.04 cm**-1
    30:    3100.21 cm**-1
    31:    3122.07 cm**-1
    32:    3134.10 cm**-1

IR SPECTRUM
-----------

 Mode   freq       eps      Int      T**2         TX        TY        TZ
       cm**-1   L/(mol*cm) km/mol    a.u.
----------------------------------------------------------------------------
  6:    123.99   0.000188    0.95  0.000473  (-0.002122  0.018577  0.011118)
  7:    194.84   0.000201    1.01  0.000322  (-0.002046 -0.006958 -0.016402)
  8:    258.32   0.000022    0.11  0.000026  ( 0.000256 -0.005118 -0.000415)
  9:    312.11   0.000180    0.91  0.000180  ( 0.011490 -0.006365 -0.002725)
 10:    381.40   0.001696    8.57  0.001388  (-0.036476  0.000969 -0.007518)
 11:    408.39   0.001708    8.63  0.001305  (-0.008707 -0.034038  0.008407)
 12:    574.29   0.006191   31.29  0.003364  (-0.042835  0.038373 -0.007548)
 13:    706.11   0.007457   37.68  0.003295  ( 0.041516  0.035896 -0.016831)
 14:    890.74   0.000608    3.07  0.000213  (-0.011827  0.008499  0.000880)
 15:    919.79   0.002598   13.13  0.000882  ( 0.006888  0.028840  0.001537)
 16:   1012.00   0.003469   17.53  0.001070  ( 0.024434 -0.021741 -0.000371)
 17:   1090.02   0.000237    1.20  0.000068  (-0.005432  0.004167 -0.004565)
 18:   1129.26   0.001185    5.99  0.000328  ( 0.015482 -0.004626  0.008153)
 19:   1183.68   0.001406    7.11  0.000371  ( 0.017751 -0.007186 -0.002002)
 20:   1273.83   0.004317   21.82  0.001058  ( 0.030086  0.005619 -0.010995)
 21:   1285.17   0.003721   18.81  0.000904  ( 0.014912 -0.025462  0.005741)
 22:   1348.86   0.001166    5.89  0.000270  (-0.004103 -0.013864  0.007794)
 23:   1401.92   0.001550    7.83  0.000345  (-0.007835 -0.014718  0.008186)
 24:   1454.38   0.001065    5.38  0.000229  (-0.007483  0.000066 -0.013138)
 25:   1478.17   0.001827    9.23  0.000386  ( 0.007548  0.007301  0.016598)
 26:   1488.42   0.001115    5.63  0.000234  ( 0.009694 -0.006509 -0.009868)
 27:   3017.18   0.002740   13.84  0.000283  (-0.001188  0.016010 -0.005062)
 28:   3058.10   0.002961   14.96  0.000302  (-0.000840  0.014782 -0.009105)
 29:   3088.04   0.000238    1.20  0.000024  (-0.003119  0.003614  0.001118)
 30:   3100.21   0.002528   12.77  0.000254  (-0.012501  0.007491  0.006485)
 31:   3122.07   0.001595    8.06  0.000159  (-0.006517 -0.002166 -0.010595)
 32:   3134.10   0.001130    5.71  0.000112  ( 0.004716 -0.004963 -0.008101)

--------------------------
THERMOCHEMISTRY AT 298.15K
--------------------------

Temperature         ...   298.15 K
Pressure            ...     1.00 atm
Total Mass          ...   112.99 AMU
Quasi RRHO          ...     True
Cut-Off Frequency   ...     1.00 cm^-1

Throughout the following assumptions are being made:
  (1) The electronic state is orbitally nondegenerate
  (2) There are no thermally accessible electronically excited states
  (3) Hindered rotations indicated by low frequency modes are not
      treated as such but are treated as vibrations and this may
      cause some error
  (4) All equations used are the standard statistical mechanics
      equations for an ideal gas
  (5) All vibrations are strictly harmonic

freq.     123.99  E(vib)   ...       0.43
freq.     194.84  E(vib)   ...       0.36
freq.     258.32  E(vib)   ...       0.30
freq.     312.11  E(vib)   ...       0.25
freq.     381.40  E(vib)   ...       0.21
freq.     408.39  E(vib)   ...       0.19
freq.     574.29  E(vib)   ...       0.11
freq.     706.11  E(vib)   ...       0.07
freq.     890.74  E(vib)   ...       0.04
freq.     919.79  E(vib)   ...       0.03
freq.    1012.00  E(vib)   ...       0.02
freq.    1090.02  E(vib)   ...       0.02
freq.    1129.26  E(vib)   ...       0.01
freq.    1183.68  E(vib)   ...       0.01
freq.    1273.83  E(vib)   ...       0.01
freq.    1285.17  E(vib)   ...       0.01
freq.    1348.86  E(vib)   ...       0.01
freq.    1401.92  E(vib)   ...       0.00
freq.    1454.38  E(vib)   ...       0.00
freq.    1478.17  E(vib)   ...       0.00
freq.    1488.42  E(vib)   ...       0.00
freq.    3017.18  E(vib)   ...       0.00
freq.    3058.10  E(vib)   ...       0.00
freq.    3088.04  E(vib)   ...       0.00
freq.    3100.21  E(vib)   ...       0.00
freq.    3122.07  E(vib)   ...       0.00
freq.    3134.10  E(vib)   ...       0.00

------------
INNER ENERGY
------------

The inner energy is: U= E(el) + E(ZPE) + E(vib) + E(rot) + E(trans)
    E(el)   - is the total energy from the electronic structure calculation
              = E(kin-el) + E(nuc-el) + E(el-el) + E(nuc-nuc)
    E(ZPE)  - the the zero temperature vibrational energy from the frequency calculation
    E(vib)  - the the finite temperature correction to E(ZPE) due to population
              of excited vibrational states
    E(rot)  - is the rotational thermal energy
    E(trans)- is the translational thermal energy

Summary of contributions to the inner energy U:
Electronic energy                ...  -1038.26878086 Eh
Zero point energy                ...      0.08528413 Eh      53.52 kcal/mol
Thermal vibrational correction   ...      0.00331757 Eh       2.08 kcal/mol
Thermal rotational correction    ...      0.00141627 Eh       0.89 kcal/mol
Thermal translational correction ...      0.00141627 Eh       0.89 kcal/mol
-----------------------------------------------------------------------
Total thermal energy                  -1038.17734662 Eh

Summary of corrections to the electronic energy:
(perhaps to be used in another calculation)
Total thermal correction                  0.00615011 Eh       3.86 kcal/mol
Non-thermal (ZPE) correction              0.08528413 Eh      53.52 kcal/mol
-----------------------------------------------------------------------
Total correction                          0.09143424 Eh      57.38 kcal/mol

--------
ENTHALPY
--------

The enthalpy is H = U + kB*T
                kB is Boltzmann's constant
Total thermal energy              ...  -1038.17734662 Eh
Thermal Enthalpy correction       ...      0.00094421 Eh       0.59 kcal/mol
-----------------------------------------------------------------------
Total Enthalpy                    ...  -1038.17640241 Eh

Note: Only C1 symmetry has been detected, increase convergence thresholds
      if your molecule has a higher symmetry. Symmetry factor of 1.0 is
      used for the rotational entropy correction.

Note: Rotational entropy computed according to Herzberg
Infrared and Raman Spectra, Chapter V,1, Van Nostrand Reinhold, 1945
Point Group:  C1, Symmetry Number:   1
Rotational constants in cm-1:     0.146950     0.062990     0.046464

Vibrational entropy computed according to the QRRHO of S. Grimme
Chem.Eur.J. 2012 18 9955 using a reference frequency of 100.0 cm-1

-------
ENTROPY
-------

The entropy contributions are T*S = T*(S(el)+S(vib)+S(rot)+S(trans))
     S(el)   - electronic entropy
     S(vib)  - vibrational entropy
     S(rot)  - rotational entropy
     S(trans)- translational entropy
The entropies will be listed as multiplied by the temperature to get
units of energy

Electronic entropy                ...      0.00000000 Eh      0.00 kcal/mol
Vibrational entropy               ...      0.00549633 Eh      3.45 kcal/mol
Rotational entropy                ...      0.01317023 Eh      8.26 kcal/mol
Translational entropy             ...      0.01904417 Eh     11.95 kcal/mol
-----------------------------------------------------------------------
Final entropy term                ...      0.03771073 Eh     23.66 kcal/mol

In case the symmetry of your molecule has not been determined correctly
or in case you have a reason to use a different symmetry number we print
out the resulting rotational entropy values for sn=1,12:

 non-linear molecules -----------------------------------
|  sn= 1 | S(rot)=       0.01317023 Eh      8.26 kcal/mol|
|  sn= 2 | S(rot)=       0.01251577 Eh      7.85 kcal/mol|
|  sn= 3 | S(rot)=       0.01213294 Eh      7.61 kcal/mol|
|  sn= 4 | S(rot)=       0.01186131 Eh      7.44 kcal/mol|
|  sn= 5 | S(rot)=       0.01165062 Eh      7.31 kcal/mol|
|  sn= 6 | S(rot)=       0.01147848 Eh      7.20 kcal/mol|
|  sn= 7 | S(rot)=       0.01133293 Eh      7.11 kcal/mol|
|  sn= 8 | S(rot)=       0.01120686 Eh      7.03 kcal/mol|
|  sn= 9 | S(rot)=       0.01109565 Eh      6.96 kcal/mol|
|  sn=10 | S(rot)=       0.01099617 Eh      6.90 kcal/mol|
|  sn=11 | S(rot)=       0.01090618 Eh      6.84 kcal/mol|
|  sn=12 | S(rot)=       0.01082402 Eh      6.79 kcal/mol|
 linear molecules ---------------------------------------
|  Dinfh | S(rot)=       0.00822357 Eh      5.16 kcal/mol|
|  Cinfv | S(rot)=       0.00887803 Eh      5.57 kcal/mol|
 --------------------------------------------------------

-------------------
GIBBS FREE ENERGY
-------------------

The Gibbs free energy is G = H - T*S

Total enthalpy                    ...  -1038.17640241 Eh
Total entropy correction          ...     -0.03771073 Eh    -23.66 kcal/mol
-----------------------------------------------------------------------
Final Gibbs free energy         ...  -1038.21411314 Eh

For completeness - the Gibbs free energy minus the electronic energy
G-E(el)                           ...      0.05466772 Eh     34.30 kcal/mol

                             ****ORCA TERMINATED NORMALLY****
TOTAL RUN TIME: 0 days 0 hours 3 minutes 54 seconds 101 msec
