                         Program Version 6.0.0  -   RELEASE  -
|  1> ! r2SCAN-3c DEF2-TZVP FREQ
|  2> * xyzfile 0 1 vacuum_censo.xyz
|  3>
|  4>                          ****END OF INPUT****

CARTESIAN COORDINATES (ANGSTROEM)
---------------------------------
  C      0.400283   -1.717254    0.151330
  C      0.437292   -0.284638   -0.332126
  H      0.308561   -0.222168   -1.415616
  C     -0.536868    0.646993    0.364581
  Cl    -2.249281    0.175518   -0.053110
  Cl     2.104060    0.428892   -0.002210
  H     -0.585032   -2.144262   -0.057277
  H      1.155861   -2.315523   -0.361164
  H      0.584204   -1.766645    1.228123
  H     -0.439060    0.583931    1.450371
  H     -0.407214    1.678115    0.035335

 Total Charge           Charge          ....    0
 Multiplicity           Mult            ....    1
 Number of Electrons    NEL             ....   58
 Basis Dimension        Dim             ....  203

ORBITAL ENERGIES
----------------

  NO   OCC          E(Eh)            E(eV)
   0   2.0000    -101.187392     -2753.4489
   1   2.0000    -101.183715     -2753.3489
   2   2.0000     -10.120366      -275.3892
   3   2.0000     -10.110804      -275.1290
   4   2.0000     -10.044520      -273.3253
   5   2.0000      -9.363389      -254.7908
   6   2.0000      -9.359858      -254.6947
   7   2.0000      -7.108251      -193.4254
   8   2.0000      -7.104514      -193.3236
   9   2.0000      -7.098209      -193.1521
  10   2.0000      -7.098105      -193.1493
  11   2.0000      -7.094841      -193.0605
  12   2.0000      -7.094649      -193.0552
  13   2.0000      -0.852127       -23.1876
  14   2.0000      -0.803435       -21.8626
  15   2.0000      -0.721409       -19.6305
  16   2.0000      -0.665293       -18.1035
  17   2.0000      -0.569632       -15.5005
  18   2.0000      -0.469392       -12.7728
  19   2.0000      -0.444961       -12.1080
  20   2.0000      -0.426498       -11.6056
  21   2.0000      -0.394993       -10.7483
  22   2.0000      -0.369031       -10.0418
  23   2.0000      -0.358827        -9.7642
  24   2.0000      -0.347046        -9.4436
  25   2.0000      -0.292150        -7.9498
  26   2.0000      -0.280854        -7.6424
  27   2.0000      -0.279456        -7.6044
  28   2.0000      -0.275845        -7.5061
  29   0.0000      -0.036799        -1.0013
  30   0.0000       0.000921         0.0251
  31   0.0000       0.053729         1.4621
  32   0.0000       0.072209         1.9649
  33   0.0000       0.082536         2.2459

MULLIKEN ATOMIC CHARGES
-----------------------
   0 C :   -0.325127
   1 C :    0.035288
   2 H :    0.113642
   3 C :   -0.086221
   4 Cl:   -0.180947
   5 Cl:   -0.189382
   6 H :    0.127898
   7 H :    0.126593
   8 H :    0.110923
   9 H :    0.125862
  10 H :    0.141471
Sum of atomic charges:   -0.0000000

LOEWDIN ATOMIC CHARGES
----------------------
   0 C :   -0.310516
   1 C :   -0.502329
   2 H :    0.141907
   3 C :   -0.473482
   4 Cl:    0.244260
   5 Cl:    0.260631
   6 H :    0.129691
   7 H :    0.127339
   8 H :    0.126207
   9 H :    0.128458
  10 H :    0.127834

  Mayer bond orders larger than 0.100000
B(  0-C ,  1-C ) :   0.9901 B(  0-C ,  6-H ) :   0.9485 B(  0-C ,  7-H ) :   0.9688
B(  0-C ,  8-H ) :   0.9642 B(  1-C ,  2-H ) :   0.9575 B(  1-C ,  3-C ) :   0.9851
B(  1-C ,  5-Cl) :   0.9850 B(  3-C ,  4-Cl) :   0.9977 B(  3-C ,  9-H ) :   0.9554
B(  3-C , 10-H ) :   0.9588

Dispersion correction           -0.002963222
FINAL SINGLE POINT ENERGY     -1038.271918558711

DIPOLE MOMENT
-------------

Method             : SCF
Type of density    : Electron Density
Multiplicity       :   1
Irrep              :   0
Energy             : -1038.2781348596031421 Eh
Relativity type    :
Basis              : AO
                                X                 Y                 Z
Electronic contribution:     -0.791508675       4.530976407      -0.834635754
Nuclear contribution   :      0.797905614      -4.763319851       0.870104958
                        -----------------------------------------
Total Dipole Moment    :      0.006396940      -0.232343445       0.035469203
                        -----------------------------------------
Magnitude (a.u.)       :      0.235122227
Magnitude (Debye)      :      0.597633206

VIBRATIONAL FREQUENCIES
-----------------------

Scaling factor for frequencies =  1.000000000  (already applied!)

     0:       0.00 cm**-1
     1:       0.00 cm**-1
     2:       0.00 cm**-1
     3:       0.00 cm**-1
     4:       0.00 cm**-1
     5:       0.00 cm**-1
     6:     127.66 cm**-1
     7:     215.00 cm**-1
     8:     261.23 cm**-1
     9:     280.42 cm**-1
    10:     348.37 cm**-1
    11:     417.45 cm**-1
    12:     631.77 cm**-1
    13:     699.75 cm**-1
    14:     867.08 cm**-1
    15:     913.98 cm**-1
    16:    1025.91 cm**-1
    17:    1081.43 cm**-1
    18:    1141.04 cm**-1
    19:    1204.70 cm**-1
    20:    1254.54 cm**-1
    21:    1296.00 cm**-1
    22:    1367.73 cm**-1
    23:    1404.73 cm**-1
    24:    1468.96 cm**-1
    25:    1482.00 cm**-1
    26:    1490.21 cm**-1
    27:    3025.39 cm**-1
    28:    3069.43 cm**-1
    29:    3082.48 cm**-1
    30:    3108.27 cm**-1
    31:    3121.85 cm**-1
    32:    3147.28 cm**-1

IR SPECTRUM
-----------

 Mode   freq       eps      Int      T**2         TX        TY        TZ
       cm**-1   L/(mol*cm) km/mol    a.u.
----------------------------------------------------------------------------
  6:    127.66   0.000942    4.76  0.002303  ( 0.002926  0.023610 -0.041683)
  7:    215.00   0.001491    7.53  0.002164  (-0.030434  0.029489  0.019182)
  8:    261.23   0.000089    0.45  0.000107  (-0.001776 -0.009290  0.004140)
  9:    280.42   0.000026    0.13  0.000029  (-0.001685  0.004118  0.003028)
 10:    348.37   0.000595    3.01  0.000533  ( 0.009358  0.021100  0.000134)
 11:    417.45   0.000235    1.19  0.000176  (-0.013022  0.001301  0.002143)
 12:    631.77   0.016461   83.19  0.008131  ( 0.086421  0.025332  0.004565)
 13:    699.75   0.004949   25.01  0.002207  (-0.046356  0.002670 -0.007138)
 14:    867.08   0.000442    2.23  0.000159  (-0.009796 -0.005911 -0.005293)
 15:    913.98   0.000661    3.34  0.000226  ( 0.001993 -0.014508 -0.003372)
 16:   1025.91   0.004060   20.52  0.001235  (-0.032806 -0.012593 -0.000344)
 17:   1081.43   0.000844    4.27  0.000244  (-0.010645 -0.008725  0.007366)
 18:   1141.04   0.000407    2.06  0.000111  ( 0.005734 -0.008505 -0.002479)
 19:   1204.70   0.004448   22.48  0.001152  (-0.031787 -0.008831 -0.007984)
 20:   1254.54   0.001518    7.67  0.000378  (-0.016067 -0.009411 -0.005558)
 21:   1296.00   0.000510    2.58  0.000123  ( 0.009587 -0.001513  0.005341)
 22:   1367.73   0.000312    1.58  0.000071  (-0.004710 -0.005913 -0.003751)
 23:   1404.73   0.002673   13.51  0.000594  (-0.003722  0.023177 -0.006540)
 24:   1468.96   0.001122    5.67  0.000238  ( 0.011616 -0.006845 -0.007519)
 25:   1482.00   0.001322    6.68  0.000278  (-0.005182  0.006792  0.014331)
 26:   1490.21   0.001518    7.67  0.000318  ( 0.005117  0.007683  0.015253)
 27:   3025.39   0.001831    9.25  0.000189  (-0.001819 -0.012679  0.004979)
 28:   3069.43   0.000942    4.76  0.000096  (-0.004462 -0.007014 -0.005167)
 29:   3082.48   0.000473    2.39  0.000048  ( 0.004294  0.000224  0.005426)
 30:   3108.27   0.002239   11.32  0.000225  (-0.009962 -0.001533 -0.011101)
 31:   3121.85   0.002276   11.50  0.000228  (-0.008077  0.006281  0.011085)
 32:   3147.28   0.000528    2.67  0.000052  ( 0.000065 -0.003750  0.006186)

--------------------------
THERMOCHEMISTRY AT 298.15K
--------------------------

Temperature         ...   298.15 K
Pressure            ...     1.00 atm
Total Mass          ...   112.99 AMU
Quasi RRHO          ...     True
Cut-Off Frequency   ...     1.00 cm^-1

Throughout the following assumptions are being made:
  (1) The electronic state is orbitally nondegenerate
  (2) There are no thermally accessible electronically excited states
  (3) Hindered rotations indicated by low frequency modes are not
      treated as such but are treated as vibrations and this may
      cause some error
  (4) All equations used are the standard statistical mechanics
      equations for an ideal gas
  (5) All vibrations are strictly harmonic

freq.     127.66  E(vib)   ...       0.43
freq.     215.00  E(vib)   ...       0.34
freq.     261.23  E(vib)   ...       0.30
freq.     280.42  E(vib)   ...       0.28
freq.     348.37  E(vib)   ...       0.23
freq.     417.45  E(vib)   ...       0.18
freq.     631.77  E(vib)   ...       0.09
freq.     699.75  E(vib)   ...       0.07
freq.     867.08  E(vib)   ...       0.04
freq.     913.98  E(vib)   ...       0.03
freq.    1025.91  E(vib)   ...       0.02
freq.    1081.43  E(vib)   ...       0.02
freq.    1141.04  E(vib)   ...       0.01
freq.    1204.70  E(vib)   ...       0.01
freq.    1254.54  E(vib)   ...       0.01
freq.    1296.00  E(vib)   ...       0.01
freq.    1367.73  E(vib)   ...       0.01
freq.    1404.73  E(vib)   ...       0.00
freq.    1468.96  E(vib)   ...       0.00
freq.    1482.00  E(vib)   ...       0.00
freq.    1490.21  E(vib)   ...       0.00
freq.    3025.39  E(vib)   ...       0.00
freq.    3069.43  E(vib)   ...       0.00
freq.    3082.48  E(vib)   ...       0.00
freq.    3108.27  E(vib)   ...       0.00
freq.    3121.85  E(vib)   ...       0.00
freq.    3147.28  E(vib)   ...       0.00

------------
INNER ENERGY
------------

The inner energy is: U= E(el) + E(ZPE) + E(vib) + E(rot) + E(trans)
    E(el)   - is the total energy from the electronic structure calculation
              = E(kin-el) + E(nuc-el) + E(el-el) + E(nuc-nuc)
    E(ZPE)  - the the zero temperature vibrational energy from the frequency calculation
    E(vib)  - the the finite temperature correction to E(ZPE) due to population
              of excited vibrational states
    E(rot)  - is the rotational thermal energy
    E(trans)- is the translational thermal energy

Summary of contributions to the inner energy U:
Electronic energy                ...  -1038.27191856 Eh
Zero point energy                ...      0.08551024 Eh      53.66 kcal/mol
Thermal vibrational correction   ...      0.00331559 Eh       2.08 kcal/mol
Thermal rotational correction    ...      0.00141627 Eh       0.89 kcal/mol
Thermal translational correction ...      0.00141627 Eh       0.89 kcal/mol
-----------------------------------------------------------------------
Total thermal energy                  -1038.18026019 Eh

Summary of corrections to the electronic energy:
(perhaps to be used in another calculation)
Total thermal correction                  0.00614813 Eh       3.86 kcal/mol
Non-thermal (ZPE) correction              0.08551024 Eh      53.66 kcal/mol
-----------------------------------------------------------------------
Total correction                          0.09165837 Eh      57.52 kcal/mol

--------
ENTHALPY
--------

The enthalpy is H = U + kB*T
                kB is Boltzmann's constant
Total thermal energy              ...  -1038.18026019 Eh
Thermal Enthalpy correction       ...      0.00094421 Eh       0.59 kcal/mol
-----------------------------------------------------------------------
Total Enthalpy                    ...  -1038.17931598 Eh

Note: Only C1 symmetry has been detected, increase convergence thresholds
      if your molecule has a higher symmetry. Symmetry factor of 1.0 is
      used for the rotational entropy correction.

Note: Rotational entropy computed according to Herzberg
Infrared and Raman Spectra, Chapter V,1, Van Nostrand Reinhold, 1945
Point Group:  C1, Symmetry Number:   1
Rotational constants in cm-1:     0.226201     0.047411     0.040923

Vibrational entropy computed according to the QRRHO of S. Grimme
Chem.Eur.J. 2012 18 9955 using a reference frequency of 100.0 cm-1

-------
ENTROPY
-------

The entropy contributions are T*S = T*(S(el)+S(vib)+S(rot)+S(trans))
     S(el)   - electronic entropy
     S(vib)  - vibrational entropy
     S(rot)  - rotational entropy
     S(trans)- translational entropy
The entropies will be listed as multiplied by the temperature to get
units of energy

Electronic entropy                ...      0.00000000 Eh      0.00 kcal/mol
Vibrational entropy               ...      0.00548200 Eh      3.44 kcal/mol
Rotational entropy                ...      0.01316069 Eh      8.26 kcal/mol
Translational entropy             ...      0.01904417 Eh     11.95 kcal/mol
-----------------------------------------------------------------------
Final entropy term                ...      0.03768686 Eh     23.65 kcal/mol

In case the symmetry of your molecule has not been determined correctly
or in case you have a reason to use a different symmetry number we print
out the resulting rotational entropy values for sn=1,12:

 non-linear molecules -----------------------------------
|  sn= 1 | S(rot)=       0.01316069 Eh      8.26 kcal/mol|
|  sn= 2 | S(rot)=       0.01250623 Eh      7.85 kcal/mol|
|  sn= 3 | S(rot)=       0.01212340 Eh      7.61 kcal/mol|
|  sn= 4 | S(rot)=       0.01185177 Eh      7.44 kcal/mol|
|  sn= 5 | S(rot)=       0.01164108 Eh      7.30 kcal/mol|
|  sn= 6 | S(rot)=       0.01146894 Eh      7.20 kcal/mol|
|  sn= 7 | S(rot)=       0.01132339 Eh      7.11 kcal/mol|
|  sn= 8 | S(rot)=       0.01119732 Eh      7.03 kcal/mol|
|  sn= 9 | S(rot)=       0.01108611 Eh      6.96 kcal/mol|
|  sn=10 | S(rot)=       0.01098663 Eh      6.89 kcal/mol|
|  sn=11 | S(rot)=       0.01089664 Eh      6.84 kcal/mol|
|  sn=12 | S(rot)=       0.01081448 Eh      6.79 kcal/mol|
 linear molecules ---------------------------------------
|  Dinfh | S(rot)=       0.00834347 Eh      5.24 kcal/mol|
|  Cinfv | S(rot)=       0.00899793 Eh      5.65 kcal/mol|
 --------------------------------------------------------

-------------------
GIBBS FREE ENERGY
-------------------

The Gibbs free energy is G = H - T*S

Total enthalpy                    ...  -1038.17931598 Eh
Total entropy correction          ...     -0.03768686 Eh    -23.65 kcal/mol
-----------------------------------------------------------------------
Final Gibbs free energy         ...  -1038.21700283 Eh

For completeness - the Gibbs free energy minus the electronic energy
G-E(el)                           ...      0.05491572 Eh     34.46 kcal/mol

                             ****ORCA TERMINATED NORMALLY****
TOTAL RUN TIME: 0 days 0 hours 3 minutes 53 seconds 203 msec
