                         Program Version 6.0.1  -  RELEASE   -
|  1> ! pbe def2-sv(p) def2/J RI DEFGRID1 loosescf d4 GCP(DFT/SV(P)) printgap
|  2> %output
|  3>     printlevel normal
|  4> end
|  5> * xyz 0 1
|  6> C -2.5612441606 -0.883798001 0.2707086626
|  7> C -1.1448051441 -0.4256705784 0.6442162485
|  8> H -1.0573440962 -0.3338163303 1.7369540559
|  9> C -0.8316072149 0.9378172127 0.0169496686
| 10> H -1.0639264381 0.8893128768 -1.0609788133
| 11> C 0.6570200567 1.2975769966 0.1911017009
| 12> H 0.8643817197 1.4521684983 1.2573224919
| 13> C 1.5226710671 0.1496665522 -0.3246266201
| 14> H 1.3404144507 0.009266493 -1.4057136674
| 15> C 1.092940585 -1.1466616685 0.3839290126
| 16> H 1.2798574682 -1.0361093562 1.473807694
| 17> O -0.2626692437 -1.4291389799 0.1671117578
| 18> O 1.8460843427 -2.1857301588 -0.1435895083
| 19> O 2.8736092429 0.4245585969 -0.0844351956
| 20> O 0.9228370698 2.5309768365 -0.429065197
| 21> O -1.6347581025 1.9025434759 0.6434103599
| 22> O -2.6749426067 -1.1346142451 -1.1015337043
| 23> H -3.264787473 -0.0866045753 0.5126061666
| 24> H -2.8072863345 -1.7831633798 0.8521895843
| 25> H 1.4205008365 -3.0192664963 0.0886497082
| 26> H 3.3743302537 -0.383974455 -0.2504588995
| 27> H 1.2063334695 2.3795954028 -1.3372497488
| 28> H -1.2502165118 2.7660774205 0.4382156661
| 29> H -1.9548638949 -1.7304060814 -1.344231234
| 30> *
| 31>
| 32>                          ****END OF INPUT****

CARTESIAN COORDINATES (ANGSTROEM)
---------------------------------
  C     -2.561244   -0.883798    0.270709
  C     -1.144805   -0.425671    0.644216
  H     -1.057344   -0.333816    1.736954
  C     -0.831607    0.937817    0.016950
  H     -1.063926    0.889313   -1.060979
  C      0.657020    1.297577    0.191102
  H      0.864382    1.452168    1.257322
  C      1.522671    0.149667   -0.324627
  H      1.340414    0.009266   -1.405714
  C      1.092941   -1.146662    0.383929
  H      1.279857   -1.036109    1.473808
  O     -0.262669   -1.429139    0.167112
  O      1.846084   -2.185730   -0.143590
  O      2.873609    0.424559   -0.084435
  O      0.922837    2.530977   -0.429065
  O     -1.634758    1.902543    0.643410
  O     -2.674943   -1.134614   -1.101534
  H     -3.264787   -0.086605    0.512606
  H     -2.807286   -1.783163    0.852190
  H      1.420501   -3.019266    0.088650
  H      3.374330   -0.383974   -0.250459
  H      1.206333    2.379595   -1.337250
  H     -1.250217    2.766077    0.438216
  H     -1.954864   -1.730406   -1.344231

 Total Charge           Charge          ....    0
 Multiplicity           Mult            ....    1
 Number of Electrons    NEL             ....   96
 Basis Dimension        Dim             ....  192

ORBITAL ENERGIES
----------------

  NO   OCC          E(Eh)            E(eV)
   0   2.0000     -18.790258      -511.3089
   1   2.0000     -18.779125      -511.0060
   2   2.0000     -18.760775      -510.5066
   3   2.0000     -18.758119      -510.4344
   4   2.0000     -18.750078      -510.2156
   5   2.0000     -18.746876      -510.1284
   6   2.0000     -10.000334      -272.1229
   7   2.0000      -9.951132      -270.7841
   8   2.0000      -9.949679      -270.7445
   9   2.0000      -9.946638      -270.6618
  10   2.0000      -9.939662      -270.4720
  11   2.0000      -9.930788      -270.2305
  12   2.0000      -1.001857       -27.2619
  13   2.0000      -0.951837       -25.9008
  14   2.0000      -0.945590       -25.7308
  15   2.0000      -0.930231       -25.3129
  16   2.0000      -0.920701       -25.0535
  17   2.0000      -0.918897       -25.0044
  18   2.0000      -0.708195       -19.2710
  19   2.0000      -0.698755       -19.0141
  20   2.0000      -0.620552       -16.8861
  21   2.0000      -0.588950       -16.0261
  22   2.0000      -0.568556       -15.4712
  23   2.0000      -0.542223       -14.7546
  24   2.0000      -0.517111       -14.0713
  25   2.0000      -0.494230       -13.4487
  26   2.0000      -0.473134       -12.8746
  27   2.0000      -0.456084       -12.4107
  28   2.0000      -0.442536       -12.0420
  29   2.0000      -0.441691       -12.0190
  30   2.0000      -0.433474       -11.7954
  31   2.0000      -0.417837       -11.3699
  32   2.0000      -0.386655       -10.5214
  33   2.0000      -0.374849       -10.2002
  34   2.0000      -0.365147        -9.9362
  35   2.0000      -0.353477        -9.6186
  36   2.0000      -0.336242        -9.1496
  37   2.0000      -0.331687        -9.0257
  38   2.0000      -0.313481        -8.5302
  39   2.0000      -0.297262        -8.0889
  40   2.0000      -0.285411        -7.7664
  41   2.0000      -0.276949        -7.5362
  42   2.0000      -0.264866        -7.2074
  43   2.0000      -0.246564        -6.7093
  44   2.0000      -0.241578        -6.5737
  45   2.0000      -0.224500        -6.1090
  46   2.0000      -0.215003        -5.8505
  47   2.0000      -0.211419        -5.7530
  48   0.0000       0.013951         0.3796
  49   0.0000       0.017965         0.4889
  50   0.0000       0.036715         0.9991
  51   0.0000       0.045366         1.2345
  52   0.0000       0.062229         1.6933

MULLIKEN ATOMIC CHARGES
-----------------------
   0 C :    0.099231
   1 C :   -0.018129
   2 H :    0.060020
   3 C :    0.067593
   4 H :    0.040276
   5 C :    0.068611
   6 H :    0.065987
   7 C :    0.034566
   8 H :    0.045799
   9 C :    0.163719
  10 H :    0.047876
  11 O :   -0.326110
  12 O :   -0.391080
  13 O :   -0.402852
  14 O :   -0.410257
  15 O :   -0.417540
  16 O :   -0.435979
  17 H :    0.102081
  18 H :    0.075203
  19 H :    0.311201
  20 H :    0.308929
  21 H :    0.307029
  22 H :    0.307573
  23 H :    0.296254
Sum of atomic charges:   -0.0000000

LOEWDIN ATOMIC CHARGES
----------------------
   0 C :   -0.121686
   1 C :   -0.070576
   2 H :    0.109249
   3 C :   -0.077789
   4 H :    0.098482
   5 C :   -0.077191
   6 H :    0.117708
   7 C :   -0.092149
   8 H :    0.099377
   9 C :   -0.002025
  10 H :    0.085399
  11 O :   -0.154244
  12 O :   -0.305203
  13 O :   -0.312946
  14 O :   -0.308825
  15 O :   -0.318361
  16 O :   -0.329244
  17 H :    0.126401
  18 H :    0.097891
  19 H :    0.293521
  20 H :    0.288513
  21 H :    0.290674
  22 H :    0.286532
  23 H :    0.276491

  Mayer bond orders larger than 0.100000
B(  0-C ,  1-C ) :   1.0491 B(  0-C , 16-O ) :   1.0637 B(  0-C , 17-H ) :   0.9143
B(  0-C , 18-H ) :   0.9143 B(  1-C ,  2-H ) :   0.8713 B(  1-C ,  3-C ) :   1.0010
B(  1-C , 11-O ) :   0.9728 B(  3-C ,  4-H ) :   0.8571 B(  3-C ,  5-C ) :   0.9969
B(  3-C , 15-O ) :   1.0713 B(  5-C ,  6-H ) :   0.8700 B(  5-C ,  7-C ) :   1.0148
B(  5-C , 14-O ) :   1.0634 B(  7-C ,  8-H ) :   0.8561 B(  7-C ,  9-C ) :   0.9970
B(  7-C , 13-O ) :   1.0998 B(  9-C , 10-H ) :   0.8886 B(  9-C , 11-O ) :   1.0129
B(  9-C , 12-O ) :   1.1528 B( 12-O , 19-H ) :   0.8380 B( 13-O , 20-H ) :   0.8373
B( 14-O , 21-H ) :   0.8463 B( 15-O , 22-H ) :   0.8302 B( 16-O , 23-H ) :   0.8387

Dispersion correction           -0.024009762
FINAL SINGLE POINT ENERGY      -685.700428049651

DIPOLE MOMENT
-------------

Method             : SCF
Type of density    : Electron Density
Multiplicity       :   1
Irrep              :   0
Energy             :  -685.8316433189908139 Eh
Relativity type    :
Basis              : AO
                                X                 Y                 Z
Electronic contribution:      2.365039827      -0.042762431      -0.932391518
Nuclear contribution   :     -1.778496426      -0.821091336       0.887641859
                        -----------------------------------------
Total Dipole Moment    :      0.586543400      -0.863853768      -0.044749659
                        -----------------------------------------
Magnitude (a.u.)       :      1.045121536
Magnitude (Debye)      :      2.656487829

Rotational constants in cm-1:             0.038659             0.027614             0.017946
Rotational constants in MHz :          1158.974539           827.839860           538.000362

                             ****ORCA TERMINATED NORMALLY****
TOTAL RUN TIME: 0 days 0 hours 3 minutes 39 seconds 200 msec
