                         Program Version 6.0.1  -  RELEASE   -
|  1> ! pbe def2-sv(p) def2/J RI DEFGRID1 loosescf d4 GCP(DFT/SV(P)) printgap
|  2> %output
|  3>     printlevel normal
|  4> end
|  5> * xyz 0 1
|  6> C -2.4295407536 -0.8610575225 -0.3332260301
|  7> C -1.1152962493 -0.6491225134 0.4551864646
|  8> H -1.2030731615 -1.1133545049 1.4508188612
|  9> C -0.7615583212 0.8461867931 0.6385209216
| 10> H -1.6601009596 1.4532607459 0.4692187189
| 11> C 0.3058220994 1.2128650689 -0.4164602586
| 12> H 0.5197165077 2.2843139097 -0.3682356608
| 13> C 1.59960845 0.4250393243 -0.1109348484
| 14> H 2.2183317835 0.4062231233 -1.0172230383
| 15> C 1.2084837391 -1.0326473192 0.2679801234
| 16> H 1.1957310882 -1.1300855798 1.3640362057
| 17> O -0.0841606605 -1.3196286775 -0.2553575114
| 18> O 2.0895303289 -1.9876146391 -0.1851505807
| 19> O 2.3785065161 1.0398426397 0.8690012689
| 20> O -0.1656717153 0.9502918744 -1.715598576
| 21> O -0.2195642325 1.1159063204 1.9154848647
| 22> O -2.8676086508 0.2506297493 -1.0598239114
| 23> H -3.2400929327 -1.0915944607 0.3612411451
| 24> H -2.2728484756 -1.7301146254 -0.9873774595
| 25> H 2.0956620102 -1.9922990906 -1.1501551043
| 26> H 1.8189124175 1.1946457343 1.6431305761
| 27> H -0.144189563 -0.0131426918 -1.8331674423
| 28> H -0.9206734873 1.0711461712 2.5741892996
| 29> H -2.1507396855 0.5763435689 -1.6288651602
| 30> *
| 31>
| 32>                          ****END OF INPUT****

CARTESIAN COORDINATES (ANGSTROEM)
---------------------------------
  C     -2.429541   -0.861058   -0.333226
  C     -1.115296   -0.649123    0.455186
  H     -1.203073   -1.113355    1.450819
  C     -0.761558    0.846187    0.638521
  H     -1.660101    1.453261    0.469219
  C      0.305822    1.212865   -0.416460
  H      0.519717    2.284314   -0.368236
  C      1.599608    0.425039   -0.110935
  H      2.218332    0.406223   -1.017223
  C      1.208484   -1.032647    0.267980
  H      1.195731   -1.130086    1.364036
  O     -0.084161   -1.319629   -0.255358
  O      2.089530   -1.987615   -0.185151
  O      2.378507    1.039843    0.869001
  O     -0.165672    0.950292   -1.715599
  O     -0.219564    1.115906    1.915485
  O     -2.867609    0.250630   -1.059824
  H     -3.240093   -1.091594    0.361241
  H     -2.272848   -1.730115   -0.987377
  H      2.095662   -1.992299   -1.150155
  H      1.818912    1.194646    1.643131
  H     -0.144190   -0.013143   -1.833167
  H     -0.920673    1.071146    2.574189
  H     -2.150740    0.576344   -1.628865

 Total Charge           Charge          ....    0
 Multiplicity           Mult            ....    1
 Number of Electrons    NEL             ....   96
 Basis Dimension        Dim             ....  192

ORBITAL ENERGIES
----------------

  NO   OCC          E(Eh)            E(eV)
   0   2.0000     -18.788385      -511.2579
   1   2.0000     -18.785043      -511.1670
   2   2.0000     -18.776035      -510.9219
   3   2.0000     -18.765317      -510.6302
   4   2.0000     -18.747530      -510.1462
   5   2.0000     -18.744701      -510.0693
   6   2.0000      -9.990811      -271.8638
   7   2.0000      -9.957904      -270.9683
   8   2.0000      -9.956481      -270.9296
   9   2.0000      -9.953594      -270.8511
  10   2.0000      -9.944353      -270.5996
  11   2.0000      -9.941692      -270.5272
  12   2.0000      -0.997826       -27.1522
  13   2.0000      -0.962051       -26.1787
  14   2.0000      -0.951161       -25.8824
  15   2.0000      -0.932825       -25.3835
  16   2.0000      -0.924410       -25.1545
  17   2.0000      -0.921880       -25.0856
  18   2.0000      -0.707791       -19.2600
  19   2.0000      -0.692741       -18.8504
  20   2.0000      -0.627167       -17.0661
  21   2.0000      -0.598238       -16.2789
  22   2.0000      -0.576326       -15.6826
  23   2.0000      -0.544938       -14.8285
  24   2.0000      -0.512696       -13.9512
  25   2.0000      -0.504492       -13.7279
  26   2.0000      -0.490637       -13.3509
  27   2.0000      -0.464438       -12.6380
  28   2.0000      -0.453094       -12.3293
  29   2.0000      -0.445306       -12.1174
  30   2.0000      -0.418561       -11.3896
  31   2.0000      -0.402481       -10.9521
  32   2.0000      -0.396369       -10.7857
  33   2.0000      -0.381737       -10.3876
  34   2.0000      -0.371524       -10.1097
  35   2.0000      -0.360659        -9.8140
  36   2.0000      -0.339315        -9.2332
  37   2.0000      -0.331304        -9.0152
  38   2.0000      -0.317939        -8.6516
  39   2.0000      -0.313672        -8.5355
  40   2.0000      -0.291929        -7.9438
  41   2.0000      -0.274026        -7.4566
  42   2.0000      -0.267712        -7.2848
  43   2.0000      -0.261003        -7.1023
  44   2.0000      -0.252142        -6.8611
  45   2.0000      -0.228913        -6.2290
  46   2.0000      -0.219848        -5.9824
  47   2.0000      -0.203501        -5.5376
  48   0.0000      -0.002503        -0.0681
  49   0.0000       0.015928         0.4334
  50   0.0000       0.028906         0.7866
  51   0.0000       0.051371         1.3979
  52   0.0000       0.056457         1.5363

MULLIKEN ATOMIC CHARGES
-----------------------
   0 C :    0.079420
   1 C :   -0.032301
   2 H :    0.063290
   3 C :   -0.001434
   4 H :    0.097759
   5 C :    0.037009
   6 H :    0.089590
   7 C :    0.049754
   8 H :    0.061311
   9 C :    0.193440
  10 H :    0.055921
  11 O :   -0.315410
  12 O :   -0.368328
  13 O :   -0.418647
  14 O :   -0.420663
  15 O :   -0.425320
  16 O :   -0.431751
  17 H :    0.085543
  18 H :    0.088109
  19 H :    0.299104
  20 H :    0.306945
  21 H :    0.303458
  22 H :    0.315234
  23 H :    0.287969
Sum of atomic charges:    0.0000000

LOEWDIN ATOMIC CHARGES
----------------------
   0 C :   -0.127933
   1 C :   -0.082705
   2 H :    0.107187
   3 C :   -0.088691
   4 H :    0.116560
   5 C :   -0.070707
   6 H :    0.123589
   7 C :   -0.092595
   8 H :    0.114697
   9 C :   -0.004136
  10 H :    0.102607
  11 O :   -0.166889
  12 O :   -0.279922
  13 O :   -0.308117
  14 O :   -0.302092
  15 O :   -0.315285
  16 O :   -0.335095
  17 H :    0.116575
  18 H :    0.105037
  19 H :    0.284507
  20 H :    0.275453
  21 H :    0.268455
  22 H :    0.294764
  23 H :    0.264737

  Mayer bond orders larger than 0.100000
B(  0-C ,  1-C ) :   1.0062 B(  0-C , 16-O ) :   1.1159 B(  0-C , 17-H ) :   0.9210
B(  0-C , 18-H ) :   0.9153 B(  1-C ,  2-H ) :   0.8869 B(  1-C ,  3-C ) :   0.9711
B(  1-C , 11-O ) :   0.9926 B(  3-C ,  4-H ) :   0.8850 B(  3-C ,  5-C ) :   0.9927
B(  3-C , 15-O ) :   1.0223 B(  5-C ,  6-H ) :   0.8885 B(  5-C ,  7-C ) :   0.9744
B(  5-C , 14-O ) :   1.0156 B(  7-C ,  8-H ) :   0.8896 B(  7-C ,  9-C ) :   0.9648
B(  7-C , 13-O ) :   1.0719 B(  9-C , 10-H ) :   0.8697 B(  9-C , 11-O ) :   0.9870
B(  9-C , 12-O ) :   1.1535 B( 12-O , 19-H ) :   0.8447 B( 13-O , 20-H ) :   0.8220
B( 14-O , 21-H ) :   0.8010 B( 14-O , 23-H ) :   0.1232 B( 15-O , 22-H ) :   0.8417
B( 16-O , 23-H ) :   0.7948

Dispersion correction           -0.025761107
FINAL SINGLE POINT ENERGY      -685.688883854159

DIPOLE MOMENT
-------------

Method             : SCF
Type of density    : Electron Density
Multiplicity       :   1
Irrep              :   0
Energy             :  -685.8246043228078861 Eh
Relativity type    :
Basis              : AO
                                X                 Y                 Z
Electronic contribution:      2.907230829      -0.111442457      -0.367868092
Nuclear contribution   :     -3.495157018      -0.078691084       0.816956730
                        -----------------------------------------
Total Dipole Moment    :     -0.587926188      -0.190133541       0.449088638
                        -----------------------------------------
Magnitude (a.u.)       :      0.763864236
Magnitude (Debye)      :      1.941588588

Rotational constants in cm-1:             0.044782             0.026566             0.023239
Rotational constants in MHz :          1342.535891           796.418703           696.681149

                             ****ORCA TERMINATED NORMALLY****
TOTAL RUN TIME: 0 days 0 hours 0 minutes 8 seconds 394 msec
