                         Program Version 6.0.0  -   RELEASE  -
|  1> ! r2SCAN-3c DEF2-TZVP FREQ
|  2> * xyzfile 0 1 censo.xyz
|  3>
|  4>                          ****END OF INPUT****

CARTESIAN COORDINATES (ANGSTROEM)
---------------------------------
  C      2.426089    1.096912   -0.001772
  C      1.165338    0.287103    0.003182
  C      1.197934   -1.105363    0.004107
  C     -0.004093   -1.806276    0.000218
  C     -1.195578   -1.098896   -0.003568
  C     -1.152972    0.298961   -0.002495
  N      0.005907    0.976155    0.000380
  C     -2.425588    1.092354    0.000422
  H      2.433167    1.804391    0.833666
  H      3.308553    0.457803    0.070766
  H      2.498353    1.685472   -0.923104
  H      2.148538   -1.628098    0.007249
  H     -0.007389   -2.892002    0.000239
  H     -2.152191   -1.611714   -0.006136
  H     -3.004531    0.887247    0.907629
  H     -2.219530    2.162762   -0.047505
  H     -3.056826    0.814995   -0.850382

 Total Charge           Charge          ....    0
 Multiplicity           Mult            ....    1
 Number of Electrons    NEL             ....   58
 Basis Dimension        Dim             ....  302

ORBITAL ENERGIES
----------------

  NO   OCC          E(Eh)            E(eV)
   0   2.0000     -14.147775      -384.9805
   1   2.0000     -10.073679      -274.1188
   2   2.0000     -10.072603      -274.0894
   3   2.0000     -10.049864      -273.4707
   4   2.0000     -10.036226      -273.0996
   5   2.0000     -10.036131      -273.0970
   6   2.0000     -10.026112      -272.8244
   7   2.0000     -10.026080      -272.8235
   8   2.0000      -0.902544       -24.5595
   9   2.0000      -0.765404       -20.8277
  10   2.0000      -0.760577       -20.6963
  11   2.0000      -0.688602       -18.7378
  12   2.0000      -0.651549       -17.7296
  13   2.0000      -0.575832       -15.6692
  14   2.0000      -0.562769       -15.3137
  15   2.0000      -0.470885       -12.8134
  16   2.0000      -0.457589       -12.4516
  17   2.0000      -0.415833       -11.3154
  18   2.0000      -0.406954       -11.0738
  19   2.0000      -0.384675       -10.4675
  20   2.0000      -0.382497       -10.4083
  21   2.0000      -0.378185       -10.2909
  22   2.0000      -0.348613        -9.4862
  23   2.0000      -0.342830        -9.3289
  24   2.0000      -0.333973        -9.0879
  25   2.0000      -0.324334        -8.8256
  26   2.0000      -0.262341        -7.1387
  27   2.0000      -0.228054        -6.2057
  28   2.0000      -0.220495        -6.0000
  29   0.0000      -0.050736        -1.3806
  30   0.0000      -0.034755        -0.9457
  31   0.0000       0.054999         1.4966
  32   0.0000       0.074186         2.0187
  33   0.0000       0.076776         2.0892

MULLIKEN ATOMIC CHARGES
-----------------------
   0 C :   -0.329230
   1 C :    0.215051
   2 C :   -0.197397
   3 C :   -0.058452
   4 C :   -0.200033
   5 C :    0.189766
   6 N :   -0.286026
   7 C :   -0.349184
   8 H :    0.118914
   9 H :    0.100300
  10 H :    0.117582
  11 H :    0.103695
  12 H :    0.113813
  13 H :    0.105271
  14 H :    0.114906
  15 H :    0.126723
  16 H :    0.114301
Sum of atomic charges:   -0.0000000

LOEWDIN ATOMIC CHARGES
----------------------
   0 C :   -0.254264
   1 C :   -0.238635
   2 C :   -0.135744
   3 C :   -0.123319
   4 C :   -0.132183
   5 C :   -0.239395
   6 N :    0.165347
   7 C :   -0.256259
   8 H :    0.132621
   9 H :    0.122994
  10 H :    0.133166
  11 H :    0.144361
  12 H :    0.144783
  13 H :    0.145561
  14 H :    0.131070
  15 H :    0.129745
  16 H :    0.130151

  Mayer bond orders larger than 0.100000
B(  0-C ,  1-C ) :   0.9466 B(  0-C ,  8-H ) :   0.9640 B(  0-C ,  9-H ) :   0.9889
B(  0-C , 10-H ) :   0.9583 B(  1-C ,  2-C ) :   1.4025 B(  1-C ,  6-N ) :   1.3617
B(  2-C ,  3-C ) :   1.3885 B(  2-C , 11-H ) :   0.9623 B(  3-C ,  4-C ) :   1.4370
B(  3-C , 12-H ) :   0.9678 B(  4-C ,  5-C ) :   1.3335 B(  4-C , 13-H ) :   0.9713
B(  5-C ,  6-N ) :   1.4961 B(  5-C ,  7-C ) :   0.9241 B(  7-C , 14-H ) :   0.9618
B(  7-C , 15-H ) :   0.9872 B(  7-C , 16-H ) :   0.9663

Dispersion correction           -0.005150898
FINAL SINGLE POINT ENERGY      -326.853278156647

DIPOLE MOMENT
-------------

Method             : SCF
Type of density    : Electron Density
Multiplicity       :   1
Irrep              :   0
Energy             :  -326.8552890742870431 Eh
Relativity type    :
Basis              : AO
                                X                 Y                 Z
Electronic contribution:      0.029733764      -2.116697861       0.005714337
Nuclear contribution   :     -0.061560272       1.540426492      -0.007012809
                        -----------------------------------------
Total Dipole Moment    :     -0.031826508      -0.576271369      -0.001298472
                        -----------------------------------------
Magnitude (a.u.)       :      0.577151023
Magnitude (Debye)      :      1.467001316

VIBRATIONAL FREQUENCIES
-----------------------

Scaling factor for frequencies =  1.000000000  (already applied!)

     0:       0.00 cm**-1
     1:       0.00 cm**-1
     2:       0.00 cm**-1
     3:       0.00 cm**-1
     4:       0.00 cm**-1
     5:       0.00 cm**-1
     6:     -46.57 cm**-1 ***imaginary mode***
     7:     106.80 cm**-1
     8:     187.39 cm**-1
     9:     214.13 cm**-1
    10:     287.49 cm**-1
    11:     426.01 cm**-1
    12:     437.85 cm**-1
    13:     549.63 cm**-1
    14:     561.26 cm**-1
    15:     565.02 cm**-1
    16:     732.27 cm**-1
    17:     752.05 cm**-1
    18:     776.75 cm**-1
    19:     890.00 cm**-1
    20:     925.70 cm**-1
    21:     984.15 cm**-1
    22:     985.24 cm**-1
    23:    1010.41 cm**-1
    24:    1041.36 cm**-1
    25:    1046.36 cm**-1
    26:    1058.66 cm**-1
    27:    1115.79 cm**-1
    28:    1182.10 cm**-1
    29:    1245.47 cm**-1
    30:    1277.88 cm**-1
    31:    1300.51 cm**-1
    32:    1395.06 cm**-1
    33:    1399.87 cm**-1
    34:    1424.30 cm**-1
    35:    1468.72 cm**-1
    36:    1469.58 cm**-1
    37:    1477.59 cm**-1
    38:    1483.24 cm**-1
    39:    1495.07 cm**-1
    40:    1603.82 cm**-1
    41:    1624.36 cm**-1
    42:    3012.35 cm**-1
    43:    3013.50 cm**-1
    44:    3072.98 cm**-1
    45:    3079.24 cm**-1
    46:    3111.54 cm**-1
    47:    3123.43 cm**-1
    48:    3155.87 cm**-1
    49:    3169.28 cm**-1
    50:    3179.94 cm**-1

IR SPECTRUM
-----------

 Mode   freq       eps      Int      T**2         TX        TY        TZ
       cm**-1   L/(mol*cm) km/mol    a.u.
----------------------------------------------------------------------------
  7:    106.80   0.000081    0.41  0.000238  (-0.002227  0.001600  0.015185)
  8:    187.39   0.000002    0.01  0.000004  ( 0.000485  0.000060  0.001951)
  9:    214.13   0.001783    9.01  0.002599  (-0.000124 -0.000131  0.050976)
 10:    287.49   0.000332    1.68  0.000360  (-0.002596 -0.018801 -0.000016)
 11:    426.01   0.000622    3.14  0.000456  (-0.021214  0.002370  0.000052)
 12:    437.85   0.000006    0.03  0.000005  (-0.001354  0.000199 -0.001640)
 13:    549.63   0.000308    1.56  0.000175  ( 0.013210 -0.000531 -0.000230)
 14:    561.26   0.000122    0.62  0.000068  ( 0.000316 -0.008094  0.001522)
 15:    565.02   0.000204    1.03  0.000113  ( 0.000393  0.010537  0.001219)
 16:    732.27   0.000155    0.78  0.000066  (-0.001461  0.007996  0.000028)
 17:    752.05   0.001045    5.28  0.000433  ( 0.000584  0.000074 -0.020811)
 18:    776.75   0.006722   33.97  0.002701  ( 0.000831  0.000046  0.051961)
 19:    890.00   0.000002    0.01  0.000001  ( 0.000039  0.000323 -0.000720)
 20:    925.70   0.000205    1.04  0.000069  ( 0.006865  0.004685 -0.000419)
 21:    984.15   0.001396    7.06  0.000443  (-0.016262  0.013349  0.000182)
 22:    985.24   0.000003    0.02  0.000001  ( 0.000320  0.000375  0.000845)
 23:   1010.41   0.000461    2.33  0.000142  (-0.010557 -0.005549  0.000264)
 24:   1041.36   0.000532    2.69  0.000159  ( 0.008626 -0.008496 -0.003571)
 25:   1046.36   0.001421    7.18  0.000424  ( 0.002387  0.001377 -0.020398)
 26:   1058.66   0.000096    0.49  0.000028  (-0.001046 -0.002651  0.004498)
 27:   1115.79   0.000878    4.44  0.000245  ( 0.003614  0.015245  0.000020)
 28:   1182.10   0.000636    3.22  0.000168  ( 0.012938  0.000744  0.000176)
 29:   1245.47   0.002544   12.86  0.000637  ( 0.024857  0.004384 -0.000557)
 30:   1277.88   0.000435    2.20  0.000106  ( 0.001770 -0.010158  0.000059)
 31:   1300.51   0.001085    5.48  0.000260  ( 0.001717 -0.016046  0.000032)
 32:   1395.06   0.001067    5.39  0.000239  (-0.015394  0.001171  0.000471)
 33:   1399.87   0.001411    7.13  0.000315  ( 0.005911  0.016717 -0.000443)
 34:   1424.30   0.000453    2.29  0.000099  (-0.003622 -0.009282 -0.000297)
 35:   1468.72   0.001380    6.97  0.000293  (-0.010517 -0.002763 -0.013226)
 36:   1469.58   0.002554   12.91  0.000542  (-0.019388 -0.003588  0.012393)
 37:   1477.59   0.001500    7.58  0.000317  ( 0.005169  0.000789 -0.017014)
 38:   1483.24   0.010431   52.71  0.002195  ( 0.044285  0.015028  0.002751)
 39:   1495.07   0.008746   44.20  0.001826  ( 0.037385 -0.020662  0.001011)
 40:   1603.82   0.013259   67.01  0.002580  (-0.050687 -0.003287 -0.000034)
 41:   1624.36   0.009448   47.75  0.001815  (-0.001484  0.042578 -0.000015)
 42:   3012.35   0.004226   21.36  0.000438  ( 0.020473 -0.004213 -0.000957)
 43:   3013.50   0.002996   15.14  0.000310  ( 0.014168  0.010409 -0.001092)
 44:   3072.98   0.002508   12.67  0.000255  ( 0.001403  0.000060  0.015897)
 45:   3079.24   0.002037   10.29  0.000206  (-0.002338 -0.000306 -0.014172)
 46:   3111.54   0.003065   15.49  0.000307  (-0.013822  0.010785 -0.000010)
 47:   3123.43   0.001608    8.12  0.000161  (-0.000683 -0.012655  0.000103)
 48:   3155.87   0.000558    2.82  0.000055  ( 0.002802 -0.006881  0.000004)
 49:   3169.28   0.004103   20.74  0.000404  (-0.019613 -0.004399 -0.000083)
 50:   3179.94   0.002814   14.22  0.000276  (-0.004587  0.015973 -0.000030)

--------------------------
THERMOCHEMISTRY AT 298.15K
--------------------------

Temperature         ...   298.15 K
Pressure            ...     1.00 atm
Total Mass          ...   107.16 AMU
Quasi RRHO          ...     True
Cut-Off Frequency   ...     1.00 cm^-1

Throughout the following assumptions are being made:
  (1) The electronic state is orbitally nondegenerate
  (2) There are no thermally accessible electronically excited states
  (3) Hindered rotations indicated by low frequency modes are not
      treated as such but are treated as vibrations and this may
      cause some error
  (4) All equations used are the standard statistical mechanics
      equations for an ideal gas
  (5) All vibrations are strictly harmonic

freq.     106.80  E(vib)   ...       0.45
freq.     187.39  E(vib)   ...       0.36
freq.     214.13  E(vib)   ...       0.34
freq.     287.49  E(vib)   ...       0.27
freq.     426.01  E(vib)   ...       0.18
freq.     437.85  E(vib)   ...       0.17
freq.     549.63  E(vib)   ...       0.12
freq.     561.26  E(vib)   ...       0.11
freq.     565.02  E(vib)   ...       0.11
freq.     732.27  E(vib)   ...       0.06
freq.     752.05  E(vib)   ...       0.06
freq.     776.75  E(vib)   ...       0.05
freq.     890.00  E(vib)   ...       0.04
freq.     925.70  E(vib)   ...       0.03
freq.     984.15  E(vib)   ...       0.02
freq.     985.24  E(vib)   ...       0.02
freq.    1010.41  E(vib)   ...       0.02
freq.    1041.36  E(vib)   ...       0.02
freq.    1046.36  E(vib)   ...       0.02
freq.    1058.66  E(vib)   ...       0.02
freq.    1115.79  E(vib)   ...       0.01
freq.    1182.10  E(vib)   ...       0.01
freq.    1245.47  E(vib)   ...       0.01
freq.    1277.88  E(vib)   ...       0.01
freq.    1300.51  E(vib)   ...       0.01
freq.    1395.06  E(vib)   ...       0.00
freq.    1399.87  E(vib)   ...       0.00
freq.    1424.30  E(vib)   ...       0.00
freq.    1468.72  E(vib)   ...       0.00
freq.    1469.58  E(vib)   ...       0.00
freq.    1477.59  E(vib)   ...       0.00
freq.    1483.24  E(vib)   ...       0.00
freq.    1495.07  E(vib)   ...       0.00
freq.    1603.82  E(vib)   ...       0.00
freq.    1624.36  E(vib)   ...       0.00
freq.    3012.35  E(vib)   ...       0.00
freq.    3013.50  E(vib)   ...       0.00
freq.    3072.98  E(vib)   ...       0.00
freq.    3079.24  E(vib)   ...       0.00
freq.    3111.54  E(vib)   ...       0.00
freq.    3123.43  E(vib)   ...       0.00
freq.    3155.87  E(vib)   ...       0.00
freq.    3169.28  E(vib)   ...       0.00
freq.    3179.94  E(vib)   ...       0.00

------------
INNER ENERGY
------------

The inner energy is: U= E(el) + E(ZPE) + E(vib) + E(rot) + E(trans)
    E(el)   - is the total energy from the electronic structure calculation
              = E(kin-el) + E(nuc-el) + E(el-el) + E(nuc-nuc)
    E(ZPE)  - the the zero temperature vibrational energy from the frequency calculation
    E(vib)  - the the finite temperature correction to E(ZPE) due to population
              of excited vibrational states
    E(rot)  - is the rotational thermal energy
    E(trans)- is the translational thermal energy

Summary of contributions to the inner energy U:
Electronic energy                ...   -326.85327816 Eh
Zero point energy                ...      0.14220324 Eh      89.23 kcal/mol
Thermal vibrational correction   ...      0.00411239 Eh       2.58 kcal/mol
Thermal rotational correction    ...      0.00141627 Eh       0.89 kcal/mol
Thermal translational correction ...      0.00141627 Eh       0.89 kcal/mol
-----------------------------------------------------------------------
Total thermal energy                   -326.70412998 Eh

Summary of corrections to the electronic energy:
(perhaps to be used in another calculation)
Total thermal correction                  0.00694494 Eh       4.36 kcal/mol
Non-thermal (ZPE) correction              0.14220324 Eh      89.23 kcal/mol
-----------------------------------------------------------------------
Total correction                          0.14914818 Eh      93.59 kcal/mol

--------
ENTHALPY
--------

The enthalpy is H = U + kB*T
                kB is Boltzmann's constant
Total thermal energy              ...   -326.70412998 Eh
Thermal Enthalpy correction       ...      0.00094421 Eh       0.59 kcal/mol
-----------------------------------------------------------------------
Total Enthalpy                    ...   -326.70318577 Eh

Note: Only C1 symmetry has been detected, increase convergence thresholds
      if your molecule has a higher symmetry. Symmetry factor of 1.0 is
      used for the rotational entropy correction.

Note: Rotational entropy computed according to Herzberg
Infrared and Raman Spectra, Chapter V,1, Van Nostrand Reinhold, 1945
Point Group:  C1, Symmetry Number:   1
Rotational constants in cm-1:     0.118765     0.063073     0.041835

Vibrational entropy computed according to the QRRHO of S. Grimme
Chem.Eur.J. 2012 18 9955 using a reference frequency of 100.0 cm-1

-------
ENTROPY
-------

The entropy contributions are T*S = T*(S(el)+S(vib)+S(rot)+S(trans))
     S(el)   - electronic entropy
     S(vib)  - vibrational entropy
     S(rot)  - rotational entropy
     S(trans)- translational entropy
The entropies will be listed as multiplied by the temperature to get
units of energy

Electronic entropy                ...      0.00000000 Eh      0.00 kcal/mol
Vibrational entropy               ...      0.00665461 Eh      4.18 kcal/mol
Rotational entropy                ...      0.01331968 Eh      8.36 kcal/mol
Translational entropy             ...      0.01896913 Eh     11.90 kcal/mol
-----------------------------------------------------------------------
Final entropy term                ...      0.03894342 Eh     24.44 kcal/mol

In case the symmetry of your molecule has not been determined correctly
or in case you have a reason to use a different symmetry number we print
out the resulting rotational entropy values for sn=1,12:

 non-linear molecules -----------------------------------
|  sn= 1 | S(rot)=       0.01331968 Eh      8.36 kcal/mol|
|  sn= 2 | S(rot)=       0.01266523 Eh      7.95 kcal/mol|
|  sn= 3 | S(rot)=       0.01228239 Eh      7.71 kcal/mol|
|  sn= 4 | S(rot)=       0.01201077 Eh      7.54 kcal/mol|
|  sn= 5 | S(rot)=       0.01180008 Eh      7.40 kcal/mol|
|  sn= 6 | S(rot)=       0.01162794 Eh      7.30 kcal/mol|
|  sn= 7 | S(rot)=       0.01148239 Eh      7.21 kcal/mol|
|  sn= 8 | S(rot)=       0.01135631 Eh      7.13 kcal/mol|
|  sn= 9 | S(rot)=       0.01124511 Eh      7.06 kcal/mol|
|  sn=10 | S(rot)=       0.01114563 Eh      6.99 kcal/mol|
|  sn=11 | S(rot)=       0.01105564 Eh      6.94 kcal/mol|
|  sn=12 | S(rot)=       0.01097348 Eh      6.89 kcal/mol|
 linear molecules ---------------------------------------
|  Dinfh | S(rot)=       0.00832267 Eh      5.22 kcal/mol|
|  Cinfv | S(rot)=       0.00897712 Eh      5.63 kcal/mol|
 --------------------------------------------------------

                             ****ORCA TERMINATED NORMALLY****
TOTAL RUN TIME: 0 days 0 hours 12 minutes 46 seconds 530 msec
