                         Program Version 6.0.0  -   RELEASE  -
|  1> ! r2SCAN-3c DEF2-TZVP FREQ
|  2> * xyzfile 0 1 vacuum_censo.xyz
|  3>
|  4>                          ****END OF INPUT****

CARTESIAN COORDINATES (ANGSTROEM)
---------------------------------
  C      2.409325    1.108541   -0.000808
  C      1.155470    0.281430    0.000231
  C      1.197032   -1.114724   -0.000944
  C     -0.000033   -1.818109   -0.000208
  C     -1.196963   -1.114674    0.002134
  C     -1.155307    0.281570    0.002910
  N      0.000067    0.959985    0.002293
  C     -2.409380    1.108376   -0.002383
  H      3.306017    0.484877    0.013360
  H      2.436559    1.748147   -0.888619
  H      2.423102    1.770936    0.870207
  H      2.149350   -1.634884   -0.001451
  H     -0.000064   -2.904048   -0.000203
  H     -2.149349   -1.634730    0.003633
  H     -2.391411    1.823637    0.825095
  H     -2.470928    1.691190   -0.927323
  H     -3.304213    0.487437    0.080963

 Total Charge           Charge          ....    0
 Multiplicity           Mult            ....    1
 Number of Electrons    NEL             ....   58
 Basis Dimension        Dim             ....  302

ORBITAL ENERGIES
----------------

  NO   OCC          E(Eh)            E(eV)
   0   2.0000     -14.146232      -384.9386
   1   2.0000     -10.073228      -274.1065
   2   2.0000     -10.073209      -274.1059
   3   2.0000     -10.049875      -273.4710
   4   2.0000     -10.036621      -273.1103
   5   2.0000     -10.036609      -273.1100
   6   2.0000     -10.026093      -272.8239
   7   2.0000     -10.026092      -272.8238
   8   2.0000      -0.904948       -24.6249
   9   2.0000      -0.766045       -20.8451
  10   2.0000      -0.760047       -20.6819
  11   2.0000      -0.687119       -18.6975
  12   2.0000      -0.652242       -17.7484
  13   2.0000      -0.576048       -15.6751
  14   2.0000      -0.563413       -15.3312
  15   2.0000      -0.471049       -12.8179
  16   2.0000      -0.457885       -12.4597
  17   2.0000      -0.415238       -11.2992
  18   2.0000      -0.407322       -11.0838
  19   2.0000      -0.383096       -10.4246
  20   2.0000      -0.382605       -10.4112
  21   2.0000      -0.378437       -10.2978
  22   2.0000      -0.349749        -9.5171
  23   2.0000      -0.344469        -9.3735
  24   2.0000      -0.333683        -9.0800
  25   2.0000      -0.323962        -8.8155
  26   2.0000      -0.261773        -7.1232
  27   2.0000      -0.229163        -6.2359
  28   2.0000      -0.220423        -5.9980
  29   0.0000      -0.053129        -1.4457
  30   0.0000      -0.031605        -0.8600
  31   0.0000       0.055405         1.5076
  32   0.0000       0.073448         1.9986
  33   0.0000       0.077426         2.1069

MULLIKEN ATOMIC CHARGES
-----------------------
   0 C :   -0.330414
   1 C :    0.209887
   2 C :   -0.210113
   3 C :   -0.042388
   4 C :   -0.209894
   5 C :    0.208957
   6 N :   -0.289871
   7 C :   -0.331227
   8 H :    0.100308
   9 H :    0.118055
  10 H :    0.118320
  11 H :    0.102973
  12 H :    0.115035
  13 H :    0.103036
  14 H :    0.119175
  15 H :    0.117559
  16 H :    0.100602
Sum of atomic charges:   -0.0000000

LOEWDIN ATOMIC CHARGES
----------------------
   0 C :   -0.253853
   1 C :   -0.239796
   2 C :   -0.135021
   3 C :   -0.122845
   4 C :   -0.134972
   5 C :   -0.239789
   6 N :    0.170805
   7 C :   -0.253873
   8 H :    0.122138
   9 H :    0.132894
  10 H :    0.132815
  11 H :    0.144338
  12 H :    0.144937
  13 H :    0.144354
  14 H :    0.132604
  15 H :    0.133058
  16 H :    0.122207

  Mayer bond orders larger than 0.100000
B(  0-C ,  1-C ) :   0.9452 B(  0-C ,  8-H ) :   0.9880 B(  0-C ,  9-H ) :   0.9608
B(  0-C , 10-H ) :   0.9622 B(  1-C ,  2-C ) :   1.3916 B(  1-C ,  6-N ) :   1.4047
B(  2-C ,  3-C ) :   1.4160 B(  2-C , 11-H ) :   0.9638 B(  3-C ,  4-C ) :   1.4168
B(  3-C , 12-H ) :   0.9673 B(  4-C ,  5-C ) :   1.3902 B(  4-C , 13-H ) :   0.9640
B(  5-C ,  6-N ) :   1.4068 B(  5-C ,  7-C ) :   0.9449 B(  7-C , 14-H ) :   0.9651
B(  7-C , 15-H ) :   0.9581 B(  7-C , 16-H ) :   0.9878

Dispersion correction           -0.005153459
FINAL SINGLE POINT ENERGY      -326.853837335924

DIPOLE MOMENT
-------------

Method             : SCF
Type of density    : Electron Density
Multiplicity       :   1
Irrep              :   0
Energy             :  -326.8558617303480673 Eh
Relativity type    :
Basis              : AO
                                X                 Y                 Z
Electronic contribution:      0.000575286      -2.263934894       0.018268683
Nuclear contribution   :     -0.001016668       1.719135741      -0.024301505
                        -----------------------------------------
Total Dipole Moment    :     -0.000441382      -0.544799154      -0.006032822
                        -----------------------------------------
Magnitude (a.u.)       :      0.544832734
Magnitude (Debye)      :      1.384854752

VIBRATIONAL FREQUENCIES
-----------------------

Scaling factor for frequencies =  1.000000000  (already applied!)

     0:       0.00 cm**-1
     1:       0.00 cm**-1
     2:       0.00 cm**-1
     3:       0.00 cm**-1
     4:       0.00 cm**-1
     5:       0.00 cm**-1
     6:      93.81 cm**-1
     7:      97.62 cm**-1
     8:     194.35 cm**-1
     9:     208.60 cm**-1
    10:     288.90 cm**-1
    11:     429.45 cm**-1
    12:     434.66 cm**-1
    13:     547.25 cm**-1
    14:     564.40 cm**-1
    15:     566.90 cm**-1
    16:     730.44 cm**-1
    17:     752.74 cm**-1
    18:     773.11 cm**-1
    19:     889.07 cm**-1
    20:     919.52 cm**-1
    21:     987.06 cm**-1
    22:     987.42 cm**-1
    23:    1020.80 cm**-1
    24:    1048.39 cm**-1
    25:    1049.00 cm**-1
    26:    1055.54 cm**-1
    27:    1117.22 cm**-1
    28:    1181.40 cm**-1
    29:    1245.32 cm**-1
    30:    1287.23 cm**-1
    31:    1300.23 cm**-1
    32:    1394.67 cm**-1
    33:    1395.99 cm**-1
    34:    1434.30 cm**-1
    35:    1465.33 cm**-1
    36:    1468.35 cm**-1
    37:    1468.98 cm**-1
    38:    1491.73 cm**-1
    39:    1494.09 cm**-1
    40:    1608.95 cm**-1
    41:    1622.65 cm**-1
    42:    3017.37 cm**-1
    43:    3018.02 cm**-1
    44:    3086.37 cm**-1
    45:    3086.62 cm**-1
    46:    3112.20 cm**-1
    47:    3112.71 cm**-1
    48:    3155.39 cm**-1
    49:    3170.36 cm**-1
    50:    3179.21 cm**-1

IR SPECTRUM
-----------

 Mode   freq       eps      Int      T**2         TX        TY        TZ
       cm**-1   L/(mol*cm) km/mol    a.u.
----------------------------------------------------------------------------
  6:     93.81   0.000010    0.05  0.000033  (-0.002053 -0.000809  0.005261)
  7:     97.62   0.000200    1.01  0.000641  ( 0.001553  0.001691  0.025212)
  8:    194.35   0.000001    0.00  0.000001  ( 0.000976  0.000022 -0.000262)
  9:    208.60   0.001719    8.69  0.002571  ( 0.000057 -0.000217  0.050708)
 10:    288.90   0.000356    1.80  0.000385  (-0.000003 -0.019618 -0.000011)
 11:    429.45   0.000440    2.23  0.000320  (-0.017888  0.000043 -0.000068)
 12:    434.66   0.000006    0.03  0.000005  ( 0.001171  0.000147 -0.001804)
 13:    547.25   0.000279    1.41  0.000159  (-0.012603  0.000058 -0.000076)
 14:    564.40   0.000231    1.17  0.000128  ( 0.000802  0.011277 -0.000059)
 15:    566.90   0.000079    0.40  0.000044  ( 0.001316 -0.006473  0.000062)
 16:    730.44   0.000158    0.80  0.000068  ( 0.000034 -0.008212 -0.000445)
 17:    752.74   0.000578    2.92  0.000240  ( 0.000398 -0.000299  0.015475)
 18:    773.11   0.007156   36.16  0.002889  (-0.000355 -0.000214  0.053744)
 19:    889.07   0.000000    0.00  0.000000  ( 0.000263 -0.000137  0.000027)
 20:    919.52   0.000534    2.70  0.000181  ( 0.013454  0.000073  0.000276)
 21:    987.06   0.000087    0.44  0.000027  (-0.000063  0.005233 -0.000163)
 22:    987.42   0.000014    0.07  0.000004  ( 0.000383 -0.001682 -0.001178)
 23:   1020.80   0.000325    1.64  0.000099  ( 0.000232  0.009930  0.000842)
 24:   1048.39   0.000671    3.39  0.000200  ( 0.000184 -0.001513  0.014045)
 25:   1049.00   0.001150    5.81  0.000342  ( 0.002522 -0.001499  0.018260)
 26:   1055.54   0.000043    0.22  0.000013  (-0.003282  0.001383 -0.000036)
 27:   1117.22   0.001023    5.17  0.000286  ( 0.000061  0.016901  0.000115)
 28:   1181.40   0.000755    3.81  0.000199  (-0.014120 -0.000011  0.000101)
 29:   1245.32   0.003337   16.87  0.000836  ( 0.028917  0.000077  0.000270)
 30:   1287.23   0.002207   11.15  0.000535  ( 0.000098 -0.023124  0.000540)
 31:   1300.23   0.000160    0.81  0.000038  (-0.006180 -0.000386  0.000059)
 32:   1394.67   0.001125    5.69  0.000252  ( 0.015846  0.000714  0.000347)
 33:   1395.99   0.002258   11.41  0.000505  (-0.000439  0.022458 -0.000513)
 34:   1434.30   0.000558    2.82  0.000121  ( 0.000066  0.010972  0.001001)
 35:   1465.33   0.003510   17.74  0.000747  ( 0.027339  0.000055  0.000216)
 36:   1468.35   0.002664   13.46  0.000566  (-0.001049 -0.000100 -0.023769)
 37:   1468.98   0.000251    1.27  0.000053  (-0.002896 -0.000205 -0.006705)
 38:   1491.73   0.003422   17.29  0.000716  (-0.001241 -0.026720  0.000548)
 39:   1494.09   0.014199   71.75  0.002966  ( 0.054451 -0.000645 -0.000550)
 40:   1608.95   0.013614   68.80  0.002641  ( 0.051386  0.000067 -0.000015)
 41:   1622.65   0.009975   50.41  0.001918  (-0.000033  0.043799 -0.000032)
 42:   3017.37   0.005344   27.01  0.000553  (-0.023243  0.003402 -0.000942)
 43:   3018.02   0.001893    9.56  0.000196  (-0.006535 -0.012343  0.000796)
 44:   3086.37   0.001532    7.74  0.000155  ( 0.003153  0.000234 -0.012039)
 45:   3086.62   0.002361   11.93  0.000239  (-0.000200  0.000089 -0.015449)
 46:   3112.20   0.003520   17.79  0.000353  (-0.018146  0.004863 -0.000150)
 47:   3112.71   0.002434   12.30  0.000244  ( 0.005873  0.014465  0.000522)
 48:   3155.39   0.000672    3.40  0.000066  (-0.000044  0.008152  0.000008)
 49:   3170.36   0.004241   21.43  0.000417  ( 0.020431  0.000100 -0.000042)
 50:   3179.21   0.002600   13.14  0.000255  (-0.000110  0.015974 -0.000005)

--------------------------
THERMOCHEMISTRY AT 298.15K
--------------------------

Temperature         ...   298.15 K
Pressure            ...     1.00 atm
Total Mass          ...   107.16 AMU
Quasi RRHO          ...     True
Cut-Off Frequency   ...     1.00 cm^-1

Throughout the following assumptions are being made:
  (1) The electronic state is orbitally nondegenerate
  (2) There are no thermally accessible electronically excited states
  (3) Hindered rotations indicated by low frequency modes are not
      treated as such but are treated as vibrations and this may
      cause some error
  (4) All equations used are the standard statistical mechanics
      equations for an ideal gas
  (5) All vibrations are strictly harmonic

freq.      93.81  E(vib)   ...       0.47
freq.      97.62  E(vib)   ...       0.46
freq.     194.35  E(vib)   ...       0.36
freq.     208.60  E(vib)   ...       0.34
freq.     288.90  E(vib)   ...       0.27
freq.     429.45  E(vib)   ...       0.18
freq.     434.66  E(vib)   ...       0.17
freq.     547.25  E(vib)   ...       0.12
freq.     564.40  E(vib)   ...       0.11
freq.     566.90  E(vib)   ...       0.11
freq.     730.44  E(vib)   ...       0.06
freq.     752.74  E(vib)   ...       0.06
freq.     773.11  E(vib)   ...       0.05
freq.     889.07  E(vib)   ...       0.04
freq.     919.52  E(vib)   ...       0.03
freq.     987.06  E(vib)   ...       0.02
freq.     987.42  E(vib)   ...       0.02
freq.    1020.80  E(vib)   ...       0.02
freq.    1048.39  E(vib)   ...       0.02
freq.    1049.00  E(vib)   ...       0.02
freq.    1055.54  E(vib)   ...       0.02
freq.    1117.22  E(vib)   ...       0.01
freq.    1181.40  E(vib)   ...       0.01
freq.    1245.32  E(vib)   ...       0.01
freq.    1287.23  E(vib)   ...       0.01
freq.    1300.23  E(vib)   ...       0.01
freq.    1394.67  E(vib)   ...       0.00
freq.    1395.99  E(vib)   ...       0.00
freq.    1434.30  E(vib)   ...       0.00
freq.    1465.33  E(vib)   ...       0.00
freq.    1468.35  E(vib)   ...       0.00
freq.    1468.98  E(vib)   ...       0.00
freq.    1491.73  E(vib)   ...       0.00
freq.    1494.09  E(vib)   ...       0.00
freq.    1608.95  E(vib)   ...       0.00
freq.    1622.65  E(vib)   ...       0.00
freq.    3017.37  E(vib)   ...       0.00
freq.    3018.02  E(vib)   ...       0.00
freq.    3086.37  E(vib)   ...       0.00
freq.    3086.62  E(vib)   ...       0.00
freq.    3112.20  E(vib)   ...       0.00
freq.    3112.71  E(vib)   ...       0.00
freq.    3155.39  E(vib)   ...       0.00
freq.    3170.36  E(vib)   ...       0.00
freq.    3179.21  E(vib)   ...       0.00

------------
INNER ENERGY
------------

The inner energy is: U= E(el) + E(ZPE) + E(vib) + E(rot) + E(trans)
    E(el)   - is the total energy from the electronic structure calculation
              = E(kin-el) + E(nuc-el) + E(el-el) + E(nuc-nuc)
    E(ZPE)  - the the zero temperature vibrational energy from the frequency calculation
    E(vib)  - the the finite temperature correction to E(ZPE) due to population
              of excited vibrational states
    E(rot)  - is the rotational thermal energy
    E(trans)- is the translational thermal energy

Summary of contributions to the inner energy U:
Electronic energy                ...   -326.85383734 Eh
Zero point energy                ...      0.14250783 Eh      89.42 kcal/mol
Thermal vibrational correction   ...      0.00486955 Eh       3.06 kcal/mol
Thermal rotational correction    ...      0.00141627 Eh       0.89 kcal/mol
Thermal translational correction ...      0.00141627 Eh       0.89 kcal/mol
-----------------------------------------------------------------------
Total thermal energy                   -326.70362741 Eh

Summary of corrections to the electronic energy:
(perhaps to be used in another calculation)
Total thermal correction                  0.00770209 Eh       4.83 kcal/mol
Non-thermal (ZPE) correction              0.14250783 Eh      89.42 kcal/mol
-----------------------------------------------------------------------
Total correction                          0.15020992 Eh      94.26 kcal/mol

--------
ENTHALPY
--------

The enthalpy is H = U + kB*T
                kB is Boltzmann's constant
Total thermal energy              ...   -326.70362741 Eh
Thermal Enthalpy correction       ...      0.00094421 Eh       0.59 kcal/mol
-----------------------------------------------------------------------
Total Enthalpy                    ...   -326.70268320 Eh

Note: Only C1 symmetry has been detected, increase convergence thresholds
      if your molecule has a higher symmetry. Symmetry factor of 1.0 is
      used for the rotational entropy correction.

Note: Rotational entropy computed according to Herzberg
Infrared and Raman Spectra, Chapter V,1, Van Nostrand Reinhold, 1945
Point Group:  C1, Symmetry Number:   1
Rotational constants in cm-1:     0.117197     0.063804     0.041954

Vibrational entropy computed according to the QRRHO of S. Grimme
Chem.Eur.J. 2012 18 9955 using a reference frequency of 100.0 cm-1

-------
ENTROPY
-------

The entropy contributions are T*S = T*(S(el)+S(vib)+S(rot)+S(trans))
     S(el)   - electronic entropy
     S(vib)  - vibrational entropy
     S(rot)  - rotational entropy
     S(trans)- translational entropy
The entropies will be listed as multiplied by the temperature to get
units of energy

Electronic entropy                ...      0.00000000 Eh      0.00 kcal/mol
Vibrational entropy               ...      0.00820108 Eh      5.15 kcal/mol
Rotational entropy                ...      0.01331917 Eh      8.36 kcal/mol
Translational entropy             ...      0.01896913 Eh     11.90 kcal/mol
-----------------------------------------------------------------------
Final entropy term                ...      0.04048938 Eh     25.41 kcal/mol

In case the symmetry of your molecule has not been determined correctly
or in case you have a reason to use a different symmetry number we print
out the resulting rotational entropy values for sn=1,12:

 non-linear molecules -----------------------------------
|  sn= 1 | S(rot)=       0.01331917 Eh      8.36 kcal/mol|
|  sn= 2 | S(rot)=       0.01266472 Eh      7.95 kcal/mol|
|  sn= 3 | S(rot)=       0.01228189 Eh      7.71 kcal/mol|
|  sn= 4 | S(rot)=       0.01201026 Eh      7.54 kcal/mol|
|  sn= 5 | S(rot)=       0.01179957 Eh      7.40 kcal/mol|
|  sn= 6 | S(rot)=       0.01162743 Eh      7.30 kcal/mol|
|  sn= 7 | S(rot)=       0.01148188 Eh      7.20 kcal/mol|
|  sn= 8 | S(rot)=       0.01135580 Eh      7.13 kcal/mol|
|  sn= 9 | S(rot)=       0.01124460 Eh      7.06 kcal/mol|
|  sn=10 | S(rot)=       0.01114512 Eh      6.99 kcal/mol|
|  sn=11 | S(rot)=       0.01105513 Eh      6.94 kcal/mol|
|  sn=12 | S(rot)=       0.01097297 Eh      6.89 kcal/mol|
 linear molecules ---------------------------------------
|  Dinfh | S(rot)=       0.00831997 Eh      5.22 kcal/mol|
|  Cinfv | S(rot)=       0.00897443 Eh      5.63 kcal/mol|

                             ****ORCA TERMINATED NORMALLY****
TOTAL RUN TIME: 0 days 0 hours 12 minutes 41 seconds 531 msec
