                         Program Version 6.0.1  -  RELEASE   -
|  1> ! pbe def2-sv(p) def2/J RI DEFGRID1 loosescf d4 GCP(DFT/SV(P)) printgap
|  2> %output
|  3>     printlevel normal
|  4> end
|  5> * xyz 0 1
|  6> C -2.3525119508 0.0803602374 -0.1814449086
|  7> C -0.9273169688 0.4626463677 0.2024154328
|  8> C 0.0028343699 -0.7114587362 0.1536404599
|  9> C 1.3164064634 -0.632547255 0.0032837764
| 10> C 2.0763975337 0.6494133992 -0.145941296
| 11> H -2.378603299 -0.3176149512 -1.1937319452
| 12> H -3.0071541879 0.9481288278 -0.1366420163
| 13> H -2.74138064 -0.6775724928 0.4954999786
| 14> H -0.5656951116 1.2485474868 -0.4648571352
| 15> H -0.9254057176 0.8762427315 1.2170389794
| 16> H -0.4643896292 -1.6805500546 0.2657014295
| 17> H 1.903599209 -1.5403128756 -0.0113829285
| 18> H 3.1396471831 0.4595542981 -0.2625426414
| 19> H 1.9313860407 1.2852053446 0.7272820639
| 20> H 1.7279115495 1.2048001887 -1.0171506472
| 21> *
| 22>
| 23>                          ****END OF INPUT****

CARTESIAN COORDINATES (ANGSTROEM)
---------------------------------
  C     -2.352512    0.080360   -0.181445
  C     -0.927317    0.462646    0.202415
  C      0.002834   -0.711459    0.153640
  C      1.316406   -0.632547    0.003284
  C      2.076398    0.649413   -0.145941
  H     -2.378603   -0.317615   -1.193732
  H     -3.007154    0.948129   -0.136642
  H     -2.741381   -0.677572    0.495500
  H     -0.565695    1.248547   -0.464857
  H     -0.925406    0.876243    1.217039
  H     -0.464390   -1.680550    0.265701
  H      1.903599   -1.540313   -0.011383
  H      3.139647    0.459554   -0.262543
  H      1.931386    1.285205    0.727282
  H      1.727912    1.204800   -1.017151

 Total Charge           Charge          ....    0
 Multiplicity           Mult            ....    1
 Number of Electrons    NEL             ....   40
 Basis Dimension        Dim             ....   90

ORBITAL ENERGIES
----------------

  NO   OCC          E(Eh)            E(eV)
   0   2.0000      -9.885484      -268.9977
   1   2.0000      -9.878886      -268.8182
   2   2.0000      -9.876794      -268.7612
   3   2.0000      -9.876354      -268.7493
   4   2.0000      -9.873809      -268.6800
   5   2.0000      -0.723456       -19.6862
   6   2.0000      -0.672602       -18.3024
   7   2.0000      -0.604377       -16.4459
   8   2.0000      -0.545944       -14.8559
   9   2.0000      -0.467777       -12.7289
  10   2.0000      -0.421944       -11.4817
  11   2.0000      -0.396672       -10.7940
  12   2.0000      -0.381051       -10.3689
  13   2.0000      -0.363504        -9.8914
  14   2.0000      -0.334560        -9.1038
  15   2.0000      -0.325120        -8.8470
  16   2.0000      -0.311433        -8.4745
  17   2.0000      -0.301487        -8.2039
  18   2.0000      -0.279860        -7.6154
  19   2.0000      -0.207772        -5.6538
  20   0.0000      -0.009182        -0.2499
  21   0.0000       0.043999         1.1973
  22   0.0000       0.062343         1.6964
  23   0.0000       0.067075         1.8252
  24   0.0000       0.087844         2.3904

MULLIKEN ATOMIC CHARGES
-----------------------
   0 C :   -0.290145
   1 C :   -0.133568
   2 C :   -0.142194
   3 C :   -0.164254
   4 C :   -0.235754
   5 H :    0.105709
   6 H :    0.101148
   7 H :    0.103717
   8 H :    0.091650
   9 H :    0.103025
  10 H :    0.058580
  11 H :    0.065148
  12 H :    0.102501
  13 H :    0.115833
  14 H :    0.118604
Sum of atomic charges:   -0.0000000

LOEWDIN ATOMIC CHARGES
----------------------
   0 C :   -0.338161
   1 C :   -0.233395
   2 C :   -0.151920
   3 C :   -0.156771
   4 C :   -0.341416
   5 H :    0.119187
   6 H :    0.118416
   7 H :    0.117748
   8 H :    0.121294
   9 H :    0.127150
  10 H :    0.117299
  11 H :    0.117799
  12 H :    0.123797
  13 H :    0.129364
  14 H :    0.129608

  Mayer bond orders larger than 0.100000
B(  0-C ,  1-C ) :   1.1410 B(  0-C ,  5-H ) :   0.9602 B(  0-C ,  6-H ) :   0.9527
B(  0-C ,  7-H ) :   0.9549 B(  1-C ,  2-C ) :   1.0789 B(  1-C ,  8-H ) :   0.9089
B(  1-C ,  9-H ) :   0.9068 B(  2-C ,  3-C ) :   1.9907 B(  2-C , 10-H ) :   0.9392
B(  3-C ,  4-C ) :   1.1163 B(  3-C , 11-H ) :   0.9354 B(  4-C , 12-H ) :   0.9478
B(  4-C , 13-H ) :   0.9369 B(  4-C , 14-H ) :   0.9333

Dispersion correction           -0.009751451
FINAL SINGLE POINT ENERGY      -196.028448002015

DIPOLE MOMENT
-------------

Method             : SCF
Type of density    : Electron Density
Multiplicity       :   1
Irrep              :   0
Energy             :  -196.0766009012431255 Eh
Relativity type    :
Basis              : AO
                                X                 Y                 Z
Electronic contribution:      1.296946852      -1.561593495       0.371827223
Nuclear contribution   :     -1.294744366       1.694724456      -0.357238284
                        -----------------------------------------
Total Dipole Moment    :      0.002202486       0.133130961       0.014588939
                        -----------------------------------------
Magnitude (a.u.)       :      0.133946037
Magnitude (Debye)      :      0.340463769

Rotational constants in cm-1:             0.449035             0.084305             0.075019
Rotational constants in MHz :         13461.741241          2527.399802          2249.005033

                             ****ORCA TERMINATED NORMALLY****
TOTAL RUN TIME: 0 days 0 hours 0 minutes 57 seconds 187 msec
