                         Program Version 6.0.1  -  RELEASE   -
|  1> ! pbe def2-sv(p) def2/J RI DEFGRID1 loosescf d4 GCP(DFT/SV(P)) printgap
|  2> %output
|  3>     printlevel normal
|  4> end
|  5> * xyz 0 1
|  6> C 1.2282794605 0.564111289 6.25249e-05
|  7> C 0.2835604154 -0.6154076148 6.16563e-05
|  8> Br -1.5558024403 0.0278289076 -1.16843e-05
|  9> Cl 2.9086729738 -0.0425086568 -2.75087e-05
| 10> H 1.1016052985 1.1785693026 -0.8921476648
| 11> H 1.1015983519 1.1785833924 0.8923088324
| 12> H 0.4039640607 -1.2283435056 0.8923517582
| 13> H 0.4039906343 -1.2284832205 -0.8920988471
| 14> *
| 15>
| 16>                          ****END OF INPUT****

CARTESIAN COORDINATES (ANGSTROEM)
---------------------------------
  C      1.228279    0.564111    0.000063
  C      0.283560   -0.615408    0.000062
  Br    -1.555802    0.027829   -0.000012
  Cl     2.908673   -0.042509   -0.000028
  H      1.101605    1.178569   -0.892148
  H      1.101598    1.178583    0.892309
  H      0.403964   -1.228344    0.892352
  H      0.403991   -1.228483   -0.892099

 Total Charge           Charge          ....    0
 Multiplicity           Mult            ....    1
 Number of Electrons    NEL             ....   68
 Basis Dimension        Dim             ....   86

ORBITAL ENERGIES
----------------

  NO   OCC          E(Eh)            E(eV)
   0   2.0000    -480.934255    -13086.8864
   1   2.0000    -100.633946     -2738.3889
   2   2.0000     -61.776808     -1681.0324
   3   2.0000     -55.707458     -1515.8770
   4   2.0000     -55.704260     -1515.7900
   5   2.0000     -55.704196     -1515.7882
   6   2.0000      -9.958618      -270.9878
   7   2.0000      -9.954897      -270.8865
   8   2.0000      -9.169830      -249.5238
   9   2.0000      -8.402404      -228.6410
  10   2.0000      -7.001516      -190.5209
  11   2.0000      -6.989597      -190.1966
  12   2.0000      -6.989180      -190.1853
  13   2.0000      -6.284557      -171.0115
  14   2.0000      -6.270055      -170.6169
  15   2.0000      -6.269634      -170.6054
  16   2.0000      -2.485670       -67.6385
  17   2.0000      -2.482125       -67.5421
  18   2.0000      -2.481802       -67.5333
  19   2.0000      -2.470949       -67.2379
  20   2.0000      -2.470932       -67.2375
  21   2.0000      -0.799197       -21.7473
  22   2.0000      -0.741851       -20.1868
  23   2.0000      -0.644758       -17.5448
  24   2.0000      -0.562328       -15.3017
  25   2.0000      -0.454316       -12.3626
  26   2.0000      -0.410484       -11.1698
  27   2.0000      -0.398423       -10.8417
  28   2.0000      -0.364922        -9.9300
  29   2.0000      -0.342953        -9.3322
  30   2.0000      -0.265950        -7.2369
  31   2.0000      -0.259935        -7.0732
  32   2.0000      -0.248592        -6.7645
  33   2.0000      -0.246333        -6.7031
  34   0.0000      -0.040541        -1.1032
  35   0.0000       0.003429         0.0933
  36   0.0000       0.059526         1.6198
  37   0.0000       0.069487         1.8908
  38   0.0000       0.073475         1.9994

MULLIKEN ATOMIC CHARGES
-----------------------
   0 C :   -0.158069
   1 C :   -0.221102
   2 Br:   -0.104472
   3 Cl:   -0.133541
   4 H :    0.152849
   5 H :    0.152856
   6 H :    0.155739
   7 H :    0.155740
Sum of atomic charges:   -0.0000000

LOEWDIN ATOMIC CHARGES
----------------------
   0 C :   -0.297952
   1 C :   -0.306574
   2 Br:    0.029683
   3 Cl:    0.043762
   4 H :    0.131124
   5 H :    0.131127
   6 H :    0.134415
   7 H :    0.134415

  Mayer bond orders larger than 0.100000
B(  0-C ,  1-C ) :   1.0802 B(  0-C ,  3-Cl) :   1.0249 B(  0-C ,  4-H ) :   0.9248
B(  0-C ,  5-H ) :   0.9248 B(  1-C ,  2-Br) :   1.0315 B(  1-C ,  6-H ) :   0.9212
B(  1-C ,  7-H ) :   0.9212

Dispersion correction           -0.006283895
FINAL SINGLE POINT ENERGY     -3111.735674885729

DIPOLE MOMENT
-------------

Method             : SCF
Type of density    : Electron Density
Multiplicity       :   1
Irrep              :   0
Energy             : -3111.7671835968394589 Eh
Relativity type    :
Basis              : AO
                                X                 Y                 Z
Electronic contribution:    -13.358358893       0.303849621      -0.000481670
Nuclear contribution   :     13.366900472      -0.294853733       0.000533894
                        -----------------------------------------
Total Dipole Moment    :      0.008541579       0.008995888       0.000052224
                        -----------------------------------------
Magnitude (a.u.)       :      0.012405132
Magnitude (Debye)      :      0.031531339

Rotational constants in cm-1:             0.960594             0.032518             0.031834
Rotational constants in MHz :         28797.887958           974.851151           954.362330

                             ****ORCA TERMINATED NORMALLY****
TOTAL RUN TIME: 0 days 0 hours 0 minutes 11 seconds 196 msec
