                         Program Version 6.0.1  -  RELEASE   -
|  1> ! r2scan-3c def2/J RI DEFGRID2 scfconv6 printgap
|  2> %output
|  3>     printlevel normal
|  4> end
|  5> * xyz 0 1
|  6> C 2.2913878305 0.1481929603 5.75496e-05
|  7> C 0.8092878325 0.2680659359 -6.40188e-05
|  8> C 0.048648382 1.393482272 -6.86029e-05
|  9> C -1.3420517185 1.1304684425 4.11755e-05
| 10> C -1.6203421754 -0.194803845 3.02653e-05
| 11> S -0.1896968029 -1.1527388681 -1.52704e-05
| 12> H 2.6340113308 -0.3945443437 0.8807947747
| 13> H 2.6340676766 -0.3956885865 -0.8799019643
| 14> H 2.743822851 1.137058841 -0.0005705542
| 15> H 0.4642424824 2.3857241375 -1.20215e-05
| 16> H -2.0943144165 1.8989624883 0.0001432484
| 17> H -2.5754389575 -0.6809822676 7.55211e-05
| 18> *
| 19>
| 20>                          ****END OF INPUT****

CARTESIAN COORDINATES (ANGSTROEM)
---------------------------------
  C      2.291388    0.148193    0.000058
  C      0.809288    0.268066   -0.000064
  C      0.048648    1.393482   -0.000069
  C     -1.342052    1.130468    0.000041
  C     -1.620342   -0.194804    0.000030
  S     -0.189697   -1.152739   -0.000015
  H      2.634011   -0.394544    0.880795
  H      2.634068   -0.395689   -0.879902
  H      2.743823    1.137059   -0.000571
  H      0.464242    2.385724   -0.000012
  H     -2.094314    1.898962    0.000143
  H     -2.575439   -0.680982    0.000076

 Total Charge           Charge          ....    0
 Multiplicity           Mult            ....    1
 Number of Electrons    NEL             ....   52
 Basis Dimension        Dim             ....  152

ORBITAL ENERGIES
----------------

  NO   OCC          E(Eh)            E(eV)
   0   2.0000     -88.584211     -2410.4989
   1   2.0000     -10.065009      -273.8828
   2   2.0000     -10.053535      -273.5706
   3   2.0000     -10.039177      -273.1799
   4   2.0000     -10.031664      -272.9755
   5   2.0000     -10.028739      -272.8959
   6   2.0000      -7.878363      -214.3812
   7   2.0000      -5.824783      -158.5004
   8   2.0000      -5.820452      -158.3826
   9   2.0000      -5.817940      -158.3142
  10   2.0000      -0.847934       -23.0735
  11   2.0000      -0.734146       -19.9771
  12   2.0000      -0.698348       -19.0030
  13   2.0000      -0.644618       -17.5409
  14   2.0000      -0.528583       -14.3835
  15   2.0000      -0.504525       -13.7288
  16   2.0000      -0.469725       -12.7819
  17   2.0000      -0.401873       -10.9355
  18   2.0000      -0.399695       -10.8763
  19   2.0000      -0.371143       -10.0993
  20   2.0000      -0.353799        -9.6274
  21   2.0000      -0.339099        -9.2274
  22   2.0000      -0.335394        -9.1265
  23   2.0000      -0.313127        -8.5206
  24   2.0000      -0.230480        -6.2717
  25   2.0000      -0.207045        -5.6340
  26   0.0000      -0.034236        -0.9316
  27   0.0000       0.008775         0.2388
  28   0.0000       0.036745         0.9999
  29   0.0000       0.076770         2.0890
  30   0.0000       0.098530         2.6811

MULLIKEN ATOMIC CHARGES
-----------------------
   0 C :   -0.495387
   1 C :    0.088184
   2 C :   -0.221130
   3 C :   -0.163890
   4 C :   -0.222269
   5 S :    0.062945
   6 H :    0.162502
   7 H :    0.162480
   8 H :    0.157734
   9 H :    0.151711
  10 H :    0.149402
  11 H :    0.167719
Sum of atomic charges:    0.0000000

LOEWDIN ATOMIC CHARGES
----------------------
   0 C :   -0.387927
   1 C :   -0.207085
   2 C :   -0.201560
   3 C :   -0.191077
   4 C :   -0.284254
   5 S :    0.261927
   6 H :    0.164274
   7 H :    0.164264
   8 H :    0.165226
   9 H :    0.171258
  10 H :    0.170756
  11 H :    0.174198

  Mayer bond orders larger than 0.100000
B(  0-C ,  1-C ) :   0.8093 B(  0-C ,  6-H ) :   0.9714 B(  0-C ,  7-H ) :   0.9714
B(  0-C ,  8-H ) :   0.9898 B(  1-C ,  2-C ) :   1.6272 B(  1-C ,  5-S ) :   1.1476
B(  2-C ,  3-C ) :   1.2961 B(  2-C ,  9-H ) :   0.9279 B(  3-C ,  4-C ) :   1.6497
B(  3-C ,  5-S ) :   0.1002 B(  3-C , 10-H ) :   0.9373 B(  4-C ,  5-S ) :   1.1710
B(  4-C , 11-H ) :   0.9258

Dispersion correction           -0.003576471
FINAL SINGLE POINT ENERGY      -592.245252059189

DIPOLE MOMENT
-------------

Method             : SCF
Type of density    : Electron Density
Multiplicity       :   1
Irrep              :   0
Energy             :  -592.2473511087437146 Eh
Relativity type    :
Basis              : AO
                                X                 Y                 Z
Electronic contribution:     -3.388740608      -3.529291729      -0.000376717
Nuclear contribution   :      3.576536104       3.739642735       0.000496738
                        -----------------------------------------
Total Dipole Moment    :      0.187795496       0.210351006       0.000120021
                        -----------------------------------------
Magnitude (a.u.)       :      0.281983525
Magnitude (Debye)      :      0.716745160

Rotational constants in cm-1:             0.175826             0.105530             0.066764
Rotational constants in MHz :          5271.143091          3163.704491          2001.544663

                             ****ORCA TERMINATED NORMALLY****
TOTAL RUN TIME: 0 days 0 hours 0 minutes 16 seconds 808 msec
