                         Program Version 6.0.1  -  RELEASE   -
|  1> ! pbe def2-sv(p) def2/J RI DEFGRID1 loosescf d4 GCP(DFT/SV(P)) printgap
|  2> %output
|  3>     printlevel normal
|  4> end
|  5> * xyz 0 1
|  6> C -2.5013976775 -0.349990338 -0.3996344955
|  7> C -1.1534693669 -0.1885251394 0.310314999
|  8> H -1.2577771959 -0.4941652108 1.3635454677
|  9> C -0.6359150208 1.2742882082 0.2752171703
| 10> H -1.3716136989 1.9015493005 -0.2409903023
| 11> C 0.6880761281 1.3319947048 -0.5134601847
| 12> H 1.1063065643 2.3396750979 -0.4217825458
| 13> C 1.6970808105 0.3325264788 0.0899307006
| 14> H 2.5311789602 0.221023317 -0.6151920475
| 15> C 1.0299215745 -1.0563482037 0.2459623012
| 16> H 0.9274706124 -1.2794029818 1.3320745815
| 17> O -0.251373718 -1.0860581743 -0.3345492664
| 18> O 1.8219658627 -1.9976408985 -0.3866336154
| 19> O 2.1391498528 0.8337675415 1.3311471608
| 20> O 0.4999631962 1.1019383816 -1.8791109241
| 21> O -0.4995992049 1.8065924978 1.5630040845
| 22> O -2.9774553152 -1.6652295595 -0.3294196946
| 23> H -2.391444696 -0.0287084755 -1.445674314
| 24> H -3.24480527 0.2784137273 0.0927839618
| 25> H 1.3266361358 -2.8212344751 -0.4730552208
| 26> H 2.9038495854 0.3272013848 1.6255553699
| 27> H 0.1851353986 0.1933113191 -1.988642811
| 28> H 0.3761350531 1.571802422 1.9046122698
| 29> H -2.2855310409 -2.2458306671 -0.6679925984
| 30> *
| 31>
| 32>                          ****END OF INPUT****

CARTESIAN COORDINATES (ANGSTROEM)
---------------------------------
  C     -2.501398   -0.349990   -0.399634
  C     -1.153469   -0.188525    0.310315
  H     -1.257777   -0.494165    1.363545
  C     -0.635915    1.274288    0.275217
  H     -1.371614    1.901549   -0.240990
  C      0.688076    1.331995   -0.513460
  H      1.106307    2.339675   -0.421783
  C      1.697081    0.332526    0.089931
  H      2.531179    0.221023   -0.615192
  C      1.029922   -1.056348    0.245962
  H      0.927471   -1.279403    1.332075
  O     -0.251374   -1.086058   -0.334549
  O      1.821966   -1.997641   -0.386634
  O      2.139150    0.833768    1.331147
  O      0.499963    1.101938   -1.879111
  O     -0.499599    1.806592    1.563004
  O     -2.977455   -1.665230   -0.329420
  H     -2.391445   -0.028708   -1.445674
  H     -3.244805    0.278414    0.092784
  H      1.326636   -2.821234   -0.473055
  H      2.903850    0.327201    1.625555
  H      0.185135    0.193311   -1.988643
  H      0.376135    1.571802    1.904612
  H     -2.285531   -2.245831   -0.667993

 Total Charge           Charge          ....    0
 Multiplicity           Mult            ....    1
 Number of Electrons    NEL             ....   96
 Basis Dimension        Dim             ....  192

ORBITAL ENERGIES
----------------

  NO   OCC          E(Eh)            E(eV)
   0   2.0000     -18.797801      -511.5142
   1   2.0000     -18.785341      -511.1751
   2   2.0000     -18.779522      -511.0168
   3   2.0000     -18.752577      -510.2836
   4   2.0000     -18.747749      -510.1522
   5   2.0000     -18.739796      -509.9358
   6   2.0000     -10.003592      -272.2116
   7   2.0000      -9.954528      -270.8765
   8   2.0000      -9.947472      -270.6845
   9   2.0000      -9.947288      -270.6795
  10   2.0000      -9.940575      -270.4968
  11   2.0000      -9.938092      -270.4292
  12   2.0000      -1.006593       -27.3908
  13   2.0000      -0.960255       -26.1299
  14   2.0000      -0.946350       -25.7515
  15   2.0000      -0.932555       -25.3761
  16   2.0000      -0.921951       -25.0876
  17   2.0000      -0.919502       -25.0209
  18   2.0000      -0.702614       -19.1191
  19   2.0000      -0.699234       -19.0271
  20   2.0000      -0.625177       -17.0119
  21   2.0000      -0.595729       -16.2106
  22   2.0000      -0.573071       -15.5941
  23   2.0000      -0.532940       -14.5020
  24   2.0000      -0.522620       -14.2212
  25   2.0000      -0.494813       -13.4646
  26   2.0000      -0.492736       -13.4080
  27   2.0000      -0.471483       -12.8297
  28   2.0000      -0.463205       -12.6045
  29   2.0000      -0.434664       -11.8278
  30   2.0000      -0.413575       -11.2540
  31   2.0000      -0.403622       -10.9831
  32   2.0000      -0.388933       -10.5834
  33   2.0000      -0.380405       -10.3514
  34   2.0000      -0.369798       -10.0627
  35   2.0000      -0.357596        -9.7307
  36   2.0000      -0.338677        -9.2159
  37   2.0000      -0.329880        -8.9765
  38   2.0000      -0.326116        -8.8741
  39   2.0000      -0.301259        -8.1977
  40   2.0000      -0.285865        -7.7788
  41   2.0000      -0.280398        -7.6300
  42   2.0000      -0.269094        -7.3224
  43   2.0000      -0.257345        -7.0027
  44   2.0000      -0.242901        -6.6097
  45   2.0000      -0.225744        -6.1428
  46   2.0000      -0.222118        -6.0441
  47   2.0000      -0.202194        -5.5020
  48   0.0000       0.002274         0.0619
  49   0.0000       0.013350         0.3633
  50   0.0000       0.036345         0.9890
  51   0.0000       0.048460         1.3187
  52   0.0000       0.058750         1.5987

MULLIKEN ATOMIC CHARGES
-----------------------
   0 C :    0.065998
   1 C :   -0.004880
   2 H :    0.067962
   3 C :    0.051042
   4 H :    0.078283
   5 C :    0.017294
   6 H :    0.091308
   7 C :    0.021104
   8 H :    0.088813
   9 C :    0.190125
  10 H :    0.040116
  11 O :   -0.336229
  12 O :   -0.379463
  13 O :   -0.421201
  14 O :   -0.416159
  15 O :   -0.423283
  16 O :   -0.429042
  17 H :    0.071931
  18 H :    0.103865
  19 H :    0.304867
  20 H :    0.317868
  21 H :    0.303529
  22 H :    0.303313
  23 H :    0.292839
Sum of atomic charges:    0.0000000

LOEWDIN ATOMIC CHARGES
----------------------
   0 C :   -0.127702
   1 C :   -0.082098
   2 H :    0.111230
   3 C :   -0.073516
   4 H :    0.117676
   5 C :   -0.072029
   6 H :    0.124325
   7 C :   -0.090055
   8 H :    0.119472
   9 C :   -0.005131
  10 H :    0.080514
  11 O :   -0.165880
  12 O :   -0.296417
  13 O :   -0.309215
  14 O :   -0.308463
  15 O :   -0.320311
  16 O :   -0.332705
  17 H :    0.098308
  18 H :    0.125116
  19 H :    0.288378
  20 H :    0.297660
  21 H :    0.272099
  22 H :    0.272335
  23 H :    0.276410

  Mayer bond orders larger than 0.100000
B(  0-C ,  1-C ) :   1.0539 B(  0-C , 16-O ) :   1.0762 B(  0-C , 17-H ) :   0.9013
B(  0-C , 18-H ) :   0.9190 B(  1-C ,  2-H ) :   0.8683 B(  1-C ,  3-C ) :   0.9376
B(  1-C , 11-O ) :   0.9501 B(  3-C ,  4-H ) :   0.9006 B(  3-C ,  5-C ) :   0.9942
B(  3-C , 15-O ) :   1.0739 B(  5-C ,  6-H ) :   0.8924 B(  5-C ,  7-C ) :   0.9971
B(  5-C , 14-O ) :   1.0558 B(  7-C ,  8-H ) :   0.8869 B(  7-C ,  9-C ) :   0.9711
B(  7-C , 13-O ) :   1.0223 B(  9-C , 10-H ) :   0.8793 B(  9-C , 11-O ) :   1.0172
B(  9-C , 12-O ) :   1.1658 B( 12-O , 19-H ) :   0.8398 B( 13-O , 20-H ) :   0.8408
B( 14-O , 21-H ) :   0.8241 B( 15-O , 22-H ) :   0.8139 B( 16-O , 23-H ) :   0.8458

Dispersion correction           -0.024870107
FINAL SINGLE POINT ENERGY      -685.693876305247

DIPOLE MOMENT
-------------

Method             : SCF
Type of density    : Electron Density
Multiplicity       :   1
Irrep              :   0
Energy             :  -685.8266594286355939 Eh
Relativity type    :
Basis              : AO
                                X                 Y                 Z
Electronic contribution:      2.079082234      -1.013845678      -0.203279378
Nuclear contribution   :     -1.109752449      -0.049029498       0.435949128
                        -----------------------------------------
Total Dipole Moment    :      0.969329784      -1.062875176       0.232669749
                        -----------------------------------------
Magnitude (a.u.)       :      1.457202485
Magnitude (Debye)      :      3.703914362

Rotational constants in cm-1:             0.039763             0.026666             0.021520
Rotational constants in MHz :          1192.077120           799.421840           645.160799

                             ****ORCA TERMINATED NORMALLY****
TOTAL RUN TIME: 0 days 0 hours 0 minutes 7 seconds 908 msec
