                         Program Version 6.0.1  -  RELEASE   -
|  1> ! pbe def2-sv(p) def2/J RI DEFGRID1 loosescf d4 GCP(DFT/SV(P)) printgap
|  2> %output
|  3>     printlevel normal
|  4> end
|  5> * xyz 0 1
|  6> C -1.7335817412 -1.0593163542 -0.6642131995
|  7> C -1.0318806555 -0.4987150176 0.5888726154
|  8> H -1.6993214175 -0.5995324678 1.4556809436
|  9> C -0.7270223327 0.9976155572 0.4256706869
| 10> H -1.6129558589 1.4651048551 -0.0381975871
| 11> C 0.4983781372 1.2403289543 -0.4767056579
| 12> H 0.8135454413 2.294315666 -0.3407143071
| 13> C 1.6738232693 0.3650946023 -0.003651275
| 14> H 2.4663291469 0.4062848048 -0.7550966832
| 15> C 1.2577537812 -1.1074490005 0.1653486655
| 16> H 2.0399511638 -1.6035108984 0.7660287111
| 17> O 0.1032061822 -1.2600439825 0.9546062615
| 18> O 1.1442359976 -1.7010168924 -1.0880465447
| 19> O 2.2013263452 0.8572670293 1.1965927462
| 20> O 0.2483250703 0.9870031157 -1.8295718452
| 21> O -0.519698975 1.5276189646 1.7191497892
| 22> O -2.940437283 -0.3884120369 -0.9334492974
| 23> H -1.9010257417 -2.1342300026 -0.5138673168
| 24> H -1.0990222184 -0.9185993483 -1.5409077668
| 25> H 0.907979025 -2.6295155216 -0.9759036825
| 26> H 1.5052848005 0.7942908492 1.8699037341
| 27> H -0.582306301 1.4044453884 -2.0886813228
| 28> H -0.2943552587 2.4631441257 1.6485861838
| 29> H -3.5604068747 -0.5539285336 -0.2138244059
| 30> *
| 31>
| 32>                          ****END OF INPUT****

CARTESIAN COORDINATES (ANGSTROEM)
---------------------------------
  C     -1.733582   -1.059316   -0.664213
  C     -1.031881   -0.498715    0.588873
  H     -1.699321   -0.599532    1.455681
  C     -0.727022    0.997616    0.425671
  H     -1.612956    1.465105   -0.038198
  C      0.498378    1.240329   -0.476706
  H      0.813545    2.294316   -0.340714
  C      1.673823    0.365095   -0.003651
  H      2.466329    0.406285   -0.755097
  C      1.257754   -1.107449    0.165349
  H      2.039951   -1.603511    0.766029
  O      0.103206   -1.260044    0.954606
  O      1.144236   -1.701017   -1.088047
  O      2.201326    0.857267    1.196593
  O      0.248325    0.987003   -1.829572
  O     -0.519699    1.527619    1.719150
  O     -2.940437   -0.388412   -0.933449
  H     -1.901026   -2.134230   -0.513867
  H     -1.099022   -0.918599   -1.540908
  H      0.907979   -2.629516   -0.975904
  H      1.505285    0.794291    1.869904
  H     -0.582306    1.404445   -2.088681
  H     -0.294355    2.463144    1.648586
  H     -3.560407   -0.553929   -0.213824

 Total Charge           Charge          ....    0
 Multiplicity           Mult            ....    1
 Number of Electrons    NEL             ....   96
 Basis Dimension        Dim             ....  192

ORBITAL ENERGIES
----------------

  NO   OCC          E(Eh)            E(eV)
   0   2.0000     -18.771529      -510.7993
   1   2.0000     -18.770170      -510.7623
   2   2.0000     -18.758232      -510.4374
   3   2.0000     -18.757517      -510.4180
   4   2.0000     -18.757134      -510.4076
   5   2.0000     -18.742140      -509.9995
   6   2.0000      -9.980033      -271.5705
   7   2.0000      -9.950281      -270.7609
   8   2.0000      -9.946963      -270.6706
   9   2.0000      -9.946267      -270.6517
  10   2.0000      -9.936471      -270.3851
  11   2.0000      -9.928786      -270.1760
  12   2.0000      -0.982288       -26.7294
  13   2.0000      -0.950228       -25.8570
  14   2.0000      -0.936014       -25.4702
  15   2.0000      -0.933543       -25.4030
  16   2.0000      -0.920513       -25.0484
  17   2.0000      -0.911255       -24.7965
  18   2.0000      -0.705029       -19.1848
  19   2.0000      -0.685287       -18.6476
  20   2.0000      -0.617947       -16.8152
  21   2.0000      -0.593975       -16.1629
  22   2.0000      -0.576082       -15.6760
  23   2.0000      -0.520839       -14.1727
  24   2.0000      -0.494298       -13.4505
  25   2.0000      -0.488989       -13.3061
  26   2.0000      -0.476297       -12.9607
  27   2.0000      -0.465872       -12.6770
  28   2.0000      -0.455696       -12.4001
  29   2.0000      -0.435608       -11.8535
  30   2.0000      -0.409708       -11.1487
  31   2.0000      -0.390868       -10.6361
  32   2.0000      -0.378892       -10.3102
  33   2.0000      -0.368657       -10.0317
  34   2.0000      -0.364172        -9.9096
  35   2.0000      -0.349430        -9.5085
  36   2.0000      -0.342257        -9.3133
  37   2.0000      -0.334810        -9.1106
  38   2.0000      -0.296294        -8.0626
  39   2.0000      -0.294436        -8.0120
  40   2.0000      -0.288823        -7.8593
  41   2.0000      -0.262479        -7.1424
  42   2.0000      -0.260737        -7.0950
  43   2.0000      -0.240155        -6.5349
  44   2.0000      -0.234486        -6.3807
  45   2.0000      -0.219791        -5.9808
  46   2.0000      -0.215207        -5.8561
  47   2.0000      -0.208038        -5.6610
  48   0.0000       0.012508         0.3403
  49   0.0000       0.012798         0.3482
  50   0.0000       0.026183         0.7125
  51   0.0000       0.035836         0.9752
  52   0.0000       0.067102         1.8259

MULLIKEN ATOMIC CHARGES
-----------------------
   0 C :   -0.016471
   1 C :    0.043200
   2 H :    0.068438
   3 C :   -0.005124
   4 H :    0.064795
   5 C :    0.027043
   6 H :    0.057710
   7 C :    0.076523
   8 H :    0.090273
   9 C :    0.167663
  10 H :    0.069234
  11 O :   -0.314162
  12 O :   -0.378848
  13 O :   -0.429841
  14 O :   -0.384693
  15 O :   -0.412394
  16 O :   -0.428804
  17 H :    0.074035
  18 H :    0.127802
  19 H :    0.299776
  20 H :    0.294177
  21 H :    0.307706
  22 H :    0.304102
  23 H :    0.297861
Sum of atomic charges:   -0.0000000

LOEWDIN ATOMIC CHARGES
----------------------
   0 C :   -0.157238
   1 C :   -0.066934
   2 H :    0.113643
   3 C :   -0.086851
   4 H :    0.100630
   5 C :   -0.081288
   6 H :    0.093305
   7 C :   -0.069072
   8 H :    0.127762
   9 C :   -0.009575
  10 H :    0.099143
  11 O :   -0.142063
  12 O :   -0.298973
  13 O :   -0.314168
  14 O :   -0.297517
  15 O :   -0.308101
  16 O :   -0.331771
  17 H :    0.096310
  18 H :    0.121619
  19 H :    0.283818
  20 H :    0.269168
  21 H :    0.288208
  22 H :    0.285874
  23 H :    0.284073

  Mayer bond orders larger than 0.100000
B(  0-C ,  1-C ) :   1.0373 B(  0-C , 16-O ) :   1.0387 B(  0-C , 17-H ) :   0.9169
B(  0-C , 18-H ) :   0.8876 B(  1-C ,  2-H ) :   0.8954 B(  1-C ,  3-C ) :   1.0035
B(  1-C , 11-O ) :   1.0117 B(  3-C ,  4-H ) :   0.8815 B(  3-C ,  5-C ) :   0.9775
B(  3-C , 15-O ) :   1.0319 B(  5-C ,  6-H ) :   0.9028 B(  5-C ,  7-C ) :   0.9694
B(  5-C , 14-O ) :   1.0923 B(  7-C ,  8-H ) :   0.8841 B(  7-C ,  9-C ) :   1.0029
B(  7-C , 13-O ) :   1.0527 B(  9-C , 10-H ) :   0.9032 B(  9-C , 11-O ) :   1.0386
B(  9-C , 12-O ) :   1.1324 B( 12-O , 19-H ) :   0.8374 B( 13-O , 20-H ) :   0.8160
B( 14-O , 21-H ) :   0.8332 B( 15-O , 22-H ) :   0.8376 B( 16-O , 23-H ) :   0.8511

Dispersion correction           -0.026107297
FINAL SINGLE POINT ENERGY      -685.692590973681

DIPOLE MOMENT
-------------

Method             : SCF
Type of density    : Electron Density
Multiplicity       :   1
Irrep              :   0
Energy             :  -685.8245289835505218 Eh
Relativity type    :
Basis              : AO
                                X                 Y                 Z
Electronic contribution:      1.793850800      -0.234691574       0.941291442
Nuclear contribution   :     -2.826295965       0.364594380      -0.681757938
                        -----------------------------------------
Total Dipole Moment    :     -1.032445165       0.129902807       0.259533504
                        -----------------------------------------
Magnitude (a.u.)       :      1.072462306
Magnitude (Debye)      :      2.725982544

Rotational constants in cm-1:             0.040550             0.029303             0.025306
Rotational constants in MHz :          1215.660654           878.481255           758.654115

                             ****ORCA TERMINATED NORMALLY****
TOTAL RUN TIME: 0 days 0 hours 0 minutes 8 seconds 817 msec
