                         Program Version 6.0.1  -  RELEASE   -
|  1> ! r2scan-3c def2/J RI DEFGRID2 scfconv6 printgap
|  2> %output
|  3>     printlevel normal
|  4> end
|  5> * xyz 0 1
|  6> C -2.7518021007 -0.1280256606 -0.152732296
|  7> O -1.4699740979 -0.458263426 -0.6754101063
|  8> C -0.4188368972 0.0017690005 0.0102188995
|  9> O -0.4947698599 0.6564646368 1.0085498226
| 10> C 0.8651447003 -0.4410319012 -0.6856910214
| 11> C 2.0503159633 0.0174301046 -0.0057687502
| 12> N 3.001822778 0.3700785875 0.5168151887
| 13> H -3.4771068227 -0.5715952612 -0.8293970311
| 14> H -2.8755374247 0.9556218064 -0.1114066953
| 15> H -2.8654796346 -0.5340857054 0.8540022311
| 16> H 0.8579076192 -0.0529281076 -1.7083510941
| 17> H 0.8734024378 -1.5336237857 -0.7369033249
| 18> *
| 19>
| 20>                          ****END OF INPUT****

CARTESIAN COORDINATES (ANGSTROEM)
---------------------------------
  C     -2.751802   -0.128026   -0.152732
  O     -1.469974   -0.458263   -0.675410
  C     -0.418837    0.001769    0.010219
  O     -0.494770    0.656465    1.008550
  C      0.865145   -0.441032   -0.685691
  C      2.050316    0.017430   -0.005769
  N      3.001823    0.370079    0.516815
  H     -3.477107   -0.571595   -0.829397
  H     -2.875537    0.955622   -0.111407
  H     -2.865480   -0.534086    0.854002
  H      0.857908   -0.052928   -1.708351
  H      0.873402   -1.533624   -0.736903

 Total Charge           Charge          ....    0
 Multiplicity           Mult            ....    1
 Number of Electrons    NEL             ....   52
 Basis Dimension        Dim             ....  173

ORBITAL ENERGIES
----------------

  NO   OCC          E(Eh)            E(eV)
   0   2.0000     -19.026730      -517.7437
   1   2.0000     -18.963459      -516.0219
   2   2.0000     -14.159572      -385.3015
   3   2.0000     -10.190204      -277.2895
   4   2.0000     -10.109402      -275.0908
   5   2.0000     -10.105614      -274.9877
   6   2.0000     -10.075866      -274.1783
   7   2.0000      -1.103806       -30.0361
   8   2.0000      -1.014730       -27.6122
   9   2.0000      -0.884783       -24.0762
  10   2.0000      -0.790786       -21.5184
  11   2.0000      -0.712735       -19.3945
  12   2.0000      -0.575354       -15.6562
  13   2.0000      -0.513955       -13.9854
  14   2.0000      -0.497922       -13.5492
  15   2.0000      -0.494151       -13.4465
  16   2.0000      -0.453971       -12.3532
  17   2.0000      -0.448970       -12.2171
  18   2.0000      -0.415509       -11.3066
  19   2.0000      -0.379092       -10.3156
  20   2.0000      -0.352674        -9.5967
  21   2.0000      -0.332620        -9.0510
  22   2.0000      -0.317457        -8.6384
  23   2.0000      -0.315370        -8.5817
  24   2.0000      -0.300770        -8.1844
  25   2.0000      -0.271594        -7.3904
  26   0.0000      -0.044068        -1.1991
  27   0.0000      -0.005281        -0.1437
  28   0.0000       0.004399         0.1197
  29   0.0000       0.040009         1.0887
  30   0.0000       0.073353         1.9960

MULLIKEN ATOMIC CHARGES
-----------------------
   0 C :   -0.288745
   1 O :   -0.174991
   2 C :    0.342922
   3 O :   -0.380891
   4 C :   -0.347100
   5 C :    0.199133
   6 N :   -0.225001
   7 H :    0.156104
   8 H :    0.164351
   9 H :    0.164020
  10 H :    0.195125
  11 H :    0.195073
Sum of atomic charges:    0.0000000

LOEWDIN ATOMIC CHARGES
----------------------
   0 C :   -0.037828
   1 O :   -0.598984
   2 C :    0.371468
   3 O :   -0.373696
   4 C :   -0.184069
   5 C :    0.148471
   6 N :   -0.285339
   7 H :    0.179325
   8 H :    0.179272
   9 H :    0.179081
  10 H :    0.211159
  11 H :    0.211139

  Mayer bond orders larger than 0.100000
B(  0-C ,  1-O ) :   0.8509 B(  0-C ,  7-H ) :   0.9676 B(  0-C ,  8-H ) :   0.9598
B(  0-C ,  9-H ) :   0.9597 B(  1-O ,  2-C ) :   1.0765 B(  2-C ,  3-O ) :   1.8765
B(  2-C ,  4-C ) :   0.9265 B(  4-C ,  5-C ) :   1.0603 B(  4-C , 10-H ) :   0.9360
B(  4-C , 11-H ) :   0.9360 B(  5-C ,  6-N ) :   2.8886

Dispersion correction           -0.002772941
FINAL SINGLE POINT ENERGY      -360.548165473368

DIPOLE MOMENT
-------------

Method             : SCF
Type of density    : Electron Density
Multiplicity       :   1
Irrep              :   0
Energy             :  -360.5530515913763452 Eh
Relativity type    :
Basis              : AO
                                X                 Y                 Z
Electronic contribution:      5.369846200       0.826252363       1.177376824
Nuclear contribution   :     -7.036524076      -1.624271615      -2.367731282
                        -----------------------------------------
Total Dipole Moment    :     -1.666677876      -0.798019252      -1.190354458
                        -----------------------------------------
Magnitude (a.u.)       :      2.198088625
Magnitude (Debye)      :      5.587097271

Rotational constants in cm-1:             0.317458             0.047565             0.042020
Rotational constants in MHz :          9517.140018          1425.955448          1259.736886

                             ****ORCA TERMINATED NORMALLY****
TOTAL RUN TIME: 0 days 0 hours 0 minutes 20 seconds 461 msec
