                         Program Version 6.0.1  -  RELEASE   -
|  1> ! r2scan-3c def2/J RI DEFGRID2 scfconv6 printgap
|  2> %output
|  3>     printlevel normal
|  4> end
|  5> * xyz 0 1
|  6> C 1.8763546902 0.1465564536 0.1811770406
|  7> C 0.699032815 -0.0143553112 -0.3902280777
|  8> C -0.5431720175 -0.4380035808 0.3313440841
|  9> O -1.6359748514 0.3045446854 -0.1708323825
| 10> H 2.7457119745 0.4359175123 -0.3832145215
| 11> H 2.0233382338 -0.0137810999 1.2370421215
| 12> H 0.5554475562 0.1584996106 -1.4469547445
| 13> H -0.4271719658 -0.2835170316 1.4135162857
| 14> H -0.7057099698 -1.5151318714 0.1541308732
| 15> H -2.4397795213 0.027875811 0.279923714
| 16> *
| 17>
| 18>                          ****END OF INPUT****

CARTESIAN COORDINATES (ANGSTROEM)
---------------------------------
  C      1.876355    0.146556    0.181177
  C      0.699033   -0.014355   -0.390228
  C     -0.543172   -0.438004    0.331344
  O     -1.635975    0.304545   -0.170832
  H      2.745712    0.435918   -0.383215
  H      2.023338   -0.013781    1.237042
  H      0.555448    0.158500   -1.446955
  H     -0.427172   -0.283517    1.413516
  H     -0.705710   -1.515132    0.154131
  H     -2.439780    0.027876    0.279924

 Total Charge           Charge          ....    0
 Multiplicity           Mult            ....    1
 Number of Electrons    NEL             ....   32
 Basis Dimension        Dim             ....  111

ORBITAL ENERGIES
----------------

  NO   OCC          E(Eh)            E(eV)
   0   2.0000     -18.951993      -515.7099
   1   2.0000     -10.083885      -274.3965
   2   2.0000     -10.035964      -273.0925
   3   2.0000     -10.025661      -272.8121
   4   2.0000      -0.990346       -26.9487
   5   2.0000      -0.754543       -20.5321
   6   2.0000      -0.644986       -17.5510
   7   2.0000      -0.530905       -14.4467
   8   2.0000      -0.485992       -13.2245
   9   2.0000      -0.441038       -12.0013
  10   2.0000      -0.413857       -11.2616
  11   2.0000      -0.377226       -10.2648
  12   2.0000      -0.340280        -9.2595
  13   2.0000      -0.300195        -8.1687
  14   2.0000      -0.258064        -7.0223
  15   2.0000      -0.232592        -6.3291
  16   0.0000      -0.021366        -0.5814
  17   0.0000       0.065323         1.7775
  18   0.0000       0.105586         2.8731
  19   0.0000       0.140252         3.8164
  20   0.0000       0.146677         3.9913

MULLIKEN ATOMIC CHARGES
-----------------------
   0 C :   -0.348736
   1 C :   -0.078855
   2 C :   -0.141405
   3 O :   -0.427908
   4 H :    0.143236
   5 H :    0.139230
   6 H :    0.164608
   7 H :    0.129147
   8 H :    0.127496
   9 H :    0.293187
Sum of atomic charges:    0.0000000

LOEWDIN ATOMIC CHARGES
----------------------
   0 C :   -0.305125
   1 C :   -0.162635
   2 C :    0.013565
   3 O :   -0.619041
   4 H :    0.158657
   5 H :    0.155894
   6 H :    0.171240
   7 H :    0.159850
   8 H :    0.163080
   9 H :    0.264515

  Mayer bond orders larger than 0.100000
B(  0-C ,  1-C ) :   1.9115 B(  0-C ,  4-H ) :   0.9551 B(  0-C ,  5-H ) :   0.9814
B(  1-C ,  2-C ) :   0.9797 B(  1-C ,  6-H ) :   0.9297 B(  2-C ,  3-O ) :   0.9056
B(  2-C ,  7-H ) :   0.9918 B(  2-C ,  8-H ) :   0.9427 B(  3-O ,  9-H ) :   0.9009

Dispersion correction           -0.001692464
FINAL SINGLE POINT ENERGY      -193.065547801826

DIPOLE MOMENT
-------------

Method             : SCF
Type of density    : Electron Density
Multiplicity       :   1
Irrep              :   0
Energy             :  -193.0687124701382231 Eh
Relativity type    :
Basis              : AO
                                X                 Y                 Z
Electronic contribution:     -1.759993629       0.673605129      -0.768585094
Nuclear contribution   :      1.619255977      -1.112031126       1.174344200
                        -----------------------------------------
Total Dipole Moment    :     -0.140737652      -0.438425997       0.405759107
                        -----------------------------------------
Magnitude (a.u.)       :      0.613730311
Magnitude (Debye)      :      1.559978476

Rotational constants in cm-1:             1.019648             0.142932             0.134659
Rotational constants in MHz :         30568.280241          4284.990232          4036.972975

                             ****ORCA TERMINATED NORMALLY****
TOTAL RUN TIME: 0 days 0 hours 0 minutes 23 seconds 318 msec
