                         Program Version 6.0.1  -  RELEASE   -
|  1> ! pbe def2-sv(p) def2/J RI DEFGRID1 loosescf d4 GCP(DFT/SV(P)) printgap
|  2> %output
|  3>     printlevel normal
|  4> end
|  5> * xyz 0 1
|  6> C -2.5241022839 -0.8265288101 1.073423511
|  7> C -2.0292043263 -0.3657222615 -0.3021059868
|  8> H -2.9115220045 -0.2467147462 -0.9424710431
|  9> C -1.0705121912 -1.3609076863 -0.9510818713
| 10> C 0.2596595495 -1.4851951583 -0.201377016
| 11> C 0.7687801658 -0.1326394837 0.3321375213
| 12> H 0.486419412 -0.0394927011 1.3860230291
| 13> C 0.0949781534 1.0361253948 -0.4053669875
| 14> C -1.3932190472 1.0069565015 -0.1675589213
| 15> O -2.0318064994 1.9882324223 0.1214065509
| 16> C 2.271245296 0.0043777332 0.2589245256
| 17> C 2.9775039212 0.3178285693 1.3340703016
| 18> C 2.9321778741 -0.209924562 -1.0718359892
| 19> H -1.6939547755 -0.9714169388 1.7593186337
| 20> H -3.1908336131 -0.0772552108 1.4931325521
| 21> H -3.0655567737 -1.7653398935 0.9805542531
| 22> H -1.5468146889 -2.3420783285 -1.0039993813
| 23> H -0.8812142576 -1.0400662208 -1.9781643428
| 24> H 0.1489061729 -2.175136692 0.6363206044
| 25> H 0.991878908 -1.9237143082 -0.8790506612
| 26> H 0.4984731276 1.9898108384 -0.0606354833
| 27> H 0.2703050307 0.9607837033 -1.4805991286
| 28> H 4.0467612867 0.4409204396 1.2956312317
| 29> H 2.51935731 0.4633917821 2.2976571715
| 30> H 2.2960941234 0.1172171443 -1.8903692282
| 31> H 3.8715095382 0.3347500646 -1.1204211864
| 32> H 3.1555669275 -1.266880019 -1.2192615188
| 33> *
| 34>
| 35>                          ****END OF INPUT****

CARTESIAN COORDINATES (ANGSTROEM)
---------------------------------
  C     -2.524102   -0.826529    1.073424
  C     -2.029204   -0.365722   -0.302106
  H     -2.911522   -0.246715   -0.942471
  C     -1.070512   -1.360908   -0.951082
  C      0.259660   -1.485195   -0.201377
  C      0.768780   -0.132639    0.332138
  H      0.486419   -0.039493    1.386023
  C      0.094978    1.036125   -0.405367
  C     -1.393219    1.006957   -0.167559
  O     -2.031806    1.988232    0.121407
  C      2.271245    0.004378    0.258925
  C      2.977504    0.317829    1.334070
  C      2.932178   -0.209925   -1.071836
  H     -1.693955   -0.971417    1.759319
  H     -3.190834   -0.077255    1.493133
  H     -3.065557   -1.765340    0.980554
  H     -1.546815   -2.342078   -1.003999
  H     -0.881214   -1.040066   -1.978164
  H      0.148906   -2.175137    0.636321
  H      0.991879   -1.923714   -0.879051
  H      0.498473    1.989811   -0.060635
  H      0.270305    0.960784   -1.480599
  H      4.046761    0.440920    1.295631
  H      2.519357    0.463392    2.297657
  H      2.296094    0.117217   -1.890369
  H      3.871510    0.334750   -1.120421
  H      3.155567   -1.266880   -1.219262

 Total Charge           Charge          ....    0
 Multiplicity           Mult            ....    1
 Number of Electrons    NEL             ....   84
 Basis Dimension        Dim             ....  186

ORBITAL ENERGIES
----------------

  NO   OCC          E(Eh)            E(eV)
   0   2.0000     -18.738411      -509.8981
   1   2.0000      -9.968848      -271.2661
   2   2.0000      -9.908628      -269.6275
   3   2.0000      -9.904688      -269.5203
   4   2.0000      -9.901467      -269.4326
   5   2.0000      -9.894281      -269.2371
   6   2.0000      -9.893731      -269.2221
   7   2.0000      -9.893488      -269.2155
   8   2.0000      -9.888294      -269.0742
   9   2.0000      -9.885716      -269.0040
  10   2.0000      -9.876001      -268.7397
  11   2.0000      -0.938440       -25.5363
  12   2.0000      -0.773768       -21.0553
  13   2.0000      -0.730496       -19.8778
  14   2.0000      -0.682650       -18.5759
  15   2.0000      -0.659874       -17.9561
  16   2.0000      -0.622783       -16.9468
  17   2.0000      -0.611022       -16.6267
  18   2.0000      -0.553221       -15.0539
  19   2.0000      -0.532375       -14.4867
  20   2.0000      -0.477735       -12.9998
  21   2.0000      -0.458106       -12.4657
  22   2.0000      -0.444534       -12.0964
  23   2.0000      -0.426327       -11.6009
  24   2.0000      -0.412324       -11.2199
  25   2.0000      -0.403580       -10.9820
  26   2.0000      -0.392324       -10.6757
  27   2.0000      -0.381284       -10.3753
  28   2.0000      -0.369695       -10.0599
  29   2.0000      -0.361496        -9.8368
  30   2.0000      -0.355966        -9.6863
  31   2.0000      -0.347159        -9.4467
  32   2.0000      -0.339564        -9.2400
  33   2.0000      -0.331681        -9.0255
  34   2.0000      -0.320830        -8.7302
  35   2.0000      -0.314194        -8.5497
  36   2.0000      -0.308225        -8.3872
  37   2.0000      -0.291392        -7.9292
  38   2.0000      -0.277868        -7.5612
  39   2.0000      -0.277423        -7.5491
  40   2.0000      -0.222730        -6.0608
  41   2.0000      -0.190545        -5.1850
  42   0.0000      -0.050766        -1.3814
  43   0.0000      -0.016641        -0.4528
  44   0.0000       0.022659         0.6166
  45   0.0000       0.035577         0.9681
  46   0.0000       0.054350         1.4789

MULLIKEN ATOMIC CHARGES
-----------------------
   0 C :   -0.255954
   1 C :   -0.176559
   2 H :    0.090666
   3 C :   -0.090128
   4 C :   -0.123706
   5 C :   -0.191099
   6 H :    0.068379
   7 C :   -0.069858
   8 C :    0.013000
   9 O :   -0.153858
  10 C :   -0.018684
  11 C :   -0.229448
  12 C :   -0.235647
  13 H :    0.109222
  14 H :    0.119969
  15 H :    0.105861
  16 H :    0.086136
  17 H :    0.074808
  18 H :    0.090552
  19 H :    0.084915
  20 H :    0.092154
  21 H :    0.101940
  22 H :    0.080646
  23 H :    0.087083
  24 H :    0.105601
  25 H :    0.108874
  26 H :    0.125134
Sum of atomic charges:   -0.0000000

LOEWDIN ATOMIC CHARGES
----------------------
   0 C :   -0.319959
   1 C :   -0.175941
   2 H :    0.137362
   3 C :   -0.219798
   4 C :   -0.218010
   5 C :   -0.127396
   6 H :    0.122181
   7 C :   -0.232852
   8 C :    0.051039
   9 O :   -0.122114
  10 C :   -0.048982
  11 C :   -0.263218
  12 C :   -0.326527
  13 H :    0.118615
  14 H :    0.128672
  15 H :    0.121822
  16 H :    0.121706
  17 H :    0.116715
  18 H :    0.122370
  19 H :    0.122295
  20 H :    0.133748
  21 H :    0.137430
  22 H :    0.116802
  23 H :    0.117854
  24 H :    0.121290
  25 H :    0.130871
  26 H :    0.134027

  Mayer bond orders larger than 0.100000
B(  0-C ,  1-C ) :   1.0953 B(  0-C , 13-H ) :   0.9444 B(  0-C , 14-H ) :   0.9428
B(  0-C , 15-H ) :   0.9474 B(  1-C ,  2-H ) :   0.8711 B(  1-C ,  3-C ) :   1.1036
B(  1-C ,  8-C ) :   0.9172 B(  3-C ,  4-C ) :   1.1530 B(  3-C , 16-H ) :   0.9106
B(  3-C , 17-H ) :   0.8935 B(  4-C ,  5-C ) :   1.0595 B(  4-C , 18-H ) :   0.9142
B(  4-C , 19-H ) :   0.9011 B(  5-C ,  6-H ) :   0.8753 B(  5-C ,  7-C ) :   1.1000
B(  5-C , 10-C ) :   1.0193 B(  7-C ,  8-C ) :   1.0624 B(  7-C , 20-H ) :   0.8965
B(  7-C , 21-H ) :   0.8502 B(  8-C ,  9-O ) :   2.1969 B( 10-C , 11-C ) :   2.0396
B( 10-C , 12-C ) :   1.1059 B( 11-C , 22-H ) :   0.9081 B( 11-C , 23-H ) :   0.9082
B( 12-C , 24-H ) :   0.9326 B( 12-C , 25-H ) :   0.9351 B( 12-C , 26-H ) :   0.9201

Dispersion correction           -0.028803991
FINAL SINGLE POINT ENERGY      -464.823296263728

DIPOLE MOMENT
-------------

Method             : SCF
Type of density    : Electron Density
Multiplicity       :   1
Irrep              :   0
Energy             :  -464.9087892229207455 Eh
Relativity type    :
Basis              : AO
                                X                 Y                 Z
Electronic contribution:     -4.176259568       6.098210461       0.323150607
Nuclear contribution   :      4.656365185      -7.045438287      -0.679622417
                        -----------------------------------------
Total Dipole Moment    :      0.480105617      -0.947227825      -0.356471809
                        -----------------------------------------
Magnitude (a.u.)       :      1.120184854
Magnitude (Debye)      :      2.847283622

Rotational constants in cm-1:             0.062110             0.024335             0.021707
Rotational constants in MHz :          1862.004120           729.533677           650.769912

                             ****ORCA TERMINATED NORMALLY****
TOTAL RUN TIME: 0 days 0 hours 0 minutes 26 seconds 922 msec
