                         Program Version 6.0.1  -  RELEASE   -
|  1> ! r2scan-3c def2/J RI DEFGRID2 scfconv6 printgap
|  2> %output
|  3>     printlevel normal
|  4> end
|  5> * xyz 0 1
|  6> C 1.3065443051 -0.949832661 -0.3750665581
|  7> C 0.5270875605 0.0696542997 0.4603918303
|  8> C 0.728840686 1.4873472615 -0.0821963108
|  9> O -0.8405738197 -0.2738264476 0.620434888
| 10> C -1.6263171242 -0.3200876469 -0.5454171427
| 11> H 2.3722986833 -0.7712605181 -0.2627637662
| 12> H 1.0823533388 -1.9583540917 -0.0357801603
| 13> H 1.054620102 -0.8670384094 -1.4300241524
| 14> H 0.8965864711 0.0331976071 1.4927277159
| 15> H 0.4845694543 1.5406564808 -1.1408298291
| 16> H 1.7675887434 1.779409521 0.0443131562
| 17> H 0.0991502399 2.1872659038 0.4619078546
| 18> H -1.2679354021 -1.0736147481 -1.2544585225
| 19> H -1.6759229008 0.6514779576 -1.0478924784
| 20> H -2.6260739512 -0.5961261184 -0.2136097798
| 21> *
| 22>
| 23>                          ****END OF INPUT****

CARTESIAN COORDINATES (ANGSTROEM)
---------------------------------
  C      1.306544   -0.949833   -0.375067
  C      0.527088    0.069654    0.460392
  C      0.728841    1.487347   -0.082196
  O     -0.840574   -0.273826    0.620435
  C     -1.626317   -0.320088   -0.545417
  H      2.372299   -0.771261   -0.262764
  H      1.082353   -1.958354   -0.035780
  H      1.054620   -0.867038   -1.430024
  H      0.896586    0.033198    1.492728
  H      0.484569    1.540656   -1.140830
  H      1.767589    1.779410    0.044313
  H      0.099150    2.187266    0.461908
  H     -1.267935   -1.073615   -1.254459
  H     -1.675923    0.651478   -1.047892
  H     -2.626074   -0.596126   -0.213610

 Total Charge           Charge          ....    0
 Multiplicity           Mult            ....    1
 Number of Electrons    NEL             ....   42
 Basis Dimension        Dim             ....  150

ORBITAL ENERGIES
----------------

  NO   OCC          E(Eh)            E(eV)
   0   2.0000     -18.943482      -515.4784
   1   2.0000     -10.080475      -274.3037
   2   2.0000     -10.064978      -273.8820
   3   2.0000     -10.018355      -272.6133
   4   2.0000     -10.018348      -272.6131
   5   2.0000      -0.990823       -26.9617
   6   2.0000      -0.744669       -20.2635
   7   2.0000      -0.656213       -17.8565
   8   2.0000      -0.652430       -17.7535
   9   2.0000      -0.535609       -14.5747
  10   2.0000      -0.459832       -12.5127
  11   2.0000      -0.433358       -11.7923
  12   2.0000      -0.420040       -11.4299
  13   2.0000      -0.378728       -10.3057
  14   2.0000      -0.375753       -10.2247
  15   2.0000      -0.367594       -10.0028
  16   2.0000      -0.351309        -9.5596
  17   2.0000      -0.317681        -8.6445
  18   2.0000      -0.317642        -8.6435
  19   2.0000      -0.265673        -7.2293
  20   2.0000      -0.216114        -5.8808
  21   0.0000       0.078195         2.1278
  22   0.0000       0.092548         2.5184
  23   0.0000       0.126091         3.4311
  24   0.0000       0.126518         3.4427
  25   0.0000       0.138459         3.7677

MULLIKEN ATOMIC CHARGES
-----------------------
   0 C :   -0.480210
   1 C :    0.018138
   2 C :   -0.480360
   3 O :   -0.226294
   4 C :   -0.301323
   5 H :    0.145158
   6 H :    0.162441
   7 H :    0.146164
   8 H :    0.144876
   9 H :    0.146155
  10 H :    0.145191
  11 H :    0.162452
  12 H :    0.135386
  13 H :    0.135380
  14 H :    0.146845
Sum of atomic charges:   -0.0000000

LOEWDIN ATOMIC CHARGES
----------------------
   0 C :   -0.402059
   1 C :    0.040639
   2 C :   -0.402084
   3 O :   -0.781057
   4 C :   -0.072581
   5 H :    0.159163
   6 H :    0.162608
   7 H :    0.153651
   8 H :    0.182425
   9 H :    0.153635
  10 H :    0.159160
  11 H :    0.162614
  12 H :    0.153967
  13 H :    0.153977
  14 H :    0.175943

  Mayer bond orders larger than 0.100000
B(  0-C ,  1-C ) :   0.9288 B(  0-C ,  5-H ) :   0.9642 B(  0-C ,  6-H ) :   0.9702
B(  0-C ,  7-H ) :   0.9739 B(  1-C ,  2-C ) :   0.9287 B(  1-C ,  3-O ) :   0.9177
B(  1-C ,  8-H ) :   0.9571 B(  2-C ,  9-H ) :   0.9740 B(  2-C , 10-H ) :   0.9642
B(  2-C , 11-H ) :   0.9702 B(  3-O ,  4-C ) :   0.8972 B(  4-C , 12-H ) :   0.9622
B(  4-C , 13-H ) :   0.9622 B(  4-C , 14-H ) :   0.9741

Dispersion correction           -0.003242561
FINAL SINGLE POINT ENERGY      -233.584776605843

DIPOLE MOMENT
-------------

Method             : SCF
Type of density    : Electron Density
Multiplicity       :   1
Irrep              :   0
Energy             :  -233.5915525199749538 Eh
Relativity type    :
Basis              : AO
                                X                 Y                 Z
Electronic contribution:     -1.792413462      -0.755523287       2.750382401
Nuclear contribution   :      2.039510238       0.864313516      -3.167799776
                        -----------------------------------------
Total Dipole Moment    :      0.247096776       0.108790229      -0.417417375
                        -----------------------------------------
Magnitude (a.u.)       :      0.497121107
Magnitude (Debye)      :      1.263581437

Rotational constants in cm-1:             0.216440             0.138932             0.108851
Rotational constants in MHz :          6488.720121          4165.075024          3263.270804

                             ****ORCA TERMINATED NORMALLY****
TOTAL RUN TIME: 0 days 0 hours 0 minutes 23 seconds 90 msec
