                         Program Version 6.0.1  -  RELEASE   -
|  1> ! pbe def2-sv(p) def2/J RI DEFGRID1 loosescf d4 GCP(DFT/SV(P)) printgap
|  2> %output
|  3>     printlevel normal
|  4> end
|  5> * xyz 0 1
|  6> C -1.5900997156 0.1456827918 -0.5045209001
|  7> C -0.6710424957 -0.492357565 0.5314263494
|  8> C 0.6890496263 0.2171090676 0.63347452
|  9> N 1.533138913 0.1317613969 -0.5437201428
| 10> H -1.1633147791 0.0756112994 -1.5035306827
| 11> H -2.5549835027 -0.3560401607 -0.5169843534
| 12> H -1.751538873 1.1965533641 -0.2725931612
| 13> H -0.5075234437 -1.5434998574 0.2770907101
| 14> H -1.1523068676 -0.4586533021 1.5107816518
| 15> H 0.5297643629 1.2779411504 0.8461002398
| 16> H 1.2528263809 -0.2129567563 1.4668222086
| 17> H 1.6965234992 -0.8403242783 -0.7860147423
| 18> H 1.0790552829 0.5743076545 -1.3352931492
| 19> *
| 20>
| 21>                          ****END OF INPUT****

CARTESIAN COORDINATES (ANGSTROEM)
---------------------------------
  C     -1.590100    0.145683   -0.504521
  C     -0.671042   -0.492358    0.531426
  C      0.689050    0.217109    0.633475
  N      1.533139    0.131761   -0.543720
  H     -1.163315    0.075611   -1.503531
  H     -2.554984   -0.356040   -0.516984
  H     -1.751539    1.196553   -0.272593
  H     -0.507523   -1.543500    0.277091
  H     -1.152307   -0.458653    1.510782
  H      0.529764    1.277941    0.846100
  H      1.252826   -0.212957    1.466822
  H      1.696523   -0.840324   -0.786015
  H      1.079055    0.574308   -1.335293

 Total Charge           Charge          ....    0
 Multiplicity           Mult            ....    1
 Number of Electrons    NEL             ....   34
 Basis Dimension        Dim             ....   74

ORBITAL ENERGIES
----------------

  NO   OCC          E(Eh)            E(eV)
   0   2.0000     -13.955049      -379.7362
   1   2.0000      -9.902503      -269.4608
   2   2.0000      -9.881362      -268.8855
   3   2.0000      -9.876424      -268.7511
   4   2.0000      -0.792663       -21.5694
   5   2.0000      -0.685019       -18.6403
   6   2.0000      -0.593145       -16.1403
   7   2.0000      -0.517773       -14.0893
   8   2.0000      -0.444996       -12.1090
   9   2.0000      -0.406374       -11.0580
  10   2.0000      -0.388925       -10.5832
  11   2.0000      -0.366631        -9.9765
  12   2.0000      -0.336654        -9.1608
  13   2.0000      -0.310423        -8.4470
  14   2.0000      -0.295240        -8.0339
  15   2.0000      -0.291032        -7.9194
  16   2.0000      -0.179320        -4.8795
  17   0.0000       0.029701         0.8082
  18   0.0000       0.065095         1.7713
  19   0.0000       0.067496         1.8366
  20   0.0000       0.087647         2.3850
  21   0.0000       0.111155         3.0247

MULLIKEN ATOMIC CHARGES
-----------------------
   0 C :   -0.291514
   1 C :   -0.187683
   2 C :   -0.088516
   3 N :   -0.450859
   4 H :    0.085110
   5 H :    0.107374
   6 H :    0.099160
   7 H :    0.077346
   8 H :    0.080228
   9 H :    0.082989
  10 H :    0.087036
  11 H :    0.197646
  12 H :    0.201683
Sum of atomic charges:   -0.0000000

LOEWDIN ATOMIC CHARGES
----------------------
   0 C :   -0.347534
   1 C :   -0.258668
   2 C :   -0.181882
   3 N :   -0.406735
   4 H :    0.107567
   5 H :    0.121325
   6 H :    0.117303
   7 H :    0.109401
   8 H :    0.115757
   9 H :    0.110621
  10 H :    0.110948
  11 H :    0.201212
  12 H :    0.200685

  Mayer bond orders larger than 0.100000
B(  0-C ,  1-C ) :   1.1428 B(  0-C ,  4-H ) :   0.9456 B(  0-C ,  5-H ) :   0.9531
B(  0-C ,  6-H ) :   0.9562 B(  1-C ,  2-C ) :   1.0816 B(  1-C ,  7-H ) :   0.9263
B(  1-C ,  8-H ) :   0.9143 B(  2-C ,  3-N ) :   1.1506 B(  2-C ,  9-H ) :   0.9344
B(  2-C , 10-H ) :   0.9353 B(  3-N , 11-H ) :   0.9103 B(  3-N , 12-H ) :   0.9099

Dispersion correction           -0.007408111
FINAL SINGLE POINT ENERGY      -174.033147872303

DIPOLE MOMENT
-------------

Method             : SCF
Type of density    : Electron Density
Multiplicity       :   1
Irrep              :   0
Energy             :  -174.0831691235526080 Eh
Relativity type    :
Basis              : AO
                                X                 Y                 Z
Electronic contribution:      1.995644471       0.011688520       0.140175014
Nuclear contribution   :     -2.404105243      -0.268589736      -0.297198368
                        -----------------------------------------
Total Dipole Moment    :     -0.408460772      -0.256901217      -0.157023354
                        -----------------------------------------
Magnitude (a.u.)       :      0.507439426
Magnitude (Debye)      :      1.289808519

Rotational constants in cm-1:             0.464870             0.163910             0.140370
Rotational constants in MHz :         13936.462007          4913.894816          4208.172574

                             ****ORCA TERMINATED NORMALLY****
TOTAL RUN TIME: 0 days 0 hours 0 minutes 14 seconds 401 msec
