                         Program Version 6.0.1  -  RELEASE   -
|  1> ! pbe def2-sv(p) def2/J RI DEFGRID1 loosescf d4 GCP(DFT/SV(P)) printgap
|  2> %output
|  3>     printlevel normal
|  4> end
|  5> * xyz 0 1
|  6> C -2.2204076515 -1.1851840567 0.0649563014
|  7> C -1.1739733649 -0.3309856933 0.7969750658
|  8> H -1.6237608726 -0.0178880339 1.7463093611
|  9> C -0.8337938747 0.9444359856 0.0083211633
| 10> H -0.9734786025 0.7767308411 -1.0708621658
| 11> C 0.6377753527 1.2852637754 0.2491860327
| 12> H 0.8073108743 1.3866380191 1.335643633
| 13> C 1.50755979 0.1463655134 -0.294884596
| 14> H 1.4273380135 0.1275723415 -1.3879095786
| 15> C 1.0217278649 -1.2206741569 0.2658529661
| 16> H 1.8320517566 -1.6705870958 0.8562287913
| 17> O -0.0249247393 -1.0601012459 1.1958521382
| 18> O 0.7375007454 -2.1308824791 -0.7349323663
| 19> O 2.8667551652 0.403323503 -0.0339281155
| 20> O 0.9312933877 2.5033405718 -0.3939819214
| 21> O -1.682588168 1.9726873122 0.4470834027
| 22> O -1.8417572207 -1.3912783726 -1.2867773797
| 23> H -3.1753390302 -0.6500314565 0.106535585
| 24> H -2.3112255672 -2.1436174897 0.5889541087
| 25> H -0.1173262637 -1.8947586237 -1.1440039376
| 26> H 3.0317967532 0.3096164389 0.9120933906
| 27> H 1.8839143461 2.5246391091 -0.5522133874
| 28> H -1.3039010719 2.8023736497 0.1278873292
| 29> H -2.4884529854 -1.9673344141 -1.7075844665
| 30> *
| 31>
| 32>                          ****END OF INPUT****

CARTESIAN COORDINATES (ANGSTROEM)
---------------------------------
  C     -2.220408   -1.185184    0.064956
  C     -1.173973   -0.330986    0.796975
  H     -1.623761   -0.017888    1.746309
  C     -0.833794    0.944436    0.008321
  H     -0.973479    0.776731   -1.070862
  C      0.637775    1.285264    0.249186
  H      0.807311    1.386638    1.335644
  C      1.507560    0.146366   -0.294885
  H      1.427338    0.127572   -1.387910
  C      1.021728   -1.220674    0.265853
  H      1.832052   -1.670587    0.856229
  O     -0.024925   -1.060101    1.195852
  O      0.737501   -2.130882   -0.734932
  O      2.866755    0.403324   -0.033928
  O      0.931293    2.503341   -0.393982
  O     -1.682588    1.972687    0.447083
  O     -1.841757   -1.391278   -1.286777
  H     -3.175339   -0.650031    0.106536
  H     -2.311226   -2.143617    0.588954
  H     -0.117326   -1.894759   -1.144004
  H      3.031797    0.309616    0.912093
  H      1.883914    2.524639   -0.552213
  H     -1.303901    2.802374    0.127887
  H     -2.488453   -1.967334   -1.707584

 Total Charge           Charge          ....    0
 Multiplicity           Mult            ....    1
 Number of Electrons    NEL             ....   96
 Basis Dimension        Dim             ....  192

ORBITAL ENERGIES
----------------

  NO   OCC          E(Eh)            E(eV)
   0   2.0000     -18.790963      -511.3281
   1   2.0000     -18.766209      -510.6545
   2   2.0000     -18.761689      -510.5315
   3   2.0000     -18.753656      -510.3129
   4   2.0000     -18.747086      -510.1342
   5   2.0000     -18.733066      -509.7526
   6   2.0000      -9.979003      -271.5425
   7   2.0000      -9.951123      -270.7838
   8   2.0000      -9.949458      -270.7385
   9   2.0000      -9.940328      -270.4901
  10   2.0000      -9.938157      -270.4310
  11   2.0000      -9.938049      -270.4281
  12   2.0000      -0.977729       -26.6054
  13   2.0000      -0.956575       -26.0297
  14   2.0000      -0.946322       -25.7507
  15   2.0000      -0.933450       -25.4005
  16   2.0000      -0.914684       -24.8898
  17   2.0000      -0.898756       -24.4564
  18   2.0000      -0.709309       -19.3013
  19   2.0000      -0.690546       -18.7907
  20   2.0000      -0.627272       -17.0689
  21   2.0000      -0.584275       -15.8989
  22   2.0000      -0.569946       -15.5090
  23   2.0000      -0.529141       -14.3986
  24   2.0000      -0.497886       -13.5482
  25   2.0000      -0.492992       -13.4150
  26   2.0000      -0.477021       -12.9804
  27   2.0000      -0.453269       -12.3341
  28   2.0000      -0.447165       -12.1680
  29   2.0000      -0.431339       -11.7373
  30   2.0000      -0.424271       -11.5450
  31   2.0000      -0.418535       -11.3889
  32   2.0000      -0.398845       -10.8531
  33   2.0000      -0.377378       -10.2690
  34   2.0000      -0.353265        -9.6128
  35   2.0000      -0.342976        -9.3329
  36   2.0000      -0.330514        -8.9938
  37   2.0000      -0.319264        -8.6876
  38   2.0000      -0.305687        -8.3182
  39   2.0000      -0.300028        -8.1642
  40   2.0000      -0.290075        -7.8933
  41   2.0000      -0.274250        -7.4627
  42   2.0000      -0.258932        -7.0459
  43   2.0000      -0.247090        -6.7237
  44   2.0000      -0.238656        -6.4942
  45   2.0000      -0.218597        -5.9483
  46   2.0000      -0.213856        -5.8193
  47   2.0000      -0.199339        -5.4243
  48   0.0000       0.005043         0.1372
  49   0.0000       0.020907         0.5689
  50   0.0000       0.034747         0.9455
  51   0.0000       0.058319         1.5869
  52   0.0000       0.067753         1.8437

MULLIKEN ATOMIC CHARGES
-----------------------
   0 C :    0.034392
   1 C :    0.048024
   2 H :    0.087883
   3 C :    0.017063
   4 H :    0.070827
   5 C :    0.067676
   6 H :    0.041836
   7 C :    0.002657
   8 H :    0.071750
   9 C :    0.211653
  10 H :    0.051818
  11 O :   -0.307269
  12 O :   -0.416867
  13 O :   -0.418215
  14 O :   -0.428341
  15 O :   -0.420128
  16 O :   -0.441030
  17 H :    0.096310
  18 H :    0.096666
  19 H :    0.293024
  20 H :    0.301164
  21 H :    0.306153
  22 H :    0.310272
  23 H :    0.322683
Sum of atomic charges:    0.0000000

LOEWDIN ATOMIC CHARGES
----------------------
   0 C :   -0.132769
   1 C :   -0.059764
   2 H :    0.131098
   3 C :   -0.073403
   4 H :    0.104941
   5 C :   -0.087741
   6 H :    0.098123
   7 C :   -0.098242
   8 H :    0.120071
   9 C :   -0.004776
  10 H :    0.104777
  11 O :   -0.145141
  12 O :   -0.323132
  13 O :   -0.310271
  14 O :   -0.329546
  15 O :   -0.321081
  16 O :   -0.322659
  17 H :    0.117031
  18 H :    0.111465
  19 H :    0.262749
  20 H :    0.284537
  21 H :    0.286044
  22 H :    0.287956
  23 H :    0.299730

  Mayer bond orders larger than 0.100000
B(  0-C ,  1-C ) :   1.0911 B(  0-C , 16-O ) :   1.0098 B(  0-C , 17-H ) :   0.9110
B(  0-C , 18-H ) :   0.9105 B(  1-C ,  2-H ) :   0.8781 B(  1-C ,  3-C ) :   0.9878
B(  1-C , 11-O ) :   1.0258 B(  3-C ,  4-H ) :   0.8765 B(  3-C ,  5-C ) :   1.0210
B(  3-C , 15-O ) :   1.0788 B(  5-C ,  6-H ) :   0.8609 B(  5-C ,  7-C ) :   1.0144
B(  5-C , 14-O ) :   1.0805 B(  7-C ,  8-H ) :   0.8739 B(  7-C ,  9-C ) :   0.9634
B(  7-C , 13-O ) :   1.0122 B(  9-C , 10-H ) :   0.8940 B(  9-C , 11-O ) :   1.0493
B(  9-C , 12-O ) :   1.1452 B( 12-O , 19-H ) :   0.7800 B( 13-O , 20-H ) :   0.8486
B( 14-O , 21-H ) :   0.8294 B( 15-O , 22-H ) :   0.8351 B( 16-O , 19-H ) :   0.1422
B( 16-O , 23-H ) :   0.8374

Dispersion correction           -0.024995323
FINAL SINGLE POINT ENERGY      -685.695261035328

DIPOLE MOMENT
-------------

Method             : SCF
Type of density    : Electron Density
Multiplicity       :   1
Irrep              :   0
Energy             :  -685.8285847530158890 Eh
Relativity type    :
Basis              : AO
                                X                 Y                 Z
Electronic contribution:      2.139045478       0.313300218       0.185466318
Nuclear contribution   :     -2.810287159      -0.386484270      -0.189190970
                        -----------------------------------------
Total Dipole Moment    :     -0.671241681      -0.073184053      -0.003724652
                        -----------------------------------------
Magnitude (a.u.)       :      0.675229718
Magnitude (Debye)      :      1.716297547

Rotational constants in cm-1:             0.038660             0.030513             0.020618
Rotational constants in MHz :          1159.011954           914.745532           618.106672

                             ****ORCA TERMINATED NORMALLY****
TOTAL RUN TIME: 0 days 0 hours 0 minutes 14 seconds 227 msec
