                         Program Version 6.0.1  -  RELEASE   -
|  1> ! pbe def2-sv(p) def2/J RI DEFGRID1 loosescf d4 GCP(DFT/SV(P)) printgap
|  2> %output
|  3>     printlevel normal
|  4> end
|  5> * xyz 0 1
|  6> C -2.1206745915 -1.3521398818 -0.0127768626
|  7> C -0.951630336 -0.5445461484 0.584088198
|  8> H -1.2545809469 -0.1578282297 1.5695804479
|  9> C -0.6123883173 0.6546042058 -0.3089991524
| 10> H -0.5037004897 0.3254087681 -1.3538649176
| 11> C 0.718213943 1.2660203127 0.141693405
| 12> H 0.6376729863 1.5556790014 1.2009091874
| 13> C 1.8407111979 0.22891805 0.0203636068
| 14> H 2.3418416716 0.3954421422 -0.9422152605
| 15> C 1.2805687406 -1.2129535541 0.0037128106
| 16> H 2.0304347446 -1.8857339117 0.454314952
| 17> O 0.1579608729 -1.40065875 0.8169635627
| 18> O 1.0361274489 -1.5679766253 -1.326481804
| 19> O 2.717062419 0.4182926028 1.1000799365
| 20> O 1.0442127737 2.3768605869 -0.6473504591
| 21> O -1.6020615003 1.6522205775 -0.2132589341
| 22> O -3.3146896311 -0.6039299279 -0.0361255225
| 23> H -2.2407165073 -2.2809176227 0.5583973275
| 24> H -1.9055344247 -1.6043912228 -1.0542479683
| 25> H 0.6949991915 -2.4706054957 -1.3530437329
| 26> H 3.5456750358 -0.0427080449 0.9304313878
| 27> H 0.2557047355 2.9339378335 -0.6846326599
| 28> H -2.4509632208 1.2419501172 -0.4373017892
| 29> H -3.6085025928 -0.4556002201 0.8704733611
| 30> *
| 31>
| 32>                          ****END OF INPUT****

CARTESIAN COORDINATES (ANGSTROEM)
---------------------------------
  C     -2.120675   -1.352140   -0.012777
  C     -0.951630   -0.544546    0.584088
  H     -1.254581   -0.157828    1.569580
  C     -0.612388    0.654604   -0.308999
  H     -0.503700    0.325409   -1.353865
  C      0.718214    1.266020    0.141693
  H      0.637673    1.555679    1.200909
  C      1.840711    0.228918    0.020364
  H      2.341842    0.395442   -0.942215
  C      1.280569   -1.212954    0.003713
  H      2.030435   -1.885734    0.454315
  O      0.157961   -1.400659    0.816964
  O      1.036127   -1.567977   -1.326482
  O      2.717062    0.418293    1.100080
  O      1.044213    2.376861   -0.647350
  O     -1.602062    1.652221   -0.213259
  O     -3.314690   -0.603930   -0.036126
  H     -2.240717   -2.280918    0.558397
  H     -1.905534   -1.604391   -1.054248
  H      0.694999   -2.470605   -1.353044
  H      3.545675   -0.042708    0.930431
  H      0.255705    2.933938   -0.684633
  H     -2.450963    1.241950   -0.437302
  H     -3.608503   -0.455600    0.870473

 Total Charge           Charge          ....    0
 Multiplicity           Mult            ....    1
 Number of Electrons    NEL             ....   96
 Basis Dimension        Dim             ....  192

ORBITAL ENERGIES
----------------

  NO   OCC          E(Eh)            E(eV)
   0   2.0000     -18.778785      -510.9967
   1   2.0000     -18.773596      -510.8555
   2   2.0000     -18.766752      -510.6693
   3   2.0000     -18.749161      -510.1906
   4   2.0000     -18.748164      -510.1635
   5   2.0000     -18.734921      -509.8031
   6   2.0000      -9.987093      -271.7626
   7   2.0000      -9.946674      -270.6628
   8   2.0000      -9.944745      -270.6103
   9   2.0000      -9.937516      -270.4136
  10   2.0000      -9.935503      -270.3588
  11   2.0000      -9.932493      -270.2769
  12   2.0000      -0.986007       -26.8306
  13   2.0000      -0.954421       -25.9711
  14   2.0000      -0.936056       -25.4714
  15   2.0000      -0.927130       -25.2285
  16   2.0000      -0.916693       -24.9445
  17   2.0000      -0.906666       -24.6716
  18   2.0000      -0.703693       -19.1485
  19   2.0000      -0.692810       -18.8523
  20   2.0000      -0.623382       -16.9631
  21   2.0000      -0.586432       -15.9576
  22   2.0000      -0.568883       -15.4801
  23   2.0000      -0.510206       -13.8834
  24   2.0000      -0.502820       -13.6824
  25   2.0000      -0.492804       -13.4099
  26   2.0000      -0.480237       -13.0679
  27   2.0000      -0.466379       -12.6908
  28   2.0000      -0.454666       -12.3721
  29   2.0000      -0.426915       -11.6170
  30   2.0000      -0.410330       -11.1656
  31   2.0000      -0.395582       -10.7643
  32   2.0000      -0.386914       -10.5285
  33   2.0000      -0.369603       -10.0574
  34   2.0000      -0.364233        -9.9113
  35   2.0000      -0.357885        -9.7385
  36   2.0000      -0.333698        -9.0804
  37   2.0000      -0.319077        -8.6825
  38   2.0000      -0.306740        -8.3468
  39   2.0000      -0.298008        -8.1092
  40   2.0000      -0.281364        -7.6563
  41   2.0000      -0.268926        -7.3178
  42   2.0000      -0.259681        -7.0663
  43   2.0000      -0.247372        -6.7313
  44   2.0000      -0.228180        -6.2091
  45   2.0000      -0.222233        -6.0473
  46   2.0000      -0.214116        -5.8264
  47   2.0000      -0.200111        -5.4453
  48   0.0000       0.007048         0.1918
  49   0.0000       0.021462         0.5840
  50   0.0000       0.031145         0.8475
  51   0.0000       0.043748         1.1904
  52   0.0000       0.061932         1.6852

MULLIKEN ATOMIC CHARGES
-----------------------
   0 C :    0.061260
   1 C :    0.007361
   2 H :    0.061683
   3 C :    0.022832
   4 H :    0.066895
   5 C :    0.077912
   6 H :    0.058801
   7 C :    0.091654
   8 H :    0.078733
   9 C :    0.138560
  10 H :    0.046229
  11 O :   -0.307994
  12 O :   -0.392977
  13 O :   -0.408413
  14 O :   -0.414182
  15 O :   -0.434721
  16 O :   -0.433921
  17 H :    0.090849
  18 H :    0.079913
  19 H :    0.300875
  20 H :    0.299105
  21 H :    0.303828
  22 H :    0.298093
  23 H :    0.307626
Sum of atomic charges:    0.0000000

LOEWDIN ATOMIC CHARGES
----------------------
   0 C :   -0.134849
   1 C :   -0.078657
   2 H :    0.107765
   3 C :   -0.087157
   4 H :    0.108230
   5 C :   -0.054743
   6 H :    0.110216
   7 C :   -0.070164
   8 H :    0.117106
   9 C :   -0.011325
  10 H :    0.092317
  11 O :   -0.139040
  12 O :   -0.313706
  13 O :   -0.310463
  14 O :   -0.315839
  15 O :   -0.330987
  16 O :   -0.320319
  17 H :    0.103124
  18 H :    0.113476
  19 H :    0.283072
  20 H :    0.285376
  21 H :    0.283934
  22 H :    0.272484
  23 H :    0.290148

  Mayer bond orders larger than 0.100000
B(  0-C ,  1-C ) :   1.0367 B(  0-C , 16-O ) :   1.0288 B(  0-C , 17-H ) :   0.9228
B(  0-C , 18-H ) :   0.9120 B(  1-C ,  2-H ) :   0.8854 B(  1-C ,  3-C ) :   0.9668
B(  1-C , 11-O ) :   0.9692 B(  3-C ,  4-H ) :   0.8636 B(  3-C ,  5-C ) :   1.0792
B(  3-C , 15-O ) :   1.0680 B(  5-C ,  6-H ) :   0.8574 B(  5-C ,  7-C ) :   1.0292
B(  5-C , 14-O ) :   1.0966 B(  7-C ,  8-H ) :   0.8714 B(  7-C ,  9-C ) :   0.9993
B(  7-C , 13-O ) :   1.0873 B(  9-C , 10-H ) :   0.8965 B(  9-C , 11-O ) :   1.0780
B(  9-C , 12-O ) :   1.0904 B( 12-O , 19-H ) :   0.8375 B( 13-O , 20-H ) :   0.8499
B( 14-O , 21-H ) :   0.8359 B( 15-O , 22-H ) :   0.8060 B( 16-O , 22-H ) :   0.1112
B( 16-O , 23-H ) :   0.8426

Dispersion correction           -0.024552989
FINAL SINGLE POINT ENERGY      -685.693668785860

DIPOLE MOMENT
-------------

Method             : SCF
Type of density    : Electron Density
Multiplicity       :   1
Irrep              :   0
Energy             :  -685.8251778834882089 Eh
Relativity type    :
Basis              : AO
                                X                 Y                 Z
Electronic contribution:      1.815852894       1.106900946       0.427148931
Nuclear contribution   :     -2.305140359      -2.281210297      -0.230822118
                        -----------------------------------------
Total Dipole Moment    :     -0.489287465      -1.174309351       0.196326812
                        -----------------------------------------
Magnitude (a.u.)       :      1.287225269
Magnitude (Debye)      :      3.271866614

Rotational constants in cm-1:             0.043949             0.025802             0.019307
Rotational constants in MHz :          1317.556097           773.536325           578.816463

                             ****ORCA TERMINATED NORMALLY****
TOTAL RUN TIME: 0 days 0 hours 0 minutes 9 seconds 336 msec
