                         Program Version 6.0.1  -  RELEASE   -
|  1> ! pbe def2-sv(p) def2/J RI DEFGRID1 loosescf d4 GCP(DFT/SV(P)) printgap
|  2> %output
|  3>     printlevel normal
|  4> end
|  5> * xyz 0 1
|  6> C -2.2403864065 -1.1823299376 0.1042519443
|  7> C -0.8589401111 -0.5816471949 0.4025802889
|  8> H -0.8147984835 -0.312691108 1.4674033904
|  9> C -0.5832044421 0.6663401818 -0.4439258544
| 10> H -0.5467965276 0.3598272565 -1.5033466509
| 11> C 0.7865890614 1.2751824157 -0.0708192925
| 12> H 0.620539003 2.054048562 0.6849349855
| 13> C 1.73206348 0.2031942255 0.5161795546
| 14> H 2.7613424798 0.4678449684 0.2273286633
| 15> C 1.4055040009 -1.1481635778 -0.1284855556
| 16> H 2.0687195942 -1.9267385551 0.2790056967
| 17> O 0.1076177498 -1.5871228152 0.1226675535
| 18> O 1.633169481 -0.9891902613 -1.5101871034
| 19> O 1.6220298643 0.0563809729 1.9052070242
| 20> O 1.3711406255 1.921664226 -1.1713011162
| 21> O -1.6234358425 1.5999948593 -0.2559147306
| 22> O -3.2779212367 -0.4510419495 0.6874734166
| 23> H -2.2767899504 -2.1871750894 0.5303682386
| 24> H -2.3710798899 -1.2589862326 -0.9861259211
| 25> H 1.3519892477 -1.7993120555 -1.9524573149
| 26> H 1.8801231678 0.8815319059 2.3322070238
| 27> H 1.6423214371 1.2387590535 -1.8005692228
| 28> H -1.384583408 2.4096744946 -0.722692397
| 29> H -3.1531074894 0.4769257043 0.4430460453
| 30> *
| 31>
| 32>                          ****END OF INPUT****

CARTESIAN COORDINATES (ANGSTROEM)
---------------------------------
  C     -2.240386   -1.182330    0.104252
  C     -0.858940   -0.581647    0.402580
  H     -0.814798   -0.312691    1.467403
  C     -0.583204    0.666340   -0.443926
  H     -0.546797    0.359827   -1.503347
  C      0.786589    1.275182   -0.070819
  H      0.620539    2.054049    0.684935
  C      1.732063    0.203194    0.516180
  H      2.761342    0.467845    0.227329
  C      1.405504   -1.148164   -0.128486
  H      2.068720   -1.926739    0.279006
  O      0.107618   -1.587123    0.122668
  O      1.633169   -0.989190   -1.510187
  O      1.622030    0.056381    1.905207
  O      1.371141    1.921664   -1.171301
  O     -1.623436    1.599995   -0.255915
  O     -3.277921   -0.451042    0.687473
  H     -2.276790   -2.187175    0.530368
  H     -2.371080   -1.258986   -0.986126
  H      1.351989   -1.799312   -1.952457
  H      1.880123    0.881532    2.332207
  H      1.642321    1.238759   -1.800569
  H     -1.384583    2.409674   -0.722692
  H     -3.153107    0.476926    0.443046

 Total Charge           Charge          ....    0
 Multiplicity           Mult            ....    1
 Number of Electrons    NEL             ....   96
 Basis Dimension        Dim             ....  192

ORBITAL ENERGIES
----------------

  NO   OCC          E(Eh)            E(eV)
   0   2.0000     -18.779290      -511.0105
   1   2.0000     -18.775579      -510.9095
   2   2.0000     -18.771488      -510.7981
   3   2.0000     -18.768100      -510.7060
   4   2.0000     -18.752953      -510.2938
   5   2.0000     -18.726634      -509.5776
   6   2.0000      -9.995443      -271.9898
   7   2.0000      -9.953175      -270.8397
   8   2.0000      -9.948009      -270.6991
   9   2.0000      -9.947023      -270.6722
  10   2.0000      -9.938956      -270.4527
  11   2.0000      -9.920728      -269.9567
  12   2.0000      -0.993132       -27.0245
  13   2.0000      -0.952838       -25.9281
  14   2.0000      -0.945730       -25.7346
  15   2.0000      -0.932213       -25.3668
  16   2.0000      -0.921917       -25.0866
  17   2.0000      -0.906272       -24.6609
  18   2.0000      -0.706030       -19.2121
  19   2.0000      -0.696733       -18.9591
  20   2.0000      -0.619901       -16.8684
  21   2.0000      -0.592097       -16.1118
  22   2.0000      -0.566843       -15.4246
  23   2.0000      -0.529764       -14.4156
  24   2.0000      -0.510619       -13.8947
  25   2.0000      -0.494363       -13.4523
  26   2.0000      -0.480520       -13.0756
  27   2.0000      -0.458536       -12.4774
  28   2.0000      -0.450771       -12.2661
  29   2.0000      -0.433809       -11.8045
  30   2.0000      -0.418713       -11.3937
  31   2.0000      -0.400793       -10.9061
  32   2.0000      -0.382635       -10.4120
  33   2.0000      -0.372436       -10.1345
  34   2.0000      -0.366192        -9.9646
  35   2.0000      -0.354172        -9.6375
  36   2.0000      -0.348319        -9.4782
  37   2.0000      -0.327505        -8.9119
  38   2.0000      -0.319428        -8.6921
  39   2.0000      -0.307593        -8.3700
  40   2.0000      -0.279666        -7.6101
  41   2.0000      -0.261878        -7.1261
  42   2.0000      -0.253219        -6.8904
  43   2.0000      -0.247976        -6.7478
  44   2.0000      -0.245092        -6.6693
  45   2.0000      -0.227476        -6.1899
  46   2.0000      -0.210522        -5.7286
  47   2.0000      -0.201560        -5.4847
  48   0.0000       0.006895         0.1876
  49   0.0000       0.021159         0.5758
  50   0.0000       0.024496         0.6666
  51   0.0000       0.051853         1.4110
  52   0.0000       0.068208         1.8560

MULLIKEN ATOMIC CHARGES
-----------------------
   0 C :    0.107742
   1 C :   -0.007548
   2 H :    0.074292
   3 C :    0.082398
   4 H :    0.040648
   5 C :    0.066394
   6 H :    0.050002
   7 C :   -0.000656
   8 H :    0.079145
   9 C :    0.179612
  10 H :    0.075337
  11 O :   -0.303005
  12 O :   -0.413128
  13 O :   -0.402677
  14 O :   -0.432587
  15 O :   -0.429551
  16 O :   -0.444290
  17 H :    0.088429
  18 H :    0.050091
  19 H :    0.307783
  20 H :    0.309158
  21 H :    0.307047
  22 H :    0.315925
  23 H :    0.299440
Sum of atomic charges:    0.0000000

LOEWDIN ATOMIC CHARGES
----------------------
   0 C :   -0.120505
   1 C :   -0.068357
   2 H :    0.112967
   3 C :   -0.078545
   4 H :    0.101027
   5 C :   -0.081977
   6 H :    0.111733
   7 C :   -0.090981
   8 H :    0.110582
   9 C :    0.006054
  10 H :    0.103364
  11 O :   -0.131172
  12 O :   -0.323620
  13 O :   -0.304308
  14 O :   -0.320289
  15 O :   -0.315944
  16 O :   -0.340134
  17 H :    0.115089
  18 H :    0.090289
  19 H :    0.288652
  20 H :    0.291715
  21 H :    0.278570
  22 H :    0.294496
  23 H :    0.271293

  Mayer bond orders larger than 0.100000
B(  0-C ,  1-C ) :   1.0288 B(  0-C , 16-O ) :   1.0918 B(  0-C , 17-H ) :   0.9205
B(  0-C , 18-H ) :   0.9015 B(  1-C ,  2-H ) :   0.8716 B(  1-C ,  3-C ) :   1.0806
B(  1-C , 11-O ) :   0.9645 B(  3-C ,  4-H ) :   0.8377 B(  3-C ,  5-C ) :   1.0269
B(  3-C , 15-O ) :   1.0210 B(  5-C ,  6-H ) :   0.8584 B(  5-C ,  7-C ) :   0.9882
B(  5-C , 14-O ) :   1.0346 B(  7-C ,  8-H ) :   0.8858 B(  7-C ,  9-C ) :   1.0365
B(  7-C , 13-O ) :   1.0488 B(  9-C , 10-H ) :   0.8940 B(  9-C , 11-O ) :   1.0938
B(  9-C , 12-O ) :   1.0819 B( 12-O , 19-H ) :   0.8389 B( 13-O , 20-H ) :   0.8464
B( 14-O , 21-H ) :   0.8311 B( 15-O , 22-H ) :   0.8368 B( 16-O , 23-H ) :   0.8223

Dispersion correction           -0.024958649
FINAL SINGLE POINT ENERGY      -685.695113099944

DIPOLE MOMENT
-------------

Method             : SCF
Type of density    : Electron Density
Multiplicity       :   1
Irrep              :   0
Energy             :  -685.8277566854637826 Eh
Relativity type    :
Basis              : AO
                                X                 Y                 Z
Electronic contribution:      1.251026848       0.037128508       0.331714576
Nuclear contribution   :     -0.210867052       0.386905749      -0.942301722
                        -----------------------------------------
Total Dipole Moment    :      1.040159796       0.424034257      -0.610587146
                        -----------------------------------------
Magnitude (a.u.)       :      1.278496819
Magnitude (Debye)      :      3.249680657

Rotational constants in cm-1:             0.042966             0.025371             0.021822
Rotational constants in MHz :          1288.098816           760.609005           654.214372

                             ****ORCA TERMINATED NORMALLY****
TOTAL RUN TIME: 0 days 0 hours 0 minutes 23 seconds 315 msec
