                         Program Version 6.0.0  -   RELEASE  -
|  1> ! r2SCAN-3c DEF2-TZVP FREQ
|  2> * xyzfile 0 1 censo.xyz
|  3>
|  4>                          ****END OF INPUT****

CARTESIAN COORDINATES (ANGSTROEM)
---------------------------------
  C     -1.716309   -0.382222   -0.000044
  C     -0.633728    0.664986    0.000031
  Cl     1.040495   -0.117494    0.000031
  H     -2.685806    0.129814   -0.000042
  H     -1.663998   -1.013713   -0.890649
  H     -1.664040   -1.013798    0.890504
  H     -0.659683    1.292108    0.892110
  H     -0.659643    1.292194   -0.891989

 Total Charge           Charge          ....    0
 Multiplicity           Mult            ....    1
 Number of Electrons    NEL             ....   34
 Basis Dimension        Dim             ....  129

ORBITAL ENERGIES
----------------

  NO   OCC          E(Eh)            E(eV)
   0   2.0000    -101.168216     -2752.9271
   1   2.0000     -10.099277      -274.8153
   2   2.0000     -10.040761      -273.2230
   3   2.0000      -9.344273      -254.2706
   4   2.0000      -7.088979      -192.9009
   5   2.0000      -7.079167      -192.6339
   6   2.0000      -7.079078      -192.6315
   7   2.0000      -0.808371       -21.9969
   8   2.0000      -0.711202       -19.3528
   9   2.0000      -0.589481       -16.0406
  10   2.0000      -0.446883       -12.1603
  11   2.0000      -0.421604       -11.4724
  12   2.0000      -0.383194       -10.4272
  13   2.0000      -0.348148        -9.4736
  14   2.0000      -0.341385        -9.2896
  15   2.0000      -0.266158        -7.2425
  16   2.0000      -0.264612        -7.2005
  17   0.0000      -0.008557        -0.2329
  18   0.0000       0.052233         1.4213
  19   0.0000       0.090136         2.4527
  20   0.0000       0.098243         2.6733
  21   0.0000       0.111588         3.0365

MULLIKEN ATOMIC CHARGES
-----------------------
   0 C :   -0.295261
   1 C :   -0.073175
   2 Cl:   -0.203965
   3 H :    0.104311
   4 H :    0.115681
   5 H :    0.115681
   6 H :    0.118363
   7 H :    0.118363
Sum of atomic charges:   -0.0000000

LOEWDIN ATOMIC CHARGES
----------------------
   0 C :   -0.336351
   1 C :   -0.470672
   2 Cl:    0.191642
   3 H :    0.127319
   4 H :    0.123141
   5 H :    0.123142
   6 H :    0.120889
   7 H :    0.120889

  Mayer bond orders larger than 0.100000
B(  0-C ,  1-C ) :   1.0039 B(  0-C ,  3-H ) :   0.9525 B(  0-C ,  4-H ) :   0.9690
B(  0-C ,  5-H ) :   0.9690 B(  1-C ,  2-Cl) :   1.0173 B(  1-C ,  6-H ) :   0.9646
B(  1-C ,  7-H ) :   0.9646

Dispersion correction           -0.001320270
FINAL SINGLE POINT ENERGY      -539.380957729091

DIPOLE MOMENT
-------------

Method             : SCF
Type of density    : Electron Density
Multiplicity       :   1
Irrep              :   0
Energy             :  -539.3855840262024230 Eh
Relativity type    :
Basis              : AO
                                X                 Y                 Z
Electronic contribution:      7.482350140      -0.506337498       0.000143571
Nuclear contribution   :     -8.342314232       0.805862258      -0.000148507
                        -----------------------------------------
Total Dipole Moment    :     -0.859964092       0.299524760      -0.000004936
                        -----------------------------------------
Magnitude (a.u.)       :      0.910633472
Magnitude (Debye)      :      2.314646339

VIBRATIONAL FREQUENCIES
-----------------------

Scaling factor for frequencies =  1.000000000  (already applied!)

     0:       0.00 cm**-1
     1:       0.00 cm**-1
     2:       0.00 cm**-1
     3:       0.00 cm**-1
     4:       0.00 cm**-1
     5:       0.00 cm**-1
     6:     280.07 cm**-1
     7:     329.39 cm**-1
     8:     601.39 cm**-1
     9:     796.96 cm**-1
    10:     978.09 cm**-1
    11:    1069.11 cm**-1
    12:    1090.70 cm**-1
    13:    1272.44 cm**-1
    14:    1299.97 cm**-1
    15:    1404.44 cm**-1
    16:    1476.95 cm**-1
    17:    1482.10 cm**-1
    18:    1494.04 cm**-1
    19:    3010.88 cm**-1
    20:    3067.94 cm**-1
    21:    3089.26 cm**-1
    22:    3106.57 cm**-1
    23:    3142.41 cm**-1

IR SPECTRUM
-----------

 Mode   freq       eps      Int      T**2         TX        TY        TZ
       cm**-1   L/(mol*cm) km/mol    a.u.
----------------------------------------------------------------------------
  6:    280.07   0.000012    0.06  0.000014  ( 0.000000 -0.000000  0.003692)
  7:    329.39   0.000839    4.24  0.000795  ( 0.027817  0.004611  0.000001)
  8:    601.39   0.007224   36.51  0.003749  (-0.059049  0.016183 -0.000001)
  9:    796.96   0.000590    2.98  0.000231  (-0.000000 -0.000001  0.015198)
 10:    978.09   0.004503   22.76  0.001437  (-0.037488  0.005604 -0.000001)
 11:   1069.11   0.000000    0.00  0.000000  ( 0.000000 -0.000000  0.000205)
 12:   1090.70   0.000155    0.78  0.000044  ( 0.000218  0.006651  0.000000)
 13:   1272.44   0.000072    0.36  0.000018  ( 0.000000 -0.000000  0.004197)
 14:   1299.97   0.007290   36.84  0.001750  ( 0.039626 -0.013404  0.000000)
 15:   1404.44   0.001215    6.14  0.000270  (-0.012513 -0.010649 -0.000001)
 16:   1476.95   0.001885    9.53  0.000398  ( 0.000001  0.000001 -0.019957)
 17:   1482.10   0.000246    1.24  0.000052  ( 0.002841  0.006611  0.000000)
 18:   1494.04   0.000671    3.39  0.000140  ( 0.005254 -0.010612 -0.000000)
 19:   3010.88   0.003526   17.82  0.000365  (-0.018365 -0.005307 -0.000001)
 20:   3067.94   0.001497    7.57  0.000152  (-0.002219  0.012141  0.000001)
 21:   3089.26   0.005171   26.13  0.000522  (-0.010165  0.020470  0.000000)
 22:   3106.57   0.001099    5.55  0.000110  ( 0.000000 -0.000000 -0.010508)
 23:   3142.41   0.003048   15.40  0.000303  ( 0.000001  0.000000 -0.017398)

--------------------------
THERMOCHEMISTRY AT 298.15K
--------------------------

Temperature         ...   298.15 K
Pressure            ...     1.00 atm
Total Mass          ...    64.52 AMU
Quasi RRHO          ...     True
Cut-Off Frequency   ...     1.00 cm^-1

Throughout the following assumptions are being made:
  (1) The electronic state is orbitally nondegenerate
  (2) There are no thermally accessible electronically excited states
  (3) Hindered rotations indicated by low frequency modes are not
      treated as such but are treated as vibrations and this may
      cause some error
  (4) All equations used are the standard statistical mechanics
      equations for an ideal gas
  (5) All vibrations are strictly harmonic

freq.     280.07  E(vib)   ...       0.28
freq.     329.39  E(vib)   ...       0.24
freq.     601.39  E(vib)   ...       0.10
freq.     796.96  E(vib)   ...       0.05
freq.     978.09  E(vib)   ...       0.03
freq.    1069.11  E(vib)   ...       0.02
freq.    1090.70  E(vib)   ...       0.02
freq.    1272.44  E(vib)   ...       0.01
freq.    1299.97  E(vib)   ...       0.01
freq.    1404.44  E(vib)   ...       0.00
freq.    1476.95  E(vib)   ...       0.00
freq.    1482.10  E(vib)   ...       0.00
freq.    1494.04  E(vib)   ...       0.00
freq.    3010.88  E(vib)   ...       0.00
freq.    3067.94  E(vib)   ...       0.00
freq.    3089.26  E(vib)   ...       0.00
freq.    3106.57  E(vib)   ...       0.00
freq.    3142.41  E(vib)   ...       0.00

------------
INNER ENERGY
------------

The inner energy is: U= E(el) + E(ZPE) + E(vib) + E(rot) + E(trans)
    E(el)   - is the total energy from the electronic structure calculation
              = E(kin-el) + E(nuc-el) + E(el-el) + E(nuc-nuc)
    E(ZPE)  - the the zero temperature vibrational energy from the frequency calculation
    E(vib)  - the the finite temperature correction to E(ZPE) due to population
              of excited vibrational states
    E(rot)  - is the rotational thermal energy
    E(trans)- is the translational thermal energy

Summary of contributions to the inner energy U:
Electronic energy                ...   -539.38095773 Eh
Zero point energy                ...      0.06605020 Eh      41.45 kcal/mol
Thermal vibrational correction   ...      0.00120979 Eh       0.76 kcal/mol
Thermal rotational correction    ...      0.00141627 Eh       0.89 kcal/mol
Thermal translational correction ...      0.00141627 Eh       0.89 kcal/mol
-----------------------------------------------------------------------
Total thermal energy                   -539.31086520 Eh

Summary of corrections to the electronic energy:
(perhaps to be used in another calculation)
Total thermal correction                  0.00404234 Eh       2.54 kcal/mol
Non-thermal (ZPE) correction              0.06605020 Eh      41.45 kcal/mol
-----------------------------------------------------------------------
Total correction                          0.07009253 Eh      43.98 kcal/mol

--------
ENTHALPY
--------

The enthalpy is H = U + kB*T
                kB is Boltzmann's constant
Total thermal energy              ...   -539.31086520 Eh
Thermal Enthalpy correction       ...      0.00094421 Eh       0.59 kcal/mol
-----------------------------------------------------------------------
Total Enthalpy                    ...   -539.30992099 Eh

Note: Rotational entropy computed according to Herzberg
Infrared and Raman Spectra, Chapter V,1, Van Nostrand Reinhold, 1945
Point Group:  Cs, Symmetry Number:   1
Rotational constants in cm-1:     1.039760     0.176526     0.160087

Vibrational entropy computed according to the QRRHO of S. Grimme
Chem.Eur.J. 2012 18 9955 using a reference frequency of 100.0 cm-1

-------
ENTROPY
-------

The entropy contributions are T*S = T*(S(el)+S(vib)+S(rot)+S(trans))
     S(el)   - electronic entropy
     S(vib)  - vibrational entropy
     S(rot)  - rotational entropy
     S(trans)- translational entropy
The entropies will be listed as multiplied by the temperature to get
units of energy

Electronic entropy                ...      0.00000000 Eh      0.00 kcal/mol
Vibrational entropy               ...      0.00181193 Eh      1.14 kcal/mol
Rotational entropy                ...      0.01117603 Eh      7.01 kcal/mol
Translational entropy             ...      0.01825053 Eh     11.45 kcal/mol
-----------------------------------------------------------------------
Final entropy term                ...      0.03123849 Eh     19.60 kcal/mol

In case the symmetry of your molecule has not been determined correctly
or in case you have a reason to use a different symmetry number we print
out the resulting rotational entropy values for sn=1,12:

 non-linear molecules -----------------------------------
|  sn= 1 | S(rot)=       0.01117603 Eh      7.01 kcal/mol|
|  sn= 2 | S(rot)=       0.01052158 Eh      6.60 kcal/mol|
|  sn= 3 | S(rot)=       0.01013874 Eh      6.36 kcal/mol|
|  sn= 4 | S(rot)=       0.00986712 Eh      6.19 kcal/mol|
|  sn= 5 | S(rot)=       0.00965643 Eh      6.06 kcal/mol|
|  sn= 6 | S(rot)=       0.00948429 Eh      5.95 kcal/mol|
|  sn= 7 | S(rot)=       0.00933874 Eh      5.86 kcal/mol|
|  sn= 8 | S(rot)=       0.00921266 Eh      5.78 kcal/mol|
|  sn= 9 | S(rot)=       0.00910145 Eh      5.71 kcal/mol|
|  sn=10 | S(rot)=       0.00900197 Eh      5.65 kcal/mol|
|  sn=11 | S(rot)=       0.00891198 Eh      5.59 kcal/mol|
|  sn=12 | S(rot)=       0.00882983 Eh      5.54 kcal/mol|
 linear molecules ---------------------------------------
|  Dinfh | S(rot)=       0.00705558 Eh      4.43 kcal/mol|
|  Cinfv | S(rot)=       0.00771004 Eh      4.84 kcal/mol|
 --------------------------------------------------------

-------------------
GIBBS FREE ENERGY
-------------------

The Gibbs free energy is G = H - T*S

Total enthalpy                    ...   -539.30992099 Eh
Total entropy correction          ...     -0.03123849 Eh    -19.60 kcal/mol
-----------------------------------------------------------------------
Final Gibbs free energy         ...   -539.34115948 Eh

For completeness - the Gibbs free energy minus the electronic energy
G-E(el)                           ...      0.03979825 Eh     24.97 kcal/mol

                             ****ORCA TERMINATED NORMALLY****
TOTAL RUN TIME: 0 days 0 hours 1 minutes 27 seconds 755 msec
