                         Program Version 6.0.0  -   RELEASE  -
|  1> ! r2SCAN-3c DEF2-TZVP FREQ
|  2> * xyzfile 0 1 vacuum_censo.xyz
|  3>
|  4>                          ****END OF INPUT****

CARTESIAN COORDINATES (ANGSTROEM)
---------------------------------
  C     -1.713723   -0.378267    0.000008
  C     -0.620481    0.665475    0.000010
  Cl     1.032026   -0.117411   -0.000080
  H     -1.652646   -1.012968    0.887055
  H     -2.688310    0.123460    0.000106
  H     -1.652760   -1.012848   -0.887133
  H     -0.654164    1.296576    0.890263
  H     -0.654228    1.296645   -0.890190

 Total Charge           Charge          ....    0
 Multiplicity           Mult            ....    1
 Number of Electrons    NEL             ....   34
 Basis Dimension        Dim             ....  129

ORBITAL ENERGIES
----------------

  NO   OCC          E(Eh)            E(eV)
   0   2.0000    -101.169475     -2752.9614
   1   2.0000     -10.098040      -274.7816
   2   2.0000     -10.039882      -273.1991
   3   2.0000      -9.345699      -254.3094
   4   2.0000      -7.090401      -192.9396
   5   2.0000      -7.080569      -192.6721
   6   2.0000      -7.080481      -192.6697
   7   2.0000      -0.811787       -22.0899
   8   2.0000      -0.709865       -19.3164
   9   2.0000      -0.589016       -16.0279
  10   2.0000      -0.445737       -12.1291
  11   2.0000      -0.422627       -11.5003
  12   2.0000      -0.382238       -10.4012
  13   2.0000      -0.347232        -9.4487
  14   2.0000      -0.343545        -9.3483
  15   2.0000      -0.266657        -7.2561
  16   2.0000      -0.264991        -7.2108
  17   0.0000      -0.003571        -0.0972
  18   0.0000       0.053076         1.4443
  19   0.0000       0.090493         2.4624
  20   0.0000       0.098516         2.6808
  21   0.0000       0.112725         3.0674

MULLIKEN ATOMIC CHARGES
-----------------------
   0 C :   -0.297152
   1 C :   -0.075014
   2 Cl:   -0.195467
   3 H :    0.114618
   4 H :    0.104739
   5 H :    0.114618
   6 H :    0.116829
   7 H :    0.116829
Sum of atomic charges:   -0.0000000

LOEWDIN ATOMIC CHARGES
----------------------
   0 C :   -0.336494
   1 C :   -0.485784
   2 Cl:    0.210608
   3 H :    0.122406
   4 H :    0.125798
   5 H :    0.122406
   6 H :    0.120530
   7 H :    0.120529

  Mayer bond orders larger than 0.100000
B(  0-C ,  1-C ) :   1.0006 B(  0-C ,  3-H ) :   0.9695 B(  0-C ,  4-H ) :   0.9537
B(  0-C ,  5-H ) :   0.9695 B(  1-C ,  2-Cl) :   1.0264 B(  1-C ,  6-H ) :   0.9648
B(  1-C ,  7-H ) :   0.9648

Dispersion correction           -0.001321521
FINAL SINGLE POINT ENERGY      -539.381275297905

DIPOLE MOMENT
-------------

Method             : SCF
Type of density    : Electron Density
Multiplicity       :   1
Irrep              :   0
Energy             :  -539.3859785537883909 Eh
Relativity type    :
Basis              : AO
                                X                 Y                 Z
Electronic contribution:      7.471214637      -0.512291569      -0.000291577
Nuclear contribution   :     -8.297716936       0.806600387       0.000333885
                        -----------------------------------------
Total Dipole Moment    :     -0.826502299       0.294308818       0.000042308
                        -----------------------------------------
Magnitude (a.u.)       :      0.877339006
Magnitude (Debye)      :      2.230018532

VIBRATIONAL FREQUENCIES
-----------------------

Scaling factor for frequencies =  1.000000000  (already applied!)

     0:       0.00 cm**-1
     1:       0.00 cm**-1
     2:       0.00 cm**-1
     3:       0.00 cm**-1
     4:       0.00 cm**-1
     5:       0.00 cm**-1
     6:     274.22 cm**-1
     7:     334.18 cm**-1
     8:     629.38 cm**-1
     9:     796.41 cm**-1
    10:     974.14 cm**-1
    11:    1074.78 cm**-1
    12:    1086.96 cm**-1
    13:    1273.43 cm**-1
    14:    1308.43 cm**-1
    15:    1403.31 cm**-1
    16:    1476.93 cm**-1
    17:    1483.41 cm**-1
    18:    1494.49 cm**-1
    19:    3014.50 cm**-1
    20:    3059.48 cm**-1
    21:    3093.74 cm**-1
    22:    3105.83 cm**-1
    23:    3133.22 cm**-1

IR SPECTRUM
-----------

 Mode   freq       eps      Int      T**2         TX        TY        TZ
       cm**-1   L/(mol*cm) km/mol    a.u.
----------------------------------------------------------------------------
  6:    274.22   0.000016    0.08  0.000018  ( 0.000003  0.000000  0.004289)
  7:    334.18   0.000715    3.61  0.000667  (-0.025391 -0.004744  0.000001)
  8:    629.38   0.006586   33.28  0.003265  ( 0.055039 -0.015366 -0.000003)
  9:    796.41   0.000609    3.08  0.000238  ( 0.000000  0.000001 -0.015442)
 10:    974.14   0.004306   21.76  0.001380  (-0.036742  0.005433  0.000002)
 11:   1074.78   0.000000    0.00  0.000000  ( 0.000001  0.000001 -0.000067)
 12:   1086.96   0.000167    0.84  0.000048  (-0.001521  0.006755  0.000000)
 13:   1273.43   0.000081    0.41  0.000020  ( 0.000001 -0.000000  0.004457)
 14:   1308.43   0.006930   35.02  0.001653  (-0.038250  0.013776  0.000002)
 15:   1403.31   0.001187    6.00  0.000264  ( 0.012305  0.010607 -0.000001)
 16:   1476.93   0.001938    9.79  0.000409  (-0.000000  0.000001 -0.020234)
 17:   1483.41   0.000247    1.25  0.000052  (-0.004815 -0.005363  0.000001)
 18:   1494.49   0.000682    3.45  0.000142  ( 0.004779 -0.010935 -0.000001)
 19:   3014.50   0.003648   18.44  0.000378  (-0.018582 -0.005688  0.000000)
 20:   3059.48   0.002676   13.52  0.000273  (-0.004428  0.015916  0.000002)
 21:   3093.74   0.004427   22.37  0.000447  ( 0.009919 -0.018660 -0.000003)
 22:   3105.83   0.000393    1.99  0.000040  (-0.000000 -0.000001 -0.006286)
 23:   3133.22   0.004091   20.67  0.000407  (-0.000002  0.000002 -0.020186)

--------------------------
THERMOCHEMISTRY AT 298.15K
--------------------------

Temperature         ...   298.15 K
Pressure            ...     1.00 atm
Total Mass          ...    64.52 AMU
Quasi RRHO          ...     True
Cut-Off Frequency   ...     1.00 cm^-1

Throughout the following assumptions are being made:
  (1) The electronic state is orbitally nondegenerate
  (2) There are no thermally accessible electronically excited states
  (3) Hindered rotations indicated by low frequency modes are not
      treated as such but are treated as vibrations and this may
      cause some error
  (4) All equations used are the standard statistical mechanics
      equations for an ideal gas
  (5) All vibrations are strictly harmonic

freq.     274.22  E(vib)   ...       0.28
freq.     334.18  E(vib)   ...       0.24
freq.     629.38  E(vib)   ...       0.09
freq.     796.41  E(vib)   ...       0.05
freq.     974.14  E(vib)   ...       0.03
freq.    1074.78  E(vib)   ...       0.02
freq.    1086.96  E(vib)   ...       0.02
freq.    1273.43  E(vib)   ...       0.01
freq.    1308.43  E(vib)   ...       0.01
freq.    1403.31  E(vib)   ...       0.00
freq.    1476.93  E(vib)   ...       0.00
freq.    1483.41  E(vib)   ...       0.00
freq.    1494.49  E(vib)   ...       0.00
freq.    3014.50  E(vib)   ...       0.00
freq.    3059.48  E(vib)   ...       0.00
freq.    3093.74  E(vib)   ...       0.00
freq.    3105.83  E(vib)   ...       0.00
freq.    3133.22  E(vib)   ...       0.00

------------
INNER ENERGY
------------

The inner energy is: U= E(el) + E(ZPE) + E(vib) + E(rot) + E(trans)
    E(el)   - is the total energy from the electronic structure calculation
              = E(kin-el) + E(nuc-el) + E(el-el) + E(nuc-nuc)
    E(ZPE)  - the the zero temperature vibrational energy from the frequency calculation
    E(vib)  - the the finite temperature correction to E(ZPE) due to population
              of excited vibrational states
    E(rot)  - is the rotational thermal energy
    E(trans)- is the translational thermal energy

Summary of contributions to the inner energy U:
Electronic energy                ...   -539.38127530 Eh
Zero point energy                ...      0.06610528 Eh      41.48 kcal/mol
Thermal vibrational correction   ...      0.00119736 Eh       0.75 kcal/mol
Thermal rotational correction    ...      0.00141627 Eh       0.89 kcal/mol
Thermal translational correction ...      0.00141627 Eh       0.89 kcal/mol
-----------------------------------------------------------------------
Total thermal energy                   -539.31114012 Eh

Summary of corrections to the electronic energy:
(perhaps to be used in another calculation)
Total thermal correction                  0.00402990 Eh       2.53 kcal/mol
Non-thermal (ZPE) correction              0.06610528 Eh      41.48 kcal/mol
-----------------------------------------------------------------------
Total correction                          0.07013518 Eh      44.01 kcal/mol

--------
ENTHALPY
--------

The enthalpy is H = U + kB*T
                kB is Boltzmann's constant
Total thermal energy              ...   -539.31114012 Eh
Thermal Enthalpy correction       ...      0.00094421 Eh       0.59 kcal/mol
-----------------------------------------------------------------------
Total Enthalpy                    ...   -539.31019591 Eh

Note: Rotational entropy computed according to Herzberg
Infrared and Raman Spectra, Chapter V,1, Van Nostrand Reinhold, 1945
Point Group:  Cs, Symmetry Number:   1
Rotational constants in cm-1:     1.041660     0.178434     0.161641

Vibrational entropy computed according to the QRRHO of S. Grimme
Chem.Eur.J. 2012 18 9955 using a reference frequency of 100.0 cm-1

-------
ENTROPY
-------

The entropy contributions are T*S = T*(S(el)+S(vib)+S(rot)+S(trans))
     S(el)   - electronic entropy
     S(vib)  - vibrational entropy
     S(rot)  - rotational entropy
     S(trans)- translational entropy
The entropies will be listed as multiplied by the temperature to get
units of energy

Electronic entropy                ...      0.00000000 Eh      0.00 kcal/mol
Vibrational entropy               ...      0.00179660 Eh      1.13 kcal/mol
Rotational entropy                ...      0.01116553 Eh      7.01 kcal/mol
Translational entropy             ...      0.01825053 Eh     11.45 kcal/mol
-----------------------------------------------------------------------
Final entropy term                ...      0.03121266 Eh     19.59 kcal/mol

In case the symmetry of your molecule has not been determined correctly
or in case you have a reason to use a different symmetry number we print
out the resulting rotational entropy values for sn=1,12:

 non-linear molecules -----------------------------------
|  sn= 1 | S(rot)=       0.01116553 Eh      7.01 kcal/mol|
|  sn= 2 | S(rot)=       0.01051108 Eh      6.60 kcal/mol|
|  sn= 3 | S(rot)=       0.01012824 Eh      6.36 kcal/mol|
|  sn= 4 | S(rot)=       0.00985662 Eh      6.19 kcal/mol|
|  sn= 5 | S(rot)=       0.00964593 Eh      6.05 kcal/mol|
|  sn= 6 | S(rot)=       0.00947379 Eh      5.94 kcal/mol|
|  sn= 7 | S(rot)=       0.00932824 Eh      5.85 kcal/mol|
|  sn= 8 | S(rot)=       0.00920216 Eh      5.77 kcal/mol|
|  sn= 9 | S(rot)=       0.00909095 Eh      5.70 kcal/mol|
|  sn=10 | S(rot)=       0.00899148 Eh      5.64 kcal/mol|
|  sn=11 | S(rot)=       0.00890149 Eh      5.59 kcal/mol|
|  sn=12 | S(rot)=       0.00881933 Eh      5.53 kcal/mol|
 linear molecules ---------------------------------------
|  Dinfh | S(rot)=       0.00704646 Eh      4.42 kcal/mol|
|  Cinfv | S(rot)=       0.00770092 Eh      4.83 kcal/mol|
 --------------------------------------------------------

-------------------
GIBBS FREE ENERGY
-------------------

The Gibbs free energy is G = H - T*S

Total enthalpy                    ...   -539.31019591 Eh
Total entropy correction          ...     -0.03121266 Eh    -19.59 kcal/mol
-----------------------------------------------------------------------
Final Gibbs free energy         ...   -539.34140858 Eh

For completeness - the Gibbs free energy minus the electronic energy
G-E(el)                           ...      0.03986672 Eh     25.02 kcal/mol

                             ****ORCA TERMINATED NORMALLY****
TOTAL RUN TIME: 0 days 0 hours 1 minutes 27 seconds 81 msec
