                         Program Version 6.0.0  -   RELEASE  -
|  1> ! r2SCAN-3c DEF2-TZVP FREQ
|  2> * xyzfile 0 1 censo.xyz
|  3>
|  4>                          ****END OF INPUT****

CARTESIAN COORDINATES (ANGSTROEM)
---------------------------------
  C     -1.931976    0.000258   -0.000091
  I      0.236404   -0.000391    0.000145
  H     -2.246137   -1.011873   -0.241767
  H     -2.246680    0.296588    0.997198
  H     -2.247296    0.715372   -0.755460

 Total Charge           Charge          ....    0
 Multiplicity           Mult            ....    1
 Number of Electrons    NEL             ....   34
 Basis Dimension        Dim             ....   99

ORBITAL ENERGIES
----------------

  NO   OCC          E(Eh)            E(eV)
   0   2.0000     -10.084874      -274.4234
   1   2.0000      -6.775485      -184.3703
   2   2.0000      -4.797235      -130.5394
   3   2.0000      -4.784378      -130.1895
   4   2.0000      -4.784377      -130.1895
   5   2.0000      -1.847639       -50.2768
   6   2.0000      -1.844920       -50.2028
   7   2.0000      -1.844920       -50.2028
   8   2.0000      -1.834039       -49.9067
   9   2.0000      -1.834038       -49.9067
  10   2.0000      -0.719685       -19.5836
  11   2.0000      -0.612603       -16.6698
  12   2.0000      -0.412300       -11.2192
  13   2.0000      -0.412290       -11.2190
  14   2.0000      -0.336324        -9.1518
  15   2.0000      -0.236175        -6.4266
  16   2.0000      -0.236162        -6.4263
  17   0.0000      -0.059748        -1.6258
  18   0.0000       0.064380         1.7519
  19   0.0000       0.102098         2.7782
  20   0.0000       0.102118         2.7788
  21   0.0000       0.159807         4.3486

MULLIKEN ATOMIC CHARGES
-----------------------
   0 C :   -0.343582
   1 I :   -0.095937
   2 H :    0.146522
   3 H :    0.146503
   4 H :    0.146494
Sum of atomic charges:    0.0000000

LOEWDIN ATOMIC CHARGES
----------------------
   0 C :   -0.500989
   1 I :    0.174365
   2 H :    0.108893
   3 H :    0.108872
   4 H :    0.108859

  Mayer bond orders larger than 0.100000
B(  0-C ,  1-I ) :   1.0283 B(  0-C ,  2-H ) :   0.9602 B(  0-C ,  3-H ) :   0.9602
B(  0-C ,  4-H ) :   0.9602

Dispersion correction           -0.000691738
FINAL SINGLE POINT ENERGY      -337.719319943613

DIPOLE MOMENT
-------------

Method             : SCF
Type of density    : Electron Density
Multiplicity       :   1
Irrep              :   0
Energy             :  -337.7210518632534217 Eh
Relativity type    :
Basis              : AO
                                X                 Y                 Z
Electronic contribution:     22.754890438      -0.005626958       0.002046615
Nuclear contribution   :    -23.474235758       0.005636963      -0.002055735
                        -----------------------------------------
Total Dipole Moment    :     -0.719345320       0.000010004      -0.000009120
                        -----------------------------------------
Magnitude (a.u.)       :      0.719345320
Magnitude (Debye)      :      1.828430495

VIBRATIONAL FREQUENCIES
-----------------------

Scaling factor for frequencies =  1.000000000  (already applied!)

     0:       0.00 cm**-1
     1:       0.00 cm**-1
     2:       0.00 cm**-1
     3:       0.00 cm**-1
     4:       0.00 cm**-1
     5:       0.00 cm**-1
     6:     512.16 cm**-1
     7:     897.48 cm**-1
     8:     898.13 cm**-1
     9:    1262.55 cm**-1
    10:    1459.98 cm**-1
    11:    1460.13 cm**-1
    12:    3066.79 cm**-1
    13:    3191.68 cm**-1
    14:    3192.60 cm**-1

IR SPECTRUM
-----------

 Mode   freq       eps      Int      T**2         TX        TY        TZ
       cm**-1   L/(mol*cm) km/mol    a.u.
----------------------------------------------------------------------------
  6:    512.16   0.000743    3.75  0.000453  ( 0.021276  0.000005  0.000002)
  7:    897.48   0.001269    6.41  0.000441  (-0.000108 -0.013529  0.016070)
  8:    898.13   0.001273    6.43  0.000442  ( 0.000008  0.016108  0.013521)
  9:   1262.55   0.005271   26.64  0.001303  ( 0.036094  0.000002  0.000024)
 10:   1459.98   0.001110    5.61  0.000237  ( 0.000051  0.000415 -0.015398)
 11:   1460.13   0.001110    5.61  0.000237  (-0.000020 -0.015398 -0.000388)
 12:   3066.79   0.001732    8.75  0.000176  ( 0.013276 -0.000111 -0.000046)
 13:   3191.68   0.000083    0.42  0.000008  ( 0.000056 -0.002400  0.001526)
 14:   3192.60   0.000073    0.37  0.000007  (-0.000046  0.001234  0.002364)

--------------------------
THERMOCHEMISTRY AT 298.15K
--------------------------

Temperature         ...   298.15 K
Pressure            ...     1.00 atm
Total Mass          ...   141.94 AMU
Quasi RRHO          ...     True
Cut-Off Frequency   ...     1.00 cm^-1

Throughout the following assumptions are being made:
  (1) The electronic state is orbitally nondegenerate
  (2) There are no thermally accessible electronically excited states
  (3) Hindered rotations indicated by low frequency modes are not
      treated as such but are treated as vibrations and this may
      cause some error
  (4) All equations used are the standard statistical mechanics
      equations for an ideal gas
  (5) All vibrations are strictly harmonic

freq.     512.16  E(vib)   ...       0.14
freq.     897.48  E(vib)   ...       0.03
freq.     898.13  E(vib)   ...       0.03
freq.    1262.55  E(vib)   ...       0.01
freq.    1459.98  E(vib)   ...       0.00
freq.    1460.13  E(vib)   ...       0.00
freq.    3066.79  E(vib)   ...       0.00
freq.    3191.68  E(vib)   ...       0.00
freq.    3192.60  E(vib)   ...       0.00

------------
INNER ENERGY
------------

The inner energy is: U= E(el) + E(ZPE) + E(vib) + E(rot) + E(trans)
    E(el)   - is the total energy from the electronic structure calculation
              = E(kin-el) + E(nuc-el) + E(el-el) + E(nuc-nuc)
    E(ZPE)  - the the zero temperature vibrational energy from the frequency calculation
    E(vib)  - the the finite temperature correction to E(ZPE) due to population
              of excited vibrational states
    E(rot)  - is the rotational thermal energy
    E(trans)- is the translational thermal energy

Summary of contributions to the inner energy U:
Electronic energy                ...   -337.71931994 Eh
Zero point energy                ...      0.03631743 Eh      22.79 kcal/mol
Thermal vibrational correction   ...      0.00034882 Eh       0.22 kcal/mol
Thermal rotational correction    ...      0.00141627 Eh       0.89 kcal/mol
Thermal translational correction ...      0.00141627 Eh       0.89 kcal/mol
-----------------------------------------------------------------------
Total thermal energy                   -337.67982115 Eh

Summary of corrections to the electronic energy:
(perhaps to be used in another calculation)
Total thermal correction                  0.00318136 Eh       2.00 kcal/mol
Non-thermal (ZPE) correction              0.03631743 Eh      22.79 kcal/mol
-----------------------------------------------------------------------
Total correction                          0.03949879 Eh      24.79 kcal/mol

--------
ENTHALPY
--------

The enthalpy is H = U + kB*T
                kB is Boltzmann's constant
Total thermal energy              ...   -337.67982115 Eh
Thermal Enthalpy correction       ...      0.00094421 Eh       0.59 kcal/mol
-----------------------------------------------------------------------
Total Enthalpy                    ...   -337.67887695 Eh

Note: Only C1 symmetry has been detected, increase convergence thresholds
      if your molecule has a higher symmetry. Symmetry factor of 1.0 is
      used for the rotational entropy correction.

Note: Rotational entropy computed according to Herzberg
Infrared and Raman Spectra, Chapter V,1, Van Nostrand Reinhold, 1945
Point Group:  C1, Symmetry Number:   1
Rotational constants in cm-1:     5.150264     0.244938     0.244937

Vibrational entropy computed according to the QRRHO of S. Grimme
Chem.Eur.J. 2012 18 9955 using a reference frequency of 100.0 cm-1

-------
ENTROPY
-------

The entropy contributions are T*S = T*(S(el)+S(vib)+S(rot)+S(trans))
     S(el)   - electronic entropy
     S(vib)  - vibrational entropy
     S(rot)  - rotational entropy
     S(trans)- translational entropy
The entropies will be listed as multiplied by the temperature to get
units of energy

Electronic entropy                ...      0.00000000 Eh      0.00 kcal/mol
Vibrational entropy               ...      0.00046138 Eh      0.29 kcal/mol
Rotational entropy                ...      0.01006526 Eh      6.32 kcal/mol
Translational entropy             ...      0.01936722 Eh     12.15 kcal/mol
-----------------------------------------------------------------------
Final entropy term                ...      0.02989386 Eh     18.76 kcal/mol

In case the symmetry of your molecule has not been determined correctly
or in case you have a reason to use a different symmetry number we print
out the resulting rotational entropy values for sn=1,12:

 non-linear molecules -----------------------------------
|  sn= 1 | S(rot)=       0.01006526 Eh      6.32 kcal/mol|
|  sn= 2 | S(rot)=       0.00941080 Eh      5.91 kcal/mol|
|  sn= 3 | S(rot)=       0.00902797 Eh      5.67 kcal/mol|
|  sn= 4 | S(rot)=       0.00875635 Eh      5.49 kcal/mol|
|  sn= 5 | S(rot)=       0.00854566 Eh      5.36 kcal/mol|
|  sn= 6 | S(rot)=       0.00837351 Eh      5.25 kcal/mol|
|  sn= 7 | S(rot)=       0.00822797 Eh      5.16 kcal/mol|
|  sn= 8 | S(rot)=       0.00810189 Eh      5.08 kcal/mol|
|  sn= 9 | S(rot)=       0.00799068 Eh      5.01 kcal/mol|
|  sn=10 | S(rot)=       0.00789120 Eh      4.95 kcal/mol|
|  sn=11 | S(rot)=       0.00780121 Eh      4.90 kcal/mol|
|  sn=12 | S(rot)=       0.00771906 Eh      4.84 kcal/mol|
 linear molecules ---------------------------------------
|  Dinfh | S(rot)=       0.00665404 Eh      4.18 kcal/mol|
|  Cinfv | S(rot)=       0.00730849 Eh      4.59 kcal/mol|
 --------------------------------------------------------

-------------------
GIBBS FREE ENERGY
-------------------

The Gibbs free energy is G = H - T*S

Total enthalpy                    ...   -337.67887695 Eh
Total entropy correction          ...     -0.02989386 Eh    -18.76 kcal/mol
-----------------------------------------------------------------------
Final Gibbs free energy         ...   -337.70877080 Eh

For completeness - the Gibbs free energy minus the electronic energy
G-E(el)                           ...      0.01054914 Eh      6.62 kcal/mol

                             ****ORCA TERMINATED NORMALLY****
TOTAL RUN TIME: 0 days 0 hours 0 minutes 54 seconds 316 msec
