                         Program Version 6.0.0  -   RELEASE  -
|  1> ! r2SCAN-3c DEF2-TZVP FREQ
|  2> * xyzfile 0 1 vacuum_censo.xyz
|  3>
|  4>                          ****END OF INPUT****

CARTESIAN COORDINATES (ANGSTROEM)
---------------------------------
  C     -1.922687   -0.000081   -0.000017
  I      0.243723    0.000130    0.000044
  H     -2.246095   -0.927969   -0.464278
  H     -2.245607    0.061927    1.035824
  H     -2.245530    0.866126   -0.571497

 Total Charge           Charge          ....    0
 Multiplicity           Mult            ....    1
 Number of Electrons    NEL             ....   34
 Basis Dimension        Dim             ....   99

ORBITAL ENERGIES
----------------

  NO   OCC          E(Eh)            E(eV)
   0   2.0000     -10.084435      -274.4114
   1   2.0000      -6.775784      -184.3784
   2   2.0000      -4.797557      -130.5482
   3   2.0000      -4.784665      -130.1974
   4   2.0000      -4.784664      -130.1973
   5   2.0000      -1.847957       -50.2855
   6   2.0000      -1.845226       -50.2112
   7   2.0000      -1.845226       -50.2112
   8   2.0000      -1.834319       -49.9144
   9   2.0000      -1.834318       -49.9143
  10   2.0000      -0.719658       -19.5829
  11   2.0000      -0.612982       -16.6801
  12   2.0000      -0.411427       -11.1955
  13   2.0000      -0.411425       -11.1954
  14   2.0000      -0.337286        -9.1780
  15   2.0000      -0.236341        -6.4312
  16   2.0000      -0.236335        -6.4310
  17   0.0000      -0.059633        -1.6227
  18   0.0000       0.064976         1.7681
  19   0.0000       0.102163         2.7800
  20   0.0000       0.102170         2.7802
  21   0.0000       0.159397         4.3374

MULLIKEN ATOMIC CHARGES
-----------------------
   0 C :   -0.344831
   1 I :   -0.092741
   2 H :    0.145845
   3 H :    0.145857
   4 H :    0.145870
Sum of atomic charges:    0.0000000

LOEWDIN ATOMIC CHARGES
----------------------
   0 C :   -0.503211
   1 I :    0.177124
   2 H :    0.108690
   3 H :    0.108694
   4 H :    0.108703

  Mayer bond orders larger than 0.100000
B(  0-C ,  1-I ) :   1.0291 B(  0-C ,  2-H ) :   0.9604 B(  0-C ,  3-H ) :   0.9604
B(  0-C ,  4-H ) :   0.9604

Dispersion correction           -0.000691674
FINAL SINGLE POINT ENERGY      -337.719335257966

DIPOLE MOMENT
-------------

Method             : SCF
Type of density    : Electron Density
Multiplicity       :   1
Irrep              :   0
Energy             :  -337.7210700047777436 Eh
Relativity type    :
Basis              : AO
                                X                 Y                 Z
Electronic contribution:     22.775083519       0.001708464       0.000482634
Nuclear contribution   :    -23.489950319      -0.001680602      -0.000483664
                        -----------------------------------------
Total Dipole Moment    :     -0.714866800       0.000027862      -0.000001031
                        -----------------------------------------
Magnitude (a.u.)       :      0.714866801
Magnitude (Debye)      :      1.817047004

VIBRATIONAL FREQUENCIES
-----------------------

Scaling factor for frequencies =  1.000000000  (already applied!)

     0:       0.00 cm**-1
     1:       0.00 cm**-1
     2:       0.00 cm**-1
     3:       0.00 cm**-1
     4:       0.00 cm**-1
     5:       0.00 cm**-1
     6:     513.55 cm**-1
     7:     893.95 cm**-1
     8:     894.31 cm**-1
     9:    1267.62 cm**-1
    10:    1460.11 cm**-1
    11:    1460.48 cm**-1
    12:    3069.68 cm**-1
    13:    3191.45 cm**-1
    14:    3192.37 cm**-1

IR SPECTRUM
-----------

 Mode   freq       eps      Int      T**2         TX        TY        TZ
       cm**-1   L/(mol*cm) km/mol    a.u.
----------------------------------------------------------------------------
  6:    513.55   0.000706    3.57  0.000429  (-0.020710 -0.000001 -0.000014)
  7:    893.95   0.001360    6.87  0.000475  ( 0.000040 -0.021703 -0.001939)
  8:    894.31   0.001340    6.77  0.000468  (-0.000108 -0.001998  0.021530)
  9:   1267.62   0.005605   28.33  0.001380  ( 0.037147  0.000005 -0.000058)
 10:   1460.11   0.001124    5.68  0.000240  ( 0.000086 -0.003620  0.015068)
 11:   1460.48   0.001162    5.87  0.000248  (-0.000166  0.015382  0.003409)
 12:   3069.68   0.001808    9.14  0.000184  ( 0.013558  0.000039  0.000202)
 13:   3191.45   0.000099    0.50  0.000010  (-0.000033  0.000362 -0.003096)
 14:   3192.37   0.000100    0.51  0.000010  ( 0.000001 -0.003121 -0.000255)

--------------------------
THERMOCHEMISTRY AT 298.15K
--------------------------

Temperature         ...   298.15 K
Pressure            ...     1.00 atm
Total Mass          ...   141.94 AMU
Quasi RRHO          ...     True
Cut-Off Frequency   ...     1.00 cm^-1

Throughout the following assumptions are being made:
  (1) The electronic state is orbitally nondegenerate
  (2) There are no thermally accessible electronically excited states
  (3) Hindered rotations indicated by low frequency modes are not
      treated as such but are treated as vibrations and this may
      cause some error
  (4) All equations used are the standard statistical mechanics
      equations for an ideal gas
  (5) All vibrations are strictly harmonic

freq.     513.55  E(vib)   ...       0.13
freq.     893.95  E(vib)   ...       0.03
freq.     894.31  E(vib)   ...       0.03
freq.    1267.62  E(vib)   ...       0.01
freq.    1460.11  E(vib)   ...       0.00
freq.    1460.48  E(vib)   ...       0.00
freq.    3069.68  E(vib)   ...       0.00
freq.    3191.45  E(vib)   ...       0.00
freq.    3192.37  E(vib)   ...       0.00

------------
INNER ENERGY
------------

The inner energy is: U= E(el) + E(ZPE) + E(vib) + E(rot) + E(trans)
    E(el)   - is the total energy from the electronic structure calculation
              = E(kin-el) + E(nuc-el) + E(el-el) + E(nuc-nuc)
    E(ZPE)  - the the zero temperature vibrational energy from the frequency calculation
    E(vib)  - the the finite temperature correction to E(ZPE) due to population
              of excited vibrational states
    E(rot)  - is the rotational thermal energy
    E(trans)- is the translational thermal energy

Summary of contributions to the inner energy U:
Electronic energy                ...   -337.71933526 Eh
Zero point energy                ...      0.03632202 Eh      22.79 kcal/mol
Thermal vibrational correction   ...      0.00034907 Eh       0.22 kcal/mol
Thermal rotational correction    ...      0.00141627 Eh       0.89 kcal/mol
Thermal translational correction ...      0.00141627 Eh       0.89 kcal/mol
-----------------------------------------------------------------------
Total thermal energy                   -337.67983162 Eh

Summary of corrections to the electronic energy:
(perhaps to be used in another calculation)
Total thermal correction                  0.00318162 Eh       2.00 kcal/mol
Non-thermal (ZPE) correction              0.03632202 Eh      22.79 kcal/mol
-----------------------------------------------------------------------
Total correction                          0.03950364 Eh      24.79 kcal/mol

--------
ENTHALPY
--------

The enthalpy is H = U + kB*T
                kB is Boltzmann's constant
Total thermal energy              ...   -337.67983162 Eh
Thermal Enthalpy correction       ...      0.00094421 Eh       0.59 kcal/mol
-----------------------------------------------------------------------
Total Enthalpy                    ...   -337.67888741 Eh

Note: Rotational entropy computed according to Herzberg
Infrared and Raman Spectra, Chapter V,1, Van Nostrand Reinhold, 1945
Point Group:  Cs, Symmetry Number:   1
Rotational constants in cm-1:     5.177297     0.244985     0.244985

Vibrational entropy computed according to the QRRHO of S. Grimme
Chem.Eur.J. 2012 18 9955 using a reference frequency of 100.0 cm-1

-------
ENTROPY
-------

The entropy contributions are T*S = T*(S(el)+S(vib)+S(rot)+S(trans))
     S(el)   - electronic entropy
     S(vib)  - vibrational entropy
     S(rot)  - rotational entropy
     S(trans)- translational entropy
The entropies will be listed as multiplied by the temperature to get
units of energy

Electronic entropy                ...      0.00000000 Eh      0.00 kcal/mol
Vibrational entropy               ...      0.00046144 Eh      0.29 kcal/mol
Rotational entropy                ...      0.01006260 Eh      6.31 kcal/mol
Translational entropy             ...      0.01936722 Eh     12.15 kcal/mol
-----------------------------------------------------------------------
Final entropy term                ...      0.02989127 Eh     18.76 kcal/mol

In case the symmetry of your molecule has not been determined correctly
or in case you have a reason to use a different symmetry number we print
out the resulting rotational entropy values for sn=1,12:

 non-linear molecules -----------------------------------
|  sn= 1 | S(rot)=       0.01006260 Eh      6.31 kcal/mol|
|  sn= 2 | S(rot)=       0.00940815 Eh      5.90 kcal/mol|
|  sn= 3 | S(rot)=       0.00902532 Eh      5.66 kcal/mol|
|  sn= 4 | S(rot)=       0.00875369 Eh      5.49 kcal/mol|
|  sn= 5 | S(rot)=       0.00854300 Eh      5.36 kcal/mol|
|  sn= 6 | S(rot)=       0.00837086 Eh      5.25 kcal/mol|
|  sn= 7 | S(rot)=       0.00822531 Eh      5.16 kcal/mol|
|  sn= 8 | S(rot)=       0.00809923 Eh      5.08 kcal/mol|
|  sn= 9 | S(rot)=       0.00798803 Eh      5.01 kcal/mol|
|  sn=10 | S(rot)=       0.00788855 Eh      4.95 kcal/mol|
|  sn=11 | S(rot)=       0.00779856 Eh      4.89 kcal/mol|
|  sn=12 | S(rot)=       0.00771640 Eh      4.84 kcal/mol|
 linear molecules ---------------------------------------
|  Dinfh | S(rot)=       0.00665385 Eh      4.18 kcal/mol|
|  Cinfv | S(rot)=       0.00730831 Eh      4.59 kcal/mol|
 --------------------------------------------------------

-------------------
GIBBS FREE ENERGY
-------------------

The Gibbs free energy is G = H - T*S

Total enthalpy                    ...   -337.67888741 Eh
Total entropy correction          ...     -0.02989127 Eh    -18.76 kcal/mol
-----------------------------------------------------------------------
Final Gibbs free energy         ...   -337.70877868 Eh

For completeness - the Gibbs free energy minus the electronic energy
G-E(el)                           ...      0.01055658 Eh      6.62 kcal/mol

                             ****ORCA TERMINATED NORMALLY****
TOTAL RUN TIME: 0 days 0 hours 0 minutes 55 seconds 307 msec
