                         Program Version 6.0.1  -  RELEASE   -
|  1> ! pbe def2-sv(p) def2/J RI DEFGRID1 loosescf d4 GCP(DFT/SV(P)) printgap
|  2> %output
|  3>     printlevel normal
|  4> end
|  5> * xyz 0 1
|  6> C -2.2143846752 -0.4172150311 3.888e-07
|  7> C -1.1808744003 0.687486653 -1.128e-07
|  8> Br 0.6356681592 -0.0475813552 -2.69e-08
|  9> H -3.2113248791 0.0205554608 -0.0001393069
| 10> H -2.1096446026 -1.0444493519 -0.8829877176
| 11> H -2.1098124389 -1.0442771667 0.8831291557
| 12> H -1.2513547466 1.3097648999 0.8910517441
| 13> H -1.2513605412 1.3097586294 -0.8910550307
| 14> *
| 15>
| 16>                          ****END OF INPUT****

CARTESIAN COORDINATES (ANGSTROEM)
---------------------------------
  C     -2.214385   -0.417215    0.000000
  C     -1.180874    0.687487   -0.000000
  Br     0.635668   -0.047581   -0.000000
  H     -3.211325    0.020555   -0.000139
  H     -2.109645   -1.044449   -0.882988
  H     -2.109812   -1.044277    0.883129
  H     -1.251355    1.309765    0.891052
  H     -1.251361    1.309759   -0.891055

 Total Charge           Charge          ....    0
 Multiplicity           Mult            ....    1
 Number of Electrons    NEL             ....   52
 Basis Dimension        Dim             ....   70

ORBITAL ENERGIES
----------------

  NO   OCC          E(Eh)            E(eV)
   0   2.0000    -480.919137    -13086.4750
   1   2.0000     -61.761584     -1680.6182
   2   2.0000     -55.692193     -1515.4616
   3   2.0000     -55.689125     -1515.3781
   4   2.0000     -55.688993     -1515.3745
   5   2.0000      -9.942672      -270.5539
   6   2.0000      -9.893329      -269.2112
   7   2.0000      -8.386787      -228.2161
   8   2.0000      -6.268744      -170.5812
   9   2.0000      -6.254392      -170.1907
  10   2.0000      -6.254264      -170.1872
  11   2.0000      -2.469885       -67.2090
  12   2.0000      -2.466326       -67.1122
  13   2.0000      -2.466223       -67.1093
  14   2.0000      -2.455483       -66.8171
  15   2.0000      -2.455465       -66.8166
  16   2.0000      -0.742281       -20.1985
  17   2.0000      -0.657640       -17.8953
  18   2.0000      -0.551886       -15.0176
  19   2.0000      -0.425340       -11.5741
  20   2.0000      -0.400602       -10.9009
  21   2.0000      -0.360955        -9.8221
  22   2.0000      -0.330176        -8.9846
  23   2.0000      -0.317357        -8.6357
  24   2.0000      -0.233853        -6.3635
  25   2.0000      -0.232765        -6.3339
  26   0.0000      -0.024341        -0.6624
  27   0.0000       0.043295         1.1781
  28   0.0000       0.084062         2.2875
  29   0.0000       0.084334         2.2949
  30   0.0000       0.108348         2.9483

MULLIKEN ATOMIC CHARGES
-----------------------
   0 C :   -0.267470
   1 C :   -0.257575
   2 Br:   -0.128695
   3 H :    0.115861
   4 H :    0.122622
   5 H :    0.122619
   6 H :    0.146320
   7 H :    0.146318
Sum of atomic charges:    0.0000000

LOEWDIN ATOMIC CHARGES
----------------------
   0 C :   -0.358551
   1 C :   -0.284761
   2 Br:    0.002062
   3 H :    0.128816
   4 H :    0.127015
   5 H :    0.127015
   6 H :    0.129202
   7 H :    0.129202

  Mayer bond orders larger than 0.100000
B(  0-C ,  1-C ) :   1.1356 B(  0-C ,  3-H ) :   0.9345 B(  0-C ,  4-H ) :   0.9529
B(  0-C ,  5-H ) :   0.9529 B(  1-C ,  2-Br) :   1.0411 B(  1-C ,  6-H ) :   0.9303
B(  1-C ,  7-H ) :   0.9303

Dispersion correction           -0.004514136
FINAL SINGLE POINT ENERGY     -2652.461824501756

DIPOLE MOMENT
-------------

Method             : SCF
Type of density    : Electron Density
Multiplicity       :   1
Irrep              :   0
Energy             : -2652.4938813682729233 Eh
Relativity type    :
Basis              : AO
                                X                 Y                 Z
Electronic contribution:     14.503206512      -0.738938425      -0.000002467
Nuclear contribution   :    -15.221703553       0.959069327      -0.000000834
                        -----------------------------------------
Total Dipole Moment    :     -0.718497041       0.220130902      -0.000003301
                        -----------------------------------------
Magnitude (a.u.)       :      0.751462316
Magnitude (Debye)      :      1.910065412

Rotational constants in cm-1:             1.004695             0.126153             0.117017
Rotational constants in MHz :         30120.005340          3781.983586          3508.079461

                             ****ORCA TERMINATED NORMALLY****
TOTAL RUN TIME: 0 days 0 hours 0 minutes 2 seconds 875 msec
