                         Program Version 6.0.1  -  RELEASE   -
|  1> ! r2scan-3c def2/J RI DEFGRID2 scfconv6 printgap
|  2> %output
|  3>     printlevel normal
|  4> end
|  5> * xyz 0 1
|  6> C -2.5650130307 -0.5845054786 -0.271694968
|  7> C -1.3766757494 0.2742758283 0.1169701364
|  8> O -0.1792050288 -0.44674032 -0.1828355157
|  9> C 0.9743838333 0.1761289598 0.073316955
| 10> O 1.0440966301 1.2888302822 0.5241811182
| 11> C 2.15117273 -0.7028007285 -0.2616951364
| 12> H -3.4865492531 -0.0540848638 -0.050480932
| 13> H -2.5312291133 -0.8117363618 -1.3337598442
| 14> H -2.5494257102 -1.5183158082 0.2837407776
| 15> H -1.3869996314 0.5106732503 1.1869474849
| 16> H -1.3666558185 1.2190673572 -0.4379805662
| 17> H 2.5152951 -1.1593273603 0.6567795413
| 18> H 2.9494900491 -0.0972653864 -0.6809380801
| 19> H 1.8525198281 -1.4831086523 -0.9541174338
| 20> *
| 21>
| 22>                          ****END OF INPUT****

CARTESIAN COORDINATES (ANGSTROEM)
---------------------------------
  C     -2.565013   -0.584505   -0.271695
  C     -1.376676    0.274276    0.116970
  O     -0.179205   -0.446740   -0.182836
  C      0.974384    0.176129    0.073317
  O      1.044097    1.288830    0.524181
  C      2.151173   -0.702801   -0.261695
  H     -3.486549   -0.054085   -0.050481
  H     -2.531229   -0.811736   -1.333760
  H     -2.549426   -1.518316    0.283741
  H     -1.387000    0.510673    1.186947
  H     -1.366656    1.219067   -0.437981
  H      2.515295   -1.159327    0.656780
  H      2.949490   -0.097265   -0.680938
  H      1.852520   -1.483109   -0.954117

 Total Charge           Charge          ....    0
 Multiplicity           Mult            ....    1
 Number of Electrons    NEL             ....   48
 Basis Dimension        Dim             ....  164

ORBITAL ENERGIES
----------------

  NO   OCC          E(Eh)            E(eV)
   0   2.0000     -18.996932      -516.9328
   1   2.0000     -18.930124      -515.1149
   2   2.0000     -10.154941      -276.3300
   3   2.0000     -10.090525      -274.5771
   4   2.0000     -10.039118      -273.1783
   5   2.0000     -10.031924      -272.9825
   6   2.0000      -1.073282       -29.2055
   7   2.0000      -0.981302       -26.7026
   8   2.0000      -0.755378       -20.5549
   9   2.0000      -0.706660       -19.2292
  10   2.0000      -0.611178       -16.6310
  11   2.0000      -0.536837       -14.6081
  12   2.0000      -0.466479       -12.6935
  13   2.0000      -0.457434       -12.4474
  14   2.0000      -0.436785       -11.8855
  15   2.0000      -0.416724       -11.3396
  16   2.0000      -0.384854       -10.4724
  17   2.0000      -0.370994       -10.0953
  18   2.0000      -0.363402        -9.8887
  19   2.0000      -0.358390        -9.7523
  20   2.0000      -0.325137        -8.8474
  21   2.0000      -0.317917        -8.6510
  22   2.0000      -0.273155        -7.4329
  23   2.0000      -0.238342        -6.4856
  24   0.0000      -0.013189        -0.3589
  25   0.0000       0.076266         2.0753
  26   0.0000       0.099162         2.6983
  27   0.0000       0.120807         3.2873
  28   0.0000       0.133121         3.6224

MULLIKEN ATOMIC CHARGES
-----------------------
   0 C :   -0.442466
   1 C :   -0.151005
   2 O :   -0.164963
   3 C :    0.410559
   4 O :   -0.412114
   5 C :   -0.515567
   6 H :    0.146918
   7 H :    0.151766
   8 H :    0.151661
   9 H :    0.153649
  10 H :    0.156336
  11 H :    0.172985
  12 H :    0.172492
  13 H :    0.169748
Sum of atomic charges:    0.0000000

LOEWDIN ATOMIC CHARGES
----------------------
   0 C :   -0.387698
   1 C :    0.031694
   2 O :   -0.604211
   3 C :    0.350179
   4 O :   -0.416375
   5 C :   -0.339020
   6 H :    0.159465
   7 H :    0.158929
   8 H :    0.158927
   9 H :    0.178072
  10 H :    0.179395
  11 H :    0.180518
  12 H :    0.176200
  13 H :    0.173924

  Mayer bond orders larger than 0.100000
B(  0-C ,  1-C ) :   0.9375 B(  0-C ,  6-H ) :   0.9683 B(  0-C ,  7-H ) :   0.9728
B(  0-C ,  8-H ) :   0.9720 B(  1-C ,  2-O ) :   0.8189 B(  1-C ,  9-H ) :   0.9517
B(  1-C , 10-H ) :   0.9546 B(  2-O ,  3-C ) :   1.0614 B(  3-C ,  4-O ) :   1.8299
B(  3-C ,  5-C ) :   0.9480 B(  5-C , 11-H ) :   0.9383 B(  5-C , 12-H ) :   0.9702
B(  5-C , 13-H ) :   0.9819

Dispersion correction           -0.002870323
FINAL SINGLE POINT ENERGY      -307.638120993451

DIPOLE MOMENT
-------------

Method             : SCF
Type of density    : Electron Density
Multiplicity       :   1
Irrep              :   0
Energy             :  -307.6443291468777943 Eh
Relativity type    :
Basis              : AO
                                X                 Y                 Z
Electronic contribution:      3.361676340       2.485980539       0.986854838
Nuclear contribution   :     -3.743185494      -3.171750781      -1.242524180
                        -----------------------------------------
Total Dipole Moment    :     -0.381509155      -0.685770242      -0.255669342
                        -----------------------------------------
Magnitude (a.u.)       :      0.825346516
Magnitude (Debye)      :      2.097864125

Rotational constants in cm-1:             0.284244             0.069825             0.057872
Rotational constants in MHz :          8521.413905          2093.306304          1734.972829

                             ****ORCA TERMINATED NORMALLY****
TOTAL RUN TIME: 0 days 0 hours 0 minutes 27 seconds 67 msec
