                         Program Version 6.0.1  -  RELEASE   -
|  1> ! r2scan-3c def2/J RI DEFGRID2 scfconv6 printgap
|  2> %output
|  3>     printlevel normal
|  4> end
|  5> * xyz 0 1
|  6> C -2.417412484 0.0604503496 1.5239251162
|  7> O -1.1676724241 0.0513127411 0.8496959028
|  8> C -1.2205555855 -0.0707298139 -0.4815192171
|  9> O -2.2610470334 -0.1684216923 -1.0816153686
| 10> C 0.135225763 -0.0768692399 -1.1602284967
| 11> C 0.9792000794 -1.2960863472 -0.7590436388
| 12> C 1.585835117 -1.1655262433 0.6338541608
| 13> C 2.4103372315 0.1127299898 0.7381255733
| 14> C 1.5269610039 1.3234557298 0.458228362
| 15> C 0.9144226342 1.227222449 -0.9350824582
| 16> H -2.9514471705 -0.874982303 1.3454425821
| 17> H -3.0344804406 0.8876767686 1.1676126161
| 18> H -2.1934011021 0.1774606603 2.5813051965
| 19> H -0.0967598984 -0.1579756673 -2.2285922668
| 20> H 0.3657909219 -2.1978880765 -0.8202068158
| 21> H 1.7872740719 -1.3941743057 -1.4883621937
| 22> H 0.7930250877 -1.1429480203 1.3817102273
| 23> H 2.2151484695 -2.0357156147 0.8334978625
| 24> H 2.8476668684 0.1935745171 1.7350876917
| 25> H 3.2284834117 0.0807781018 0.014080412
| 26> H 0.7361673961 1.3711655765 1.2068332711
| 27> H 2.115065576 2.2413098336 0.5277976377
| 28> H 0.2554958953 2.0794765433 -1.1159307709
| 29> H 1.7167063252 1.2649985601 -1.6763815829
| 30> *
| 31>
| 32>                          ****END OF INPUT****

CARTESIAN COORDINATES (ANGSTROEM)
---------------------------------
  C     -2.417412    0.060450    1.523925
  O     -1.167672    0.051313    0.849696
  C     -1.220556   -0.070730   -0.481519
  O     -2.261047   -0.168422   -1.081615
  C      0.135226   -0.076869   -1.160228
  C      0.979200   -1.296086   -0.759044
  C      1.585835   -1.165526    0.633854
  C      2.410337    0.112730    0.738126
  C      1.526961    1.323456    0.458228
  C      0.914423    1.227222   -0.935082
  H     -2.951447   -0.874982    1.345443
  H     -3.034480    0.887677    1.167613
  H     -2.193401    0.177461    2.581305
  H     -0.096760   -0.157976   -2.228592
  H      0.365791   -2.197888   -0.820207
  H      1.787274   -1.394174   -1.488362
  H      0.793025   -1.142948    1.381710
  H      2.215148   -2.035716    0.833498
  H      2.847667    0.193575    1.735088
  H      3.228483    0.080778    0.014080
  H      0.736167    1.371166    1.206833
  H      2.115066    2.241310    0.527798
  H      0.255496    2.079477   -1.115931
  H      1.716706    1.264999   -1.676382

 Total Charge           Charge          ....    0
 Multiplicity           Mult            ....    1
 Number of Electrons    NEL             ....   78
 Basis Dimension        Dim             ....  270

ORBITAL ENERGIES
----------------

  NO   OCC          E(Eh)            E(eV)
   0   2.0000     -19.000800      -517.0381
   1   2.0000     -18.929714      -515.1037
   2   2.0000     -10.149962      -276.1945
   3   2.0000     -10.086724      -274.4737
   4   2.0000     -10.046642      -273.3830
   5   2.0000     -10.033428      -273.0234
   6   2.0000     -10.033221      -273.0178
   7   2.0000     -10.022558      -272.7277
   8   2.0000     -10.021492      -272.6987
   9   2.0000     -10.021208      -272.6909
  10   2.0000      -1.076208       -29.2851
  11   2.0000      -0.980459       -26.6796
  12   2.0000      -0.808645       -22.0044
  13   2.0000      -0.731957       -19.9176
  14   2.0000      -0.712932       -19.3999
  15   2.0000      -0.691439       -18.8150
  16   2.0000      -0.596568       -16.2335
  17   2.0000      -0.578906       -15.7528
  18   2.0000      -0.545547       -14.8451
  19   2.0000      -0.522667       -14.2225
  20   2.0000      -0.461966       -12.5707
  21   2.0000      -0.458149       -12.4669
  22   2.0000      -0.448706       -12.2099
  23   2.0000      -0.431131       -11.7317
  24   2.0000      -0.410901       -11.1812
  25   2.0000      -0.410170       -11.1613
  26   2.0000      -0.397877       -10.8268
  27   2.0000      -0.370398       -10.0790
  28   2.0000      -0.358865        -9.7652
  29   2.0000      -0.349902        -9.5213
  30   2.0000      -0.339688        -9.2434
  31   2.0000      -0.339584        -9.2406
  32   2.0000      -0.327361        -8.9079
  33   2.0000      -0.314191        -8.5496
  34   2.0000      -0.282171        -7.6783
  35   2.0000      -0.276048        -7.5116
  36   2.0000      -0.274083        -7.4582
  37   2.0000      -0.270734        -7.3671
  38   2.0000      -0.232740        -6.3332
  39   0.0000      -0.014876        -0.4048
  40   0.0000       0.057315         1.5596
  41   0.0000       0.084036         2.2867
  42   0.0000       0.095110         2.5881
  43   0.0000       0.108359         2.9486

MULLIKEN ATOMIC CHARGES
-----------------------
   0 C :   -0.303920
   1 O :   -0.156432
   2 C :    0.190710
   3 O :   -0.393956
   4 C :    0.143739
   5 C :   -0.405526
   6 C :   -0.258721
   7 C :   -0.346633
   8 C :   -0.257952
   9 C :   -0.407799
  10 H :    0.161586
  11 H :    0.162286
  12 H :    0.148934
  13 H :    0.172405
  14 H :    0.150654
  15 H :    0.162077
  16 H :    0.166671
  17 H :    0.147757
  18 H :    0.151864
  19 H :    0.145467
  20 H :    0.167221
  21 H :    0.147407
  22 H :    0.150210
  23 H :    0.161951
Sum of atomic charges:   -0.0000000

LOEWDIN ATOMIC CHARGES
----------------------
   0 C :   -0.046520
   1 O :   -0.623792
   2 C :    0.359334
   3 O :   -0.415633
   4 C :   -0.155080
   5 C :   -0.271760
   6 C :   -0.299329
   7 C :   -0.299785
   8 C :   -0.299344
   9 C :   -0.272396
  10 H :    0.177190
  11 H :    0.177703
  12 H :    0.174494
  13 H :    0.184585
  14 H :    0.164596
  15 H :    0.161612
  16 H :    0.170518
  17 H :    0.154063
  18 H :    0.155564
  19 H :    0.153028
  20 H :    0.171017
  21 H :    0.153932
  22 H :    0.164424
  23 H :    0.161578

  Mayer bond orders larger than 0.100000
B(  0-C ,  1-O ) :   0.8540 B(  0-C , 10-H ) :   0.9617 B(  0-C , 11-H ) :   0.9620
B(  0-C , 12-H ) :   0.9695 B(  1-O ,  2-C ) :   1.0381 B(  2-C ,  3-O ) :   1.8473
B(  2-C ,  4-C ) :   0.9684 B(  4-C ,  5-C ) :   0.8832 B(  4-C ,  9-C ) :   0.8847
B(  4-C , 13-H ) :   0.9347 B(  5-C ,  6-C ) :   0.8997 B(  5-C , 14-H ) :   0.9471
B(  5-C , 15-H ) :   0.9861 B(  6-C ,  7-C ) :   0.8981 B(  6-C , 16-H ) :   0.9875
B(  6-C , 17-H ) :   0.9383 B(  7-C ,  8-C ) :   0.8980 B(  7-C , 18-H ) :   0.9495
B(  7-C , 19-H ) :   1.0065 B(  8-C ,  9-C ) :   0.8983 B(  8-C , 20-H ) :   0.9878
B(  8-C , 21-H ) :   0.9384 B(  9-C , 22-H ) :   0.9480 B(  9-C , 23-H ) :   0.9865

Dispersion correction           -0.008026575
FINAL SINGLE POINT ENERGY      -463.631681694008

DIPOLE MOMENT
-------------

Method             : SCF
Type of density    : Electron Density
Multiplicity       :   1
Irrep              :   0
Energy             :  -463.6371058654499393 Eh
Relativity type    :
Basis              : AO
                                X                 Y                 Z
Electronic contribution:     -6.745501846      -0.386122463      -2.620877183
Nuclear contribution   :      7.252547784       0.460551739       3.246272953
                        -----------------------------------------
Total Dipole Moment    :      0.507045938       0.074429276       0.625395770
                        -----------------------------------------
Magnitude (a.u.)       :      0.808551278
Magnitude (Debye)      :      2.055174022

Rotational constants in cm-1:             0.069981             0.033509             0.031308
Rotational constants in MHz :          2097.964305          1004.567886           938.575507

                             ****ORCA TERMINATED NORMALLY****
TOTAL RUN TIME: 0 days 0 hours 0 minutes 29 seconds 32 msec
