                         Program Version 6.0.1  -  RELEASE   -
|  1> ! pbe def2-sv(p) def2/J RI DEFGRID1 loosescf d4 GCP(DFT/SV(P)) printgap
|  2> %output
|  3>     printlevel normal
|  4> end
|  5> * xyz 0 1
|  6> C 1.7226989626 1.4764049916 0.4423258215
|  7> C 0.4436386022 0.77837457 0.920395092
|  8> H 0.2490611107 1.141053211 1.9331138626
|  9> C 0.443342899 -0.7777232164 0.921005452
| 10> H 0.2486724456 -1.1394572667 1.9340020364
| 11> C 1.721862366 -1.4770311202 0.4434480353
| 12> O 2.7695177534 -1.2830190578 1.3480466684
| 13> S 3.8055725145 -0.0007502303 1.0418882977
| 14> O 4.7309005183 -0.0006764046 2.114131129
| 15> O 2.770136166 1.2822393248 1.3472122902
| 16> C -0.7778677991 -1.1168487743 0.0259078878
| 17> C -0.4425785458 -0.6708162051 -1.3845538287
| 18> C -0.442089991 0.6700306438 -1.3852064166
| 19> C -0.7772498573 1.1174094333 0.0249347465
| 20> C -1.7696178644 0.0006737554 0.4250824904
| 21> Cl -3.2453449094 0.0007205009 -0.54717997
| 22> Cl -2.2180252065 0.001643918 2.1248012606
| 23> Cl -1.3573393151 2.7625101629 0.1724573673
| 24> Cl -0.0759339296 1.7383469115 -2.643058152
| 25> Cl -0.0776739692 -1.7404882384 -2.6418209544
| 26> Cl -1.3586579345 -2.7615343157 0.1748733796
| 27> H 1.5292569065 2.553246614 0.392961106
| 28> H 2.0094604395 1.1323161275 -0.5597967876
| 29> H 1.5273804268 -2.5536758017 0.3950850688
| 30> H 2.0089435185 -1.1343266462 -0.5589413504
| 31> *
| 32>
| 33>                          ****END OF INPUT****

CARTESIAN COORDINATES (ANGSTROEM)
---------------------------------
  C      1.722699    1.476405    0.442326
  C      0.443639    0.778375    0.920395
  H      0.249061    1.141053    1.933114
  C      0.443343   -0.777723    0.921005
  H      0.248672   -1.139457    1.934002
  C      1.721862   -1.477031    0.443448
  O      2.769518   -1.283019    1.348047
  S      3.805573   -0.000750    1.041888
  O      4.730901   -0.000676    2.114131
  O      2.770136    1.282239    1.347212
  C     -0.777868   -1.116849    0.025908
  C     -0.442579   -0.670816   -1.384554
  C     -0.442090    0.670031   -1.385206
  C     -0.777250    1.117409    0.024935
  C     -1.769618    0.000674    0.425082
  Cl    -3.245345    0.000721   -0.547180
  Cl    -2.218025    0.001644    2.124801
  Cl    -1.357339    2.762510    0.172457
  Cl    -0.075934    1.738347   -2.643058
  Cl    -0.077674   -1.740488   -2.641821
  Cl    -1.358658   -2.761534    0.174873
  H      1.529257    2.553247    0.392961
  H      2.009460    1.132316   -0.559797
  H      1.527380   -2.553676    0.395085
  H      2.008944   -1.134327   -0.558941

 Total Charge           Charge          ....    0
 Multiplicity           Mult            ....    1
 Number of Electrons    NEL             ....  202
 Basis Dimension        Dim             ....  306

ORBITAL ENERGIES
----------------

  NO   OCC          E(Eh)            E(eV)
   0   2.0000    -100.681898     -2739.6937
   1   2.0000    -100.681856     -2739.6926
   2   2.0000    -100.668663     -2739.3336
   3   2.0000    -100.662107     -2739.1552
   4   2.0000    -100.662098     -2739.1550
   5   2.0000    -100.658737     -2739.0635
   6   2.0000     -88.206885     -2400.2314
   7   2.0000     -18.800893      -511.5983
   8   2.0000     -18.800864      -511.5975
   9   2.0000     -18.772030      -510.8129
  10   2.0000     -10.045382      -273.3487
  11   2.0000     -10.014288      -272.5026
  12   2.0000     -10.014253      -272.5017
  13   2.0000      -9.989640      -271.8319
  14   2.0000      -9.989079      -271.8166
  15   2.0000      -9.972931      -271.3772
  16   2.0000      -9.972847      -271.3750
  17   2.0000      -9.946903      -270.6690
  18   2.0000      -9.946808      -270.6664
  19   2.0000      -9.217544      -250.8221
  20   2.0000      -9.217497      -250.8208
  21   2.0000      -9.204704      -250.4727
  22   2.0000      -9.197945      -250.2888
  23   2.0000      -9.197936      -250.2886
  24   2.0000      -9.194770      -250.2024
  25   2.0000      -7.833437      -213.1586
  26   2.0000      -7.049023      -191.8137
  27   2.0000      -7.048999      -191.8130
  28   2.0000      -7.037696      -191.5055
  29   2.0000      -7.037672      -191.5048
  30   2.0000      -7.036585      -191.4752
  31   2.0000      -7.036557      -191.4745
  32   2.0000      -7.036423      -191.4708
  33   2.0000      -7.029646      -191.2864
  34   2.0000      -7.029643      -191.2863
  35   2.0000      -7.026733      -191.2071
  36   2.0000      -7.024223      -191.1388
  37   2.0000      -7.024050      -191.1341
  38   2.0000      -7.017563      -190.9576
  39   2.0000      -7.017559      -190.9575
  40   2.0000      -7.017268      -190.9496
  41   2.0000      -7.017264      -190.9495
  42   2.0000      -7.014177      -190.8654
  43   2.0000      -7.014033      -190.8615
  44   2.0000      -5.861693      -159.5048
  45   2.0000      -5.860843      -159.4817
  46   2.0000      -5.851136      -159.2175
  47   2.0000      -1.044674       -28.4270
  48   2.0000      -0.959684       -26.1143
  49   2.0000      -0.957804       -26.0632
  50   2.0000      -0.922105       -25.0917
  51   2.0000      -0.851012       -23.1572
  52   2.0000      -0.838653       -22.8209
  53   2.0000      -0.811770       -22.0894
  54   2.0000      -0.805804       -21.9270
  55   2.0000      -0.780732       -21.2448
  56   2.0000      -0.775746       -21.1091
  57   2.0000      -0.732831       -19.9414
  58   2.0000      -0.693885       -18.8816
  59   2.0000      -0.672358       -18.2958
  60   2.0000      -0.633488       -17.2381
  61   2.0000      -0.629776       -17.1371
  62   2.0000      -0.574853       -15.6426
  63   2.0000      -0.555161       -15.1067
  64   2.0000      -0.538246       -14.6464
  65   2.0000      -0.519841       -14.1456
  66   2.0000      -0.499464       -13.5911
  67   2.0000      -0.494965       -13.4687
  68   2.0000      -0.494955       -13.4684
  69   2.0000      -0.476141       -12.9565
  70   2.0000      -0.465791       -12.6748
  71   2.0000      -0.442775       -12.0485
  72   2.0000      -0.433427       -11.7941
  73   2.0000      -0.432948       -11.7811
  74   2.0000      -0.424648       -11.5553
  75   2.0000      -0.412825       -11.2336
  76   2.0000      -0.407478       -11.0881
  77   2.0000      -0.405810       -11.0427
  78   2.0000      -0.396893       -10.8000
  79   2.0000      -0.388317       -10.5666
  80   2.0000      -0.374561       -10.1923
  81   2.0000      -0.356871        -9.7109
  82   2.0000      -0.356591        -9.7033
  83   2.0000      -0.333549        -9.0763
  84   2.0000      -0.331569        -9.0224
  85   2.0000      -0.322656        -8.7799
  86   2.0000      -0.315181        -8.5765
  87   2.0000      -0.309686        -8.4270
  88   2.0000      -0.301193        -8.1959
  89   2.0000      -0.300813        -8.1855
  90   2.0000      -0.296936        -8.0800
  91   2.0000      -0.296186        -8.0596
  92   2.0000      -0.289685        -7.8827
  93   2.0000      -0.286924        -7.8076
  94   2.0000      -0.285790        -7.7767
  95   2.0000      -0.281399        -7.6573
  96   2.0000      -0.277706        -7.5568
  97   2.0000      -0.276524        -7.5246
  98   2.0000      -0.250917        -6.8278
  99   2.0000      -0.243020        -6.6129
 100   2.0000      -0.233096        -6.3429
 101   0.0000      -0.076275        -2.0756
 102   0.0000      -0.064089        -1.7439
 103   0.0000      -0.029234        -0.7955
 104   0.0000      -0.025586        -0.6962
 105   0.0000      -0.019164        -0.5215

MULLIKEN ATOMIC CHARGES
-----------------------
   0 C :    0.071005
   1 C :   -0.061895
   2 H :    0.104171
   3 C :   -0.061833
   4 H :    0.104147
   5 C :    0.071064
   6 O :   -0.402984
   7 S :    0.788484
   8 O :   -0.368095
   9 O :   -0.403014
  10 C :   -0.097105
  11 C :    0.033237
  12 C :    0.033307
  13 C :   -0.097121
  14 C :   -0.134610
  15 Cl:    0.016106
  16 Cl:    0.019885
  17 Cl:   -0.015662
  18 Cl:    0.003749
  19 Cl:    0.003709
  20 Cl:   -0.015643
  21 H :    0.110942
  22 H :    0.093632
  23 H :    0.110908
  24 H :    0.093616
Sum of atomic charges:    0.0000000

LOEWDIN ATOMIC CHARGES
----------------------
   0 C :   -0.142382
   1 C :   -0.151421
   2 H :    0.136005
   3 C :   -0.151399
   4 H :    0.136013
   5 C :   -0.142427
   6 O :   -0.302672
   7 S :    0.903494
   8 O :   -0.414712
   9 O :   -0.302704
  10 C :   -0.168264
  11 C :   -0.209459
  12 C :   -0.209516
  13 C :   -0.168243
  14 C :   -0.230241
  15 Cl:    0.129490
  16 Cl:    0.150686
  17 Cl:    0.138232
  18 Cl:    0.207583
  19 Cl:    0.207453
  20 Cl:    0.138266
  21 H :    0.125397
  22 H :    0.097700
  23 H :    0.125404
  24 H :    0.097718

  Mayer bond orders larger than 0.100000
B(  0-C ,  1-C ) :   1.0889 B(  0-C ,  9-O ) :   1.0045 B(  0-C , 21-H ) :   0.9051
B(  0-C , 22-H ) :   0.8832 B(  1-C ,  2-H ) :   0.8412 B(  1-C ,  3-C ) :   0.9810
B(  1-C , 13-C ) :   0.9627 B(  3-C ,  4-H ) :   0.8412 B(  3-C ,  5-C ) :   1.0889
B(  3-C , 10-C ) :   0.9627 B(  5-C ,  6-O ) :   1.0045 B(  5-C , 23-H ) :   0.9051
B(  5-C , 24-H ) :   0.8832 B(  6-O ,  7-S ) :   0.8796 B(  7-S ,  8-O ) :   1.9070
B(  7-S ,  9-O ) :   0.8796 B( 10-C , 11-C ) :   0.8907 B( 10-C , 14-C ) :   0.8248
B( 10-C , 20-Cl) :   1.1335 B( 11-C , 12-C ) :   1.7587 B( 11-C , 19-Cl) :   1.1422
B( 12-C , 13-C ) :   0.8907 B( 12-C , 18-Cl) :   1.1422 B( 13-C , 14-C ) :   0.8248
B( 13-C , 17-Cl) :   1.1335 B( 14-C , 15-Cl) :   1.1516 B( 14-C , 16-Cl) :   1.1499

Dispersion correction           -0.058368537
FINAL SINGLE POINT ENERGY     -3728.104179442269

DIPOLE MOMENT
-------------

Method             : SCF
Type of density    : Electron Density
Multiplicity       :   1
Irrep              :   0
Energy             : -3728.1571239975946810 Eh
Relativity type    :
Basis              : AO
                                X                 Y                 Z
Electronic contribution:    -18.748782980       0.002368634      -8.797301433
Nuclear contribution   :     18.330886155      -0.002400636       7.868464978
                        -----------------------------------------
Total Dipole Moment    :     -0.417896825      -0.000032002      -0.928836455
                        -----------------------------------------
Magnitude (a.u.)       :      1.018516037
Magnitude (Debye)      :      2.588862027

Rotational constants in cm-1:             0.009658             0.006006             0.005754
Rotational constants in MHz :           289.528321           180.054773           172.508336

                             ****ORCA TERMINATED NORMALLY****
TOTAL RUN TIME: 0 days 0 hours 0 minutes 17 seconds 133 msec
