                         Program Version 6.0.1  -  RELEASE   -
|  1> ! pbe def2-sv(p) def2/J RI DEFGRID1 loosescf d4 GCP(DFT/SV(P)) printgap
|  2> %output
|  3>     printlevel normal
|  4> end
|  5> * xyz 0 1
|  6> C -2.555769208 -0.7157098505 -0.3163877463
|  7> C -1.1795952322 -0.3077742364 0.2234932913
|  8> H -1.2193337934 -0.2754222425 1.3274706985
|  9> C -0.7339014433 1.0646444508 -0.3007963365
| 10> H -0.7525202079 1.0608904698 -1.3963633653
| 11> C 0.6995763087 1.3395088125 0.1748956856
| 12> H 0.6980674804 1.4326851948 1.2769867344
| 13> C 1.6300533414 0.1817101599 -0.2077404052
| 14> H 1.6828866417 0.1305178886 -1.3095711673
| 15> C 1.0449571113 -1.1454415395 0.3157573319
| 16> H 1.0405687097 -1.127915563 1.4166433593
| 17> O -0.2706201683 -1.3080515648 -0.1844571694
| 18> O 1.7759051891 -2.2476817698 -0.0456479233
| 19> O 2.9039589425 0.3597040785 0.3404144934
| 20> O 1.2104810497 2.5213684076 -0.3949747772
| 21> O -1.593069199 2.1083981746 0.084067891
| 22> O -3.0246164573 -1.8788421459 0.3009814585
| 23> H -2.4726124205 -0.8498305759 -1.4034775218
| 24> H -3.2826756026 0.0714627369 -0.107377451
| 25> H 1.8339678616 -2.2909625517 -1.0085390127
| 26> H 3.1850955907 1.2594254261 0.1287699234
| 27> H 0.488435785 3.161633611 -0.4407491337
| 28> H -1.7201021345 2.0800584 1.0407791648
| 29> H -2.3430117105 -2.5555389475 0.2020607424
| 30> *
| 31>
| 32>                          ****END OF INPUT****

CARTESIAN COORDINATES (ANGSTROEM)
---------------------------------
  C     -2.555769   -0.715710   -0.316388
  C     -1.179595   -0.307774    0.223493
  H     -1.219334   -0.275422    1.327471
  C     -0.733901    1.064644   -0.300796
  H     -0.752520    1.060890   -1.396363
  C      0.699576    1.339509    0.174896
  H      0.698067    1.432685    1.276987
  C      1.630053    0.181710   -0.207740
  H      1.682887    0.130518   -1.309571
  C      1.044957   -1.145442    0.315757
  H      1.040569   -1.127916    1.416643
  O     -0.270620   -1.308052   -0.184457
  O      1.775905   -2.247682   -0.045648
  O      2.903959    0.359704    0.340414
  O      1.210481    2.521368   -0.394975
  O     -1.593069    2.108398    0.084068
  O     -3.024616   -1.878842    0.300981
  H     -2.472612   -0.849831   -1.403478
  H     -3.282676    0.071463   -0.107377
  H      1.833968   -2.290963   -1.008539
  H      3.185096    1.259425    0.128770
  H      0.488436    3.161634   -0.440749
  H     -1.720102    2.080058    1.040779
  H     -2.343012   -2.555539    0.202061

 Total Charge           Charge          ....    0
 Multiplicity           Mult            ....    1
 Number of Electrons    NEL             ....   96
 Basis Dimension        Dim             ....  192

ORBITAL ENERGIES
----------------

  NO   OCC          E(Eh)            E(eV)
   0   2.0000     -18.783526      -511.1257
   1   2.0000     -18.778875      -510.9992
   2   2.0000     -18.763816      -510.5894
   3   2.0000     -18.763040      -510.5683
   4   2.0000     -18.753163      -510.2995
   5   2.0000     -18.747555      -510.1469
   6   2.0000      -9.992970      -271.9225
   7   2.0000      -9.955649      -270.9070
   8   2.0000      -9.954100      -270.8648
   9   2.0000      -9.950952      -270.7792
  10   2.0000      -9.947302      -270.6799
  11   2.0000      -9.936433      -270.3841
  12   2.0000      -0.992917       -27.0187
  13   2.0000      -0.963375       -26.2148
  14   2.0000      -0.945102       -25.7175
  15   2.0000      -0.933739       -25.4083
  16   2.0000      -0.924067       -25.1451
  17   2.0000      -0.918137       -24.9838
  18   2.0000      -0.712844       -19.3975
  19   2.0000      -0.696954       -18.9651
  20   2.0000      -0.622206       -16.9311
  21   2.0000      -0.594961       -16.1897
  22   2.0000      -0.566947       -15.4274
  23   2.0000      -0.555767       -15.1232
  24   2.0000      -0.513263       -13.9666
  25   2.0000      -0.493642       -13.4327
  26   2.0000      -0.481768       -13.1096
  27   2.0000      -0.462059       -12.5733
  28   2.0000      -0.453969       -12.3531
  29   2.0000      -0.440823       -11.9954
  30   2.0000      -0.420658       -11.4467
  31   2.0000      -0.418681       -11.3929
  32   2.0000      -0.399368       -10.8673
  33   2.0000      -0.380128       -10.3438
  34   2.0000      -0.364559        -9.9202
  35   2.0000      -0.360422        -9.8076
  36   2.0000      -0.329963        -8.9787
  37   2.0000      -0.321398        -8.7457
  38   2.0000      -0.311960        -8.4889
  39   2.0000      -0.304967        -8.2986
  40   2.0000      -0.293663        -7.9910
  41   2.0000      -0.288265        -7.8441
  42   2.0000      -0.262259        -7.1364
  43   2.0000      -0.245862        -6.6902
  44   2.0000      -0.242721        -6.6048
  45   2.0000      -0.225581        -6.1384
  46   2.0000      -0.223299        -6.0763
  47   2.0000      -0.212684        -5.7874
  48   0.0000       0.002090         0.0569
  49   0.0000       0.018942         0.5154
  50   0.0000       0.036472         0.9925
  51   0.0000       0.040311         1.0969
  52   0.0000       0.049928         1.3586

MULLIKEN ATOMIC CHARGES
-----------------------
   0 C :    0.118439
   1 C :   -0.048219
   2 H :    0.045531
   3 C :    0.037147
   4 H :    0.069215
   5 C :    0.051983
   6 H :    0.040409
   7 C :    0.043164
   8 H :    0.041256
   9 C :    0.203504
  10 H :    0.057879
  11 O :   -0.315591
  12 O :   -0.358123
  13 O :   -0.403353
  14 O :   -0.420284
  15 O :   -0.413214
  16 O :   -0.429016
  17 H :    0.069977
  18 H :    0.082810
  19 H :    0.302540
  20 H :    0.311600
  21 H :    0.307274
  22 H :    0.304068
  23 H :    0.301006
Sum of atomic charges:    0.0000000

LOEWDIN ATOMIC CHARGES
----------------------
   0 C :   -0.124467
   1 C :   -0.084478
   2 H :    0.098586
   3 C :   -0.084909
   4 H :    0.120014
   5 C :   -0.087900
   6 H :    0.096693
   7 C :   -0.089556
   8 H :    0.099223
   9 C :    0.006938
  10 H :    0.102550
  11 O :   -0.158302
  12 O :   -0.272208
  13 O :   -0.312135
  14 O :   -0.327914
  15 O :   -0.305384
  16 O :   -0.331543
  17 H :    0.101898
  18 H :    0.116137
  19 H :    0.288998
  20 H :    0.290354
  21 H :    0.286144
  22 H :    0.288188
  23 H :    0.283074

  Mayer bond orders larger than 0.100000
B(  0-C ,  1-C ) :   1.0469 B(  0-C , 16-O ) :   1.0863 B(  0-C , 17-H ) :   0.9035
B(  0-C , 18-H ) :   0.9130 B(  1-C ,  2-H ) :   0.8651 B(  1-C ,  3-C ) :   0.9917
B(  1-C , 11-O ) :   0.9842 B(  3-C ,  4-H ) :   0.8609 B(  3-C ,  5-C ) :   1.0087
B(  3-C , 15-O ) :   1.0093 B(  5-C ,  6-H ) :   0.8677 B(  5-C ,  7-C ) :   1.0145
B(  5-C , 14-O ) :   1.0877 B(  7-C ,  8-H ) :   0.8576 B(  7-C ,  9-C ) :   0.9887
B(  7-C , 13-O ) :   1.0930 B(  9-C , 10-H ) :   0.8794 B(  9-C , 11-O ) :   0.9804
B(  9-C , 12-O ) :   1.1767 B( 12-O , 19-H ) :   0.8439 B( 13-O , 20-H ) :   0.8380
B( 14-O , 21-H ) :   0.8297 B( 15-O , 22-H ) :   0.8444 B( 16-O , 23-H ) :   0.8442

Dispersion correction           -0.023687279
FINAL SINGLE POINT ENERGY      -685.700438340941

DIPOLE MOMENT
-------------

Method             : SCF
Type of density    : Electron Density
Multiplicity       :   1
Irrep              :   0
Energy             :  -685.8308041470104399 Eh
Relativity type    :
Basis              : AO
                                X                 Y                 Z
Electronic contribution:      2.571603474      -1.195191100       0.047071924
Nuclear contribution   :     -2.669479349       1.960752345      -0.254977640
                        -----------------------------------------
Total Dipole Moment    :     -0.097875874       0.765561245      -0.207905716
                        -----------------------------------------
Magnitude (a.u.)       :      0.799305006
Magnitude (Debye)      :      2.031671867

Rotational constants in cm-1:             0.038991             0.026188             0.016406
Rotational constants in MHz :          1168.909364           785.098807           491.846562

                             ****ORCA TERMINATED NORMALLY****
TOTAL RUN TIME: 0 days 0 hours 0 minutes 9 seconds 79 msec
