                         Program Version 6.0.1  -  RELEASE   -
|  1> ! pbe def2-sv(p) def2/J RI DEFGRID1 loosescf d4 GCP(DFT/SV(P)) printgap
|  2> %output
|  3>     printlevel normal
|  4> end
|  5> * xyz 0 1
|  6> C -2.8775472509 0.0657761363 -0.0077648878
|  7> C -1.7868633962 -0.9932279982 0.072581865
|  8> C -0.3492219873 -0.5285590814 0.041918987
|  9> C 0.623450002 -1.520248888 0.1347491013
| 10> C 1.9761993912 -1.2420765513 0.1192122462
| 11> C 2.3957103589 0.0710599096 0.0078207893
| 12> C 1.4529973556 1.0744715593 -0.0860870921
| 13> C 0.0882853889 0.7943569701 -0.0713473782
| 14> O -0.8021007657 1.8240908413 -0.1683133939
| 15> H -3.8518586795 -0.4188317753 0.0317387732
| 16> H -2.8087291061 0.6265057333 -0.9348037927
| 17> H -2.8053629148 0.7628678816 0.8214911147
| 18> H -1.9199802683 -1.6960500576 -0.7569313284
| 19> H -1.9238897498 -1.5665564477 0.9957184242
| 20> H 0.2957657546 -2.5467540292 0.2223018119
| 21> H 2.6962792517 -2.0426025839 0.193819417
| 22> H 3.4471242858 0.3158963479 -0.0057693236
| 23> H 1.7703148904 2.1068197122 -0.1736116235
| 24> H -0.3166100494 2.6550334693 -0.237600831
| 25> *
| 26>
| 27>                          ****END OF INPUT****

CARTESIAN COORDINATES (ANGSTROEM)
---------------------------------
  C     -2.877547    0.065776   -0.007765
  C     -1.786863   -0.993228    0.072582
  C     -0.349222   -0.528559    0.041919
  C      0.623450   -1.520249    0.134749
  C      1.976199   -1.242077    0.119212
  C      2.395710    0.071060    0.007821
  C      1.452997    1.074472   -0.086087
  C      0.088285    0.794357   -0.071347
  O     -0.802101    1.824091   -0.168313
  H     -3.851859   -0.418832    0.031739
  H     -2.808729    0.626506   -0.934804
  H     -2.805363    0.762868    0.821491
  H     -1.919980   -1.696050   -0.756931
  H     -1.923890   -1.566556    0.995718
  H      0.295766   -2.546754    0.222302
  H      2.696279   -2.042603    0.193819
  H      3.447124    0.315896   -0.005769
  H      1.770315    2.106820   -0.173612
  H     -0.316610    2.655033   -0.237601

 Total Charge           Charge          ....    0
 Multiplicity           Mult            ....    1
 Number of Electrons    NEL             ....   66
 Basis Dimension        Dim             ....  146

ORBITAL ENERGIES
----------------

  NO   OCC          E(Eh)            E(eV)
   0   2.0000     -18.777178      -510.9530
   1   2.0000      -9.948816      -270.7210
   2   2.0000      -9.895113      -269.2597
   3   2.0000      -9.889377      -269.1036
   4   2.0000      -9.888318      -269.0748
   5   2.0000      -9.887167      -269.0435
   6   2.0000      -9.885716      -269.0040
   7   2.0000      -9.882224      -268.9090
   8   2.0000      -9.863134      -268.3895
   9   2.0000      -0.961932       -26.1755
  10   2.0000      -0.771046       -20.9812
  11   2.0000      -0.705415       -19.1953
  12   2.0000      -0.659443       -17.9443
  13   2.0000      -0.644689       -17.5429
  14   2.0000      -0.569530       -15.4977
  15   2.0000      -0.553446       -15.0600
  16   2.0000      -0.513583       -13.9753
  17   2.0000      -0.486631       -13.2419
  18   2.0000      -0.433924       -11.8077
  19   2.0000      -0.418682       -11.3929
  20   2.0000      -0.401069       -10.9136
  21   2.0000      -0.385500       -10.4900
  22   2.0000      -0.373325       -10.1587
  23   2.0000      -0.353244        -9.6123
  24   2.0000      -0.348834        -9.4922
  25   2.0000      -0.327492        -8.9115
  26   2.0000      -0.311985        -8.4895
  27   2.0000      -0.309942        -8.4339
  28   2.0000      -0.300283        -8.1711
  29   2.0000      -0.286305        -7.7908
  30   2.0000      -0.273845        -7.4517
  31   2.0000      -0.217441        -5.9169
  32   2.0000      -0.190327        -5.1791
  33   0.0000      -0.032881        -0.8948
  34   0.0000      -0.013431        -0.3655
  35   0.0000       0.023401         0.6368
  36   0.0000       0.049361         1.3432
  37   0.0000       0.054053         1.4709

MULLIKEN ATOMIC CHARGES
-----------------------
   0 C :   -0.226601
   1 C :   -0.173763
   2 C :    0.012781
   3 C :   -0.142210
   4 C :   -0.037867
   5 C :   -0.051636
   6 C :   -0.157180
   7 C :    0.161365
   8 O :   -0.339032
   9 H :    0.090088
  10 H :    0.102956
  11 H :    0.102241
  12 H :    0.096741
  13 H :    0.096119
  14 H :    0.036595
  15 H :    0.045247
  16 H :    0.048971
  17 H :    0.021260
  18 H :    0.313924
Sum of atomic charges:    0.0000000

LOEWDIN ATOMIC CHARGES
----------------------
   0 C :   -0.343950
   1 C :   -0.217536
   2 C :   -0.064805
   3 C :   -0.111988
   4 C :   -0.146298
   5 C :   -0.123384
   6 C :   -0.173343
   7 C :    0.024007
   8 O :   -0.228587
   9 H :    0.114441
  10 H :    0.119194
  11 H :    0.119096
  12 H :    0.127212
  13 H :    0.126972
  14 H :    0.121632
  15 H :    0.121627
  16 H :    0.123028
  17 H :    0.117615
  18 H :    0.295066

  Mayer bond orders larger than 0.100000
B(  0-C ,  1-C ) :   1.1996 B(  0-C ,  9-H ) :   0.9407 B(  0-C , 10-H ) :   0.9475
B(  0-C , 11-H ) :   0.9484 B(  1-C ,  2-C ) :   1.0562 B(  1-C , 12-H ) :   0.9090
B(  1-C , 13-H ) :   0.9096 B(  2-C ,  3-C ) :   1.3998 B(  2-C ,  7-C ) :   1.3967
B(  3-C ,  4-C ) :   1.3670 B(  3-C , 14-H ) :   0.9646 B(  4-C ,  5-C ) :   1.3537
B(  4-C , 15-H ) :   0.9672 B(  5-C ,  6-C ) :   1.3862 B(  5-C , 16-H ) :   0.9639
B(  6-C ,  7-C ) :   1.3186 B(  6-C , 17-H ) :   0.9461 B(  7-C ,  8-O ) :   1.1652
B(  8-O , 18-H ) :   0.8400

Dispersion correction           -0.019102012
FINAL SINGLE POINT ENERGY      -385.228151304363

DIPOLE MOMENT
-------------

Method             : SCF
Type of density    : Electron Density
Multiplicity       :   1
Irrep              :   0
Energy             :  -385.2887822564079556 Eh
Relativity type    :
Basis              : AO
                                X                 Y                 Z
Electronic contribution:      5.316303597       2.055579163      -0.177535823
Nuclear contribution   :     -5.093897055      -1.665115282       0.144190743
                        -----------------------------------------
Total Dipole Moment    :      0.222406542       0.390463882      -0.033345080
                        -----------------------------------------
Magnitude (a.u.)       :      0.450598055
Magnitude (Debye)      :      1.145329235

Rotational constants in cm-1:             0.100600             0.046613             0.032234
Rotational constants in MHz :          3015.908225          1397.413033           966.351503

                             ****ORCA TERMINATED NORMALLY****
TOTAL RUN TIME: 0 days 0 hours 0 minutes 7 seconds 730 msec
