                         Program Version 6.0.1  -  RELEASE   -
|  1> ! r2scan-3c def2/J RI DEFGRID2 scfconv6 printgap
|  2> %output
|  3>     printlevel normal
|  4> end
|  5> * xyz 0 1
|  6> C 2.4123756722 0.0403291492 0.0886696239
|  7> C 0.9878499091 0.4247603923 -0.2884549389
|  8> C -0.0304485047 -0.4973501639 0.3946677134
|  9> C -1.3776269057 -0.1351939518 0.0385634331
| 10> N -2.4405393443 0.1661818624 -0.2549086062
| 11> H 2.5597619565 0.1171151393 1.1640719917
| 12> H 2.6283786752 -0.9818196429 -0.2157412391
| 13> H 3.1231903511 0.700564938 -0.401819599
| 14> H 0.7929200259 1.457755987 0.0079323559
| 15> H 0.8617877159 0.359763807 -1.3714162145
| 16> H 0.0700263801 -0.4313750334 1.4821877881
| 17> H 0.1397328224 -1.5358881214 0.0952874376
| 18> *
| 19>
| 20>                          ****END OF INPUT****

CARTESIAN COORDINATES (ANGSTROEM)
---------------------------------
  C      2.412376    0.040329    0.088670
  C      0.987850    0.424760   -0.288455
  C     -0.030449   -0.497350    0.394668
  C     -1.377627   -0.135194    0.038563
  N     -2.440539    0.166182   -0.254909
  H      2.559762    0.117115    1.164072
  H      2.628379   -0.981820   -0.215741
  H      3.123190    0.700565   -0.401820
  H      0.792920    1.457756    0.007932
  H      0.861788    0.359764   -1.371416
  H      0.070026   -0.431375    1.482188
  H      0.139733   -1.535888    0.095287

 Total Charge           Charge          ....    0
 Multiplicity           Mult            ....    1
 Number of Electrons    NEL             ....   38
 Basis Dimension        Dim             ....  135

ORBITAL ENERGIES
----------------

  NO   OCC          E(Eh)            E(eV)
   0   2.0000     -14.148679      -385.0051
   1   2.0000     -10.084572      -274.4151
   2   2.0000     -10.064037      -273.8564
   3   2.0000     -10.058564      -273.7074
   4   2.0000     -10.039559      -273.1903
   5   2.0000      -0.875454       -23.8223
   6   2.0000      -0.794049       -21.6072
   7   2.0000      -0.705163       -19.1885
   8   2.0000      -0.592070       -16.1110
   9   2.0000      -0.493978       -13.4418
  10   2.0000      -0.471986       -12.8434
  11   2.0000      -0.418914       -11.3992
  12   2.0000      -0.400122       -10.8879
  13   2.0000      -0.366109        -9.9623
  14   2.0000      -0.345264        -9.3951
  15   2.0000      -0.331620        -9.0238
  16   2.0000      -0.322200        -8.7675
  17   2.0000      -0.301851        -8.2138
  18   2.0000      -0.299460        -8.1487
  19   0.0000       0.008834         0.2404
  20   0.0000       0.015210         0.4139
  21   0.0000       0.062664         1.7052
  22   0.0000       0.094473         2.5708
  23   0.0000       0.121212         3.2983

MULLIKEN ATOMIC CHARGES
-----------------------
   0 C :   -0.469466
   1 C :   -0.198210
   2 C :   -0.411745
   3 C :    0.225134
   4 N :   -0.244468
   5 H :    0.145642
   6 H :    0.145625
   7 H :    0.157283
   8 H :    0.151635
   9 H :    0.151646
  10 H :    0.173459
  11 H :    0.173465
Sum of atomic charges:   -0.0000000

LOEWDIN ATOMIC CHARGES
----------------------
   0 C :   -0.418994
   1 C :   -0.288657
   2 C :   -0.259679
   3 C :    0.129155
   4 N :   -0.317970
   5 H :    0.152134
   6 H :    0.152132
   7 H :    0.157417
   8 H :    0.162045
   9 H :    0.162042
  10 H :    0.185187
  11 H :    0.185190

  Mayer bond orders larger than 0.100000
B(  0-C ,  1-C ) :   0.8924 B(  0-C ,  5-H ) :   0.9823 B(  0-C ,  6-H ) :   0.9824
B(  0-C ,  7-H ) :   0.9715 B(  1-C ,  2-C ) :   0.9208 B(  1-C ,  8-H ) :   0.9551
B(  1-C ,  9-H ) :   0.9552 B(  2-C ,  3-C ) :   1.0227 B(  2-C , 10-H ) :   0.9747
B(  2-C , 11-H ) :   0.9748 B(  3-C ,  4-N ) :   2.8911

Dispersion correction           -0.002429614
FINAL SINGLE POINT ENERGY      -211.313292771609

DIPOLE MOMENT
-------------

Method             : SCF
Type of density    : Electron Density
Multiplicity       :   1
Irrep              :   0
Energy             :  -211.3157431496975107 Eh
Relativity type    :
Basis              : AO
                                X                 Y                 Z
Electronic contribution:     -7.918007271      -0.027111901      -0.375512784
Nuclear contribution   :      9.533227282      -0.293564209       0.712081876
                        -----------------------------------------
Total Dipole Moment    :      1.615220011      -0.320676110       0.336569092
                        -----------------------------------------
Magnitude (a.u.)       :      1.680787793
Magnitude (Debye)      :      4.272223050

Rotational constants in cm-1:             0.789904             0.077429             0.073420
Rotational constants in MHz :         23680.738710          2321.264198          2201.070579

                             ****ORCA TERMINATED NORMALLY****
TOTAL RUN TIME: 0 days 0 hours 0 minutes 10 seconds 393 msec
