                         Program Version 6.0.1  -  RELEASE   -
|  1> ! r2scan-3c def2/J RI DEFGRID2 scfconv6 printgap
|  2> %output
|  3>     printlevel normal
|  4> end
|  5> * xyz 0 1
|  6> C 2.7387870162 -0.6694098221 -0.446101619
|  7> C 1.9506854162 0.3424108404 0.3770051252
|  8> C 0.4654533404 0.2134411189 0.1804829835
|  9> C -0.3756479192 1.3141003052 0.339157329
| 10> C -1.7382559411 1.14807565 0.1703491263
| 11> C -2.2234146561 -0.1099135309 -0.1539394341
| 12> C -1.307812672 -1.1404343277 -0.2895797589
| 13> N -0.0063148464 -0.9869551806 -0.1269963918
| 14> H 2.5630310498 -0.5106635016 -1.5072039171
| 15> H 2.4200959296 -1.6765193586 -0.1957356071
| 16> H 3.803748556 -0.5709420765 -0.2487919335
| 17> H 2.259132265 1.3600894928 0.126436472
| 18> H 2.164703262 0.1872167679 1.4394872429
| 19> H 0.0365129544 2.2804942569 0.589798884
| 20> H -2.4120238332 1.985347418 0.2869306336
| 21> H -3.2785230446 -0.2834411473 -0.2976387109
| 22> H -1.6272125031 -2.1438793511 -0.5421626898
| 23> *
| 24>
| 25>                          ****END OF INPUT****

CARTESIAN COORDINATES (ANGSTROEM)
---------------------------------
  C      2.738787   -0.669410   -0.446102
  C      1.950685    0.342411    0.377005
  C      0.465453    0.213441    0.180483
  C     -0.375648    1.314100    0.339157
  C     -1.738256    1.148076    0.170349
  C     -2.223415   -0.109914   -0.153939
  C     -1.307813   -1.140434   -0.289580
  N     -0.006315   -0.986955   -0.126996
  H      2.563031   -0.510664   -1.507204
  H      2.420096   -1.676519   -0.195736
  H      3.803749   -0.570942   -0.248792
  H      2.259132    1.360089    0.126436
  H      2.164703    0.187217    1.439487
  H      0.036513    2.280494    0.589799
  H     -2.412024    1.985347    0.286931
  H     -3.278523   -0.283441   -0.297639
  H     -1.627213   -2.143879   -0.542163

 Total Charge           Charge          ....    0
 Multiplicity           Mult            ....    1
 Number of Electrons    NEL             ....   58
 Basis Dimension        Dim             ....  202

ORBITAL ENERGIES
----------------

  NO   OCC          E(Eh)            E(eV)
   0   2.0000     -14.148811      -385.0087
   1   2.0000     -10.071564      -274.0612
   2   2.0000     -10.064453      -273.8677
   3   2.0000     -10.051871      -273.5253
   4   2.0000     -10.040492      -273.2157
   5   2.0000     -10.040141      -273.2061
   6   2.0000     -10.031456      -272.9698
   7   2.0000     -10.010543      -272.4007
   8   2.0000      -0.915296       -24.9065
   9   2.0000      -0.773414       -21.0457
  10   2.0000      -0.761478       -20.7209
  11   2.0000      -0.701262       -19.0823
  12   2.0000      -0.613816       -16.7028
  13   2.0000      -0.599766       -16.3205
  14   2.0000      -0.555929       -15.1276
  15   2.0000      -0.486611       -13.2414
  16   2.0000      -0.455474       -12.3941
  17   2.0000      -0.431158       -11.7324
  18   2.0000      -0.419333       -11.4106
  19   2.0000      -0.396843       -10.7987
  20   2.0000      -0.381276       -10.3750
  21   2.0000      -0.367736       -10.0066
  22   2.0000      -0.345802        -9.4097
  23   2.0000      -0.330761        -9.0005
  24   2.0000      -0.314350        -8.5539
  25   2.0000      -0.310311        -8.4440
  26   2.0000      -0.269950        -7.3457
  27   2.0000      -0.236903        -6.4465
  28   2.0000      -0.219749        -5.9797
  29   0.0000      -0.050650        -1.3783
  30   0.0000      -0.037512        -1.0208
  31   0.0000       0.078219         2.1285
  32   0.0000       0.101583         2.7642
  33   0.0000       0.110855         3.0165

MULLIKEN ATOMIC CHARGES
-----------------------
   0 C :   -0.474726
   1 C :   -0.318929
   2 C :    0.240821
   3 C :   -0.218622
   4 C :   -0.159189
   5 C :   -0.109370
   6 C :   -0.114863
   7 N :   -0.190149
   8 H :    0.147322
   9 H :    0.171696
  10 H :    0.140641
  11 H :    0.139179
  12 H :    0.161020
  13 H :    0.153778
  14 H :    0.148396
  15 H :    0.149805
  16 H :    0.133191
Sum of atomic charges:    0.0000000

LOEWDIN ATOMIC CHARGES
----------------------
   0 C :   -0.405838
   1 C :   -0.259658
   2 C :    0.134889
   3 C :   -0.142615
   4 C :   -0.122675
   5 C :   -0.158549
   6 C :    0.085465
   7 N :   -0.625106
   8 H :    0.154931
   9 H :    0.168354
  10 H :    0.147169
  11 H :    0.160020
  12 H :    0.171424
  13 H :    0.170537
  14 H :    0.168889
  15 H :    0.169352
  16 H :    0.183411

  Mayer bond orders larger than 0.100000
B(  0-C ,  1-C ) :   0.9127 B(  0-C ,  8-H ) :   0.9811 B(  0-C ,  9-H ) :   0.9691
B(  0-C , 10-H ) :   0.9718 B(  1-C ,  2-C ) :   0.9006 B(  1-C , 11-H ) :   0.9900
B(  1-C , 12-H ) :   0.9430 B(  2-C ,  3-C ) :   1.4019 B(  2-C ,  7-N ) :   1.3349
B(  3-C ,  4-C ) :   1.4527 B(  3-C , 13-H ) :   0.9147 B(  4-C ,  5-C ) :   1.3936
B(  4-C , 14-H ) :   0.9512 B(  5-C ,  6-C ) :   1.3705 B(  5-C , 15-H ) :   0.9365
B(  6-C ,  7-N ) :   1.4680 B(  6-C , 16-H ) :   0.9817

Dispersion correction           -0.005197746
FINAL SINGLE POINT ENERGY      -326.818591577011

DIPOLE MOMENT
-------------

Method             : SCF
Type of density    : Electron Density
Multiplicity       :   1
Irrep              :   0
Energy             :  -326.8207602786604866 Eh
Relativity type    :
Basis              : AO
                                X                 Y                 Z
Electronic contribution:     -5.888855348      -0.000561399       0.448249923
Nuclear contribution   :      5.562802506       0.583479259      -0.328004207
                        -----------------------------------------
Total Dipole Moment    :     -0.326052843       0.582917860       0.120245716
                        -----------------------------------------
Magnitude (a.u.)       :      0.678647714
Magnitude (Debye)      :      1.724985403

Rotational constants in cm-1:             0.164486             0.052350             0.040911
Rotational constants in MHz :          4931.152792          1569.413211          1226.480123

                             ****ORCA TERMINATED NORMALLY****
TOTAL RUN TIME: 0 days 0 hours 0 minutes 16 seconds 847 msec
