                         Program Version 6.0.1  -  RELEASE   -
|  1> ! r2scan-3c def2/J RI DEFGRID2 scfconv6 printgap
|  2> %output
|  3>     printlevel normal
|  4> end
|  5> * xyz 0 1
|  6> C 1.5073719108 0.5548555958 0.0239859127
|  7> C 0.8188249967 -0.5696988598 -0.0291581209
|  8> C -0.6788020924 -0.6667670504 0.0192620489
|  9> O -1.3546931148 0.5639952721 0.0283177513
| 10> H 2.5824374962 0.5656837966 -0.0191581235
| 11> H 1.0249110896 1.5126603096 0.1331139513
| 12> H 1.3167091598 -1.525666664 -0.1183100036
| 13> H -0.979072062 -1.1764975488 0.9411396031
| 14> H -1.0187880496 -1.2878830737 -0.8272515259
| 15> H -1.0535734678 1.081497336 -0.7269563717
| 16> *
| 17>
| 18>                          ****END OF INPUT****

CARTESIAN COORDINATES (ANGSTROEM)
---------------------------------
  C      1.507372    0.554856    0.023986
  C      0.818825   -0.569699   -0.029158
  C     -0.678802   -0.666767    0.019262
  O     -1.354693    0.563995    0.028318
  H      2.582437    0.565684   -0.019158
  H      1.024911    1.512660    0.133114
  H      1.316709   -1.525667   -0.118310
  H     -0.979072   -1.176498    0.941140
  H     -1.018788   -1.287883   -0.827252
  H     -1.053573    1.081497   -0.726956

 Total Charge           Charge          ....    0
 Multiplicity           Mult            ....    1
 Number of Electrons    NEL             ....   32
 Basis Dimension        Dim             ....  111

ORBITAL ENERGIES
----------------

  NO   OCC          E(Eh)            E(eV)
   0   2.0000     -18.953925      -515.7625
   1   2.0000     -10.085719      -274.4464
   2   2.0000     -10.040058      -273.2039
   3   2.0000     -10.026316      -272.8299
   4   2.0000      -0.994364       -27.0580
   5   2.0000      -0.752527       -20.4773
   6   2.0000      -0.654547       -17.8111
   7   2.0000      -0.538773       -14.6608
   8   2.0000      -0.470328       -12.7983
   9   2.0000      -0.452330       -12.3085
  10   2.0000      -0.417481       -11.3602
  11   2.0000      -0.374995       -10.2041
  12   2.0000      -0.347858        -9.4657
  13   2.0000      -0.305218        -8.3054
  14   2.0000      -0.255947        -6.9647
  15   2.0000      -0.238015        -6.4767
  16   0.0000      -0.017818        -0.4848
  17   0.0000       0.056955         1.5498
  18   0.0000       0.109164         2.9705
  19   0.0000       0.141841         3.8597
  20   0.0000       0.151039         4.1100

MULLIKEN ATOMIC CHARGES
-----------------------
   0 C :   -0.356848
   1 C :   -0.094403
   2 C :   -0.141983
   3 O :   -0.426453
   4 H :    0.144637
   5 H :    0.148729
   6 H :    0.147005
   7 H :    0.146917
   8 H :    0.133066
   9 H :    0.299332
Sum of atomic charges:    0.0000000

LOEWDIN ATOMIC CHARGES
----------------------
   0 C :   -0.313480
   1 C :   -0.184302
   2 C :    0.008937
   3 O :   -0.610653
   4 H :    0.158534
   5 H :    0.160876
   6 H :    0.163461
   7 H :    0.186213
   8 H :    0.163695
   9 H :    0.266718

  Mayer bond orders larger than 0.100000
B(  0-C ,  1-C ) :   1.9149 B(  0-C ,  4-H ) :   0.9584 B(  0-C ,  5-H ) :   0.9787
B(  1-C ,  2-C ) :   0.9410 B(  1-C ,  6-H ) :   0.9311 B(  2-C ,  3-O ) :   0.9927
B(  2-C ,  7-H ) :   0.9635 B(  2-C ,  8-H ) :   0.9732 B(  3-O ,  9-H ) :   0.8899

Dispersion correction           -0.001753884
FINAL SINGLE POINT ENERGY      -193.068473822025

DIPOLE MOMENT
-------------

Method             : SCF
Type of density    : Electron Density
Multiplicity       :   1
Irrep              :   0
Energy             :  -193.0717476224402844 Eh
Relativity type    :
Basis              : AO
                                X                 Y                 Z
Electronic contribution:     -1.405348637       0.532688994       0.190882267
Nuclear contribution   :      1.736746016      -0.770508460      -0.578825300
                        -----------------------------------------
Total Dipole Moment    :      0.331397379      -0.237819466      -0.387943033
                        -----------------------------------------
Magnitude (a.u.)       :      0.562922835
Magnitude (Debye)      :      1.430836136

Rotational constants in cm-1:             0.572834             0.198134             0.153048
Rotational constants in MHz :         17173.143567          5939.914584          4588.259018

                             ****ORCA TERMINATED NORMALLY****
TOTAL RUN TIME: 0 days 0 hours 0 minutes 23 seconds 382 msec
