                         Program Version 6.0.0  -   RELEASE  -
|  1> ! r2SCAN-3c DEF2-TZVP FREQ
|  2> * xyzfile 0 1 censo.xyz
|  3>
|  4>                          ****END OF INPUT****

CARTESIAN COORDINATES (ANGSTROEM)
---------------------------------
  C      2.202719    0.493308    0.122189
  C      1.230316   -0.587863   -0.333154
  C     -0.109273   -0.579171    0.376335
  H      0.027384   -0.548981    1.460754
  C     -1.018832   -1.715618   -0.029473
  Cl    -0.994910    1.031613    0.011302
  H      2.356133    0.449455    1.205820
  H      1.835098    1.492351   -0.128845
  H      3.175203    0.362095   -0.361274
  H      1.662684   -1.577007   -0.128758
  H      1.065963   -0.534788   -1.416061
  H     -0.533902   -2.660678    0.240657
  H     -1.980674   -1.666144    0.486428
  H     -1.192209   -1.714129   -1.109678

 Total Charge           Charge          ....    0
 Multiplicity           Mult            ....    1
 Number of Electrons    NEL             ....   50
 Basis Dimension        Dim             ....  215

ORBITAL ENERGIES
----------------

  NO   OCC          E(Eh)            E(eV)
   0   2.0000    -101.163003     -2752.7853
   1   2.0000     -10.101763      -274.8830
   2   2.0000     -10.044641      -273.3286
   3   2.0000     -10.037824      -273.1431
   4   2.0000     -10.026093      -272.8239
   5   2.0000      -9.338904      -254.1245
   6   2.0000      -7.083300      -192.7464
   7   2.0000      -7.074046      -192.4946
   8   2.0000      -7.073871      -192.4898
   9   2.0000      -0.818112       -22.2620
  10   2.0000      -0.735290       -20.0082
  11   2.0000      -0.702200       -19.1078
  12   2.0000      -0.611665       -16.6443
  13   2.0000      -0.548852       -14.9350
  14   2.0000      -0.450932       -12.2705
  15   2.0000      -0.419985       -11.4284
  16   2.0000      -0.413330       -11.2473
  17   2.0000      -0.396533       -10.7902
  18   2.0000      -0.358325        -9.7505
  19   2.0000      -0.339547        -9.2395
  20   2.0000      -0.330791        -9.0013
  21   2.0000      -0.322220        -8.7680
  22   2.0000      -0.313710        -8.5365
  23   2.0000      -0.262341        -7.1387
  24   2.0000      -0.261458        -7.1146
  25   0.0000      -0.010305        -0.2804
  26   0.0000       0.041018         1.1162
  27   0.0000       0.068738         1.8705
  28   0.0000       0.076019         2.0686
  29   0.0000       0.101087         2.7507

MULLIKEN ATOMIC CHARGES
-----------------------
   0 C :   -0.326307
   1 C :   -0.142077
   2 C :    0.051929
   3 H :    0.094591
   4 C :   -0.299067
   5 Cl:   -0.229364
   6 H :    0.097245
   7 H :    0.123176
   8 H :    0.109386
   9 H :    0.083697
  10 H :    0.096049
  11 H :    0.103650
  12 H :    0.124548
  13 H :    0.112547
Sum of atomic charges:   -0.0000000

LOEWDIN ATOMIC CHARGES
----------------------
   0 C :   -0.311693
   1 C :   -0.300295
   2 C :   -0.446470
   3 H :    0.139005
   4 C :   -0.308772
   5 Cl:    0.207668
   6 H :    0.118968
   7 H :    0.120450
   8 H :    0.119784
   9 H :    0.144069
  10 H :    0.139516
  11 H :    0.127286
  12 H :    0.124888
  13 H :    0.125597

  Mayer bond orders larger than 0.100000
B(  0-C ,  1-C ) :   0.9829 B(  0-C ,  6-H ) :   0.9735 B(  0-C ,  7-H ) :   0.9694
B(  0-C ,  8-H ) :   0.9747 B(  1-C ,  2-C ) :   0.9862 B(  1-C ,  9-H ) :   0.9460
B(  1-C , 10-H ) :   0.9587 B(  2-C ,  3-H ) :   0.9628 B(  2-C ,  4-C ) :   0.9804
B(  2-C ,  5-Cl) :   0.9528 B(  4-C , 11-H ) :   0.9566 B(  4-C , 12-H ) :   0.9715
B(  4-C , 13-H ) :   0.9692

Dispersion correction           -0.003371487
FINAL SINGLE POINT ENERGY      -617.991404442966

DIPOLE MOMENT
-------------

Method             : SCF
Type of density    : Electron Density
Multiplicity       :   1
Irrep              :   0
Energy             :  -617.9963055248470027 Eh
Relativity type    :
Basis              : AO
                                X                 Y                 Z
Electronic contribution:     -6.963702778       6.683428097       0.067164843
Nuclear contribution   :      7.440411316      -7.496348839       0.043262037
                        -----------------------------------------
Total Dipole Moment    :      0.476708538      -0.812920742       0.110426880
                        -----------------------------------------
Magnitude (a.u.)       :      0.948833631
Magnitude (Debye)      :      2.411743425

VIBRATIONAL FREQUENCIES
-----------------------

Scaling factor for frequencies =  1.000000000  (already applied!)

     0:       0.00 cm**-1
     1:       0.00 cm**-1
     2:       0.00 cm**-1
     3:       0.00 cm**-1
     4:       0.00 cm**-1
     5:       0.00 cm**-1
     6:     125.31 cm**-1
     7:     226.75 cm**-1
     8:     244.44 cm**-1
     9:     264.32 cm**-1
    10:     326.14 cm**-1
    11:     383.50 cm**-1
    12:     465.58 cm**-1
    13:     552.46 cm**-1
    14:     795.23 cm**-1
    15:     849.68 cm**-1
    16:     969.87 cm**-1
    17:    1003.68 cm**-1
    18:    1035.13 cm**-1
    19:    1086.74 cm**-1
    20:    1128.26 cm**-1
    21:    1176.97 cm**-1
    22:    1246.77 cm**-1
    23:    1307.87 cm**-1
    24:    1319.09 cm**-1
    25:    1385.13 cm**-1
    26:    1403.06 cm**-1
    27:    1407.14 cm**-1
    28:    1459.47 cm**-1
    29:    1478.05 cm**-1
    30:    1488.14 cm**-1
    31:    1490.65 cm**-1
    32:    1500.35 cm**-1
    33:    2996.98 cm**-1
    34:    3011.14 cm**-1
    35:    3011.80 cm**-1
    36:    3044.33 cm**-1
    37:    3069.69 cm**-1
    38:    3086.78 cm**-1
    39:    3089.91 cm**-1
    40:    3099.61 cm**-1
    41:    3112.30 cm**-1

IR SPECTRUM
-----------

 Mode   freq       eps      Int      T**2         TX        TY        TZ
       cm**-1   L/(mol*cm) km/mol    a.u.
----------------------------------------------------------------------------
  6:    125.31   0.000048    0.24  0.000119  ( 0.010599  0.002557  0.000569)
  7:    226.75   0.000248    1.25  0.000341  ( 0.018338 -0.002263 -0.000271)
  8:    244.44   0.000032    0.16  0.000041  (-0.004815  0.000559  0.004149)
  9:    264.32   0.000046    0.23  0.000055  ( 0.003158  0.006651 -0.000634)
 10:    326.14   0.000470    2.38  0.000450  ( 0.001290  0.021170 -0.000497)
 11:    383.50   0.001091    5.51  0.000888  (-0.018845  0.023054  0.001074)
 12:    465.58   0.000353    1.78  0.000237  (-0.002433  0.015156 -0.001038)
 13:    552.46   0.006462   32.66  0.003650  ( 0.028496 -0.053213  0.002536)
 14:    795.23   0.002540   12.83  0.000997  (-0.020473  0.022671 -0.007970)
 15:    849.68   0.001465    7.40  0.000538  ( 0.013976 -0.018324 -0.002647)
 16:    969.87   0.001542    7.79  0.000496  ( 0.002493  0.019372 -0.010707)
 17:   1003.68   0.001557    7.87  0.000484  (-0.016165  0.013830  0.005602)
 18:   1035.13   0.000303    1.53  0.000091  ( 0.001644 -0.009416  0.000078)
 19:   1086.74   0.000611    3.09  0.000175  (-0.006423  0.011581  0.000075)
 20:   1128.26   0.000613    3.10  0.000169  ( 0.009935  0.008047 -0.002445)
 21:   1176.97   0.002307   11.66  0.000612  ( 0.016552 -0.018370  0.000587)
 22:   1246.77   0.003196   16.15  0.000800  ( 0.015105 -0.023342  0.005179)
 23:   1307.87   0.001822    9.21  0.000435  (-0.005453  0.020123 -0.000142)
 24:   1319.09   0.001168    5.90  0.000276  ( 0.012814 -0.010489  0.001462)
 25:   1385.13   0.000131    0.66  0.000029  ( 0.001819  0.002739 -0.004315)
 26:   1403.06   0.000840    4.25  0.000187  ( 0.007619  0.010395  0.004556)
 27:   1407.14   0.001662    8.40  0.000369  (-0.013807 -0.011857 -0.006119)
 28:   1459.47   0.000309    1.56  0.000066  ( 0.001482  0.005067  0.006178)
 29:   1478.05   0.001831    9.25  0.000387  (-0.008405  0.001942  0.017670)
 30:   1488.14   0.000083    0.42  0.000017  (-0.002714 -0.001293 -0.002902)
 31:   1490.65   0.002350   11.88  0.000492  ( 0.009975 -0.015019  0.012918)
 32:   1500.35   0.001672    8.45  0.000348  ( 0.009687  0.001491 -0.015866)
 33:   2996.98   0.003320   16.78  0.000346  ( 0.003637 -0.016896 -0.006858)
 34:   3011.14   0.004472   22.60  0.000463  (-0.000627 -0.021358 -0.002616)
 35:   3011.80   0.006149   31.08  0.000637  ( 0.018447  0.014340  0.009551)
 36:   3044.33   0.000665    3.36  0.000068  (-0.004653  0.002764 -0.006234)
 37:   3069.69   0.000724    3.66  0.000074  ( 0.004097  0.001527  0.007382)
 38:   3086.78   0.004263   21.54  0.000431  ( 0.015739 -0.002793 -0.013246)
 39:   3089.91   0.006411   32.40  0.000647  (-0.005718  0.008258 -0.023379)
 40:   3099.61   0.005064   25.59  0.000510  ( 0.015246 -0.014738  0.007757)
 41:   3112.30   0.003841   19.41  0.000385  ( 0.008815  0.000962 -0.017506)

--------------------------
THERMOCHEMISTRY AT 298.15K
--------------------------

Temperature         ...   298.15 K
Pressure            ...     1.00 atm
Total Mass          ...    92.57 AMU
Quasi RRHO          ...     True
Cut-Off Frequency   ...     1.00 cm^-1

Throughout the following assumptions are being made:
  (1) The electronic state is orbitally nondegenerate
  (2) There are no thermally accessible electronically excited states
  (3) Hindered rotations indicated by low frequency modes are not
      treated as such but are treated as vibrations and this may
      cause some error
  (4) All equations used are the standard statistical mechanics
      equations for an ideal gas
  (5) All vibrations are strictly harmonic

freq.     125.31  E(vib)   ...       0.43
freq.     226.75  E(vib)   ...       0.33
freq.     244.44  E(vib)   ...       0.31
freq.     264.32  E(vib)   ...       0.29
freq.     326.14  E(vib)   ...       0.24
freq.     383.50  E(vib)   ...       0.20
freq.     465.58  E(vib)   ...       0.16
freq.     552.46  E(vib)   ...       0.12
freq.     795.23  E(vib)   ...       0.05
freq.     849.68  E(vib)   ...       0.04
freq.     969.87  E(vib)   ...       0.03
freq.    1003.68  E(vib)   ...       0.02
freq.    1035.13  E(vib)   ...       0.02
freq.    1086.74  E(vib)   ...       0.02
freq.    1128.26  E(vib)   ...       0.01
freq.    1176.97  E(vib)   ...       0.01
freq.    1246.77  E(vib)   ...       0.01
freq.    1307.87  E(vib)   ...       0.01
freq.    1319.09  E(vib)   ...       0.01
freq.    1385.13  E(vib)   ...       0.00
freq.    1403.06  E(vib)   ...       0.00
freq.    1407.14  E(vib)   ...       0.00
freq.    1459.47  E(vib)   ...       0.00
freq.    1478.05  E(vib)   ...       0.00
freq.    1488.14  E(vib)   ...       0.00
freq.    1490.65  E(vib)   ...       0.00
freq.    1500.35  E(vib)   ...       0.00
freq.    2996.98  E(vib)   ...       0.00
freq.    3011.14  E(vib)   ...       0.00
freq.    3011.80  E(vib)   ...       0.00
freq.    3044.33  E(vib)   ...       0.00
freq.    3069.69  E(vib)   ...       0.00
freq.    3086.78  E(vib)   ...       0.00
freq.    3089.91  E(vib)   ...       0.00
freq.    3099.61  E(vib)   ...       0.00
freq.    3112.30  E(vib)   ...       0.00

------------
INNER ENERGY
------------

The inner energy is: U= E(el) + E(ZPE) + E(vib) + E(rot) + E(trans)
    E(el)   - is the total energy from the electronic structure calculation
              = E(kin-el) + E(nuc-el) + E(el-el) + E(nuc-nuc)
    E(ZPE)  - the the zero temperature vibrational energy from the frequency calculation
    E(vib)  - the the finite temperature correction to E(ZPE) due to population
              of excited vibrational states
    E(rot)  - is the rotational thermal energy
    E(trans)- is the translational thermal energy

Summary of contributions to the inner energy U:
Electronic energy                ...   -617.99140444 Eh
Zero point energy                ...      0.12220615 Eh      76.69 kcal/mol
Thermal vibrational correction   ...      0.00372749 Eh       2.34 kcal/mol
Thermal rotational correction    ...      0.00141627 Eh       0.89 kcal/mol
Thermal translational correction ...      0.00141627 Eh       0.89 kcal/mol
-----------------------------------------------------------------------
Total thermal energy                   -617.86263826 Eh

Summary of corrections to the electronic energy:
(perhaps to be used in another calculation)
Total thermal correction                  0.00656003 Eh       4.12 kcal/mol
Non-thermal (ZPE) correction              0.12220615 Eh      76.69 kcal/mol
-----------------------------------------------------------------------
Total correction                          0.12876618 Eh      80.80 kcal/mol

--------
ENTHALPY
--------

The enthalpy is H = U + kB*T
                kB is Boltzmann's constant
Total thermal energy              ...   -617.86263826 Eh
Thermal Enthalpy correction       ...      0.00094421 Eh       0.59 kcal/mol
-----------------------------------------------------------------------
Total Enthalpy                    ...   -617.86169405 Eh

Note: Only C1 symmetry has been detected, increase convergence thresholds
      if your molecule has a higher symmetry. Symmetry factor of 1.0 is
      used for the rotational entropy correction.

Note: Rotational entropy computed according to Herzberg
Infrared and Raman Spectra, Chapter V,1, Van Nostrand Reinhold, 1945
Point Group:  C1, Symmetry Number:   1
Rotational constants in cm-1:     0.148972     0.103152     0.065918

Vibrational entropy computed according to the QRRHO of S. Grimme
Chem.Eur.J. 2012 18 9955 using a reference frequency of 100.0 cm-1

-------
ENTROPY
-------

The entropy contributions are T*S = T*(S(el)+S(vib)+S(rot)+S(trans))
     S(el)   - electronic entropy
     S(vib)  - vibrational entropy
     S(rot)  - rotational entropy
     S(trans)- translational entropy
The entropies will be listed as multiplied by the temperature to get
units of energy

Electronic entropy                ...      0.00000000 Eh      0.00 kcal/mol
Vibrational entropy               ...      0.00611101 Eh      3.83 kcal/mol
Rotational entropy                ...      0.01276582 Eh      8.01 kcal/mol
Translational entropy             ...      0.01876188 Eh     11.77 kcal/mol
-----------------------------------------------------------------------
Final entropy term                ...      0.03763872 Eh     23.62 kcal/mol

In case the symmetry of your molecule has not been determined correctly
or in case you have a reason to use a different symmetry number we print
out the resulting rotational entropy values for sn=1,12:

 non-linear molecules -----------------------------------
|  sn= 1 | S(rot)=       0.01276582 Eh      8.01 kcal/mol|
|  sn= 2 | S(rot)=       0.01211136 Eh      7.60 kcal/mol|
|  sn= 3 | S(rot)=       0.01172853 Eh      7.36 kcal/mol|
|  sn= 4 | S(rot)=       0.01145691 Eh      7.19 kcal/mol|
|  sn= 5 | S(rot)=       0.01124622 Eh      7.06 kcal/mol|
|  sn= 6 | S(rot)=       0.01107407 Eh      6.95 kcal/mol|
|  sn= 7 | S(rot)=       0.01092853 Eh      6.86 kcal/mol|
|  sn= 8 | S(rot)=       0.01080245 Eh      6.78 kcal/mol|
|  sn= 9 | S(rot)=       0.01069124 Eh      6.71 kcal/mol|
|  sn=10 | S(rot)=       0.01059176 Eh      6.65 kcal/mol|
|  sn=11 | S(rot)=       0.01050177 Eh      6.59 kcal/mol|
|  sn=12 | S(rot)=       0.01041962 Eh      6.54 kcal/mol|
 linear molecules ---------------------------------------
|  Dinfh | S(rot)=       0.00789336 Eh      4.95 kcal/mol|
|  Cinfv | S(rot)=       0.00854781 Eh      5.36 kcal/mol|
 --------------------------------------------------------

-------------------
GIBBS FREE ENERGY
-------------------

The Gibbs free energy is G = H - T*S

                             ****ORCA TERMINATED NORMALLY****
TOTAL RUN TIME: 0 days 0 hours 5 minutes 29 seconds 917 msec
