                         Program Version 6.0.0  -   RELEASE  -
|  1> ! r2SCAN-3c DEF2-TZVP FREQ
|  2> * xyzfile 0 1 vacuum_censo.xyz
|  3>
|  4>                          ****END OF INPUT****

CARTESIAN COORDINATES (ANGSTROEM)
---------------------------------
  C      2.209036    0.456653    0.128504
  C      1.216869   -0.604520   -0.333785
  C     -0.131318   -0.558040    0.367059
  H      0.005112   -0.520724    1.452693
  C     -1.048375   -1.700069   -0.021619
  Cl    -0.981543    1.035883   -0.030158
  H      3.164958    0.341899   -0.389831
  H      2.397830    0.374525    1.204068
  H      1.830706    1.461784   -0.073128
  H      1.630704   -1.604341   -0.140699
  H      1.054245   -0.535705   -1.415876
  H     -1.211238   -1.713952   -1.102883
  H     -0.584778   -2.649055    0.271532
  H     -2.016973   -1.620045    0.475935

 Total Charge           Charge          ....    0
 Multiplicity           Mult            ....    1
 Number of Electrons    NEL             ....   50
 Basis Dimension        Dim             ....  215

ORBITAL ENERGIES
----------------

  NO   OCC          E(Eh)            E(eV)
   0   2.0000    -101.165050     -2752.8410
   1   2.0000     -10.100497      -274.8485
   2   2.0000     -10.043800      -273.3057
   3   2.0000     -10.036979      -273.1201
   4   2.0000     -10.025436      -272.8060
   5   2.0000      -9.341144      -254.1855
   6   2.0000      -7.085578      -192.8084
   7   2.0000      -7.076232      -192.5541
   8   2.0000      -7.076065      -192.5495
   9   2.0000      -0.821091       -22.3430
  10   2.0000      -0.735765       -20.0212
  11   2.0000      -0.701126       -19.0786
  12   2.0000      -0.610599       -16.6152
  13   2.0000      -0.548480       -14.9249
  14   2.0000      -0.450811       -12.2672
  15   2.0000      -0.419649       -11.4192
  16   2.0000      -0.413043       -11.2395
  17   2.0000      -0.395874       -10.7723
  18   2.0000      -0.358388        -9.7522
  19   2.0000      -0.340804        -9.2738
  20   2.0000      -0.330142        -8.9836
  21   2.0000      -0.321408        -8.7460
  22   2.0000      -0.314457        -8.5568
  23   2.0000      -0.263272        -7.1640
  24   2.0000      -0.262284        -7.1371
  25   0.0000      -0.004715        -0.1283
  26   0.0000       0.041830         1.1382
  27   0.0000       0.069240         1.8841
  28   0.0000       0.076772         2.0891
  29   0.0000       0.102005         2.7757

MULLIKEN ATOMIC CHARGES
-----------------------
   0 C :   -0.329664
   1 C :   -0.143163
   2 C :    0.052170
   3 H :    0.092108
   4 C :   -0.301130
   5 Cl:   -0.217934
   6 H :    0.109692
   7 H :    0.097221
   8 H :    0.122749
   9 H :    0.084201
  10 H :    0.094758
  11 H :    0.111132
  12 H :    0.104378
  13 H :    0.123484
Sum of atomic charges:   -0.0000000

LOEWDIN ATOMIC CHARGES
----------------------
   0 C :   -0.312221
   1 C :   -0.300230
   2 C :   -0.464392
   3 H :    0.138711
   4 C :   -0.309111
   5 Cl:    0.232442
   6 H :    0.119697
   7 H :    0.118367
   8 H :    0.119964
   9 H :    0.142664
  10 H :    0.138909
  11 H :    0.124956
  12 H :    0.126231
  13 H :    0.124014

  Mayer bond orders larger than 0.100000
B(  0-C ,  1-C ) :   0.9829 B(  0-C ,  6-H ) :   0.9750 B(  0-C ,  7-H ) :   0.9737
B(  0-C ,  8-H ) :   0.9694 B(  1-C ,  2-C ) :   0.9819 B(  1-C ,  9-H ) :   0.9476
B(  1-C , 10-H ) :   0.9589 B(  2-C ,  3-H ) :   0.9634 B(  2-C ,  4-C ) :   0.9762
B(  2-C ,  5-Cl) :   0.9683 B(  4-C , 11-H ) :   0.9692 B(  4-C , 12-H ) :   0.9580
B(  4-C , 13-H ) :   0.9721

Dispersion correction           -0.003373149
FINAL SINGLE POINT ENERGY      -617.991804693768

DIPOLE MOMENT
-------------

Method             : SCF
Type of density    : Electron Density
Multiplicity       :   1
Irrep              :   0
Energy             :  -617.9967962209462939 Eh
Relativity type    :
Basis              : AO
                                X                 Y                 Z
Electronic contribution:     -6.873531373       6.777506238      -0.111929832
Nuclear contribution   :      7.315297414      -7.556724368       0.235950244
                        -----------------------------------------
Total Dipole Moment    :      0.441766041      -0.779218129       0.124020412
                        -----------------------------------------
Magnitude (a.u.)       :      0.904278270
Magnitude (Debye)      :      2.298492699

VIBRATIONAL FREQUENCIES
-----------------------

Scaling factor for frequencies =  1.000000000  (already applied!)

     0:       0.00 cm**-1
     1:       0.00 cm**-1
     2:       0.00 cm**-1
     3:       0.00 cm**-1
     4:       0.00 cm**-1
     5:       0.00 cm**-1
     6:     122.93 cm**-1
     7:     225.39 cm**-1
     8:     239.36 cm**-1
     9:     260.44 cm**-1
    10:     330.11 cm**-1
    11:     388.93 cm**-1
    12:     464.63 cm**-1
    13:     580.87 cm**-1
    14:     796.35 cm**-1
    15:     847.04 cm**-1
    16:     968.57 cm**-1
    17:    1002.01 cm**-1
    18:    1031.65 cm**-1
    19:    1090.50 cm**-1
    20:    1124.40 cm**-1
    21:    1175.12 cm**-1
    22:    1254.32 cm**-1
    23:    1310.30 cm**-1
    24:    1319.41 cm**-1
    25:    1381.66 cm**-1
    26:    1401.40 cm**-1
    27:    1404.58 cm**-1
    28:    1461.28 cm**-1
    29:    1478.17 cm**-1
    30:    1488.41 cm**-1
    31:    1491.21 cm**-1
    32:    1499.28 cm**-1
    33:    2995.27 cm**-1
    34:    3013.11 cm**-1
    35:    3015.61 cm**-1
    36:    3041.52 cm**-1
    37:    3059.85 cm**-1
    38:    3089.83 cm**-1
    39:    3092.26 cm**-1
    40:    3107.35 cm**-1
    41:    3115.89 cm**-1

IR SPECTRUM
-----------

 Mode   freq       eps      Int      T**2         TX        TY        TZ
       cm**-1   L/(mol*cm) km/mol    a.u.
----------------------------------------------------------------------------
  6:    122.93   0.000042    0.21  0.000107  (-0.009722 -0.003421 -0.001043)
  7:    225.39   0.000244    1.23  0.000338  (-0.018170  0.002390  0.001365)
  8:    239.36   0.000013    0.07  0.000017  ( 0.001482  0.000439 -0.003843)
  9:    260.44   0.000040    0.20  0.000047  (-0.004123 -0.005511 -0.000134)
 10:    330.11   0.000354    1.79  0.000334  ( 0.002962  0.018023 -0.000864)
 11:    388.93   0.000762    3.85  0.000611  ( 0.015600 -0.019168 -0.000750)
 12:    464.63   0.000306    1.55  0.000206  ( 0.001855 -0.014178  0.001146)
 13:    580.87   0.005783   29.22  0.003107  ( 0.025321 -0.049567  0.002968)
 14:    796.35   0.002425   12.26  0.000950  ( 0.019639 -0.022229  0.008399)
 15:    847.04   0.001576    7.97  0.000581  ( 0.014165 -0.019401 -0.001911)
 16:    968.57   0.001509    7.62  0.000486  (-0.003230 -0.018772  0.011101)
 17:   1002.01   0.001559    7.88  0.000485  ( 0.016269 -0.013939 -0.005145)
 18:   1031.65   0.000279    1.41  0.000084  ( 0.001336 -0.009088  0.000141)
 19:   1090.50   0.000714    3.61  0.000204  ( 0.007018 -0.012452  0.000061)
 20:   1124.40   0.000582    2.94  0.000161  (-0.010234 -0.007142  0.002381)
 21:   1175.12   0.001789    9.04  0.000475  (-0.014399  0.016346 -0.000688)
 22:   1254.32   0.002929   14.80  0.000729  (-0.014387  0.022114 -0.005727)
 23:   1310.30   0.001724    8.71  0.000411  (-0.004697  0.019693 -0.000815)
 24:   1319.41   0.001502    7.59  0.000355  (-0.013247  0.013241 -0.002105)
 25:   1381.66   0.000130    0.66  0.000029  ( 0.001921  0.003213 -0.003916)
 26:   1401.40   0.000614    3.10  0.000137  ( 0.006250  0.008840  0.004418)
 27:   1404.58   0.001870    9.45  0.000415  ( 0.014457  0.012748  0.006624)
 28:   1461.28   0.000297    1.50  0.000063  ( 0.001847  0.004806  0.006067)
 29:   1478.17   0.001947    9.84  0.000411  ( 0.008341 -0.002341 -0.018331)
 30:   1488.41   0.000136    0.69  0.000028  (-0.004002 -0.000516 -0.003492)
 31:   1491.21   0.002313   11.69  0.000484  ( 0.008296 -0.015681  0.013012)
 32:   1499.28   0.001547    7.82  0.000322  (-0.010118  0.000042  0.014819)
 33:   2995.27   0.003833   19.37  0.000399  ( 0.003764 -0.018318 -0.007044)
 34:   3013.11   0.005109   25.82  0.000529  (-0.003526 -0.022495 -0.003265)
 35:   3015.61   0.005338   26.98  0.000552  (-0.018601 -0.010793 -0.009482)
 36:   3041.52   0.000200    1.01  0.000020  ( 0.003358 -0.001921  0.002350)
 37:   3059.85   0.002410   12.18  0.000246  (-0.007110  0.001326 -0.013909)
 38:   3089.83   0.003847   19.44  0.000389  ( 0.014405 -0.001499 -0.013372)
 39:   3092.26   0.007169   36.23  0.000723  (-0.005973  0.009529 -0.024434)
 40:   3107.35   0.004181   21.13  0.000420  (-0.013881  0.014206 -0.005039)
 41:   3115.89   0.003603   18.21  0.000361  (-0.010954  0.000492  0.015512)

--------------------------
THERMOCHEMISTRY AT 298.15K
--------------------------

Temperature         ...   298.15 K
Pressure            ...     1.00 atm
Total Mass          ...    92.57 AMU
Quasi RRHO          ...     True
Cut-Off Frequency   ...     1.00 cm^-1

Throughout the following assumptions are being made:
  (1) The electronic state is orbitally nondegenerate
  (2) There are no thermally accessible electronically excited states
  (3) Hindered rotations indicated by low frequency modes are not
      treated as such but are treated as vibrations and this may
      cause some error
  (4) All equations used are the standard statistical mechanics
      equations for an ideal gas
  (5) All vibrations are strictly harmonic

freq.     122.93  E(vib)   ...       0.43
freq.     225.39  E(vib)   ...       0.33
freq.     239.36  E(vib)   ...       0.31
freq.     260.44  E(vib)   ...       0.30
freq.     330.11  E(vib)   ...       0.24
freq.     388.93  E(vib)   ...       0.20
freq.     464.63  E(vib)   ...       0.16
freq.     580.87  E(vib)   ...       0.11
freq.     796.35  E(vib)   ...       0.05
freq.     847.04  E(vib)   ...       0.04
freq.     968.57  E(vib)   ...       0.03
freq.    1002.01  E(vib)   ...       0.02
freq.    1031.65  E(vib)   ...       0.02
freq.    1090.50  E(vib)   ...       0.02
freq.    1124.40  E(vib)   ...       0.01
freq.    1175.12  E(vib)   ...       0.01
freq.    1254.32  E(vib)   ...       0.01
freq.    1310.30  E(vib)   ...       0.01
freq.    1319.41  E(vib)   ...       0.01
freq.    1381.66  E(vib)   ...       0.01
freq.    1401.40  E(vib)   ...       0.00
freq.    1404.58  E(vib)   ...       0.00
freq.    1461.28  E(vib)   ...       0.00
freq.    1478.17  E(vib)   ...       0.00
freq.    1488.41  E(vib)   ...       0.00
freq.    1491.21  E(vib)   ...       0.00
freq.    1499.28  E(vib)   ...       0.00
freq.    2995.27  E(vib)   ...       0.00
freq.    3013.11  E(vib)   ...       0.00
freq.    3015.61  E(vib)   ...       0.00
freq.    3041.52  E(vib)   ...       0.00
freq.    3059.85  E(vib)   ...       0.00
freq.    3089.83  E(vib)   ...       0.00
freq.    3092.26  E(vib)   ...       0.00
freq.    3107.35  E(vib)   ...       0.00
freq.    3115.89  E(vib)   ...       0.00

------------
INNER ENERGY
------------

The inner energy is: U= E(el) + E(ZPE) + E(vib) + E(rot) + E(trans)
    E(el)   - is the total energy from the electronic structure calculation
              = E(kin-el) + E(nuc-el) + E(el-el) + E(nuc-nuc)
    E(ZPE)  - the the zero temperature vibrational energy from the frequency calculation
    E(vib)  - the the finite temperature correction to E(ZPE) due to population
              of excited vibrational states
    E(rot)  - is the rotational thermal energy
    E(trans)- is the translational thermal energy

Summary of contributions to the inner energy U:
Electronic energy                ...   -617.99180469 Eh
Zero point energy                ...      0.12226699 Eh      76.72 kcal/mol
Thermal vibrational correction   ...      0.00372072 Eh       2.33 kcal/mol
Thermal rotational correction    ...      0.00141627 Eh       0.89 kcal/mol
Thermal translational correction ...      0.00141627 Eh       0.89 kcal/mol
-----------------------------------------------------------------------
Total thermal energy                   -617.86298444 Eh

Summary of corrections to the electronic energy:
(perhaps to be used in another calculation)
Total thermal correction                  0.00655326 Eh       4.11 kcal/mol
Non-thermal (ZPE) correction              0.12226699 Eh      76.72 kcal/mol
-----------------------------------------------------------------------
Total correction                          0.12882025 Eh      80.84 kcal/mol

--------
ENTHALPY
--------

The enthalpy is H = U + kB*T
                kB is Boltzmann's constant
Total thermal energy              ...   -617.86298444 Eh
Thermal Enthalpy correction       ...      0.00094421 Eh       0.59 kcal/mol
-----------------------------------------------------------------------
Total Enthalpy                    ...   -617.86204023 Eh

Note: Only C1 symmetry has been detected, increase convergence thresholds
      if your molecule has a higher symmetry. Symmetry factor of 1.0 is
      used for the rotational entropy correction.

Note: Rotational entropy computed according to Herzberg
Infrared and Raman Spectra, Chapter V,1, Van Nostrand Reinhold, 1945
Point Group:  C1, Symmetry Number:   1
Rotational constants in cm-1:     0.150460     0.103101     0.066220

Vibrational entropy computed according to the QRRHO of S. Grimme
Chem.Eur.J. 2012 18 9955 using a reference frequency of 100.0 cm-1

-------
ENTROPY
-------

The entropy contributions are T*S = T*(S(el)+S(vib)+S(rot)+S(trans))
     S(el)   - electronic entropy
     S(vib)  - vibrational entropy
     S(rot)  - rotational entropy
     S(trans)- translational entropy
The entropies will be listed as multiplied by the temperature to get
units of energy

Electronic entropy                ...      0.00000000 Eh      0.00 kcal/mol
Vibrational entropy               ...      0.00611485 Eh      3.84 kcal/mol
Rotational entropy                ...      0.01275921 Eh      8.01 kcal/mol
Translational entropy             ...      0.01876188 Eh     11.77 kcal/mol
-----------------------------------------------------------------------
Final entropy term                ...      0.03763594 Eh     23.62 kcal/mol

In case the symmetry of your molecule has not been determined correctly
or in case you have a reason to use a different symmetry number we print
out the resulting rotational entropy values for sn=1,12:

 non-linear molecules -----------------------------------
|  sn= 1 | S(rot)=       0.01275921 Eh      8.01 kcal/mol|
|  sn= 2 | S(rot)=       0.01210475 Eh      7.60 kcal/mol|
|  sn= 3 | S(rot)=       0.01172192 Eh      7.36 kcal/mol|
|  sn= 4 | S(rot)=       0.01145029 Eh      7.19 kcal/mol|
|  sn= 5 | S(rot)=       0.01123961 Eh      7.05 kcal/mol|
|  sn= 6 | S(rot)=       0.01106746 Eh      6.94 kcal/mol|
|  sn= 7 | S(rot)=       0.01092192 Eh      6.85 kcal/mol|
|  sn= 8 | S(rot)=       0.01079584 Eh      6.77 kcal/mol|
|  sn= 9 | S(rot)=       0.01068463 Eh      6.70 kcal/mol|
|  sn=10 | S(rot)=       0.01058515 Eh      6.64 kcal/mol|
|  sn=11 | S(rot)=       0.01049516 Eh      6.59 kcal/mol|
|  sn=12 | S(rot)=       0.01041300 Eh      6.53 kcal/mol|
 linear molecules ---------------------------------------
|  Dinfh | S(rot)=       0.00788904 Eh      4.95 kcal/mol|
|  Cinfv | S(rot)=       0.00854349 Eh      5.36 kcal/mol|
 --------------------------------------------------------

-------------------
GIBBS FREE ENERGY
-------------------

The Gibbs free energy is G = H - T*S

                             ****ORCA TERMINATED NORMALLY****
TOTAL RUN TIME: 0 days 0 hours 5 minutes 27 seconds 951 msec
