                         Program Version 6.0.1  -  RELEASE   -
|  1> ! r2scan-3c def2/J RI DEFGRID2 scfconv6 printgap
|  2> %output
|  3>     printlevel normal
|  4> end
|  5> * xyz 0 1
|  6> C -2.1330100096 -0.8872460373 -0.2874127805
|  7> C -1.169847562 -0.3386250801 0.7862372063
|  8> H -1.7287984194 -0.3614106973 1.7311608399
|  9> C -0.755986876 1.1351173645 0.5681396824
| 10> H -1.6266470232 1.6856069895 0.1874782372
| 11> C 0.4175686842 1.2937139645 -0.4205362487
| 12> H 0.8571911343 2.2848354469 -0.2418724566
| 13> C 1.5299570802 0.2798855513 -0.1107618628
| 14> H 2.2019515346 0.2289825959 -0.9799334709
| 15> C 1.0280430633 -1.1617598403 0.1696715933
| 16> H 1.8231300309 -1.6785024378 0.7323386222
| 17> O -0.0603451718 -1.1812705371 1.0546880594
| 18> O 0.8533390573 -1.8992722969 -0.9846661752
| 19> O 2.1949694362 0.7978132349 1.0242052046
| 20> O 0.0113279147 1.1779079134 -1.7711130487
| 21> O -0.4301158401 1.7435979612 1.7882449893
| 22> O -1.6191618161 -0.9897114822 -1.5915462138
| 23> H -3.0316854432 -0.2543138969 -0.280603234
| 24> H -2.418461798 -1.9031013394 -0.0031266484
| 25> H -0.032706908 -1.718255517 -1.3666947123
| 26> H 2.9072687314 0.1989924334 1.2751369853
| 27> H -0.3446337591 2.0218579707 -2.0681107274
| 28> H 0.4215062181 1.3865528252 2.0810523198
| 29> H -1.1993850659 -0.1468354745 -1.8497436579
| 30> *
| 31>
| 32>                          ****END OF INPUT****

CARTESIAN COORDINATES (ANGSTROEM)
---------------------------------
  C     -2.133010   -0.887246   -0.287413
  C     -1.169848   -0.338625    0.786237
  H     -1.728798   -0.361411    1.731161
  C     -0.755987    1.135117    0.568140
  H     -1.626647    1.685607    0.187478
  C      0.417569    1.293714   -0.420536
  H      0.857191    2.284835   -0.241872
  C      1.529957    0.279886   -0.110762
  H      2.201952    0.228983   -0.979933
  C      1.028043   -1.161760    0.169672
  H      1.823130   -1.678502    0.732339
  O     -0.060345   -1.181271    1.054688
  O      0.853339   -1.899272   -0.984666
  O      2.194969    0.797813    1.024205
  O      0.011328    1.177908   -1.771113
  O     -0.430116    1.743598    1.788245
  O     -1.619162   -0.989711   -1.591546
  H     -3.031685   -0.254314   -0.280603
  H     -2.418462   -1.903101   -0.003127
  H     -0.032707   -1.718256   -1.366695
  H      2.907269    0.198992    1.275137
  H     -0.344634    2.021858   -2.068111
  H      0.421506    1.386553    2.081052
  H     -1.199385   -0.146835   -1.849744

 Total Charge           Charge          ....    0
 Multiplicity           Mult            ....    1
 Number of Electrons    NEL             ....   96
 Basis Dimension        Dim             ....  318

ORBITAL ENERGIES
----------------

  NO   OCC          E(Eh)            E(eV)
   0   2.0000     -18.998623      -516.9788
   1   2.0000     -18.979448      -516.4570
   2   2.0000     -18.966697      -516.1101
   3   2.0000     -18.962051      -515.9836
   4   2.0000     -18.952953      -515.7361
   5   2.0000     -18.936383      -515.2852
   6   2.0000     -10.133696      -275.7519
   7   2.0000     -10.110340      -275.1164
   8   2.0000     -10.099445      -274.8199
   9   2.0000     -10.099350      -274.8173
  10   2.0000     -10.094172      -274.6764
  11   2.0000     -10.087818      -274.5035
  12   2.0000      -1.048182       -28.5225
  13   2.0000      -1.032202       -28.0876
  14   2.0000      -1.015427       -27.6312
  15   2.0000      -0.999194       -27.1894
  16   2.0000      -0.996656       -27.1204
  17   2.0000      -0.964615       -26.2485
  18   2.0000      -0.757126       -20.6024
  19   2.0000      -0.739462       -20.1218
  20   2.0000      -0.664397       -18.0792
  21   2.0000      -0.636905       -17.3311
  22   2.0000      -0.611336       -16.6353
  23   2.0000      -0.559710       -15.2305
  24   2.0000      -0.522409       -14.2155
  25   2.0000      -0.520695       -14.1688
  26   2.0000      -0.504708       -13.7338
  27   2.0000      -0.475634       -12.9427
  28   2.0000      -0.466103       -12.6833
  29   2.0000      -0.455649       -12.3988
  30   2.0000      -0.450841       -12.2680
  31   2.0000      -0.446471       -12.1491
  32   2.0000      -0.417845       -11.3701
  33   2.0000      -0.407164       -11.0795
  34   2.0000      -0.388828       -10.5806
  35   2.0000      -0.365123        -9.9355
  36   2.0000      -0.355761        -9.6807
  37   2.0000      -0.352581        -9.5942
  38   2.0000      -0.335010        -9.1161
  39   2.0000      -0.328621        -8.9422
  40   2.0000      -0.318483        -8.6664
  41   2.0000      -0.300450        -8.1757
  42   2.0000      -0.285893        -7.7795
  43   2.0000      -0.272421        -7.4130
  44   2.0000      -0.269106        -7.3227
  45   2.0000      -0.246925        -6.7192
  46   2.0000      -0.229406        -6.2425
  47   2.0000      -0.223821        -6.0905
  48   0.0000       0.006845         0.1863
  49   0.0000       0.046785         1.2731
  50   0.0000       0.071335         1.9411
  51   0.0000       0.072218         1.9651
  52   0.0000       0.082890         2.2556

MULLIKEN ATOMIC CHARGES
-----------------------
   0 C :   -0.203313
   1 C :    0.022818
   2 H :    0.171415
   3 C :   -0.150818
   4 H :    0.162994
   5 C :    0.022359
   6 H :    0.144773
   7 C :    0.009012
   8 H :    0.151917
   9 C :   -0.179273
  10 H :    0.133426
  11 O :   -0.161551
  12 O :   -0.379374
  13 O :   -0.423744
  14 O :   -0.438056
  15 O :   -0.402449
  16 O :   -0.491131
  17 H :    0.135296
  18 H :    0.157133
  19 H :    0.389870
  20 H :    0.297518
  21 H :    0.319153
  22 H :    0.336678
  23 H :    0.375347
Sum of atomic charges:   -0.0000000

LOEWDIN ATOMIC CHARGES
----------------------
   0 C :    0.023678
   1 C :    0.096933
   2 H :    0.211730
   3 C :    0.101225
   4 H :    0.192664
   5 C :    0.130343
   6 H :    0.201959
   7 C :    0.129466
   8 H :    0.192913
   9 C :    0.279270
  10 H :    0.205362
  11 O :   -0.646564
  12 O :   -0.512158
  13 O :   -0.596513
  14 O :   -0.588769
  15 O :   -0.568982
  16 O :   -0.614337
  17 H :    0.168787
  18 H :    0.189326
  19 H :    0.287814
  20 H :    0.274784
  21 H :    0.276878
  22 H :    0.283895
  23 H :    0.280296

  Mayer bond orders larger than 0.100000
B(  0-C ,  1-C ) :   0.8957 B(  0-C , 16-O ) :   0.9597 B(  0-C , 17-H ) :   0.9787
B(  0-C , 18-H ) :   0.9691 B(  1-C ,  2-H ) :   0.9523 B(  1-C ,  3-C ) :   0.8338
B(  1-C , 11-O ) :   0.9013 B(  3-C ,  4-H ) :   0.9992 B(  3-C ,  5-C ) :   0.8079
B(  3-C , 15-O ) :   0.9809 B(  5-C ,  6-H ) :   0.9553 B(  5-C ,  7-C ) :   0.9547
B(  5-C , 14-O ) :   0.9212 B(  7-C ,  8-H ) :   0.9317 B(  7-C ,  9-C ) :   0.9047
B(  7-C , 13-O ) :   0.9087 B(  9-C , 10-H ) :   1.0020 B(  9-C , 11-O ) :   0.9818
B(  9-C , 12-O ) :   1.0806 B( 12-O , 19-H ) :   0.7680 B( 13-O , 20-H ) :   0.8959
B( 14-O , 21-H ) :   0.8900 B( 15-O , 22-H ) :   0.8431 B( 16-O , 23-H ) :   0.8051

Dispersion correction           -0.008846034
FINAL SINGLE POINT ENERGY      -687.071717965393

DIPOLE MOMENT
-------------

Method             : SCF
Type of density    : Electron Density
Multiplicity       :   1
Irrep              :   0
Energy             :  -687.0855074735549124 Eh
Relativity type    :
Basis              : AO
                                X                 Y                 Z
Electronic contribution:      2.099258932      -0.627321517       0.566101015
Nuclear contribution   :     -2.022947384       1.631353376      -0.741623910
                        -----------------------------------------
Total Dipole Moment    :      0.076311548       1.004031859      -0.175522896
                        -----------------------------------------
Magnitude (a.u.)       :      1.022111400
Magnitude (Debye)      :      2.598000711

Rotational constants in cm-1:             0.039352             0.031432             0.027747
Rotational constants in MHz :          1179.752582           942.303390           831.847696

                             ****ORCA TERMINATED NORMALLY****
TOTAL RUN TIME: 0 days 0 hours 0 minutes 39 seconds 719 msec
