                         Program Version 6.0.1  -  RELEASE   -
|  1> ! pbe def2-sv(p) def2/J RI DEFGRID1 loosescf d4 GCP(DFT/SV(P)) printgap
|  2> %output
|  3>     printlevel normal
|  4> end
|  5> * xyz 0 1
|  6> C -1.947704126 -1.167721581 -0.3438751508
|  7> C -1.0395328969 -0.504345188 0.737257341
|  8> H -1.5580579113 -0.533767249 1.7019117171
|  9> C -0.7494044351 0.9852227242 0.4761335782
| 10> H -1.6438029574 1.4322951406 0.0185413349
| 11> C 0.4535339432 1.2071553622 -0.4630714916
| 12> H 0.7338182064 2.2719523192 -0.4097617887
| 13> C 1.6555777297 0.3640908421 0.0146800742
| 14> H 2.4739989893 0.4366583824 -0.7127497899
| 15> C 1.2226453395 -1.1159230398 0.1121810521
| 16> H 2.0193841012 -1.6999629885 0.5877070759
| 17> O 0.1326087297 -1.2631886604 0.9866764628
| 18> O 1.0316961604 -1.6710231839 -1.1496567301
| 19> O 2.1583762375 0.8441257424 1.2256859518
| 20> O 0.0688228907 0.8758225475 -1.7877235832
| 21> O -0.4984121853 1.569558367 1.73641675
| 22> O -2.4853357869 -0.2911307405 -1.2974067439
| 23> H -2.8110210366 -1.6171564219 0.1506413848
| 24> H -1.3791945484 -1.9763664048 -0.8193012867
| 25> H 0.4506345878 -1.0880632701 -1.6630886381
| 26> H 1.4657740295 0.7418016519 1.8979345303
| 27> H 0.7667118538 1.1480294791 -2.3946741145
| 28> H -0.398823915 2.5238090977 1.6405968195
| 29> H -1.7671890425 0.1012312593 -1.812993399
| 30> *
| 31>
| 32>                          ****END OF INPUT****

CARTESIAN COORDINATES (ANGSTROEM)
---------------------------------
  C     -1.947704   -1.167722   -0.343875
  C     -1.039533   -0.504345    0.737257
  H     -1.558058   -0.533767    1.701912
  C     -0.749404    0.985223    0.476134
  H     -1.643803    1.432295    0.018541
  C      0.453534    1.207155   -0.463071
  H      0.733818    2.271952   -0.409762
  C      1.655578    0.364091    0.014680
  H      2.473999    0.436658   -0.712750
  C      1.222645   -1.115923    0.112181
  H      2.019384   -1.699963    0.587707
  O      0.132609   -1.263189    0.986676
  O      1.031696   -1.671023   -1.149657
  O      2.158376    0.844126    1.225686
  O      0.068823    0.875823   -1.787724
  O     -0.498412    1.569558    1.736417
  O     -2.485336   -0.291131   -1.297407
  H     -2.811021   -1.617156    0.150641
  H     -1.379195   -1.976366   -0.819301
  H      0.450635   -1.088063   -1.663089
  H      1.465774    0.741802    1.897935
  H      0.766712    1.148029   -2.394674
  H     -0.398824    2.523809    1.640597
  H     -1.767189    0.101231   -1.812993

 Total Charge           Charge          ....    0
 Multiplicity           Mult            ....    1
 Number of Electrons    NEL             ....   96
 Basis Dimension        Dim             ....  192

ORBITAL ENERGIES
----------------

  NO   OCC          E(Eh)            E(eV)
   0   2.0000     -18.812248      -511.9073
   1   2.0000     -18.777906      -510.9728
   2   2.0000     -18.764342      -510.6037
   3   2.0000     -18.754533      -510.3368
   4   2.0000     -18.750334      -510.2225
   5   2.0000     -18.742275      -510.0032
   6   2.0000      -9.981343      -271.6062
   7   2.0000      -9.969666      -271.2884
   8   2.0000      -9.960547      -271.0403
   9   2.0000      -9.949328      -270.7350
  10   2.0000      -9.946654      -270.6622
  11   2.0000      -9.928316      -270.1632
  12   2.0000      -0.991102       -26.9693
  13   2.0000      -0.970456       -26.4074
  14   2.0000      -0.953973       -25.9589
  15   2.0000      -0.929456       -25.2918
  16   2.0000      -0.921495       -25.0752
  17   2.0000      -0.909474       -24.7480
  18   2.0000      -0.715464       -19.4688
  19   2.0000      -0.691547       -18.8179
  20   2.0000      -0.623187       -16.9578
  21   2.0000      -0.598513       -16.2864
  22   2.0000      -0.584365       -15.9014
  23   2.0000      -0.531762       -14.4700
  24   2.0000      -0.515324       -14.0227
  25   2.0000      -0.502976       -13.6867
  26   2.0000      -0.485355       -13.2072
  27   2.0000      -0.460942       -12.5429
  28   2.0000      -0.451261       -12.2794
  29   2.0000      -0.441842       -12.0231
  30   2.0000      -0.432836       -11.7781
  31   2.0000      -0.404305       -11.0017
  32   2.0000      -0.393258       -10.7011
  33   2.0000      -0.375506       -10.2180
  34   2.0000      -0.365669        -9.9504
  35   2.0000      -0.359851        -9.7920
  36   2.0000      -0.345797        -9.4096
  37   2.0000      -0.323071        -8.7912
  38   2.0000      -0.320735        -8.7276
  39   2.0000      -0.303709        -8.2643
  40   2.0000      -0.289750        -7.8845
  41   2.0000      -0.276868        -7.5340
  42   2.0000      -0.265851        -7.2342
  43   2.0000      -0.261318        -7.1108
  44   2.0000      -0.247027        -6.7220
  45   2.0000      -0.230508        -6.2724
  46   2.0000      -0.206967        -5.6318
  47   2.0000      -0.204114        -5.5542
  48   0.0000      -0.016520        -0.4495
  49   0.0000       0.005048         0.1374
  50   0.0000       0.043856         1.1934
  51   0.0000       0.050865         1.3841
  52   0.0000       0.058924         1.6034

MULLIKEN ATOMIC CHARGES
-----------------------
   0 C :    0.015696
   1 C :    0.038589
   2 H :    0.088085
   3 C :   -0.005891
   4 H :    0.091789
   5 C :    0.008754
   6 H :    0.071479
   7 C :    0.032381
   8 H :    0.070836
   9 C :    0.204726
  10 H :    0.078738
  11 O :   -0.306286
  12 O :   -0.404743
  13 O :   -0.421101
  14 O :   -0.427339
  15 O :   -0.410782
  16 O :   -0.434657
  17 H :    0.088147
  18 H :    0.094084
  19 H :    0.292909
  20 H :    0.303371
  21 H :    0.326650
  22 H :    0.305709
  23 H :    0.298856
Sum of atomic charges:   -0.0000000

LOEWDIN ATOMIC CHARGES
----------------------
   0 C :   -0.144157
   1 C :   -0.069763
   2 H :    0.128070
   3 C :   -0.078811
   4 H :    0.114173
   5 C :   -0.081836
   6 H :    0.103883
   7 C :   -0.096057
   8 H :    0.112433
   9 C :   -0.007926
  10 H :    0.113960
  11 O :   -0.139323
  12 O :   -0.309533
  13 O :   -0.311693
  14 O :   -0.303737
  15 O :   -0.301188
  16 O :   -0.337834
  17 H :    0.118081
  18 H :    0.103113
  19 H :    0.261299
  20 H :    0.273232
  21 H :    0.301940
  22 H :    0.288493
  23 H :    0.263181

  Mayer bond orders larger than 0.100000
B(  0-C ,  1-C ) :   0.9877 B(  0-C , 16-O ) :   1.1144 B(  0-C , 17-H ) :   0.9225
B(  0-C , 18-H ) :   0.9127 B(  1-C ,  2-H ) :   0.8899 B(  1-C ,  3-C ) :   1.0335
B(  1-C , 11-O ) :   1.0094 B(  3-C ,  4-H ) :   0.8759 B(  3-C ,  5-C ) :   0.9970
B(  3-C , 15-O ) :   1.0395 B(  5-C ,  6-H ) :   0.9025 B(  5-C ,  7-C ) :   0.9529
B(  5-C , 14-O ) :   0.9844 B(  7-C ,  8-H ) :   0.8961 B(  7-C ,  9-C ) :   0.9816
B(  7-C , 13-O ) :   1.0710 B(  9-C , 10-H ) :   0.9076 B(  9-C , 11-O ) :   1.0438
B(  9-C , 12-O ) :   1.1070 B( 12-O , 19-H ) :   0.7969 B( 13-O , 20-H ) :   0.8117
B( 14-O , 19-H ) :   0.1072 B( 14-O , 21-H ) :   0.8292 B( 15-O , 22-H ) :   0.8397
B( 16-O , 23-H ) :   0.8098

Dispersion correction           -0.026628827
FINAL SINGLE POINT ENERGY      -685.692504240043

DIPOLE MOMENT
-------------

Method             : SCF
Type of density    : Electron Density
Multiplicity       :   1
Irrep              :   0
Energy             :  -685.8284383159609661 Eh
Relativity type    :
Basis              : AO
                                X                 Y                 Z
Electronic contribution:      1.736190914      -0.236098380       1.093969843
Nuclear contribution   :     -1.539845666       1.633799056      -1.707237379
                        -----------------------------------------
Total Dipole Moment    :      0.196345248       1.397700676      -0.613267536
                        -----------------------------------------
Magnitude (a.u.)       :      1.538900811
Magnitude (Debye)      :      3.911575004

Rotational constants in cm-1:             0.040564             0.030697             0.026929
Rotational constants in MHz :          1216.092556           920.268925           807.320948

                             ****ORCA TERMINATED NORMALLY****
TOTAL RUN TIME: 0 days 0 hours 0 minutes 13 seconds 579 msec
