                         Program Version 6.0.1  -  RELEASE   -
|  1> ! pbe def2-sv(p) def2/J RI DEFGRID1 loosescf d4 GCP(DFT/SV(P)) printgap
|  2> %output
|  3>     printlevel normal
|  4> end
|  5> * xyz 0 1
|  6> C -3.4759243614 0.453002435 -0.0211354561
|  7> O -2.2256414796 0.2334353452 -0.6609106244
|  8> C -1.2008067008 -0.1493420529 0.1125523139
|  9> O -1.2895101552 -0.3222144 1.2997364674
| 10> C 0.0676632887 -0.2752474566 -0.7057545584
| 11> C 0.9630047904 -1.3848435323 -0.1373709066
| 12> C 2.4365900678 -1.0627805225 -0.3546778288
| 13> C 2.8421743823 0.1787239813 0.4483698548
| 14> C 1.6778284046 1.1696076524 0.5686861549
| 15> C 0.7862598906 1.0903408462 -0.6638984912
| 16> H -4.0473654167 -0.4770109809 0.0006441641
| 17> H -4.0035347338 1.202193487 -0.6074227621
| 18> H -3.3187699633 0.8005779666 1.0016338375
| 19> H -0.2243458733 -0.4891248957 -1.7369570342
| 20> H 0.768559195 -1.4787136705 0.9326789023
| 21> H 0.7105551969 -2.3370282066 -0.6070597106
| 22> H 3.0488796492 -1.9142390949 -0.0539357515
| 23> H 2.6107794304 -0.89652789 -1.419724474
| 24> H 3.1643133824 -0.1164515257 1.448013001
| 25> H 3.6918270247 0.6596910257 -0.040415335
| 26> H 1.0749446808 0.9368918688 1.4474983922
| 27> H 2.0628964834 2.1834132401 0.6900837286
| 28> H 0.0469950122 1.8939872998 -0.6566304958
| 29> H 1.3929098774 1.2097015579 -1.5630038092
| 30> *
| 31>
| 32>                          ****END OF INPUT****

CARTESIAN COORDINATES (ANGSTROEM)
---------------------------------
  C     -3.475924    0.453002   -0.021135
  O     -2.225641    0.233435   -0.660911
  C     -1.200807   -0.149342    0.112552
  O     -1.289510   -0.322214    1.299736
  C      0.067663   -0.275247   -0.705755
  C      0.963005   -1.384844   -0.137371
  C      2.436590   -1.062781   -0.354678
  C      2.842174    0.178724    0.448370
  C      1.677828    1.169608    0.568686
  C      0.786260    1.090341   -0.663898
  H     -4.047365   -0.477011    0.000644
  H     -4.003535    1.202193   -0.607423
  H     -3.318770    0.800578    1.001634
  H     -0.224346   -0.489125   -1.736957
  H      0.768559   -1.478714    0.932679
  H      0.710555   -2.337028   -0.607060
  H      3.048880   -1.914239   -0.053936
  H      2.610779   -0.896528   -1.419724
  H      3.164313   -0.116452    1.448013
  H      3.691827    0.659691   -0.040415
  H      1.074945    0.936892    1.447498
  H      2.062896    2.183413    0.690084
  H      0.046995    1.893987   -0.656630
  H      1.392910    1.209702   -1.563004

 Total Charge           Charge          ....    0
 Multiplicity           Mult            ....    1
 Number of Electrons    NEL             ....   78
 Basis Dimension        Dim             ....  168

ORBITAL ENERGIES
----------------

  NO   OCC          E(Eh)            E(eV)
   0   2.0000     -18.796565      -511.4806
   1   2.0000     -18.738673      -509.9052
   2   2.0000     -10.003230      -272.2017
   3   2.0000      -9.937971      -270.4260
   4   2.0000      -9.901963      -269.4461
   5   2.0000      -9.890901      -269.1451
   6   2.0000      -9.881257      -268.8827
   7   2.0000      -9.881202      -268.8812
   8   2.0000      -9.879801      -268.8430
   9   2.0000      -9.879301      -268.8295
  10   2.0000      -1.004942       -27.3459
  11   2.0000      -0.916550       -24.9406
  12   2.0000      -0.760689       -20.6994
  13   2.0000      -0.690943       -18.8015
  14   2.0000      -0.664076       -18.0704
  15   2.0000      -0.648102       -17.6358
  16   2.0000      -0.559225       -15.2173
  17   2.0000      -0.552300       -15.0288
  18   2.0000      -0.504965       -13.7408
  19   2.0000      -0.471611       -12.8332
  20   2.0000      -0.455292       -12.3891
  21   2.0000      -0.441283       -12.0079
  22   2.0000      -0.429740       -11.6938
  23   2.0000      -0.415158       -11.2970
  24   2.0000      -0.411581       -11.1997
  25   2.0000      -0.379591       -10.3292
  26   2.0000      -0.368753       -10.0343
  27   2.0000      -0.350811        -9.5460
  28   2.0000      -0.333529        -9.0758
  29   2.0000      -0.332726        -9.0539
  30   2.0000      -0.327114        -8.9012
  31   2.0000      -0.318686        -8.6719
  32   2.0000      -0.315864        -8.5951
  33   2.0000      -0.300210        -8.1691
  34   2.0000      -0.270949        -7.3729
  35   2.0000      -0.262621        -7.1463
  36   2.0000      -0.260948        -7.1008
  37   2.0000      -0.256225        -6.9722
  38   2.0000      -0.220842        -6.0094
  39   0.0000      -0.019260        -0.5241
  40   0.0000       0.030260         0.8234
  41   0.0000       0.054316         1.4780
  42   0.0000       0.058081         1.5805
  43   0.0000       0.078599         2.1388

MULLIKEN ATOMIC CHARGES
-----------------------
   0 C :   -0.122669
   1 O :   -0.243636
   2 C :    0.129610
   3 O :   -0.189883
   4 C :   -0.164102
   5 C :   -0.114359
   6 C :   -0.151850
   7 C :   -0.156968
   8 C :   -0.158635
   9 C :   -0.133729
  10 H :    0.117725
  11 H :    0.120216
  12 H :    0.125697
  13 H :    0.078752
  14 H :    0.097442
  15 H :    0.085021
  16 H :    0.085408
  17 H :    0.073381
  18 H :    0.083316
  19 H :    0.079002
  20 H :    0.096290
  21 H :    0.085375
  22 H :    0.093589
  23 H :    0.085008
Sum of atomic charges:    0.0000000

LOEWDIN ATOMIC CHARGES
----------------------
   0 C :   -0.210637
   1 O :   -0.076692
   2 C :    0.047215
   3 O :   -0.153339
   4 C :   -0.163554
   5 C :   -0.219521
   6 C :   -0.228619
   7 C :   -0.228303
   8 C :   -0.233456
   9 C :   -0.206950
  10 H :    0.117851
  11 H :    0.119352
  12 H :    0.120702
  13 H :    0.127766
  14 H :    0.125256
  15 H :    0.119646
  16 H :    0.119308
  17 H :    0.112774
  18 H :    0.117880
  19 H :    0.114703
  20 H :    0.122146
  21 H :    0.118347
  22 H :    0.119568
  23 H :    0.118555

  Mayer bond orders larger than 0.100000
B(  0-C ,  1-O ) :   0.9461 B(  0-C , 10-H ) :   0.9590 B(  0-C , 11-H ) :   0.9603
B(  0-C , 12-H ) :   0.9371 B(  1-O ,  2-C ) :   1.2041 B(  2-C ,  3-O ) :   2.0561
B(  2-C ,  4-C ) :   0.9438 B(  4-C ,  5-C ) :   1.0925 B(  4-C ,  9-C ) :   1.0814
B(  4-C , 13-H ) :   0.8791 B(  5-C ,  6-C ) :   1.1918 B(  5-C , 14-H ) :   0.8901
B(  5-C , 15-H ) :   0.9174 B(  6-C ,  7-C ) :   1.1425 B(  6-C , 16-H ) :   0.9205
B(  6-C , 17-H ) :   0.9058 B(  7-C ,  8-C ) :   1.1423 B(  7-C , 18-H ) :   0.9217
B(  7-C , 19-H ) :   0.9216 B(  8-C ,  9-C ) :   1.1801 B(  8-C , 20-H ) :   0.8993
B(  8-C , 21-H ) :   0.9204 B(  9-C , 22-H ) :   0.9147 B(  9-C , 23-H ) :   0.9044

Dispersion correction           -0.023085784
FINAL SINGLE POINT ENERGY      -462.697947685012

DIPOLE MOMENT
-------------

Method             : SCF
Type of density    : Electron Density
Multiplicity       :   1
Irrep              :   0
Energy             :  -462.7862250640208686 Eh
Relativity type    :
Basis              : AO
                                X                 Y                 Z
Electronic contribution:     -6.703081012      -0.888651854       0.549544082
Nuclear contribution   :      6.495017771       1.103244389      -1.083115542
                        -----------------------------------------
Total Dipole Moment    :     -0.208063241       0.214592536      -0.533571460
                        -----------------------------------------
Magnitude (a.u.)       :      0.611587093
Magnitude (Debye)      :      1.554530849

Rotational constants in cm-1:             0.101306             0.025842             0.024734
Rotational constants in MHz :          3037.074971           774.711895           741.502336

                             ****ORCA TERMINATED NORMALLY****
TOTAL RUN TIME: 0 days 0 hours 0 minutes 8 seconds 489 msec
