                         Program Version 6.0.1  -  RELEASE   -
|  1> ! pbe def2-sv(p) def2/J RI DEFGRID1 loosescf d4 GCP(DFT/SV(P)) printgap
|  2> %output
|  3>     printlevel normal
|  4> end
|  5> * xyz 0 1
|  6> C -2.5156456245 -0.9777716777 0.3853035508
|  7> C -1.081586123 -0.4862576778 0.626785839
|  8> H -0.8987709162 -0.4133438794 1.7109832953
|  9> C -0.8188399297 0.8833570814 -0.021057613
| 10> H -0.9955169162 0.7967027261 -1.1033758872
| 11> C 0.6451035109 1.3007515293 0.1919522254
| 12> H 0.8080071502 1.4888622079 1.2643626416
| 13> C 1.5943403722 0.1874771108 -0.255028277
| 14> H 1.5816528762 0.1383062712 -1.3533240937
| 15> C 1.1410003927 -1.1767557968 0.2998831324
| 16> H 1.3160598709 -1.176942818 1.3981617296
| 17> O -0.2167658386 -1.4500354841 0.0566860377
| 18> O 1.8984798824 -2.1551964623 -0.3238667219
| 19> O 2.8786987836 0.4755263319 0.222700472
| 20> O 0.9290353703 2.4502174378 -0.5566784048
| 21> O -1.6224531825 1.899613356 0.5317069327
| 22> O -2.869382 -0.9369284646 -0.9692886463
| 23> H -3.2228848123 -0.336497844 0.9156288381
| 24> H -2.5994708787 -1.9979930725 0.7830384681
| 25> H 1.4901343809 -3.0127256463 -0.156135559
| 26> H 3.4775556647 -0.2056112537 -0.105983727
| 27> H 0.3053258462 3.1331320355 -0.2799977172
| 28> H -2.5306711205 1.7658308505 0.2389448029
| 29> H -2.2261021234 -1.4671718593 -1.4553234021
| 30> *
| 31>
| 32>                          ****END OF INPUT****

CARTESIAN COORDINATES (ANGSTROEM)
---------------------------------
  C     -2.515646   -0.977772    0.385304
  C     -1.081586   -0.486258    0.626786
  H     -0.898771   -0.413344    1.710983
  C     -0.818840    0.883357   -0.021058
  H     -0.995517    0.796703   -1.103376
  C      0.645104    1.300752    0.191952
  H      0.808007    1.488862    1.264363
  C      1.594340    0.187477   -0.255028
  H      1.581653    0.138306   -1.353324
  C      1.141000   -1.176756    0.299883
  H      1.316060   -1.176943    1.398162
  O     -0.216766   -1.450035    0.056686
  O      1.898480   -2.155196   -0.323867
  O      2.878699    0.475526    0.222700
  O      0.929035    2.450217   -0.556678
  O     -1.622453    1.899613    0.531707
  O     -2.869382   -0.936928   -0.969289
  H     -3.222885   -0.336498    0.915629
  H     -2.599471   -1.997993    0.783038
  H      1.490134   -3.012726   -0.156136
  H      3.477556   -0.205611   -0.105984
  H      0.305326    3.133132   -0.279998
  H     -2.530671    1.765831    0.238945
  H     -2.226102   -1.467172   -1.455323

 Total Charge           Charge          ....    0
 Multiplicity           Mult            ....    1
 Number of Electrons    NEL             ....   96
 Basis Dimension        Dim             ....  192

ORBITAL ENERGIES
----------------

  NO   OCC          E(Eh)            E(eV)
   0   2.0000     -18.783924      -511.1365
   1   2.0000     -18.770085      -510.7600
   2   2.0000     -18.765817      -510.6438
   3   2.0000     -18.760487      -510.4988
   4   2.0000     -18.746197      -510.1100
   5   2.0000     -18.739898      -509.9385
   6   2.0000      -9.990164      -271.8462
   7   2.0000      -9.949710      -270.7454
   8   2.0000      -9.944787      -270.6114
   9   2.0000      -9.942204      -270.5411
  10   2.0000      -9.938869      -270.4504
  11   2.0000      -9.938494      -270.4402
  12   2.0000      -0.994585       -27.0640
  13   2.0000      -0.949771       -25.8446
  14   2.0000      -0.941759       -25.6266
  15   2.0000      -0.930547       -25.3215
  16   2.0000      -0.922644       -25.1064
  17   2.0000      -0.911961       -24.8157
  18   2.0000      -0.704334       -19.1659
  19   2.0000      -0.693744       -18.8777
  20   2.0000      -0.626356       -17.0440
  21   2.0000      -0.586376       -15.9561
  22   2.0000      -0.564022       -15.3478
  23   2.0000      -0.523413       -14.2428
  24   2.0000      -0.503367       -13.6973
  25   2.0000      -0.492755       -13.4085
  26   2.0000      -0.478071       -13.0090
  27   2.0000      -0.469483       -12.7753
  28   2.0000      -0.458938       -12.4883
  29   2.0000      -0.447098       -12.1662
  30   2.0000      -0.413832       -11.2610
  31   2.0000      -0.394482       -10.7344
  32   2.0000      -0.390744       -10.6327
  33   2.0000      -0.370503       -10.0819
  34   2.0000      -0.363034        -9.8787
  35   2.0000      -0.360989        -9.8230
  36   2.0000      -0.337642        -9.1877
  37   2.0000      -0.325293        -8.8517
  38   2.0000      -0.305040        -8.3005
  39   2.0000      -0.295578        -8.0431
  40   2.0000      -0.286156        -7.7867
  41   2.0000      -0.272408        -7.4126
  42   2.0000      -0.261924        -7.1273
  43   2.0000      -0.246133        -6.6976
  44   2.0000      -0.233436        -6.3521
  45   2.0000      -0.226705        -6.1690
  46   2.0000      -0.219619        -5.9761
  47   2.0000      -0.201982        -5.4962
  48   0.0000       0.013678         0.3722
  49   0.0000       0.025418         0.6917
  50   0.0000       0.031747         0.8639
  51   0.0000       0.039511         1.0752
  52   0.0000       0.062091         1.6896

MULLIKEN ATOMIC CHARGES
-----------------------
   0 C :    0.070966
   1 C :   -0.030209
   2 H :    0.056389
   3 C :    0.038905
   4 H :    0.053858
   5 C :    0.096145
   6 H :    0.058333
   7 C :    0.055959
   8 H :    0.061396
   9 C :    0.172507
  10 H :    0.040588
  11 O :   -0.321917
  12 O :   -0.389154
  13 O :   -0.404659
  14 O :   -0.405510
  15 O :   -0.422315
  16 O :   -0.434181
  17 H :    0.082361
  18 H :    0.087827
  19 H :    0.306849
  20 H :    0.304521
  21 H :    0.302243
  22 H :    0.314134
  23 H :    0.304962
Sum of atomic charges:   -0.0000000

LOEWDIN ATOMIC CHARGES
----------------------
   0 C :   -0.129616
   1 C :   -0.084119
   2 H :    0.106606
   3 C :   -0.082538
   4 H :    0.104047
   5 C :   -0.062024
   6 H :    0.107355
   7 C :   -0.075194
   8 H :    0.111054
   9 C :   -0.004129
  10 H :    0.081653
  11 O :   -0.159697
  12 O :   -0.303625
  13 O :   -0.308284
  14 O :   -0.312422
  15 O :   -0.317710
  16 O :   -0.331417
  17 H :    0.112096
  18 H :    0.105334
  19 H :    0.290365
  20 H :    0.288365
  21 H :    0.284988
  22 H :    0.292701
  23 H :    0.286210

  Mayer bond orders larger than 0.100000
B(  0-C ,  1-C ) :   1.0400 B(  0-C , 16-O ) :   1.0691 B(  0-C , 17-H ) :   0.9142
B(  0-C , 18-H ) :   0.9187 B(  1-C ,  2-H ) :   0.8676 B(  1-C ,  3-C ) :   0.9742
B(  1-C , 11-O ) :   0.9743 B(  3-C ,  4-H ) :   0.8660 B(  3-C ,  5-C ) :   1.0126
B(  3-C , 15-O ) :   1.0704 B(  5-C ,  6-H ) :   0.8742 B(  5-C ,  7-C ) :   1.0148
B(  5-C , 14-O ) :   1.1037 B(  7-C ,  8-H ) :   0.8647 B(  7-C ,  9-C ) :   0.9985
B(  7-C , 13-O ) :   1.0854 B(  9-C , 10-H ) :   0.8828 B(  9-C , 11-O ) :   1.0010
B(  9-C , 12-O ) :   1.1584 B( 12-O , 19-H ) :   0.8404 B( 13-O , 20-H ) :   0.8439
B( 14-O , 21-H ) :   0.8406 B( 15-O , 22-H ) :   0.8416 B( 16-O , 23-H ) :   0.8412

Dispersion correction           -0.023948225
FINAL SINGLE POINT ENERGY      -685.700015595355

DIPOLE MOMENT
-------------

Method             : SCF
Type of density    : Electron Density
Multiplicity       :   1
Irrep              :   0
Energy             :  -685.8303700977611470 Eh
Relativity type    :
Basis              : AO
                                X                 Y                 Z
Electronic contribution:      2.625488122       0.234382964      -1.443103855
Nuclear contribution   :     -3.263826136      -1.203653844       1.726774163
                        -----------------------------------------
Total Dipole Moment    :     -0.638338014      -0.969270880       0.283670308
                        -----------------------------------------
Magnitude (a.u.)       :      1.194751147
Magnitude (Debye)      :      3.036816077

Rotational constants in cm-1:             0.040009             0.026833             0.017714
Rotational constants in MHz :          1199.425015           804.435948           531.061523

                             ****ORCA TERMINATED NORMALLY****
TOTAL RUN TIME: 0 days 0 hours 0 minutes 9 seconds 9 msec
