                         Program Version 6.0.1  -  RELEASE   -
|  1> ! pbe def2-sv(p) def2/J RI DEFGRID1 loosescf d4 GCP(DFT/SV(P)) printgap
|  2> %output
|  3>     printlevel normal
|  4> end
|  5> * xyz 0 1
|  6> C -1.8202311789 -1.3479212936 -8.931e-07
|  7> C -0.4878877767 -1.7039358534 5.381e-07
|  8> C 0.5016075783 -0.7306327155 2.727e-06
|  9> C 0.1419469323 0.6122489838 4.3014e-06
| 10> C -1.1955053938 0.9751611069 1.8374e-06
| 11> C -2.1838155981 -0.0025986381 -9.152e-07
| 12> O -3.5004395888 0.3084032243 -2.027e-07
| 13> Cl 1.348915729 1.8405902466 -7.966e-07
| 14> Cl 2.1634953854 -1.1911488545 -1.1135e-06
| 15> H -2.5955102137 -2.0960757275 -3.13e-07
| 16> H -0.2030208588 -2.7436962474 4.949e-07
| 17> H -1.4584940697 2.0230458094 -1.621e-07
| 18> H -3.6192225985 1.2663770828 -2.01329e-05
| 19> *
| 20>
| 21>                          ****END OF INPUT****

CARTESIAN COORDINATES (ANGSTROEM)
---------------------------------
  C     -1.820231   -1.347921   -0.000001
  C     -0.487888   -1.703936    0.000001
  C      0.501608   -0.730633    0.000003
  C      0.141947    0.612249    0.000004
  C     -1.195505    0.975161    0.000002
  C     -2.183816   -0.002599   -0.000001
  O     -3.500440    0.308403   -0.000000
  Cl     1.348916    1.840590   -0.000001
  Cl     2.163495   -1.191149   -0.000001
  H     -2.595510   -2.096076   -0.000000
  H     -0.203021   -2.743696    0.000000
  H     -1.458494    2.023046   -0.000000
  H     -3.619223    1.266377   -0.000020

 Total Charge           Charge          ....    0
 Multiplicity           Mult            ....    1
 Number of Electrons    NEL             ....   82
 Basis Dimension        Dim             ....  142

ORBITAL ENERGIES
----------------

  NO   OCC          E(Eh)            E(eV)
   0   2.0000    -100.647039     -2738.7452
   1   2.0000    -100.641019     -2738.5814
   2   2.0000     -18.798167      -511.5241
   3   2.0000      -9.971349      -271.3342
   4   2.0000      -9.963285      -271.1148
   5   2.0000      -9.954096      -270.8647
   6   2.0000      -9.913983      -269.7732
   7   2.0000      -9.912492      -269.7326
   8   2.0000      -9.904396      -269.5123
   9   2.0000      -9.182957      -249.8810
  10   2.0000      -9.176901      -249.7162
  11   2.0000      -7.014475      -190.8736
  12   2.0000      -7.008440      -190.7093
  13   2.0000      -7.002974      -190.5606
  14   2.0000      -7.002126      -190.5375
  15   2.0000      -6.996810      -190.3929
  16   2.0000      -6.996160      -190.3752
  17   2.0000      -0.982841       -26.7445
  18   2.0000      -0.837756       -22.7965
  19   2.0000      -0.783459       -21.3190
  20   2.0000      -0.762865       -20.7586
  21   2.0000      -0.680713       -18.5232
  22   2.0000      -0.659860       -17.9557
  23   2.0000      -0.582986       -15.8639
  24   2.0000      -0.548517       -14.9259
  25   2.0000      -0.513403       -13.9704
  26   2.0000      -0.465778       -12.6745
  27   2.0000      -0.442159       -12.0318
  28   2.0000      -0.414273       -11.2729
  29   2.0000      -0.400592       -10.9007
  30   2.0000      -0.391768       -10.6606
  31   2.0000      -0.367392        -9.9972
  32   2.0000      -0.354703        -9.6520
  33   2.0000      -0.352197        -9.5838
  34   2.0000      -0.321800        -8.7566
  35   2.0000      -0.306622        -8.3436
  36   2.0000      -0.282219        -7.6796
  37   2.0000      -0.273663        -7.4468
  38   2.0000      -0.260234        -7.0813
  39   2.0000      -0.232963        -6.3393
  40   2.0000      -0.200424        -5.4538
  41   0.0000      -0.053772        -1.4632
  42   0.0000      -0.036433        -0.9914
  43   0.0000      -0.014608        -0.3975
  44   0.0000       0.014748         0.4013
  45   0.0000       0.053754         1.4627

MULLIKEN ATOMIC CHARGES
-----------------------
   0 C :   -0.117692
   1 C :   -0.105834
   2 C :    0.081869
   3 C :    0.073045
   4 C :   -0.214345
   5 C :    0.261350
   6 O :   -0.323216
   7 Cl:   -0.055870
   8 Cl:   -0.065086
   9 H :    0.056813
  10 H :    0.057314
  11 H :    0.030548
  12 H :    0.321105
Sum of atomic charges:    0.0000000

LOEWDIN ATOMIC CHARGES
----------------------
   0 C :   -0.146392
   1 C :   -0.123807
   2 C :   -0.179279
   3 C :   -0.150744
   4 C :   -0.189209
   5 C :    0.022716
   6 O :   -0.223287
   7 Cl:    0.148490
   8 Cl:    0.137494
   9 H :    0.137101
  10 H :    0.135786
  11 H :    0.129705
  12 H :    0.301427

  Mayer bond orders larger than 0.100000
B(  0-C ,  1-C ) :   1.3542 B(  0-C ,  5-C ) :   1.3394 B(  0-C ,  9-H ) :   0.9672
B(  1-C ,  2-C ) :   1.3630 B(  1-C , 10-H ) :   0.9663 B(  2-C ,  3-C ) :   1.4217
B(  2-C ,  8-Cl) :   1.0265 B(  3-C ,  4-C ) :   1.3709 B(  3-C ,  7-Cl) :   1.0297
B(  4-C ,  5-C ) :   1.2700 B(  4-C , 11-H ) :   0.9587 B(  5-C ,  6-O ) :   1.1932
B(  6-O , 12-H ) :   0.8413

Dispersion correction           -0.017294995
FINAL SINGLE POINT ENERGY     -1225.363073535432

DIPOLE MOMENT
-------------

Method             : SCF
Type of density    : Electron Density
Multiplicity       :   1
Irrep              :   0
Energy             : -1225.3958470581530946 Eh
Relativity type    :
Basis              : AO
                                X                 Y                 Z
Electronic contribution:     11.331978526       2.684197659       0.000002909
Nuclear contribution   :    -12.155467349      -2.321623103      -0.000016309
                        -----------------------------------------
Total Dipole Moment    :     -0.823488823       0.362574556      -0.000013400
                        -----------------------------------------
Magnitude (a.u.)       :      0.899774500
Magnitude (Debye)      :      2.287045023

Rotational constants in cm-1:             0.062733             0.029625             0.020122
Rotational constants in MHz :          1880.688729           888.130235           603.252341

                             ****ORCA TERMINATED NORMALLY****
TOTAL RUN TIME: 0 days 0 hours 0 minutes 12 seconds 394 msec
