                         Program Version 6.0.0  -   RELEASE  -
|  1> ! M062X DEF2-TZVP FREQ
|  2> * xyzfile 0 1 censo.xyz
|  3>
|  4>                          ****END OF INPUT****

CARTESIAN COORDINATES (ANGSTROEM)
---------------------------------
  C     -2.415469    0.004975    0.000216
  C     -0.984810    0.529845   -0.000155
  C      0.033496   -0.624418   -0.000113
  C      1.410484   -0.161076   -0.001942
  C      2.543887    0.255877    0.001830
  H     -2.607873   -0.610676   -0.885076
  H     -2.607652   -0.610100    0.885946
  H     -3.134656    0.829447    0.000005
  H     -0.810909    1.156528   -0.881634
  H     -0.810468    1.157091    0.880839
  H     -0.132721   -1.259044   -0.879723
  H     -0.131850   -1.258430    0.880089
  H      3.548041    0.616148    0.000088

 Total Charge           Charge          ....    0
 Multiplicity           Mult            ....    1
 Number of Electrons    NEL             ....   38
 Basis Dimension        Dim             ....  203

ORBITAL ENERGIES
----------------

  NO   OCC          E(Eh)            E(eV)
   0   2.0000     -10.559122      -287.3283
   1   2.0000     -10.541559      -286.8504
   2   2.0000     -10.539456      -286.7932
   3   2.0000     -10.529721      -286.5283
   4   2.0000     -10.525711      -286.4192
   5   2.0000      -0.912811       -24.8389
   6   2.0000      -0.843354       -22.9488
   7   2.0000      -0.780283       -21.2326
   8   2.0000      -0.686617       -18.6838
   9   2.0000      -0.600384       -16.3373
  10   2.0000      -0.548780       -14.9331
  11   2.0000      -0.535698       -14.5771
  12   2.0000      -0.489379       -13.3167
  13   2.0000      -0.471292       -12.8245
  14   2.0000      -0.429435       -11.6855
  15   2.0000      -0.415592       -11.3088
  16   2.0000      -0.403448       -10.9784
  17   2.0000      -0.327118        -8.9013
  18   2.0000      -0.326350        -8.8804
  19   0.0000       0.060544         1.6475
  20   0.0000       0.081278         2.2117
  21   0.0000       0.086901         2.3647
  22   0.0000       0.104294         2.8380
  23   0.0000       0.106828         2.9069

MULLIKEN ATOMIC CHARGES
-----------------------
   0 C :   -0.430517
   1 C :   -0.215893
   2 C :   -0.361593
   3 C :   -0.087913
   4 C :   -0.115608
   5 H :    0.137466
   6 H :    0.137406
   7 H :    0.144466
   8 H :    0.138807
   9 H :    0.138793
  10 H :    0.155890
  11 H :    0.155555
  12 H :    0.203141
Sum of atomic charges:   -0.0000000

LOEWDIN ATOMIC CHARGES
----------------------
   0 C :   -0.317294
   1 C :   -0.279434
   2 C :   -0.251904
   3 C :   -0.124242
   4 C :   -0.111312
   5 H :    0.120957
   6 H :    0.120953
   7 H :    0.122401
   8 H :    0.139953
   9 H :    0.139950
  10 H :    0.157351
  11 H :    0.157363
  12 H :    0.125259

  Mayer bond orders larger than 0.100000
B(  0-C ,  1-C ) :   0.9381 B(  0-C ,  5-H ) :   0.9736 B(  0-C ,  6-H ) :   0.9734
B(  0-C ,  7-H ) :   0.9811 B(  1-C ,  2-C ) :   0.9362 B(  1-C ,  8-H ) :   0.9726
B(  1-C ,  9-H ) :   0.9722 B(  2-C ,  3-C ) :   1.0326 B(  2-C , 10-H ) :   0.9623
B(  2-C , 11-H ) :   0.9592 B(  3-C ,  4-C ) :   3.0580 B(  4-C , 12-H ) :   0.8768

FINAL SINGLE POINT ENERGY      -195.256258115975

DIPOLE MOMENT
-------------

Method             : SCF
Type of density    : Electron Density
Multiplicity       :   1
Irrep              :   0
Energy             :  -195.2562581159747310 Eh
Relativity type    :
Basis              : AO
                                X                 Y                 Z
Electronic contribution:      5.966627700      -0.034487086      -0.000960176
Nuclear contribution   :     -6.309414253       0.010456159       0.000658970
                        -----------------------------------------
Total Dipole Moment    :     -0.342786553      -0.024030926      -0.000301205
                        -----------------------------------------
Magnitude (a.u.)       :      0.343627992
Magnitude (Debye)      :      0.873432943

VIBRATIONAL FREQUENCIES
-----------------------

Scaling factor for frequencies =  1.000000000  (already applied!)

     0:       0.00 cm**-1
     1:       0.00 cm**-1
     2:       0.00 cm**-1
     3:       0.00 cm**-1
     4:       0.00 cm**-1
     5:       0.00 cm**-1
     6:     131.82 cm**-1
     7:     198.15 cm**-1
     8:     282.63 cm**-1
     9:     358.91 cm**-1
    10:     399.57 cm**-1
    11:     533.85 cm**-1
    12:     716.52 cm**-1
    13:     739.91 cm**-1
    14:     756.73 cm**-1
    15:     887.49 cm**-1
    16:     893.76 cm**-1
    17:     988.61 cm**-1
    18:    1062.19 cm**-1
    19:    1120.16 cm**-1
    20:    1133.61 cm**-1
    21:    1268.01 cm**-1
    22:    1311.36 cm**-1
    23:    1329.64 cm**-1
    24:    1390.68 cm**-1
    25:    1421.43 cm**-1
    26:    1480.37 cm**-1
    27:    1498.29 cm**-1
    28:    1505.62 cm**-1
    29:    1513.10 cm**-1
    30:    2209.89 cm**-1
    31:    3022.85 cm**-1
    32:    3025.53 cm**-1
    33:    3041.96 cm**-1
    34:    3057.35 cm**-1
    35:    3080.95 cm**-1
    36:    3102.94 cm**-1
    37:    3105.46 cm**-1
    38:    3454.33 cm**-1

IR SPECTRUM
-----------

 Mode   freq       eps      Int      T**2         TX        TY        TZ
       cm**-1   L/(mol*cm) km/mol    a.u.
----------------------------------------------------------------------------
  6:    131.82   0.000017    0.09  0.000041  (-0.000013 -0.000022  0.006384)
  7:    198.15   0.000038    0.19  0.000060  ( 0.001393  0.007592  0.000032)
  8:    282.63   0.000017    0.09  0.000019  ( 0.000014  0.000011  0.004345)
  9:    358.91   0.000255    1.29  0.000222  ( 0.005190 -0.013964 -0.000114)
 10:    399.57   0.001956    9.88  0.001527  (-0.000424 -0.000021 -0.039078)
 11:    533.85   0.002058   10.40  0.001203  (-0.017300  0.030063  0.000030)
 12:    716.52   0.009002   45.49  0.003920  ( 0.000657 -0.000060  0.062610)
 13:    739.91   0.008726   44.10  0.003680  (-0.022317  0.056411  0.000349)
 14:    756.73   0.000273    1.38  0.000112  (-0.000010  0.000128 -0.010603)
 15:    887.49   0.000169    0.85  0.000059  (-0.000073 -0.000059 -0.007701)
 16:    893.76   0.000554    2.80  0.000193  ( 0.002872 -0.013604  0.000012)
 17:    988.61   0.000196    0.99  0.000062  ( 0.006082 -0.004986 -0.000007)
 18:   1062.19   0.000133    0.67  0.000039  ( 0.006246  0.000424  0.000004)
 19:   1120.16   0.000368    1.86  0.000103  ( 0.009838 -0.002401 -0.000010)
 20:   1133.61   0.000001    0.00  0.000000  (-0.000167 -0.000037  0.000434)
 21:   1268.01   0.000006    0.03  0.000002  (-0.000105 -0.000034  0.001251)
 22:   1311.36   0.000852    4.30  0.000203  (-0.013526 -0.004438 -0.000002)
 23:   1329.64   0.000005    0.02  0.000001  (-0.000033 -0.000005 -0.001070)
 24:   1390.68   0.000274    1.38  0.000061  ( 0.000329 -0.007831 -0.000004)
 25:   1421.43   0.000604    3.05  0.000133  (-0.010160 -0.005427  0.000005)
 26:   1480.37   0.000403    2.04  0.000085  (-0.002925  0.008742  0.000004)
 27:   1498.29   0.000210    1.06  0.000044  (-0.006597 -0.000396  0.000052)
 28:   1505.62   0.001588    8.03  0.000329  (-0.000013 -0.000039 -0.018143)
 29:   1513.10   0.001749    8.84  0.000361  (-0.000712  0.018980 -0.000035)
 30:   2209.89   0.002080   10.51  0.000294  (-0.016700 -0.003846  0.000007)
 31:   3022.85   0.000936    4.73  0.000097  (-0.005265 -0.008300 -0.000042)
 32:   3025.53   0.003835   19.38  0.000396  ( 0.018443  0.007444  0.000002)
 33:   3041.96   0.004254   21.50  0.000436  ( 0.007880  0.019348 -0.000004)
 34:   3057.35   0.000185    0.94  0.000019  (-0.000010 -0.000041  0.004350)
 35:   3080.95   0.000029    0.15  0.000003  ( 0.000007 -0.000001  0.001707)
 36:   3102.94   0.007409   37.44  0.000745  (-0.000032  0.000077  0.027297)
 37:   3105.46   0.004087   20.65  0.000411  (-0.008771  0.018268 -0.000110)
 38:   3454.33   0.014605   73.81  0.001319  ( 0.034676  0.010816 -0.000044)

--------------------------
THERMOCHEMISTRY AT 298.15K
--------------------------

Temperature         ...   298.15 K
Pressure            ...     1.00 atm
Total Mass          ...    68.12 AMU
Quasi RRHO          ...     True
Cut-Off Frequency   ...     1.00 cm^-1

Throughout the following assumptions are being made:
  (1) The electronic state is orbitally nondegenerate
  (2) There are no thermally accessible electronically excited states
  (3) Hindered rotations indicated by low frequency modes are not
      treated as such but are treated as vibrations and this may
      cause some error
  (4) All equations used are the standard statistical mechanics
      equations for an ideal gas
  (5) All vibrations are strictly harmonic

freq.     131.82  E(vib)   ...       0.42
freq.     198.15  E(vib)   ...       0.35
freq.     282.63  E(vib)   ...       0.28
freq.     358.91  E(vib)   ...       0.22
freq.     399.57  E(vib)   ...       0.19
freq.     533.85  E(vib)   ...       0.13
freq.     716.52  E(vib)   ...       0.07
freq.     739.91  E(vib)   ...       0.06
freq.     756.73  E(vib)   ...       0.06
freq.     887.49  E(vib)   ...       0.04
freq.     893.76  E(vib)   ...       0.03
freq.     988.61  E(vib)   ...       0.02
freq.    1062.19  E(vib)   ...       0.02
freq.    1120.16  E(vib)   ...       0.01
freq.    1133.61  E(vib)   ...       0.01
freq.    1268.01  E(vib)   ...       0.01
freq.    1311.36  E(vib)   ...       0.01
freq.    1329.64  E(vib)   ...       0.01
freq.    1390.68  E(vib)   ...       0.00
freq.    1421.43  E(vib)   ...       0.00
freq.    1480.37  E(vib)   ...       0.00
freq.    1498.29  E(vib)   ...       0.00
freq.    1505.62  E(vib)   ...       0.00
freq.    1513.10  E(vib)   ...       0.00
freq.    2209.89  E(vib)   ...       0.00
freq.    3022.85  E(vib)   ...       0.00
freq.    3025.53  E(vib)   ...       0.00
freq.    3041.96  E(vib)   ...       0.00
freq.    3057.35  E(vib)   ...       0.00
freq.    3080.95  E(vib)   ...       0.00
freq.    3102.94  E(vib)   ...       0.00
freq.    3105.46  E(vib)   ...       0.00
freq.    3454.33  E(vib)   ...       0.00

------------
INNER ENERGY
------------

The inner energy is: U= E(el) + E(ZPE) + E(vib) + E(rot) + E(trans)
    E(el)   - is the total energy from the electronic structure calculation
              = E(kin-el) + E(nuc-el) + E(el-el) + E(nuc-nuc)
    E(ZPE)  - the the zero temperature vibrational energy from the frequency calculation
    E(vib)  - the the finite temperature correction to E(ZPE) due to population
              of excited vibrational states
    E(rot)  - is the rotational thermal energy
    E(trans)- is the translational thermal energy

Summary of contributions to the inner energy U:
Electronic energy                ...   -195.25625812 Eh
Zero point energy                ...      0.11396233 Eh      71.51 kcal/mol
Thermal vibrational correction   ...      0.00313091 Eh       1.96 kcal/mol
Thermal rotational correction    ...      0.00141627 Eh       0.89 kcal/mol
Thermal translational correction ...      0.00141627 Eh       0.89 kcal/mol
-----------------------------------------------------------------------
Total thermal energy                   -195.13633234 Eh

Summary of corrections to the electronic energy:
(perhaps to be used in another calculation)
Total thermal correction                  0.00596345 Eh       3.74 kcal/mol
Non-thermal (ZPE) correction              0.11396233 Eh      71.51 kcal/mol
-----------------------------------------------------------------------
Total correction                          0.11992578 Eh      75.25 kcal/mol

--------
ENTHALPY
--------

The enthalpy is H = U + kB*T
                kB is Boltzmann's constant
Total thermal energy              ...   -195.13633234 Eh
Thermal Enthalpy correction       ...      0.00094421 Eh       0.59 kcal/mol
-----------------------------------------------------------------------
Total Enthalpy                    ...   -195.13538813 Eh

Note: Only C1 symmetry has been detected, increase convergence thresholds
      if your molecule has a higher symmetry. Symmetry factor of 1.0 is
      used for the rotational entropy correction.

Note: Rotational entropy computed according to Herzberg
Infrared and Raman Spectra, Chapter V,1, Van Nostrand Reinhold, 1945
Point Group:  C1, Symmetry Number:   1
Rotational constants in cm-1:     0.781197     0.074679     0.070861

Vibrational entropy computed according to the QRRHO of S. Grimme
Chem.Eur.J. 2012 18 9955 using a reference frequency of 100.0 cm-1

-------
ENTROPY
-------

The entropy contributions are T*S = T*(S(el)+S(vib)+S(rot)+S(trans))
     S(el)   - electronic entropy
     S(vib)  - vibrational entropy
     S(rot)  - rotational entropy
     S(trans)- translational entropy
The entropies will be listed as multiplied by the temperature to get
units of energy

Electronic entropy                ...      0.00000000 Eh      0.00 kcal/mol
Vibrational entropy               ...      0.00509200 Eh      3.20 kcal/mol
Rotational entropy                ...      0.01210189 Eh      7.59 kcal/mol
Translational entropy             ...      0.01832752 Eh     11.50 kcal/mol
-----------------------------------------------------------------------
Final entropy term                ...      0.03552141 Eh     22.29 kcal/mol

In case the symmetry of your molecule has not been determined correctly
or in case you have a reason to use a different symmetry number we print
out the resulting rotational entropy values for sn=1,12:

 non-linear molecules -----------------------------------
|  sn= 1 | S(rot)=       0.01210189 Eh      7.59 kcal/mol|
|  sn= 2 | S(rot)=       0.01144743 Eh      7.18 kcal/mol|
|  sn= 3 | S(rot)=       0.01106460 Eh      6.94 kcal/mol|
|  sn= 4 | S(rot)=       0.01079298 Eh      6.77 kcal/mol|
|  sn= 5 | S(rot)=       0.01058229 Eh      6.64 kcal/mol|
|  sn= 6 | S(rot)=       0.01041014 Eh      6.53 kcal/mol|
|  sn= 7 | S(rot)=       0.01026460 Eh      6.44 kcal/mol|
|  sn= 8 | S(rot)=       0.01013852 Eh      6.36 kcal/mol|
|  sn= 9 | S(rot)=       0.01002731 Eh      6.29 kcal/mol|
|  sn=10 | S(rot)=       0.00992783 Eh      6.23 kcal/mol|
|  sn=11 | S(rot)=       0.00983784 Eh      6.17 kcal/mol|
|  sn=12 | S(rot)=       0.00975569 Eh      6.12 kcal/mol|
 linear molecules ---------------------------------------
|  Dinfh | S(rot)=       0.00782509 Eh      4.91 kcal/mol|
|  Cinfv | S(rot)=       0.00847955 Eh      5.32 kcal/mol|
 --------------------------------------------------------

-------------------
GIBBS FREE ENERGY
-------------------

The Gibbs free energy is G = H - T*S

Total enthalpy                    ...   -195.13538813 Eh
Total entropy correction          ...     -0.03552141 Eh    -22.29 kcal/mol
-----------------------------------------------------------------------

                             ****ORCA TERMINATED NORMALLY****
TOTAL RUN TIME: 0 days 0 hours 10 minutes 44 seconds 128 msec
