                         Program Version 6.0.0  -   RELEASE  -
|  1> ! M062X DEF2-TZVP FREQ
|  2> * xyzfile 0 1 vacuum_censo.xyz
|  3>
|  4>                          ****END OF INPUT****

CARTESIAN COORDINATES (ANGSTROEM)
---------------------------------
  C     -2.418885    0.007441    0.000009
  C     -0.983747    0.524812    0.000016
  C      0.037999   -0.627053    0.000153
  C      1.414227   -0.161804    0.000542
  C      2.542880    0.259237   -0.002249
  H     -2.617178   -0.607173    0.884793
  H     -3.135545    0.833718   -0.000147
  H     -2.617095   -0.607444   -0.884605
  H     -0.804807    1.154029   -0.878547
  H     -0.804864    1.154147    0.878501
  H     -0.129257   -1.263893   -0.878752
  H     -0.129504   -1.263936    0.878981
  H      3.541983    0.621832    0.001345

 Total Charge           Charge          ....    0
 Multiplicity           Mult            ....    1
 Number of Electrons    NEL             ....   38
 Basis Dimension        Dim             ....  203

ORBITAL ENERGIES
----------------

  NO   OCC          E(Eh)            E(eV)
   0   2.0000     -10.559168      -287.3296
   1   2.0000     -10.541652      -286.8529
   2   2.0000     -10.538786      -286.7750
   3   2.0000     -10.529939      -286.5342
   4   2.0000     -10.524790      -286.3941
   5   2.0000      -0.912343       -24.8261
   6   2.0000      -0.843588       -22.9552
   7   2.0000      -0.780733       -21.2448
   8   2.0000      -0.686874       -18.6908
   9   2.0000      -0.601179       -16.3589
  10   2.0000      -0.547771       -14.9056
  11   2.0000      -0.536047       -14.5866
  12   2.0000      -0.489173       -13.3111
  13   2.0000      -0.470837       -12.8121
  14   2.0000      -0.430249       -11.7077
  15   2.0000      -0.415423       -11.3042
  16   2.0000      -0.402835       -10.9617
  17   2.0000      -0.327694        -8.9170
  18   2.0000      -0.327065        -8.8999
  19   0.0000       0.060759         1.6533
  20   0.0000       0.081687         2.2228
  21   0.0000       0.087110         2.3704
  22   0.0000       0.104640         2.8474
  23   0.0000       0.106909         2.9091

MULLIKEN ATOMIC CHARGES
-----------------------
   0 C :   -0.431706
   1 C :   -0.217121
   2 C :   -0.362518
   3 C :   -0.091467
   4 C :   -0.110259
   5 H :    0.137844
   6 H :    0.144922
   7 H :    0.137852
   8 H :    0.138974
   9 H :    0.138960
  10 H :    0.155617
  11 H :    0.155842
  12 H :    0.203060
Sum of atomic charges:    0.0000000

LOEWDIN ATOMIC CHARGES
----------------------
   0 C :   -0.317145
   1 C :   -0.279456
   2 C :   -0.251866
   3 C :   -0.124356
   4 C :   -0.109570
   5 H :    0.120870
   6 H :    0.122376
   7 H :    0.120872
   8 H :    0.139870
   9 H :    0.139860
  10 H :    0.157295
  11 H :    0.157265
  12 H :    0.123984

  Mayer bond orders larger than 0.100000
B(  0-C ,  1-C ) :   0.9387 B(  0-C ,  5-H ) :   0.9734 B(  0-C ,  6-H ) :   0.9808
B(  0-C ,  7-H ) :   0.9734 B(  1-C ,  2-C ) :   0.9365 B(  1-C ,  8-H ) :   0.9722
B(  1-C ,  9-H ) :   0.9724 B(  2-C ,  3-C ) :   1.0329 B(  2-C , 10-H ) :   0.9600
B(  2-C , 11-H ) :   0.9621 B(  3-C ,  4-C ) :   3.0592 B(  4-C , 12-H ) :   0.8743

FINAL SINGLE POINT ENERGY      -195.256355180299

DIPOLE MOMENT
-------------

Method             : SCF
Type of density    : Electron Density
Multiplicity       :   1
Irrep              :   0
Energy             :  -195.2563551802994937 Eh
Relativity type    :
Basis              : AO
                                X                 Y                 Z
Electronic contribution:      5.981065214      -0.037828508      -0.001789390
Nuclear contribution   :     -6.322647204       0.014117717       0.003321349
                        -----------------------------------------
Total Dipole Moment    :     -0.341581990      -0.023710791       0.001531959
                        -----------------------------------------
Magnitude (a.u.)       :      0.342407366
Magnitude (Debye)      :      0.870330358

VIBRATIONAL FREQUENCIES
-----------------------

Scaling factor for frequencies =  1.000000000  (already applied!)

     0:       0.00 cm**-1
     1:       0.00 cm**-1
     2:       0.00 cm**-1
     3:       0.00 cm**-1
     4:       0.00 cm**-1
     5:       0.00 cm**-1
     6:     130.42 cm**-1
     7:     190.35 cm**-1
     8:     277.46 cm**-1
     9:     356.06 cm**-1
    10:     391.04 cm**-1
    11:     528.38 cm**-1
    12:     693.79 cm**-1
    13:     718.65 cm**-1
    14:     754.39 cm**-1
    15:     886.97 cm**-1
    16:     892.01 cm**-1
    17:     987.61 cm**-1
    18:    1060.49 cm**-1
    19:    1119.01 cm**-1
    20:    1132.86 cm**-1
    21:    1266.91 cm**-1
    22:    1312.60 cm**-1
    23:    1330.20 cm**-1
    24:    1391.80 cm**-1
    25:    1421.46 cm**-1
    26:    1482.58 cm**-1
    27:    1498.91 cm**-1
    28:    1505.09 cm**-1
    29:    1513.57 cm**-1
    30:    2227.54 cm**-1
    31:    3016.46 cm**-1
    32:    3026.58 cm**-1
    33:    3043.49 cm**-1
    34:    3049.49 cm**-1
    35:    3079.40 cm**-1
    36:    3101.80 cm**-1
    37:    3107.31 cm**-1
    38:    3492.76 cm**-1

IR SPECTRUM
-----------

 Mode   freq       eps      Int      T**2         TX        TY        TZ
       cm**-1   L/(mol*cm) km/mol    a.u.
----------------------------------------------------------------------------
  6:    130.42   0.000006    0.03  0.000015  ( 0.000072  0.000028  0.003813)
  7:    190.35   0.000062    0.31  0.000101  (-0.000487 -0.010030  0.000005)
  8:    277.46   0.000016    0.08  0.000017  (-0.000002 -0.000003  0.004179)
  9:    356.06   0.000276    1.39  0.000242  (-0.005534  0.014528 -0.000068)
 10:    391.04   0.002115   10.69  0.001688  ( 0.000327  0.000019 -0.041080)
 11:    528.38   0.002238   11.31  0.001322  (-0.017931  0.031628  0.000009)
 12:    693.79   0.008822   44.59  0.003968  (-0.001030  0.000464  0.062984)
 13:    718.65   0.008470   42.80  0.003678  (-0.022302  0.056390 -0.000856)
 14:    754.39   0.000314    1.59  0.000130  (-0.000004  0.000073  0.011400)
 15:    886.97   0.000162    0.82  0.000057  ( 0.000051  0.000022 -0.007552)
 16:    892.01   0.000559    2.82  0.000195  (-0.003012  0.013651 -0.000021)
 17:    987.61   0.000194    0.98  0.000061  ( 0.006104 -0.004916 -0.000018)
 18:   1060.49   0.000121    0.61  0.000036  (-0.005943 -0.000613 -0.000003)
 19:   1119.01   0.000379    1.92  0.000106  ( 0.009946 -0.002604  0.000001)
 20:   1132.86   0.000001    0.01  0.000000  ( 0.000097  0.000029  0.000578)
 21:   1266.91   0.000007    0.04  0.000002  ( 0.000056  0.000017  0.001308)
 22:   1312.60   0.000859    4.34  0.000204  (-0.013595 -0.004395  0.000011)
 23:   1330.20   0.000005    0.02  0.000001  ( 0.000028  0.000005 -0.001060)
 24:   1391.80   0.000272    1.37  0.000061  (-0.000533  0.007788 -0.000007)
 25:   1421.46   0.000572    2.89  0.000126  ( 0.009940  0.005179  0.000000)
 26:   1482.58   0.000380    1.92  0.000080  ( 0.002857 -0.008474 -0.000005)
 27:   1498.91   0.000202    1.02  0.000042  ( 0.006487 -0.000140 -0.000004)
 28:   1505.09   0.001593    8.05  0.000330  (-0.000006 -0.000006 -0.018171)
 29:   1513.57   0.001796    9.08  0.000370  ( 0.000535 -0.019235  0.000005)
 30:   2227.54   0.002088   10.55  0.000293  (-0.016656 -0.003886  0.000029)
 31:   3016.46   0.001494    7.55  0.000155  (-0.006727 -0.010457  0.000022)
 32:   3026.58   0.003655   18.47  0.000377  ( 0.017960  0.007367 -0.000003)
 33:   3043.49   0.003956   19.99  0.000406  ( 0.007351  0.018752  0.000001)
 34:   3049.49   0.000295    1.49  0.000030  (-0.000001 -0.000001 -0.005496)
 35:   3079.40   0.000033    0.16  0.000003  (-0.000001 -0.000006 -0.001819)
 36:   3101.80   0.007418   37.49  0.000746  (-0.000007  0.000007 -0.027318)
 37:   3107.31   0.004032   20.38  0.000405  (-0.008839  0.018078  0.000017)
 38:   3492.76   0.014535   73.45  0.001299  ( 0.034365  0.010847  0.000091)

--------------------------
THERMOCHEMISTRY AT 298.15K
--------------------------

Temperature         ...   298.15 K
Pressure            ...     1.00 atm
Total Mass          ...    68.12 AMU
Quasi RRHO          ...     True
Cut-Off Frequency   ...     1.00 cm^-1

Throughout the following assumptions are being made:
  (1) The electronic state is orbitally nondegenerate
  (2) There are no thermally accessible electronically excited states
  (3) Hindered rotations indicated by low frequency modes are not
      treated as such but are treated as vibrations and this may
      cause some error
  (4) All equations used are the standard statistical mechanics
      equations for an ideal gas
  (5) All vibrations are strictly harmonic

freq.     130.42  E(vib)   ...       0.43
freq.     190.35  E(vib)   ...       0.36
freq.     277.46  E(vib)   ...       0.28
freq.     356.06  E(vib)   ...       0.22
freq.     391.04  E(vib)   ...       0.20
freq.     528.38  E(vib)   ...       0.13
freq.     693.79  E(vib)   ...       0.07
freq.     718.65  E(vib)   ...       0.07
freq.     754.39  E(vib)   ...       0.06
freq.     886.97  E(vib)   ...       0.04
freq.     892.01  E(vib)   ...       0.03
freq.     987.61  E(vib)   ...       0.02
freq.    1060.49  E(vib)   ...       0.02
freq.    1119.01  E(vib)   ...       0.01
freq.    1132.86  E(vib)   ...       0.01
freq.    1266.91  E(vib)   ...       0.01
freq.    1312.60  E(vib)   ...       0.01
freq.    1330.20  E(vib)   ...       0.01
freq.    1391.80  E(vib)   ...       0.00
freq.    1421.46  E(vib)   ...       0.00
freq.    1482.58  E(vib)   ...       0.00
freq.    1498.91  E(vib)   ...       0.00
freq.    1505.09  E(vib)   ...       0.00
freq.    1513.57  E(vib)   ...       0.00
freq.    2227.54  E(vib)   ...       0.00
freq.    3016.46  E(vib)   ...       0.00
freq.    3026.58  E(vib)   ...       0.00
freq.    3043.49  E(vib)   ...       0.00
freq.    3049.49  E(vib)   ...       0.00
freq.    3079.40  E(vib)   ...       0.00
freq.    3101.80  E(vib)   ...       0.00
freq.    3107.31  E(vib)   ...       0.00
freq.    3492.76  E(vib)   ...       0.00

------------
INNER ENERGY
------------

The inner energy is: U= E(el) + E(ZPE) + E(vib) + E(rot) + E(trans)
    E(el)   - is the total energy from the electronic structure calculation
              = E(kin-el) + E(nuc-el) + E(el-el) + E(nuc-nuc)
    E(ZPE)  - the the zero temperature vibrational energy from the frequency calculation
    E(vib)  - the the finite temperature correction to E(ZPE) due to population
              of excited vibrational states
    E(rot)  - is the rotational thermal energy
    E(trans)- is the translational thermal energy

Summary of contributions to the inner energy U:
Electronic energy                ...   -195.25635518 Eh
Zero point energy                ...      0.11387976 Eh      71.46 kcal/mol
Thermal vibrational correction   ...      0.00318618 Eh       2.00 kcal/mol
Thermal rotational correction    ...      0.00141627 Eh       0.89 kcal/mol
Thermal translational correction ...      0.00141627 Eh       0.89 kcal/mol
-----------------------------------------------------------------------
Total thermal energy                   -195.13645670 Eh

Summary of corrections to the electronic energy:
(perhaps to be used in another calculation)
Total thermal correction                  0.00601872 Eh       3.78 kcal/mol
Non-thermal (ZPE) correction              0.11387976 Eh      71.46 kcal/mol
-----------------------------------------------------------------------
Total correction                          0.11989848 Eh      75.24 kcal/mol

--------
ENTHALPY
--------

The enthalpy is H = U + kB*T
                kB is Boltzmann's constant
Total thermal energy              ...   -195.13645670 Eh
Thermal Enthalpy correction       ...      0.00094421 Eh       0.59 kcal/mol
-----------------------------------------------------------------------
Total Enthalpy                    ...   -195.13551249 Eh

Note: Only C1 symmetry has been detected, increase convergence thresholds
      if your molecule has a higher symmetry. Symmetry factor of 1.0 is
      used for the rotational entropy correction.

Note: Rotational entropy computed according to Herzberg
Infrared and Raman Spectra, Chapter V,1, Van Nostrand Reinhold, 1945
Point Group:  C1, Symmetry Number:   1
Rotational constants in cm-1:     0.781046     0.074591     0.070771

Vibrational entropy computed according to the QRRHO of S. Grimme
Chem.Eur.J. 2012 18 9955 using a reference frequency of 100.0 cm-1

-------
ENTROPY
-------

The entropy contributions are T*S = T*(S(el)+S(vib)+S(rot)+S(trans))
     S(el)   - electronic entropy
     S(vib)  - vibrational entropy
     S(rot)  - rotational entropy
     S(trans)- translational entropy
The entropies will be listed as multiplied by the temperature to get
units of energy

Electronic entropy                ...      0.00000000 Eh      0.00 kcal/mol
Vibrational entropy               ...      0.00520099 Eh      3.26 kcal/mol
Rotational entropy                ...      0.01210314 Eh      7.59 kcal/mol
Translational entropy             ...      0.01832752 Eh     11.50 kcal/mol
-----------------------------------------------------------------------
Final entropy term                ...      0.03563164 Eh     22.36 kcal/mol

In case the symmetry of your molecule has not been determined correctly
or in case you have a reason to use a different symmetry number we print
out the resulting rotational entropy values for sn=1,12:

 non-linear molecules -----------------------------------
|  sn= 1 | S(rot)=       0.01210314 Eh      7.59 kcal/mol|
|  sn= 2 | S(rot)=       0.01144868 Eh      7.18 kcal/mol|
|  sn= 3 | S(rot)=       0.01106585 Eh      6.94 kcal/mol|
|  sn= 4 | S(rot)=       0.01079422 Eh      6.77 kcal/mol|
|  sn= 5 | S(rot)=       0.01058353 Eh      6.64 kcal/mol|
|  sn= 6 | S(rot)=       0.01041139 Eh      6.53 kcal/mol|
|  sn= 7 | S(rot)=       0.01026584 Eh      6.44 kcal/mol|
|  sn= 8 | S(rot)=       0.01013977 Eh      6.36 kcal/mol|
|  sn= 9 | S(rot)=       0.01002856 Eh      6.29 kcal/mol|
|  sn=10 | S(rot)=       0.00992908 Eh      6.23 kcal/mol|
|  sn=11 | S(rot)=       0.00983909 Eh      6.17 kcal/mol|
|  sn=12 | S(rot)=       0.00975693 Eh      6.12 kcal/mol|
 linear molecules ---------------------------------------
|  Dinfh | S(rot)=       0.00782629 Eh      4.91 kcal/mol|
|  Cinfv | S(rot)=       0.00848075 Eh      5.32 kcal/mol|
 --------------------------------------------------------

-------------------
GIBBS FREE ENERGY
-------------------

The Gibbs free energy is G = H - T*S

Total enthalpy                    ...   -195.13551249 Eh
Total entropy correction          ...     -0.03563164 Eh    -22.36 kcal/mol
-----------------------------------------------------------------------

                             ****ORCA TERMINATED NORMALLY****
TOTAL RUN TIME: 0 days 0 hours 10 minutes 44 seconds 183 msec
