                         Program Version 6.0.1  -  RELEASE   -
|  1> ! pbe def2-sv(p) def2/J RI DEFGRID1 loosescf d4 GCP(DFT/SV(P)) printgap
|  2> %output
|  3>     printlevel normal
|  4> end
|  5> * xyz 0 1
|  6> C -2.1268920549 -0.9826753219 -0.1940362533
|  7> C -1.1126469115 -0.3709519229 0.7895322005
|  8> H -1.6182412219 -0.3585864516 1.7645012031
|  9> C -0.7560317692 1.1002288269 0.4890623617
| 10> H -1.6276421033 1.5780241459 0.0110939953
| 11> C 0.4605802927 1.2818747335 -0.444252184
| 12> H 0.860101284 2.2946916531 -0.2827698766
| 13> C 1.5902189243 0.3051616519 -0.0432397522
| 14> H 2.3644098706 0.3207207469 -0.8161386816
| 15> C 1.0910487568 -1.1462844682 0.1247074077
| 16> H 1.8801797126 -1.7162987956 0.6321069419
| 17> O 0.0049947077 -1.2015480331 1.0250747058
| 18> O 0.8596958685 -1.8030892828 -1.0739540655
| 19> O 2.1924544217 0.7384909169 1.1497973499
| 20> O 0.1210574604 1.2415612807 -1.8001869131
| 21> O -0.5144801196 1.6872246862 1.7516621782
| 22> O -1.7120969257 -0.8413014796 -1.5466569785
| 23> H -3.0912122782 -0.4817690175 -0.051511895
| 24> H -2.2288757828 -2.0440635502 0.0576420891
| 25> H 0.0365415233 -1.4741094276 -1.4703332814
| 26> H 1.5328052477 0.6697836299 1.8561004216
| 27> H -0.4677246792 0.4909434957 -1.964230578
| 28> H -0.2209631528 2.598211186 1.630450691
| 29> H -2.3517839547 -1.2741340691 -2.1222457471
| 30> *
| 31>
| 32>                          ****END OF INPUT****

CARTESIAN COORDINATES (ANGSTROEM)
---------------------------------
  C     -2.126892   -0.982675   -0.194036
  C     -1.112647   -0.370952    0.789532
  H     -1.618241   -0.358586    1.764501
  C     -0.756032    1.100229    0.489062
  H     -1.627642    1.578024    0.011094
  C      0.460580    1.281875   -0.444252
  H      0.860101    2.294692   -0.282770
  C      1.590219    0.305162   -0.043240
  H      2.364410    0.320721   -0.816139
  C      1.091049   -1.146284    0.124707
  H      1.880180   -1.716299    0.632107
  O      0.004995   -1.201548    1.025075
  O      0.859696   -1.803089   -1.073954
  O      2.192454    0.738491    1.149797
  O      0.121057    1.241561   -1.800187
  O     -0.514480    1.687225    1.751662
  O     -1.712097   -0.841301   -1.546657
  H     -3.091212   -0.481769   -0.051512
  H     -2.228876   -2.044064    0.057642
  H      0.036542   -1.474109   -1.470333
  H      1.532805    0.669784    1.856100
  H     -0.467725    0.490943   -1.964231
  H     -0.220963    2.598211    1.630451
  H     -2.351784   -1.274134   -2.122246

 Total Charge           Charge          ....    0
 Multiplicity           Mult            ....    1
 Number of Electrons    NEL             ....   96
 Basis Dimension        Dim             ....  192

ORBITAL ENERGIES
----------------

  NO   OCC          E(Eh)            E(eV)
   0   2.0000     -18.817048      -512.0379
   1   2.0000     -18.769310      -510.7389
   2   2.0000     -18.768237      -510.7097
   3   2.0000     -18.740607      -509.9578
   4   2.0000     -18.740517      -509.9554
   5   2.0000     -18.735732      -509.8252
   6   2.0000      -9.972356      -271.3616
   7   2.0000      -9.967984      -271.2426
   8   2.0000      -9.962876      -271.1036
   9   2.0000      -9.956104      -270.9194
  10   2.0000      -9.939974      -270.4804
  11   2.0000      -9.925140      -270.0768
  12   2.0000      -0.989253       -26.9190
  13   2.0000      -0.971121       -26.4255
  14   2.0000      -0.946566       -25.7574
  15   2.0000      -0.923442       -25.1281
  16   2.0000      -0.912513       -24.8308
  17   2.0000      -0.903528       -24.5863
  18   2.0000      -0.719752       -19.5854
  19   2.0000      -0.677578       -18.4378
  20   2.0000      -0.636810       -17.3285
  21   2.0000      -0.594432       -16.1753
  22   2.0000      -0.578301       -15.7364
  23   2.0000      -0.537552       -14.6275
  24   2.0000      -0.504037       -13.7155
  25   2.0000      -0.489778       -13.3275
  26   2.0000      -0.483946       -13.1688
  27   2.0000      -0.469272       -12.7695
  28   2.0000      -0.445091       -12.1115
  29   2.0000      -0.443171       -12.0593
  30   2.0000      -0.429433       -11.6855
  31   2.0000      -0.413999       -11.2655
  32   2.0000      -0.391208       -10.6453
  33   2.0000      -0.378280       -10.2935
  34   2.0000      -0.363592        -9.8938
  35   2.0000      -0.350951        -9.5499
  36   2.0000      -0.343225        -9.3396
  37   2.0000      -0.324615        -8.8332
  38   2.0000      -0.305570        -8.3150
  39   2.0000      -0.298572        -8.1246
  40   2.0000      -0.283306        -7.7091
  41   2.0000      -0.275808        -7.5051
  42   2.0000      -0.268453        -7.3050
  43   2.0000      -0.250934        -6.8283
  44   2.0000      -0.241461        -6.5705
  45   2.0000      -0.227971        -6.2034
  46   2.0000      -0.217995        -5.9319
  47   2.0000      -0.185154        -5.0383
  48   0.0000      -0.015166        -0.4127
  49   0.0000       0.015927         0.4334
  50   0.0000       0.043652         1.1878
  51   0.0000       0.048173         1.3108
  52   0.0000       0.069334         1.8867

MULLIKEN ATOMIC CHARGES
-----------------------
   0 C :    0.013102
   1 C :    0.041386
   2 H :    0.095830
   3 C :   -0.000465
   4 H :    0.072450
   5 C :    0.036101
   6 H :    0.062605
   7 C :    0.069145
   8 H :    0.082359
   9 C :    0.168264
  10 H :    0.073697
  11 O :   -0.306172
  12 O :   -0.405533
  13 O :   -0.430826
  14 O :   -0.416617
  15 O :   -0.413572
  16 O :   -0.452348
  17 H :    0.096600
  18 H :    0.109104
  19 H :    0.282022
  20 H :    0.292722
  21 H :    0.290154
  22 H :    0.305951
  23 H :    0.334042
Sum of atomic charges:    0.0000000

LOEWDIN ATOMIC CHARGES
----------------------
   0 C :   -0.134052
   1 C :   -0.067163
   2 H :    0.135635
   3 C :   -0.075777
   4 H :    0.103944
   5 C :   -0.083137
   6 H :    0.110401
   7 C :   -0.090395
   8 H :    0.122930
   9 C :   -0.010505
  10 H :    0.111390
  11 O :   -0.141341
  12 O :   -0.319256
  13 O :   -0.319085
  14 O :   -0.321936
  15 O :   -0.310854
  16 O :   -0.318694
  17 H :    0.114746
  18 H :    0.118259
  19 H :    0.254995
  20 H :    0.268472
  21 H :    0.258707
  22 H :    0.286409
  23 H :    0.306308

  Mayer bond orders larger than 0.100000
B(  0-C ,  1-C ) :   1.0739 B(  0-C , 16-O ) :   0.9820 B(  0-C , 17-H ) :   0.9130
B(  0-C , 18-H ) :   0.9145 B(  1-C ,  2-H ) :   0.8813 B(  1-C ,  3-C ) :   0.9772
B(  1-C , 11-O ) :   1.0444 B(  3-C ,  4-H ) :   0.8971 B(  3-C ,  5-C ) :   0.9871
B(  3-C , 15-O ) :   1.0353 B(  5-C ,  6-H ) :   0.8960 B(  5-C ,  7-C ) :   0.9401
B(  5-C , 14-O ) :   1.0845 B(  7-C ,  8-H ) :   0.8881 B(  7-C ,  9-C ) :   0.9846
B(  7-C , 13-O ) :   1.0278 B(  9-C , 10-H ) :   0.9032 B(  9-C , 11-O ) :   1.0066
B(  9-C , 12-O ) :   1.1372 B( 12-O , 19-H ) :   0.7931 B( 13-O , 20-H ) :   0.8243
B( 14-O , 21-H ) :   0.8042 B( 15-O , 22-H ) :   0.8384 B( 16-O , 19-H ) :   0.1151
B( 16-O , 21-H ) :   0.1014 B( 16-O , 23-H ) :   0.8302

Dispersion correction           -0.026533502
FINAL SINGLE POINT ENERGY      -685.697321388958

DIPOLE MOMENT
-------------

Method             : SCF
Type of density    : Electron Density
Multiplicity       :   1
Irrep              :   0
Energy             :  -685.8330144261109353 Eh
Relativity type    :
Basis              : AO
                                X                 Y                 Z
Electronic contribution:      2.503227243      -0.521923251       0.477736805
Nuclear contribution   :     -4.613337636       0.563457772      -0.715954727
                        -----------------------------------------
Total Dipole Moment    :     -2.110110393       0.041534521      -0.238217922
                        -----------------------------------------
Magnitude (a.u.)       :      2.123920612
Magnitude (Debye)      :      5.398577164

Rotational constants in cm-1:             0.039343             0.031215             0.027736
Rotational constants in MHz :          1179.474597           935.789480           831.514638

                             ****ORCA TERMINATED NORMALLY****
TOTAL RUN TIME: 0 days 0 hours 0 minutes 11 seconds 858 msec
