                         Program Version 6.0.1  -  RELEASE   -
|  1> ! pbe def2-sv(p) def2/J RI DEFGRID1 loosescf d4 GCP(DFT/SV(P)) printgap
|  2> %output
|  3>     printlevel normal
|  4> end
|  5> * xyz 0 1
|  6> C -0.7309397243 -1.2008842251 7.70725e-05
|  7> C 0.6523310028 -1.2080555528 7.74365e-05
|  8> C 1.3260534905 -0.002006072 7.46993e-05
|  9> C 0.6540390223 1.2076976609 7.77582e-05
| 10> C -0.7262025913 1.207272693 4.64415e-05
| 11> C -1.42666248 0.0031945279 1.35318e-05
| 12> O -2.7840666253 0.0534623267 -0.0001083245
| 13> F 2.6779737662 -0.0045035519 -0.0001291054
| 14> H -1.272991925 -2.1368538579 -3.4855e-05
| 15> H 1.2046621474 -2.1341213982 -4.46735e-05
| 16> H 1.2110674028 2.1308353778 2.86096e-05
| 17> H -1.2827435022 2.1302459423 4.72215e-05
| 18> H -3.1484956412 -0.8399053125 -0.0002159586
| 19> *
| 20>
| 21>                          ****END OF INPUT****

CARTESIAN COORDINATES (ANGSTROEM)
---------------------------------
  C     -0.730940   -1.200884    0.000077
  C      0.652331   -1.208056    0.000077
  C      1.326053   -0.002006    0.000075
  C      0.654039    1.207698    0.000078
  C     -0.726203    1.207273    0.000046
  C     -1.426662    0.003195    0.000014
  O     -2.784067    0.053462   -0.000108
  F      2.677974   -0.004504   -0.000129
  H     -1.272992   -2.136854   -0.000035
  H      1.204662   -2.134121   -0.000045
  H      1.211067    2.130835    0.000029
  H     -1.282744    2.130246    0.000047
  H     -3.148496   -0.839905   -0.000216

 Total Charge           Charge          ....    0
 Multiplicity           Mult            ....    1
 Number of Electrons    NEL             ....   58
 Basis Dimension        Dim             ....  122

ORBITAL ENERGIES
----------------

  NO   OCC          E(Eh)            E(eV)
   0   2.0000     -24.260636      -660.1655
   1   2.0000     -18.786809      -511.2151
   2   2.0000      -9.967168      -271.2204
   3   2.0000      -9.958118      -270.9742
   4   2.0000      -9.903423      -269.4858
   5   2.0000      -9.901876      -269.4437
   6   2.0000      -9.900523      -269.4069
   7   2.0000      -9.897865      -269.3346
   8   2.0000      -1.091479       -29.7007
   9   2.0000      -0.970248       -26.4018
  10   2.0000      -0.781971       -21.2785
  11   2.0000      -0.686714       -18.6864
  12   2.0000      -0.665904       -18.1202
  13   2.0000      -0.577742       -15.7212
  14   2.0000      -0.552265       -15.0279
  15   2.0000      -0.506054       -13.7704
  16   2.0000      -0.481694       -13.1076
  17   2.0000      -0.445665       -12.1272
  18   2.0000      -0.404935       -11.0188
  19   2.0000      -0.399415       -10.8686
  20   2.0000      -0.391202       -10.6451
  21   2.0000      -0.377741       -10.2788
  22   2.0000      -0.363934        -9.9031
  23   2.0000      -0.354487        -9.6461
  24   2.0000      -0.317069        -8.6279
  25   2.0000      -0.297631        -8.0989
  26   2.0000      -0.288747        -7.8572
  27   2.0000      -0.240707        -6.5500
  28   2.0000      -0.192716        -5.2441
  29   0.0000      -0.045051        -1.2259
  30   0.0000      -0.016900        -0.4599
  31   0.0000       0.017741         0.4827
  32   0.0000       0.042558         1.1581
  33   0.0000       0.078526         2.1368

MULLIKEN ATOMIC CHARGES
-----------------------
   0 C :   -0.160421
   1 C :   -0.164603
   2 C :    0.337546
   3 C :   -0.157094
   4 C :   -0.122647
   5 C :    0.247698
   6 O :   -0.333066
   7 F :   -0.177020
   8 H :    0.037198
   9 H :    0.059465
  10 H :    0.061594
  11 H :    0.054969
  12 H :    0.316379
Sum of atomic charges:   -0.0000000

LOEWDIN ATOMIC CHARGES
----------------------
   0 C :   -0.167307
   1 C :   -0.144962
   2 C :    0.045187
   3 C :   -0.141801
   4 C :   -0.138202
   5 C :    0.012970
   6 O :   -0.235476
   7 F :   -0.058501
   8 H :    0.123216
   9 H :    0.135816
  10 H :    0.136698
  11 H :    0.134388
  12 H :    0.297975

  Mayer bond orders larger than 0.100000
B(  0-C ,  1-C ) :   1.3301 B(  0-C ,  5-C ) :   1.3155 B(  0-C ,  8-H ) :   0.9572
B(  1-C ,  2-C ) :   1.3599 B(  1-C ,  9-H ) :   0.9636 B(  2-C ,  3-C ) :   1.3394
B(  2-C ,  7-F ) :   1.0890 B(  3-C ,  4-C ) :   1.3423 B(  3-C , 10-H ) :   0.9677
B(  4-C ,  5-C ) :   1.3589 B(  4-C , 11-H ) :   0.9656 B(  5-C ,  6-O ) :   1.1869
B(  6-O , 12-H ) :   0.8436

Dispersion correction           -0.012487706
FINAL SINGLE POINT ENERGY      -405.879551281965

DIPOLE MOMENT
-------------

Method             : SCF
Type of density    : Electron Density
Multiplicity       :   1
Irrep              :   0
Energy             :  -405.9232756148353474 Eh
Relativity type    :
Basis              : AO
                                X                 Y                 Z
Electronic contribution:      4.976641595       0.264264885      -0.000009415
Nuclear contribution   :     -5.607592455      -0.792294725      -0.000088060
                        -----------------------------------------
Total Dipole Moment    :     -0.630950859      -0.528029840      -0.000097475
                        -----------------------------------------
Magnitude (a.u.)       :      0.822748144
Magnitude (Debye)      :      2.091259586

Rotational constants in cm-1:             0.189461             0.048856             0.038840
Rotational constants in MHz :          5679.906385          1464.669161          1164.405597

                             ****ORCA TERMINATED NORMALLY****
TOTAL RUN TIME: 0 days 0 hours 0 minutes 25 seconds 396 msec
