                         Program Version 6.0.1  -  RELEASE   -
|  1> ! r2scan-3c def2/J RI DEFGRID2 scfconv6 printgap
|  2> %output
|  3>     printlevel normal
|  4> end
|  5> * xyz 0 1
|  6> C -3.0705162527 -0.0098079037 -0.7451846816
|  7> O -2.3315352853 -0.1688571697 0.4439868041
|  8> C -0.9579301638 -0.0815790949 0.2602711191
|  9> C -0.2120019685 -1.2258455544 0.008451411
| 10> C 1.1583231462 -1.1461222672 -0.1335124389
| 11> C 1.813433889 0.0817383226 -0.0351244899
| 12> C 1.055849016 1.2259457734 0.2166835263
| 13> C -0.3144165653 1.1454255661 0.3586135738
| 14> N 3.1747522445 0.1727562774 -0.2533129523
| 15> H -2.8911533366 0.9717817792 -1.1997928975
| 16> H -4.1201230182 -0.0954121768 -0.4686783916
| 17> H -2.8210407828 -0.7866172263 -1.4778539191
| 18> H -0.7140672515 -2.1793015394 -0.061084252
| 19> H 1.7350832395 -2.0401254439 -0.3237924485
| 20> H 1.5527469884 2.1821379073 0.2997913925
| 21> H -0.8956593523 2.0327039707 0.5609880338
| 22> H 3.6284249853 0.9948766273 0.1110428981
| 23> H 3.7005777111 -0.6782950698 -0.1363763028
| 24> *
| 25>
| 26>                          ****END OF INPUT****

CARTESIAN COORDINATES (ANGSTROEM)
---------------------------------
  C     -3.070516   -0.009808   -0.745185
  O     -2.331535   -0.168857    0.443987
  C     -0.957930   -0.081579    0.260271
  C     -0.212002   -1.225846    0.008451
  C      1.158323   -1.146122   -0.133512
  C      1.813434    0.081738   -0.035124
  C      1.055849    1.225946    0.216684
  C     -0.314417    1.145426    0.358614
  N      3.174752    0.172756   -0.253313
  H     -2.891153    0.971782   -1.199793
  H     -4.120123   -0.095412   -0.468678
  H     -2.821041   -0.786617   -1.477854
  H     -0.714067   -2.179302   -0.061084
  H      1.735083   -2.040125   -0.323792
  H      1.552747    2.182138    0.299791
  H     -0.895659    2.032704    0.560988
  H      3.628425    0.994877    0.111043
  H      3.700578   -0.678295   -0.136376

 Total Charge           Charge          ....    0
 Multiplicity           Mult            ....    1
 Number of Electrons    NEL             ....   66
 Basis Dimension        Dim             ....  226

ORBITAL ENERGIES
----------------

  NO   OCC          E(Eh)            E(eV)
   0   2.0000     -18.957113      -515.8493
   1   2.0000     -14.167780      -385.5249
   2   2.0000     -10.072156      -274.0773
   3   2.0000     -10.071360      -274.0556
   4   2.0000     -10.070417      -274.0300
   5   2.0000     -10.029249      -272.9097
   6   2.0000     -10.029167      -272.9075
   7   2.0000     -10.027957      -272.8746
   8   2.0000     -10.027916      -272.8735
   9   2.0000      -1.006216       -27.3805
  10   2.0000      -0.890698       -24.2371
  11   2.0000      -0.803872       -21.8745
  12   2.0000      -0.715918       -19.4811
  13   2.0000      -0.699014       -19.0211
  14   2.0000      -0.641357       -17.4522
  15   2.0000      -0.587616       -15.9899
  16   2.0000      -0.556913       -15.1544
  17   2.0000      -0.496751       -13.5173
  18   2.0000      -0.487902       -13.2765
  19   2.0000      -0.469524       -12.7764
  20   2.0000      -0.421465       -11.4687
  21   2.0000      -0.418979       -11.4010
  22   2.0000      -0.407997       -11.1022
  23   2.0000      -0.391878       -10.6635
  24   2.0000      -0.382435       -10.4066
  25   2.0000      -0.368544       -10.0286
  26   2.0000      -0.355604        -9.6765
  27   2.0000      -0.315518        -8.5857
  28   2.0000      -0.308170        -8.3857
  29   2.0000      -0.274473        -7.4688
  30   2.0000      -0.235810        -6.4167
  31   2.0000      -0.227632        -6.1942
  32   2.0000      -0.178816        -4.8658
  33   0.0000      -0.029513        -0.8031
  34   0.0000      -0.005300        -0.1442
  35   0.0000       0.072282         1.9669
  36   0.0000       0.080740         2.1971
  37   0.0000       0.088509         2.4084

MULLIKEN ATOMIC CHARGES
-----------------------
   0 C :   -0.272769
   1 O :   -0.236161
   2 C :    0.171845
   3 C :   -0.234348
   4 C :   -0.354017
   5 C :    0.532663
   6 C :   -0.353994
   7 C :   -0.232886
   8 N :   -0.541158
   9 H :    0.136383
  10 H :    0.144274
  11 H :    0.136477
  12 H :    0.158750
  13 H :    0.138207
  14 H :    0.138161
  15 H :    0.158533
  16 H :    0.255013
  17 H :    0.255028
Sum of atomic charges:   -0.0000000

LOEWDIN ATOMIC CHARGES
----------------------
   0 C :   -0.053805
   1 O :   -0.718448
   2 C :    0.142023
   3 C :   -0.123676
   4 C :   -0.158244
   5 C :    0.120751
   6 C :   -0.158200
   7 C :   -0.123981
   8 N :   -0.611985
   9 H :    0.158467
  10 H :    0.172529
  11 H :    0.158504
  12 H :    0.178496
  13 H :    0.168748
  14 H :    0.168740
  15 H :    0.178406
  16 H :    0.250836
  17 H :    0.250839

  Mayer bond orders larger than 0.100000
B(  0-C ,  1-O ) :   0.8744 B(  0-C ,  9-H ) :   0.9663 B(  0-C , 10-H ) :   0.9740
B(  0-C , 11-H ) :   0.9663 B(  1-O ,  2-C ) :   1.0022 B(  2-C ,  3-C ) :   1.4598
B(  2-C ,  7-C ) :   1.4570 B(  3-C ,  4-C ) :   1.3699 B(  3-C , 12-H ) :   0.9258
B(  4-C ,  5-C ) :   1.3353 B(  4-C , 13-H ) :   0.9417 B(  5-C ,  6-C ) :   1.3351
B(  5-C ,  8-N ) :   0.9274 B(  6-C ,  7-C ) :   1.3710 B(  6-C , 14-H ) :   0.9417
B(  7-C , 15-H ) :   0.9255 B(  8-N , 16-H ) :   0.9278 B(  8-N , 17-H ) :   0.9278

Dispersion correction           -0.005726280
FINAL SINGLE POINT ENERGY      -402.023038145417

DIPOLE MOMENT
-------------

Method             : SCF
Type of density    : Electron Density
Multiplicity       :   1
Irrep              :   0
Energy             :  -402.0270362549496781 Eh
Relativity type    :
Basis              : AO
                                X                 Y                 Z
Electronic contribution:      1.526778168      -0.304123009       2.294669222
Nuclear contribution   :     -0.791316715       0.375354341      -2.523887296
                        -----------------------------------------
Total Dipole Moment    :      0.735461452       0.071231332      -0.229218075
                        -----------------------------------------
Magnitude (a.u.)       :      0.773639694
Magnitude (Debye)      :      1.966435827

Rotational constants in cm-1:             0.157137             0.033186             0.028975
Rotational constants in MHz :          4710.834762           994.900206           868.645613

                             ****ORCA TERMINATED NORMALLY****
TOTAL RUN TIME: 0 days 0 hours 0 minutes 24 seconds 396 msec
