                         Program Version 6.0.1  -  RELEASE   -
|  1> ! pbe def2-sv(p) def2/J RI DEFGRID1 loosescf d4 GCP(DFT/SV(P)) printgap
|  2> %output
|  3>     printlevel normal
|  4> end
|  5> * xyz 0 1
|  6> C -2.2847410868 -0.9036180471 0.7619363109
|  7> C -0.8390205605 -0.3912634586 0.7477091812
|  8> H -0.5473254829 -0.1191025037 1.7704710275
|  9> C -0.6650704578 0.8306240295 -0.1725961606
| 10> H -0.9024004329 0.5248696329 -1.2031763175
| 11> C 0.7990353083 1.3190237184 -0.136030309
| 12> H 0.8353473042 2.1798368942 0.5414955713
| 13> C 1.7454693304 0.2102177689 0.377782613
| 14> H 2.7357848779 0.3876044112 -0.0703272653
| 15> C 1.2540427012 -1.1469788007 -0.1361657007
| 16> H 1.9136768878 -1.9464307695 0.2372151363
| 17> O -0.0335677764 -1.4765758771 0.2928343984
| 18> O 1.3091940267 -1.0856078975 -1.5406547144
| 19> O 1.8385363392 0.1375323693 1.776109771
| 20> O 1.2332789617 1.7901784843 -1.3798459022
| 21> O -1.4876229241 1.8965271517 0.2286176187
| 22> O -2.7789382691 -1.1416590207 -0.5304250182
| 23> H -2.9377993814 -0.1571099186 1.217488891
| 24> H -2.3155601565 -1.818374951 1.3673933207
| 25> H 0.9829821255 -1.9204311007 -1.8966092407
| 26> H 2.1451292352 0.9888740267 2.1095116845
| 27> H 1.281585232 1.0348474023 -1.9825656007
| 28> H -2.3950133976 1.7006823943 -0.0300444738
| 29> H -2.1960763077 -1.7892983627 -0.9440461882
| 30> *
| 31>
| 32>                          ****END OF INPUT****

CARTESIAN COORDINATES (ANGSTROEM)
---------------------------------
  C     -2.284741   -0.903618    0.761936
  C     -0.839021   -0.391263    0.747709
  H     -0.547325   -0.119103    1.770471
  C     -0.665070    0.830624   -0.172596
  H     -0.902400    0.524870   -1.203176
  C      0.799035    1.319024   -0.136030
  H      0.835347    2.179837    0.541496
  C      1.745469    0.210218    0.377783
  H      2.735785    0.387604   -0.070327
  C      1.254043   -1.146979   -0.136166
  H      1.913677   -1.946431    0.237215
  O     -0.033568   -1.476576    0.292834
  O      1.309194   -1.085608   -1.540655
  O      1.838536    0.137532    1.776110
  O      1.233279    1.790178   -1.379846
  O     -1.487623    1.896527    0.228618
  O     -2.778938   -1.141659   -0.530425
  H     -2.937799   -0.157110    1.217489
  H     -2.315560   -1.818375    1.367393
  H      0.982982   -1.920431   -1.896609
  H      2.145129    0.988874    2.109512
  H      1.281585    1.034847   -1.982566
  H     -2.395013    1.700682   -0.030044
  H     -2.196076   -1.789298   -0.944046

 Total Charge           Charge          ....    0
 Multiplicity           Mult            ....    1
 Number of Electrons    NEL             ....   96
 Basis Dimension        Dim             ....  192

ORBITAL ENERGIES
----------------

  NO   OCC          E(Eh)            E(eV)
   0   2.0000     -18.780257      -511.0368
   1   2.0000     -18.777651      -510.9659
   2   2.0000     -18.764633      -510.6116
   3   2.0000     -18.754102      -510.3251
   4   2.0000     -18.750372      -510.2236
   5   2.0000     -18.735971      -509.8317
   6   2.0000      -9.995595      -271.9940
   7   2.0000      -9.947159      -270.6759
   8   2.0000      -9.937628      -270.4166
   9   2.0000      -9.937146      -270.4035
  10   2.0000      -9.936055      -270.3738
  11   2.0000      -9.935324      -270.3539
  12   2.0000      -0.993008       -27.0211
  13   2.0000      -0.943340       -25.6696
  14   2.0000      -0.939030       -25.5523
  15   2.0000      -0.930335       -25.3157
  16   2.0000      -0.920653       -25.0523
  17   2.0000      -0.913517       -24.8581
  18   2.0000      -0.698469       -19.0063
  19   2.0000      -0.694021       -18.8853
  20   2.0000      -0.629914       -17.1408
  21   2.0000      -0.578333       -15.7372
  22   2.0000      -0.572834       -15.5876
  23   2.0000      -0.527823       -14.3628
  24   2.0000      -0.504655       -13.7324
  25   2.0000      -0.486629       -13.2419
  26   2.0000      -0.472375       -12.8540
  27   2.0000      -0.463862       -12.6223
  28   2.0000      -0.451292       -12.2803
  29   2.0000      -0.438943       -11.9442
  30   2.0000      -0.418548       -11.3893
  31   2.0000      -0.392760       -10.6875
  32   2.0000      -0.378206       -10.2915
  33   2.0000      -0.370084       -10.0705
  34   2.0000      -0.364223        -9.9110
  35   2.0000      -0.358061        -9.7433
  36   2.0000      -0.348206        -9.4752
  37   2.0000      -0.323938        -8.8148
  38   2.0000      -0.303368        -8.2551
  39   2.0000      -0.294999        -8.0273
  40   2.0000      -0.290997        -7.9184
  41   2.0000      -0.268432        -7.3044
  42   2.0000      -0.252644        -6.8748
  43   2.0000      -0.248434        -6.7602
  44   2.0000      -0.238235        -6.4827
  45   2.0000      -0.223997        -6.0953
  46   2.0000      -0.212140        -5.7726
  47   2.0000      -0.201714        -5.4889
  48   0.0000       0.006267         0.1705
  49   0.0000       0.020476         0.5572
  50   0.0000       0.027036         0.7357
  51   0.0000       0.053935         1.4676
  52   0.0000       0.065845         1.7917

MULLIKEN ATOMIC CHARGES
-----------------------
   0 C :    0.053788
   1 C :    0.008296
   2 H :    0.065928
   3 C :    0.063862
   4 H :    0.031371
   5 C :    0.106443
   6 H :    0.058347
   7 C :   -0.012712
   8 H :    0.081639
   9 C :    0.187521
  10 H :    0.072845
  11 O :   -0.321627
  12 O :   -0.409733
  13 O :   -0.405951
  14 O :   -0.426005
  15 O :   -0.410343
  16 O :   -0.436547
  17 H :    0.084467
  18 H :    0.089572
  19 H :    0.304644
  20 H :    0.309489
  21 H :    0.301344
  22 H :    0.308953
  23 H :    0.294407
Sum of atomic charges:   -0.0000000

LOEWDIN ATOMIC CHARGES
----------------------
   0 C :   -0.132548
   1 C :   -0.084579
   2 H :    0.113118
   3 C :   -0.076664
   4 H :    0.099066
   5 C :   -0.067232
   6 H :    0.117555
   7 C :   -0.092344
   8 H :    0.111790
   9 C :    0.006764
  10 H :    0.101409
  11 O :   -0.147362
  12 O :   -0.318056
  13 O :   -0.307657
  14 O :   -0.313631
  15 O :   -0.312405
  16 O :   -0.335622
  17 H :    0.112549
  18 H :    0.106406
  19 H :    0.286587
  20 H :    0.291458
  21 H :    0.273066
  22 H :    0.289228
  23 H :    0.279105

  Mayer bond orders larger than 0.100000
B(  0-C ,  1-C ) :   1.0347 B(  0-C , 16-O ) :   1.0585 B(  0-C , 17-H ) :   0.9151
B(  0-C , 18-H ) :   0.9200 B(  1-C ,  2-H ) :   0.8522 B(  1-C ,  3-C ) :   1.0476
B(  1-C , 11-O ) :   0.9597 B(  3-C ,  4-H ) :   0.8448 B(  3-C ,  5-C ) :   1.0107
B(  3-C , 15-O ) :   1.0829 B(  5-C ,  6-H ) :   0.8606 B(  5-C ,  7-C ) :   0.9918
B(  5-C , 14-O ) :   1.0519 B(  7-C ,  8-H ) :   0.8889 B(  7-C ,  9-C ) :   1.0302
B(  7-C , 13-O ) :   1.0358 B(  9-C , 10-H ) :   0.8951 B(  9-C , 11-O ) :   1.0776
B(  9-C , 12-O ) :   1.0911 B( 12-O , 19-H ) :   0.8405 B( 13-O , 20-H ) :   0.8462
B( 14-O , 21-H ) :   0.8293 B( 15-O , 22-H ) :   0.8420 B( 16-O , 23-H ) :   0.8435

Dispersion correction           -0.025137694
FINAL SINGLE POINT ENERGY      -685.694045729762

DIPOLE MOMENT
-------------

Method             : SCF
Type of density    : Electron Density
Multiplicity       :   1
Irrep              :   0
Energy             :  -685.8257979667982909 Eh
Relativity type    :
Basis              : AO
                                X                 Y                 Z
Electronic contribution:      1.535812299       0.030476926      -1.042161442
Nuclear contribution   :     -1.311929895      -0.874498110       1.030668030
                        -----------------------------------------
Total Dipole Moment    :      0.223882404      -0.844021185      -0.011493412
                        -----------------------------------------
Magnitude (a.u.)       :      0.873285285
Magnitude (Debye)      :      2.219714791

Rotational constants in cm-1:             0.040645             0.026975             0.023543
Rotational constants in MHz :          1218.491475           808.686252           705.805491

                             ****ORCA TERMINATED NORMALLY****
TOTAL RUN TIME: 0 days 0 hours 0 minutes 8 seconds 22 msec
