                         Program Version 6.0.1  -  RELEASE   -
|  1> ! pbe def2-sv(p) def2/J RI DEFGRID1 loosescf d4 GCP(DFT/SV(P)) printgap
|  2> %output
|  3>     printlevel normal
|  4> end
|  5> * xyz 0 1
|  6> C 3.3440259477 -0.3200110662 0.8393493312
|  7> C 1.9606707522 -0.1699491124 0.2988549289
|  8> C 1.4522682682 1.0159751188 -0.0499843081
|  9> C 0.0892489473 1.2170292193 -0.5323026042
| 10> O -0.3693307139 2.3311553385 -0.6928580894
| 11> C -0.7597841654 -0.0164457427 -0.810722318
| 12> H -1.1963224307 0.1501400224 -1.8038269173
| 13> C 0.0678565868 -1.3021670698 -0.8811718613
| 14> C 1.1492285689 -1.4213124969 0.1900373422
| 15> C -1.9645285498 -0.0077409818 0.1615890568
| 16> C -3.0553761158 -0.9786131268 -0.2844289033
| 17> C -1.5848825063 -0.2744590592 1.6158961245
| 18> H 3.8207981282 0.6456980072 0.9828748059
| 19> H 3.9493464997 -0.9105296797 0.1513561129
| 20> H 3.3198734256 -0.8503252257 1.790907671
| 21> H 2.0371008238 1.9203554662 0.0508705613
| 22> H -0.5915016508 -2.1698754999 -0.8357373443
| 23> H 0.5640250018 -1.3223584014 -1.8555392667
| 24> H 0.7093744395 -1.6305630052 1.1679055235
| 25> H 1.803563167 -2.2640493358 -0.0487194615
| 26> H -2.3725858996 1.0080442519 0.1027121866
| 27> H -2.7169694992 -2.0103582687 -0.216322077
| 28> H -3.3553566349 -0.7805973436 -1.3108048317
| 29> H -3.9293686897 -0.8703325802 0.3538396936
| 30> H -2.426453149 -0.0345836362 2.2629322223
| 31> H -0.7406403989 0.34183063 1.9164721084
| 32> H -1.3387674339 -1.3226246526 1.7695927205
| 33> *
| 34>
| 35>                          ****END OF INPUT****

CARTESIAN COORDINATES (ANGSTROEM)
---------------------------------
  C      3.344026   -0.320011    0.839349
  C      1.960671   -0.169949    0.298855
  C      1.452268    1.015975   -0.049984
  C      0.089249    1.217029   -0.532303
  O     -0.369331    2.331155   -0.692858
  C     -0.759784   -0.016446   -0.810722
  H     -1.196322    0.150140   -1.803827
  C      0.067857   -1.302167   -0.881172
  C      1.149229   -1.421312    0.190037
  C     -1.964529   -0.007741    0.161589
  C     -3.055376   -0.978613   -0.284429
  C     -1.584883   -0.274459    1.615896
  H      3.820798    0.645698    0.982875
  H      3.949346   -0.910530    0.151356
  H      3.319873   -0.850325    1.790908
  H      2.037101    1.920355    0.050871
  H     -0.591502   -2.169875   -0.835737
  H      0.564025   -1.322358   -1.855539
  H      0.709374   -1.630563    1.167906
  H      1.803563   -2.264049   -0.048719
  H     -2.372586    1.008044    0.102712
  H     -2.716969   -2.010358   -0.216322
  H     -3.355357   -0.780597   -1.310805
  H     -3.929369   -0.870333    0.353840
  H     -2.426453   -0.034584    2.262932
  H     -0.740640    0.341831    1.916472
  H     -1.338767   -1.322625    1.769593

 Total Charge           Charge          ....    0
 Multiplicity           Mult            ....    1
 Number of Electrons    NEL             ....   84
 Basis Dimension        Dim             ....  186

ORBITAL ENERGIES
----------------

  NO   OCC          E(Eh)            E(eV)
   0   2.0000     -18.720700      -509.4161
   1   2.0000      -9.958629      -270.9881
   2   2.0000      -9.922987      -270.0182
   3   2.0000      -9.901016      -269.4203
   4   2.0000      -9.897542      -269.3258
   5   2.0000      -9.895068      -269.2585
   6   2.0000      -9.894934      -269.2549
   7   2.0000      -9.894116      -269.2326
   8   2.0000      -9.886709      -269.0310
   9   2.0000      -9.875858      -268.7358
  10   2.0000      -9.874292      -268.6931
  11   2.0000      -0.923081       -25.1183
  12   2.0000      -0.772114       -21.0103
  13   2.0000      -0.731833       -19.9142
  14   2.0000      -0.682688       -18.5769
  15   2.0000      -0.654240       -17.8028
  16   2.0000      -0.626333       -17.0434
  17   2.0000      -0.612395       -16.6641
  18   2.0000      -0.560658       -15.2563
  19   2.0000      -0.517511       -14.0822
  20   2.0000      -0.496126       -13.5003
  21   2.0000      -0.454613       -12.3706
  22   2.0000      -0.439009       -11.9460
  23   2.0000      -0.423667       -11.5286
  24   2.0000      -0.401518       -10.9258
  25   2.0000      -0.398278       -10.8377
  26   2.0000      -0.392425       -10.6784
  27   2.0000      -0.372274       -10.1301
  28   2.0000      -0.371132       -10.0990
  29   2.0000      -0.358945        -9.7674
  30   2.0000      -0.348373        -9.4797
  31   2.0000      -0.342719        -9.3259
  32   2.0000      -0.340586        -9.2678
  33   2.0000      -0.335549        -9.1307
  34   2.0000      -0.324268        -8.8238
  35   2.0000      -0.313337        -8.5263
  36   2.0000      -0.299713        -8.1556
  37   2.0000      -0.286650        -7.8001
  38   2.0000      -0.276033        -7.5113
  39   2.0000      -0.269981        -7.3466
  40   2.0000      -0.232020        -6.3136
  41   2.0000      -0.183563        -4.9950
  42   0.0000      -0.077384        -2.1057
  43   0.0000       0.022934         0.6241
  44   0.0000       0.027377         0.7450
  45   0.0000       0.046104         1.2545
  46   0.0000       0.063135         1.7180

MULLIKEN ATOMIC CHARGES
-----------------------
   0 C :   -0.220694
   1 C :   -0.085035
   2 C :   -0.139678
   3 C :    0.094047
   4 O :   -0.171517
   5 C :   -0.137551
   6 H :    0.076745
   7 C :   -0.114288
   8 C :   -0.099589
   9 C :   -0.175787
  10 C :   -0.231558
  11 C :   -0.256569
  12 H :    0.112060
  13 H :    0.122066
  14 H :    0.118553
  15 H :    0.041814
  16 H :    0.082547
  17 H :    0.088884
  18 H :    0.107316
  19 H :    0.089225
  20 H :    0.087406
  21 H :    0.096269
  22 H :    0.098606
  23 H :    0.100509
  24 H :    0.102538
  25 H :    0.112250
  26 H :    0.101433
Sum of atomic charges:   -0.0000000

LOEWDIN ATOMIC CHARGES
----------------------
   0 C :   -0.322081
   1 C :   -0.015888
   2 C :   -0.174424
   3 C :    0.038729
   4 O :   -0.135770
   5 C :   -0.158704
   6 H :    0.135494
   7 C :   -0.212246
   8 C :   -0.217365
   9 C :   -0.141854
  10 C :   -0.329864
  11 C :   -0.333600
  12 H :    0.128944
  13 H :    0.137588
  14 H :    0.135485
  15 H :    0.127797
  16 H :    0.119145
  17 H :    0.123883
  18 H :    0.136377
  19 H :    0.125742
  20 H :    0.123998
  21 H :    0.112885
  22 H :    0.118404
  23 H :    0.120699
  24 H :    0.122443
  25 H :    0.120675
  26 H :    0.113507

  Mayer bond orders larger than 0.100000
B(  0-C ,  1-C ) :   1.1231 B(  0-C , 12-H ) :   0.9423 B(  0-C , 13-H ) :   0.9229
B(  0-C , 14-H ) :   0.9292 B(  1-C ,  2-C ) :   1.7138 B(  1-C ,  8-C ) :   1.0815
B(  2-C ,  3-C ) :   1.0739 B(  2-C , 15-H ) :   0.9340 B(  3-C ,  4-O ) :   2.0931
B(  3-C ,  5-C ) :   0.9485 B(  5-C ,  6-H ) :   0.8557 B(  5-C ,  7-C ) :   1.0551
B(  5-C ,  9-C ) :   1.0531 B(  7-C ,  8-C ) :   1.1397 B(  7-C , 16-H ) :   0.9049
B(  7-C , 17-H ) :   0.9124 B(  8-C , 18-H ) :   0.8609 B(  8-C , 19-H ) :   0.9048
B(  9-C , 10-C ) :   1.1173 B(  9-C , 11-C ) :   1.1210 B(  9-C , 20-H ) :   0.8853
B( 10-C , 21-H ) :   0.9381 B( 10-C , 22-H ) :   0.9478 B( 10-C , 23-H ) :   0.9480
B( 11-C , 24-H ) :   0.9432 B( 11-C , 25-H ) :   0.9430 B( 11-C , 26-H ) :   0.9334

Dispersion correction           -0.028956409
FINAL SINGLE POINT ENERGY      -464.842642165358

DIPOLE MOMENT
-------------

Method             : SCF
Type of density    : Electron Density
Multiplicity       :   1
Irrep              :   0
Energy             :  -464.9271804198181144 Eh
Relativity type    :
Basis              : AO
                                X                 Y                 Z
Electronic contribution:      2.918370000       8.182401338      -3.855734387
Nuclear contribution   :     -2.317010549      -9.441035195       4.191317500
                        -----------------------------------------
Total Dipole Moment    :      0.601359452      -1.258633857       0.335583113
                        -----------------------------------------
Magnitude (a.u.)       :      1.434715442
Magnitude (Debye)      :      3.646756842

Rotational constants in cm-1:             0.056441             0.027617             0.022957
Rotational constants in MHz :          1692.047452           827.943189           688.244355

                             ****ORCA TERMINATED NORMALLY****
TOTAL RUN TIME: 0 days 0 hours 0 minutes 29 seconds 193 msec
