                         Program Version 6.0.1  -  RELEASE   -
|  1> ! pbe def2-sv(p) def2/J RI DEFGRID1 loosescf d4 GCP(DFT/SV(P)) printgap
|  2> %output
|  3>     printlevel normal
|  4> end
|  5> * xyz 0 1
|  6> C -1.7864338963 -1.0706006861 -0.6035615592
|  7> C -1.0744075868 -0.504818726 0.6516052887
|  8> H -1.725113804 -0.6194385581 1.5247541105
|  9> C -0.7394011779 0.9945055104 0.5386823271
| 10> H -1.630945935 1.5158690074 0.1762798535
| 11> C 0.4133713706 1.2145156881 -0.4560722842
| 12> H 0.7462331923 2.2621714664 -0.3682243124
| 13> C 1.6169444671 0.3366503887 -0.0653536167
| 14> H 2.3314993128 0.3125312216 -0.9055340802
| 15> C 1.2194250717 -1.1264595704 0.2130488232
| 16> H 2.0137418233 -1.5860596952 0.834732043
| 17> O 0.075030054 -1.2836715944 0.9891395908
| 18> O 1.1638017773 -1.7810080085 -1.0249128175
| 19> O 2.2023621751 0.9298709755 1.0694230283
| 20> O -0.0635241238 0.9554607839 -1.7513675773
| 21> O -0.4526553745 1.5597686012 1.7857945496
| 22> O -2.728883101 -0.1949973963 -1.1583876647
| 23> H -2.3312354484 -1.9736147107 -0.3146325237
| 24> H -1.0335554256 -1.3352753512 -1.3517594582
| 25> H 0.8578499515 -2.6851116179 -0.8828843334
| 26> H 2.9690497094 0.4159326451 1.3480166707
| 27> H 0.6796215836 0.8597847182 -2.3574058176
| 28> H 0.4290442229 1.2692528137 2.0596364972
| 29> H -2.2426990523 0.4820496342 -1.6464289124
| 30> *
| 31>
| 32>                          ****END OF INPUT****

CARTESIAN COORDINATES (ANGSTROEM)
---------------------------------
  C     -1.786434   -1.070601   -0.603562
  C     -1.074408   -0.504819    0.651605
  H     -1.725114   -0.619439    1.524754
  C     -0.739401    0.994506    0.538682
  H     -1.630946    1.515869    0.176280
  C      0.413371    1.214516   -0.456072
  H      0.746233    2.262171   -0.368224
  C      1.616944    0.336650   -0.065354
  H      2.331499    0.312531   -0.905534
  C      1.219425   -1.126460    0.213049
  H      2.013742   -1.586060    0.834732
  O      0.075030   -1.283672    0.989140
  O      1.163802   -1.781008   -1.024913
  O      2.202362    0.929871    1.069423
  O     -0.063524    0.955461   -1.751368
  O     -0.452655    1.559769    1.785795
  O     -2.728883   -0.194997   -1.158388
  H     -2.331235   -1.973615   -0.314633
  H     -1.033555   -1.335275   -1.351759
  H      0.857850   -2.685112   -0.882884
  H      2.969050    0.415933    1.348017
  H      0.679622    0.859785   -2.357406
  H      0.429044    1.269253    2.059636
  H     -2.242699    0.482050   -1.646429

 Total Charge           Charge          ....    0
 Multiplicity           Mult            ....    1
 Number of Electrons    NEL             ....   96
 Basis Dimension        Dim             ....  192

ORBITAL ENERGIES
----------------

  NO   OCC          E(Eh)            E(eV)
   0   2.0000     -18.786515      -511.2071
   1   2.0000     -18.775097      -510.8964
   2   2.0000     -18.774782      -510.8878
   3   2.0000     -18.772632      -510.8293
   4   2.0000     -18.734621      -509.7949
   5   2.0000     -18.732324      -509.7324
   6   2.0000      -9.999567      -272.1020
   7   2.0000      -9.963138      -271.1108
   8   2.0000      -9.952958      -270.8337
   9   2.0000      -9.936203      -270.3778
  10   2.0000      -9.932684      -270.2821
  11   2.0000      -9.915653      -269.8186
  12   2.0000      -0.991264       -26.9737
  13   2.0000      -0.961354       -26.1598
  14   2.0000      -0.949881       -25.8476
  15   2.0000      -0.927058       -25.2265
  16   2.0000      -0.912020       -24.8173
  17   2.0000      -0.909593       -24.7513
  18   2.0000      -0.704808       -19.1788
  19   2.0000      -0.693373       -18.8676
  20   2.0000      -0.619759       -16.8645
  21   2.0000      -0.597819       -16.2675
  22   2.0000      -0.572574       -15.5805
  23   2.0000      -0.534097       -14.5335
  24   2.0000      -0.495821       -13.4920
  25   2.0000      -0.487588       -13.2679
  26   2.0000      -0.479046       -13.0355
  27   2.0000      -0.466322       -12.6893
  28   2.0000      -0.452042       -12.3007
  29   2.0000      -0.441732       -12.0201
  30   2.0000      -0.413827       -11.2608
  31   2.0000      -0.397750       -10.8233
  32   2.0000      -0.382312       -10.4032
  33   2.0000      -0.375094       -10.2068
  34   2.0000      -0.367228        -9.9928
  35   2.0000      -0.351778        -9.5724
  36   2.0000      -0.339623        -9.2416
  37   2.0000      -0.336237        -9.1495
  38   2.0000      -0.313076        -8.5192
  39   2.0000      -0.293516        -7.9870
  40   2.0000      -0.281311        -7.6549
  41   2.0000      -0.260802        -7.0968
  42   2.0000      -0.257555        -7.0084
  43   2.0000      -0.248620        -6.7653
  44   2.0000      -0.243599        -6.6287
  45   2.0000      -0.233163        -6.3447
  46   2.0000      -0.212061        -5.7705
  47   2.0000      -0.192971        -5.2510
  48   0.0000      -0.000512        -0.0139
  49   0.0000       0.008212         0.2235
  50   0.0000       0.028045         0.7631
  51   0.0000       0.059971         1.6319
  52   0.0000       0.061781         1.6812

MULLIKEN ATOMIC CHARGES
-----------------------
   0 C :    0.020968
   1 C :    0.031534
   2 H :    0.078238
   3 C :    0.031074
   4 H :    0.076747
   5 C :    0.069460
   6 H :    0.083201
   7 C :   -0.019796
   8 H :    0.071174
   9 C :    0.216075
  10 H :    0.046863
  11 O :   -0.312381
  12 O :   -0.397261
  13 O :   -0.414667
  14 O :   -0.411805
  15 O :   -0.421556
  16 O :   -0.437709
  17 H :    0.078256
  18 H :    0.080707
  19 H :    0.305379
  20 H :    0.310771
  21 H :    0.310830
  22 H :    0.297267
  23 H :    0.306631
Sum of atomic charges:   -0.0000000

LOEWDIN ATOMIC CHARGES
----------------------
   0 C :   -0.153889
   1 C :   -0.068323
   2 H :    0.121271
   3 C :   -0.073015
   4 H :    0.119723
   5 C :   -0.066940
   6 H :    0.109089
   7 C :   -0.087822
   8 H :    0.104579
   9 C :   -0.010014
  10 H :    0.088325
  11 O :   -0.137518
  12 O :   -0.315020
  13 O :   -0.299771
  14 O :   -0.301199
  15 O :   -0.313780
  16 O :   -0.334000
  17 H :    0.108513
  18 H :    0.097640
  19 H :    0.286064
  20 H :    0.291660
  21 H :    0.290180
  22 H :    0.269828
  23 H :    0.274417

  Mayer bond orders larger than 0.100000
B(  0-C ,  1-C ) :   0.9985 B(  0-C , 16-O ) :   1.1007 B(  0-C , 17-H ) :   0.9197
B(  0-C , 18-H ) :   0.8992 B(  1-C ,  2-H ) :   0.8925 B(  1-C ,  3-C ) :   1.0208
B(  1-C , 11-O ) :   0.9480 B(  3-C ,  4-H ) :   0.8795 B(  3-C ,  5-C ) :   0.9841
B(  3-C , 15-O ) :   1.0763 B(  5-C ,  6-H ) :   0.8999 B(  5-C ,  7-C ) :   0.9977
B(  5-C , 14-O ) :   1.0571 B(  7-C ,  8-H ) :   0.8909 B(  7-C ,  9-C ) :   0.9612
B(  7-C , 13-O ) :   1.0210 B(  9-C , 10-H ) :   0.9024 B(  9-C , 11-O ) :   1.1045
B(  9-C , 12-O ) :   1.0980 B( 12-O , 19-H ) :   0.8314 B( 13-O , 20-H ) :   0.8380
B( 14-O , 21-H ) :   0.8342 B( 15-O , 22-H ) :   0.8182 B( 16-O , 23-H ) :   0.8246

Dispersion correction           -0.026324200
FINAL SINGLE POINT ENERGY      -685.692871949628

DIPOLE MOMENT
-------------

Method             : SCF
Type of density    : Electron Density
Multiplicity       :   1
Irrep              :   0
Energy             :  -685.8264052482134048 Eh
Relativity type    :
Basis              : AO
                                X                 Y                 Z
Electronic contribution:      0.852282665       0.370186366       1.308420984
Nuclear contribution   :      1.000640248      -1.012267203      -1.768334665
                        -----------------------------------------
Total Dipole Moment    :      1.852922913      -0.642080837      -0.459913682
                        -----------------------------------------
Magnitude (a.u.)       :      2.014227326
Magnitude (Debye)      :      5.119758988

Rotational constants in cm-1:             0.040477             0.030129             0.025887
Rotational constants in MHz :          1213.467735           903.233879           776.081056

                             ****ORCA TERMINATED NORMALLY****
TOTAL RUN TIME: 0 days 0 hours 0 minutes 8 seconds 802 msec
