                         Program Version 6.0.0  -   RELEASE  -
|  1> ! r2SCAN-3c DEF2-TZVP FREQ
|  2> * xyzfile 0 1 censo.xyz
|  3>
|  4>                          ****END OF INPUT****

CARTESIAN COORDINATES (ANGSTROEM)
---------------------------------
  C     -1.963084    0.721820    1.307992
  C     -1.414205    0.311017   -0.061216
  C     -2.542490   -0.255237   -0.926207
  C     -0.256021   -0.704515    0.067907
  C      1.179058   -0.150556   -0.075099
  C      1.411319    0.358380   -1.503622
  C      1.447783    0.982738    0.921281
  C      2.159757   -1.297124    0.202634
  H     -2.734449    1.494491    1.209972
  H     -2.416777   -0.142829    1.808714
  H     -1.177060    1.110692    1.962716
  H     -1.037537    1.214215   -0.558767
  H     -2.187427   -0.493226   -1.935313
  H     -2.941323   -1.177695   -0.484946
  H     -3.370807    0.457026   -1.017031
  H     -0.337069   -1.211668    1.040119
  H     -0.373644   -1.487184   -0.694156
  H      2.439678    0.720118   -1.619914
  H      0.739652    1.185955   -1.756071
  H      1.250068   -0.443447   -2.233906
  H      0.788926    1.840125    0.746596
  H      2.481962    1.334172    0.825081
  H      1.301115    0.644074    1.953520
  H      1.992847   -2.132116   -0.488097
  H      2.041425   -1.674472    1.225017
  H      3.196752   -0.962114    0.083238

 Total Charge           Charge          ....    0
 Multiplicity           Mult            ....    1
 Number of Electrons    NEL             ....   66
 Basis Dimension        Dim             ....  356

ORBITAL ENERGIES
----------------

  NO   OCC          E(Eh)            E(eV)
   0   2.0000     -10.044068      -273.3130
   1   2.0000     -10.033373      -273.0220
   2   2.0000     -10.020031      -272.6589
   3   2.0000     -10.015439      -272.5340
   4   2.0000     -10.015021      -272.5226
   5   2.0000     -10.014868      -272.5184
   6   2.0000     -10.014275      -272.5023
   7   2.0000     -10.014252      -272.5016
   8   2.0000      -0.795129       -21.6365
   9   2.0000      -0.750440       -20.4205
  10   2.0000      -0.652271       -17.7492
  11   2.0000      -0.648624       -17.6500
  12   2.0000      -0.642585       -17.4856
  13   2.0000      -0.639547       -17.4030
  14   2.0000      -0.534011       -14.5312
  15   2.0000      -0.497029       -13.5249
  16   2.0000      -0.437137       -11.8951
  17   2.0000      -0.422028       -11.4840
  18   2.0000      -0.411102       -11.1867
  19   2.0000      -0.394640       -10.7387
  20   2.0000      -0.387911       -10.5556
  21   2.0000      -0.382552       -10.4098
  22   2.0000      -0.353602        -9.6220
  23   2.0000      -0.350233        -9.5303
  24   2.0000      -0.346961        -9.4413
  25   2.0000      -0.330539        -8.9944
  26   2.0000      -0.324802        -8.8383
  27   2.0000      -0.318350        -8.6628
  28   2.0000      -0.304530        -8.2867
  29   2.0000      -0.297856        -8.1051
  30   2.0000      -0.284127        -7.7315
  31   2.0000      -0.276917        -7.5353
  32   2.0000      -0.271403        -7.3852
  33   0.0000       0.031146         0.8475
  34   0.0000       0.060106         1.6356
  35   0.0000       0.066001         1.7960
  36   0.0000       0.078217         2.1284
  37   0.0000       0.084919         2.3108

MULLIKEN ATOMIC CHARGES
-----------------------
   0 C :   -0.359773
   1 C :    0.044102
   2 C :   -0.344068
   3 C :   -0.201968
   4 C :    0.134427
   5 C :   -0.353360
   6 C :   -0.371752
   7 C :   -0.341925
   8 H :    0.102294
   9 H :    0.100154
  10 H :    0.112763
  11 H :    0.044650
  12 H :    0.105370
  13 H :    0.101784
  14 H :    0.103799
  15 H :    0.086922
  16 H :    0.085937
  17 H :    0.104323
  18 H :    0.105110
  19 H :    0.103803
  20 H :    0.111302
  21 H :    0.106518
  22 H :    0.107985
  23 H :    0.104200
  24 H :    0.103599
  25 H :    0.103804
Sum of atomic charges:    0.0000000

LOEWDIN ATOMIC CHARGES
----------------------
   0 C :   -0.289535
   1 C :   -0.307566
   2 C :   -0.289261
   3 C :   -0.198139
   4 C :   -0.365586
   5 C :   -0.261299
   6 C :   -0.262020
   7 C :   -0.262739
   8 H :    0.118393
   9 H :    0.119972
  10 H :    0.118234
  11 H :    0.144605
  12 H :    0.118260
  13 H :    0.120492
  14 H :    0.118106
  15 H :    0.141941
  16 H :    0.141955
  17 H :    0.122412
  18 H :    0.119040
  19 H :    0.122305
  20 H :    0.121888
  21 H :    0.122721
  22 H :    0.121937
  23 H :    0.121713
  24 H :    0.121097
  25 H :    0.121072

  Mayer bond orders larger than 0.100000
B(  0-C ,  1-C ) :   0.9664 B(  0-C ,  8-H ) :   0.9783 B(  0-C ,  9-H ) :   0.9721
B(  0-C , 10-H ) :   0.9735 B(  1-C ,  2-C ) :   0.9496 B(  1-C ,  3-C ) :   0.9187
B(  1-C , 11-H ) :   0.9693 B(  2-C , 12-H ) :   0.9755 B(  2-C , 13-H ) :   0.9743
B(  2-C , 14-H ) :   0.9798 B(  3-C ,  4-C ) :   0.9534 B(  3-C , 15-H ) :   0.9596
B(  3-C , 16-H ) :   0.9714 B(  4-C ,  5-C ) :   0.9692 B(  4-C ,  6-C ) :   0.9428
B(  4-C ,  7-C ) :   0.9486 B(  5-C , 17-H ) :   0.9737 B(  5-C , 18-H ) :   0.9664
B(  5-C , 19-H ) :   0.9735 B(  6-C , 20-H ) :   0.9692 B(  6-C , 21-H ) :   0.9718
B(  6-C , 22-H ) :   0.9749 B(  7-C , 23-H ) :   0.9719 B(  7-C , 24-H ) :   0.9717
B(  7-C , 25-H ) :   0.9757

Dispersion correction           -0.007968316
FINAL SINGLE POINT ENERGY      -315.612201822992

DIPOLE MOMENT
-------------

Method             : SCF
Type of density    : Electron Density
Multiplicity       :   1
Irrep              :   0
Energy             :  -315.6168616539529239 Eh
Relativity type    :
Basis              : AO
                                X                 Y                 Z
Electronic contribution:      0.336414018      -0.251294877      -0.188704956
Nuclear contribution   :     -0.310478410       0.277341265       0.170468470
                        -----------------------------------------
Total Dipole Moment    :      0.025935608       0.026046388      -0.018236486
                        -----------------------------------------
Magnitude (a.u.)       :      0.041032176
Magnitude (Debye)      :      0.104295504

VIBRATIONAL FREQUENCIES
-----------------------

Scaling factor for frequencies =  1.000000000  (already applied!)

     0:       0.00 cm**-1
     1:       0.00 cm**-1
     2:       0.00 cm**-1
     3:       0.00 cm**-1
     4:       0.00 cm**-1
     5:       0.00 cm**-1
     6:      62.42 cm**-1
     7:     104.95 cm**-1
     8:     197.29 cm**-1
     9:     242.50 cm**-1
    10:     262.97 cm**-1
    11:     283.79 cm**-1
    12:     287.83 cm**-1
    13:     304.94 cm**-1
    14:     310.73 cm**-1
    15:     331.13 cm**-1
    16:     363.89 cm**-1
    17:     393.89 cm**-1
    18:     416.78 cm**-1
    19:     422.48 cm**-1
    20:     461.85 cm**-1
    21:     509.98 cm**-1
    22:     748.24 cm**-1
    23:     841.97 cm**-1
    24:     874.75 cm**-1
    25:     910.12 cm**-1
    26:     930.17 cm**-1
    27:     936.95 cm**-1
    28:     941.76 cm**-1
    29:     956.22 cm**-1
    30:     967.30 cm**-1
    31:     992.46 cm**-1
    32:    1034.56 cm**-1
    33:    1039.28 cm**-1
    34:    1117.74 cm**-1
    35:    1135.69 cm**-1
    36:    1192.26 cm**-1
    37:    1221.09 cm**-1
    38:    1231.45 cm**-1
    39:    1266.03 cm**-1
    40:    1304.72 cm**-1
    41:    1319.49 cm**-1
    42:    1356.37 cm**-1
    43:    1371.46 cm**-1
    44:    1386.84 cm**-1
    45:    1389.34 cm**-1
    46:    1390.27 cm**-1
    47:    1411.75 cm**-1
    48:    1422.00 cm**-1
    49:    1469.30 cm**-1
    50:    1473.54 cm**-1
    51:    1477.97 cm**-1
    52:    1481.09 cm**-1
    53:    1483.09 cm**-1
    54:    1488.91 cm**-1
    55:    1499.47 cm**-1
    56:    1501.65 cm**-1
    57:    1503.80 cm**-1
    58:    1507.60 cm**-1
    59:    1514.90 cm**-1
    60:    2978.69 cm**-1
    61:    2987.49 cm**-1
    62:    2989.49 cm**-1
    63:    2991.22 cm**-1
    64:    2993.53 cm**-1
    65:    2998.19 cm**-1
    66:    3006.51 cm**-1
    67:    3025.44 cm**-1
    68:    3060.19 cm**-1
    69:    3065.35 cm**-1
    70:    3066.19 cm**-1
    71:    3067.75 cm**-1
    72:    3069.69 cm**-1
    73:    3071.50 cm**-1
    74:    3072.16 cm**-1
    75:    3074.75 cm**-1
    76:    3078.32 cm**-1
    77:    3086.01 cm**-1

IR SPECTRUM
-----------

 Mode   freq       eps      Int      T**2         TX        TY        TZ
       cm**-1   L/(mol*cm) km/mol    a.u.
----------------------------------------------------------------------------
  6:     62.42   0.000001    0.01  0.000005  (-0.000540 -0.000343 -0.002244)
  7:    104.95   0.000001    0.01  0.000003  ( 0.000941 -0.000611 -0.001330)
  8:    197.29   0.000005    0.02  0.000008  (-0.002580 -0.000514  0.000841)
  9:    242.50   0.000003    0.02  0.000004  (-0.000777 -0.000469  0.001897)
 10:    262.97   0.000000    0.00  0.000000  ( 0.000438  0.000193  0.000381)
 11:    283.79   0.000012    0.06  0.000013  (-0.003552 -0.000318  0.000724)
 12:    287.83   0.000005    0.02  0.000005  ( 0.002203 -0.000291  0.000587)
 13:    304.94   0.000001    0.01  0.000002  (-0.000663 -0.000251 -0.001003)
 14:    310.73   0.000003    0.02  0.000003  ( 0.001636  0.000553  0.000400)
 15:    331.13   0.000014    0.07  0.000013  (-0.003329 -0.001426  0.000005)
 16:    363.89   0.000011    0.06  0.000009  ( 0.002653 -0.000757 -0.001369)
 17:    393.89   0.000004    0.02  0.000003  (-0.001546 -0.000062  0.000928)
 18:    416.78   0.000011    0.05  0.000008  ( 0.000467  0.000305 -0.002768)
 19:    422.48   0.000022    0.11  0.000016  ( 0.002529 -0.001338 -0.002840)
 20:    461.85   0.000062    0.31  0.000042  (-0.005175 -0.003718  0.001190)
 21:    509.98   0.000006    0.03  0.000004  (-0.000380  0.001355 -0.001333)
 22:    748.24   0.000054    0.27  0.000022  (-0.003966  0.002522 -0.000579)
 23:    841.97   0.000125    0.63  0.000046  (-0.002344 -0.004881  0.004107)
 24:    874.75   0.000122    0.62  0.000043  ( 0.000147 -0.003047 -0.005843)
 25:    910.12   0.000018    0.09  0.000006  (-0.001178  0.001971  0.001030)
 26:    930.17   0.000165    0.83  0.000055  ( 0.006550  0.000698  0.003455)
 27:    936.95   0.000143    0.72  0.000048  (-0.005691  0.003451 -0.001844)
 28:    941.76   0.000049    0.25  0.000016  (-0.000078 -0.002372 -0.003236)
 29:    956.22   0.000004    0.02  0.000001  ( 0.000788  0.000658  0.000547)
 30:    967.30   0.000010    0.05  0.000003  (-0.000081 -0.000933 -0.001505)
 31:    992.46   0.000525    2.65  0.000165  (-0.012806 -0.000326  0.000977)
 32:   1034.56   0.000022    0.11  0.000007  ( 0.002172 -0.001340 -0.000115)
 33:   1039.28   0.000010    0.05  0.000003  ( 0.001055 -0.001390  0.000143)
 34:   1117.74   0.000096    0.48  0.000027  ( 0.003343  0.001216  0.003747)
 35:   1135.69   0.000110    0.56  0.000030  ( 0.003303  0.000580 -0.004363)
 36:   1192.26   0.001309    6.61  0.000343  ( 0.017838 -0.004904  0.000573)
 37:   1221.09   0.000655    3.31  0.000167  (-0.001117 -0.004052 -0.012239)
 38:   1231.45   0.000707    3.57  0.000179  ( 0.010106 -0.008748 -0.000638)
 39:   1266.03   0.001450    7.33  0.000357  ( 0.018019  0.005377 -0.001944)
 40:   1304.72   0.000418    2.11  0.000100  ( 0.000586  0.001181  0.009914)
 41:   1319.49   0.000175    0.88  0.000041  (-0.000510  0.004349  0.004711)
 42:   1356.37   0.000123    0.62  0.000028  ( 0.001258  0.004101  0.003153)
 43:   1371.46   0.000970    4.90  0.000221  (-0.012686  0.005727 -0.005197)
 44:   1386.84   0.000518    2.62  0.000117  ( 0.000911 -0.009629 -0.004798)
 45:   1389.34   0.001404    7.10  0.000315  ( 0.000098 -0.017235  0.004281)
 46:   1390.27   0.003534   17.86  0.000793  ( 0.000520  0.006951  0.027289)
 47:   1411.75   0.000500    2.53  0.000111  (-0.007646 -0.004297  0.005804)
 48:   1422.00   0.001658    8.38  0.000364  (-0.017116 -0.006466  0.005390)
 49:   1469.30   0.000162    0.82  0.000034  (-0.001552 -0.004947  0.002748)
 50:   1473.54   0.000067    0.34  0.000014  ( 0.001108 -0.001347 -0.003339)
 51:   1477.97   0.000016    0.08  0.000003  (-0.000434  0.001028  0.001485)
 52:   1481.09   0.000199    1.00  0.000042  (-0.001769  0.005137 -0.003508)
 53:   1483.09   0.000031    0.16  0.000007  (-0.000980  0.000227  0.002359)
 54:   1488.91   0.000824    4.16  0.000173  ( 0.000865 -0.004125 -0.012447)
 55:   1499.47   0.000270    1.37  0.000056  (-0.004020 -0.005873  0.002360)
 56:   1501.65   0.002064   10.43  0.000429  (-0.001869  0.010312 -0.017864)
 57:   1503.80   0.002622   13.25  0.000544  (-0.005562  0.022644 -0.000608)
 58:   1507.60   0.000763    3.86  0.000158  ( 0.002945  0.012216  0.000088)
 59:   1514.90   0.003660   18.49  0.000754  (-0.024327 -0.012477  0.002522)
 60:   2978.69   0.004179   21.12  0.000438  ( 0.001372  0.020201 -0.005282)
 61:   2987.49   0.006161   31.14  0.000644  (-0.018619 -0.007782 -0.015375)
 62:   2989.49   0.008084   40.85  0.000844  ( 0.011232 -0.026361  0.004774)
 63:   2991.22   0.009037   45.67  0.000943  ( 0.004270  0.011547  0.028129)
 64:   2993.53   0.007490   37.85  0.000781  (-0.021550  0.003003  0.017533)
 65:   2998.19   0.000961    4.86  0.000100  ( 0.009717  0.000002  0.002373)
 66:   3006.51   0.005041   25.47  0.000523  ( 0.017065  0.013219 -0.007566)
 67:   3025.44   0.005034   25.44  0.000519  (-0.002283  0.004193  0.022282)
 68:   3060.19   0.000843    4.26  0.000086  ( 0.000965  0.000668 -0.009199)
 69:   3065.35   0.000457    2.31  0.000047  ( 0.004742 -0.001794 -0.004564)
 70:   3066.19   0.000677    3.42  0.000069  ( 0.006923  0.001153 -0.004435)
 71:   3067.75   0.008295   41.92  0.000844  ( 0.006285 -0.026101  0.011089)
 72:   3069.69   0.005853   29.58  0.000595  (-0.010214 -0.000259 -0.022151)
 73:   3071.50   0.014878   75.19  0.001512  ( 0.029606 -0.000103 -0.025200)
 74:   3072.16   0.016291   82.33  0.001655  ( 0.026039  0.031176  0.002203)
 75:   3074.75   0.007219   36.48  0.000733  (-0.018221  0.015063  0.013183)
 76:   3078.32   0.012939   65.39  0.001312  ( 0.021188 -0.024795  0.015749)
 77:   3086.01   0.005385   27.21  0.000545  ( 0.019889  0.006006  0.010625)

--------------------------
THERMOCHEMISTRY AT 298.15K
--------------------------

Temperature         ...   298.15 K
Pressure            ...     1.00 atm
Total Mass          ...   114.23 AMU
Quasi RRHO          ...     True
Cut-Off Frequency   ...     1.00 cm^-1

Throughout the following assumptions are being made:
  (1) The electronic state is orbitally nondegenerate
  (2) There are no thermally accessible electronically excited states
  (3) Hindered rotations indicated by low frequency modes are not
      treated as such but are treated as vibrations and this may
      cause some error
  (4) All equations used are the standard statistical mechanics
      equations for an ideal gas
  (5) All vibrations are strictly harmonic

freq.      62.42  E(vib)   ...       0.51
freq.     104.95  E(vib)   ...       0.46
freq.     197.29  E(vib)   ...       0.35
freq.     242.50  E(vib)   ...       0.31
freq.     262.97  E(vib)   ...       0.29
freq.     283.79  E(vib)   ...       0.28
freq.     287.83  E(vib)   ...       0.27
freq.     304.94  E(vib)   ...       0.26
freq.     310.73  E(vib)   ...       0.26
freq.     331.13  E(vib)   ...       0.24
freq.     363.89  E(vib)   ...       0.22
freq.     393.89  E(vib)   ...       0.20
freq.     416.78  E(vib)   ...       0.18
freq.     422.48  E(vib)   ...       0.18
freq.     461.85  E(vib)   ...       0.16
freq.     509.98  E(vib)   ...       0.14
freq.     748.24  E(vib)   ...       0.06
freq.     841.97  E(vib)   ...       0.04
freq.     874.75  E(vib)   ...       0.04
freq.     910.12  E(vib)   ...       0.03
freq.     930.17  E(vib)   ...       0.03
freq.     936.95  E(vib)   ...       0.03
freq.     941.76  E(vib)   ...       0.03
freq.     956.22  E(vib)   ...       0.03
freq.     967.30  E(vib)   ...       0.03
freq.     992.46  E(vib)   ...       0.02
freq.    1034.56  E(vib)   ...       0.02
freq.    1039.28  E(vib)   ...       0.02
freq.    1117.74  E(vib)   ...       0.01
freq.    1135.69  E(vib)   ...       0.01
freq.    1192.26  E(vib)   ...       0.01
freq.    1221.09  E(vib)   ...       0.01
freq.    1231.45  E(vib)   ...       0.01
freq.    1266.03  E(vib)   ...       0.01
freq.    1304.72  E(vib)   ...       0.01
freq.    1319.49  E(vib)   ...       0.01
freq.    1356.37  E(vib)   ...       0.01
freq.    1371.46  E(vib)   ...       0.01
freq.    1386.84  E(vib)   ...       0.00
freq.    1389.34  E(vib)   ...       0.00
freq.    1390.27  E(vib)   ...       0.00
freq.    1411.75  E(vib)   ...       0.00
freq.    1422.00  E(vib)   ...       0.00
freq.    1469.30  E(vib)   ...       0.00
freq.    1473.54  E(vib)   ...       0.00
freq.    1477.97  E(vib)   ...       0.00
freq.    1481.09  E(vib)   ...       0.00
freq.    1483.09  E(vib)   ...       0.00
freq.    1488.91  E(vib)   ...       0.00
freq.    1499.47  E(vib)   ...       0.00
freq.    1501.65  E(vib)   ...       0.00
freq.    1503.80  E(vib)   ...       0.00
freq.    1507.60  E(vib)   ...       0.00
freq.    1514.90  E(vib)   ...       0.00
freq.    2978.69  E(vib)   ...       0.00
freq.    2987.49  E(vib)   ...       0.00
freq.    2989.49  E(vib)   ...       0.00
freq.    2991.22  E(vib)   ...       0.00
freq.    2993.53  E(vib)   ...       0.00
freq.    2998.19  E(vib)   ...       0.00
freq.    3006.51  E(vib)   ...       0.00
freq.    3025.44  E(vib)   ...       0.00
freq.    3060.19  E(vib)   ...       0.00
freq.    3065.35  E(vib)   ...       0.00
freq.    3066.19  E(vib)   ...       0.00
freq.    3067.75  E(vib)   ...       0.00
freq.    3069.69  E(vib)   ...       0.00
freq.    3071.50  E(vib)   ...       0.00
freq.    3072.16  E(vib)   ...       0.00
freq.    3074.75  E(vib)   ...       0.00
freq.    3078.32  E(vib)   ...       0.00
freq.    3086.01  E(vib)   ...       0.00

------------
INNER ENERGY
------------

The inner energy is: U= E(el) + E(ZPE) + E(vib) + E(rot) + E(trans)
    E(el)   - is the total energy from the electronic structure calculation
              = E(kin-el) + E(nuc-el) + E(el-el) + E(nuc-nuc)
    E(ZPE)  - the the zero temperature vibrational energy from the frequency calculation
    E(vib)  - the the finite temperature correction to E(ZPE) due to population
              of excited vibrational states
    E(rot)  - is the rotational thermal energy
    E(trans)- is the translational thermal energy

Summary of contributions to the inner energy U:
Electronic energy                ...   -315.61220182 Eh
Zero point energy                ...      0.24315223 Eh     152.58 kcal/mol
Thermal vibrational correction   ...      0.00769790 Eh       4.83 kcal/mol
Thermal rotational correction    ...      0.00141627 Eh       0.89 kcal/mol
Thermal translational correction ...      0.00141627 Eh       0.89 kcal/mol
-----------------------------------------------------------------------
Total thermal energy                   -315.35851916 Eh

Summary of corrections to the electronic energy:
(perhaps to be used in another calculation)
Total thermal correction                  0.01053044 Eh       6.61 kcal/mol
Non-thermal (ZPE) correction              0.24315223 Eh     152.58 kcal/mol
-----------------------------------------------------------------------
Total correction                          0.25368267 Eh     159.19 kcal/mol

--------
ENTHALPY
--------

The enthalpy is H = U + kB*T
                kB is Boltzmann's constant
Total thermal energy              ...   -315.35851916 Eh
Thermal Enthalpy correction       ...      0.00094421 Eh       0.59 kcal/mol
-----------------------------------------------------------------------
Total Enthalpy                    ...   -315.35757495 Eh

Note: Only C1 symmetry has been detected, increase convergence thresholds
      if your molecule has a higher symmetry. Symmetry factor of 1.0 is
      used for the rotational entropy correction.

Note: Rotational entropy computed according to Herzberg
Infrared and Raman Spectra, Chapter V,1, Van Nostrand Reinhold, 1945
Point Group:  C1, Symmetry Number:   1
Rotational constants in cm-1:     0.097580     0.040771     0.036593

Vibrational entropy computed according to the QRRHO of S. Grimme
Chem.Eur.J. 2012 18 9955 using a reference frequency of 100.0 cm-1

-------
ENTROPY
-------

The entropy contributions are T*S = T*(S(el)+S(vib)+S(rot)+S(trans))
     S(el)   - electronic entropy
     S(vib)  - vibrational entropy
     S(rot)  - rotational entropy
     S(trans)- translational entropy
The entropies will be listed as multiplied by the temperature to get
units of energy

                             ****ORCA TERMINATED NORMALLY****
TOTAL RUN TIME: 0 days 0 hours 23 minutes 20 seconds 68 msec
