                         Program Version 6.0.0  -   RELEASE  -
|  1> ! r2SCAN-3c DEF2-TZVP FREQ
|  2> * xyzfile 0 1 vacuum_censo.xyz
|  3>
|  4>                          ****END OF INPUT****

CARTESIAN COORDINATES (ANGSTROEM)
---------------------------------
  C     -2.425240    1.206125    0.338450
  C     -1.434804    0.155114   -0.169328
  C     -2.121030   -1.212184   -0.246405
  C     -0.172990    0.115763    0.721527
  C      1.191041   -0.018818    0.007990
  C      1.226091   -1.235708   -0.924191
  C      1.492893    1.251579   -0.798928
  C      2.274587   -0.186379    1.082515
  H     -2.727618    0.981987    1.368522
  H     -1.979843    2.206211    0.330455
  H     -3.330492    1.231223   -0.277584
  H     -1.140416    0.444043   -1.186878
  H     -1.440936   -1.992622   -0.596773
  H     -2.484955   -1.507516    0.744661
  H     -2.981239   -1.183789   -0.923719
  H     -0.128039    1.033228    1.323251
  H     -0.273629   -0.709664    1.440098
  H      1.016638   -2.159932   -0.374541
  H      2.216361   -1.334841   -1.382138
  H      0.495301   -1.145968   -1.733919
  H      0.741860    1.429612   -1.575245
  H      2.466360    1.170600   -1.294367
  H      1.518845    2.130752   -0.145753
  H      2.268512    0.657735    1.781255
  H      3.270047   -0.241332    0.628096
  H      2.114915   -1.104175    1.659053

 Total Charge           Charge          ....    0
 Multiplicity           Mult            ....    1
 Number of Electrons    NEL             ....   66
 Basis Dimension        Dim             ....  356

ORBITAL ENERGIES
----------------

  NO   OCC          E(Eh)            E(eV)
   0   2.0000     -10.044277      -273.3187
   1   2.0000     -10.033492      -273.0252
   2   2.0000     -10.019961      -272.6570
   3   2.0000     -10.015187      -272.5271
   4   2.0000     -10.014717      -272.5143
   5   2.0000     -10.014569      -272.5103
   6   2.0000     -10.014152      -272.4989
   7   2.0000     -10.013800      -272.4893
   8   2.0000      -0.794878       -21.6297
   9   2.0000      -0.750426       -20.4201
  10   2.0000      -0.652616       -17.7586
  11   2.0000      -0.648648       -17.6506
  12   2.0000      -0.642618       -17.4865
  13   2.0000      -0.639646       -17.4057
  14   2.0000      -0.534144       -14.5348
  15   2.0000      -0.497173       -13.5288
  16   2.0000      -0.437223       -11.8974
  17   2.0000      -0.421849       -11.4791
  18   2.0000      -0.411125       -11.1873
  19   2.0000      -0.394897       -10.7457
  20   2.0000      -0.388143       -10.5619
  21   2.0000      -0.382121       -10.3980
  22   2.0000      -0.353986        -9.6325
  23   2.0000      -0.350275        -9.5315
  24   2.0000      -0.346651        -9.4329
  25   2.0000      -0.330700        -8.9988
  26   2.0000      -0.325004        -8.8438
  27   2.0000      -0.318594        -8.6694
  28   2.0000      -0.304346        -8.2817
  29   2.0000      -0.297856        -8.1051
  30   2.0000      -0.283988        -7.7277
  31   2.0000      -0.277056        -7.5391
  32   2.0000      -0.271456        -7.3867
  33   0.0000       0.031377         0.8538
  34   0.0000       0.060442         1.6447
  35   0.0000       0.066117         1.7991
  36   0.0000       0.078537         2.1371
  37   0.0000       0.085136         2.3167

MULLIKEN ATOMIC CHARGES
-----------------------
   0 C :   -0.342128
   1 C :    0.041062
   2 C :   -0.358885
   3 C :   -0.201103
   4 C :    0.136137
   5 C :   -0.372252
   6 C :   -0.354996
   7 C :   -0.343136
   8 H :    0.101505
   9 H :    0.105155
  10 H :    0.103881
  11 H :    0.045490
  12 H :    0.112684
  13 H :    0.099846
  14 H :    0.102079
  15 H :    0.085408
  16 H :    0.087148
  17 H :    0.108222
  18 H :    0.106912
  19 H :    0.111197
  20 H :    0.105266
  21 H :    0.104436
  22 H :    0.104032
  23 H :    0.104378
  24 H :    0.103925
  25 H :    0.103737
Sum of atomic charges:   -0.0000000

LOEWDIN ATOMIC CHARGES
----------------------
   0 C :   -0.288776
   1 C :   -0.307037
   2 C :   -0.288923
   3 C :   -0.198610
   4 C :   -0.363872
   5 C :   -0.262117
   6 C :   -0.261332
   7 C :   -0.262622
   8 H :    0.120446
   9 H :    0.118070
  10 H :    0.117912
  11 H :    0.144544
  12 H :    0.117883
  13 H :    0.119789
  14 H :    0.118350
  15 H :    0.142037
  16 H :    0.141772
  17 H :    0.121742
  18 H :    0.122442
  19 H :    0.121789
  20 H :    0.118919
  21 H :    0.122109
  22 H :    0.122045
  23 H :    0.121578
  24 H :    0.120954
  25 H :    0.120907

  Mayer bond orders larger than 0.100000
B(  0-C ,  1-C ) :   0.9489 B(  0-C ,  8-H ) :   0.9745 B(  0-C ,  9-H ) :   0.9756
B(  0-C , 10-H ) :   0.9798 B(  1-C ,  2-C ) :   0.9669 B(  1-C ,  3-C ) :   0.9211
B(  1-C , 11-H ) :   0.9687 B(  2-C , 12-H ) :   0.9735 B(  2-C , 13-H ) :   0.9723
B(  2-C , 14-H ) :   0.9783 B(  3-C ,  4-C ) :   0.9543 B(  3-C , 15-H ) :   0.9720
B(  3-C , 16-H ) :   0.9587 B(  4-C ,  5-C ) :   0.9410 B(  4-C ,  6-C ) :   0.9698
B(  4-C ,  7-C ) :   0.9478 B(  5-C , 17-H ) :   0.9753 B(  5-C , 18-H ) :   0.9718
B(  5-C , 19-H ) :   0.9695 B(  6-C , 20-H ) :   0.9666 B(  6-C , 21-H ) :   0.9742
B(  6-C , 22-H ) :   0.9735 B(  7-C , 23-H ) :   0.9720 B(  7-C , 24-H ) :   0.9759
B(  7-C , 25-H ) :   0.9718

Dispersion correction           -0.007965129
FINAL SINGLE POINT ENERGY      -315.612231588730

DIPOLE MOMENT
-------------

Method             : SCF
Type of density    : Electron Density
Multiplicity       :   1
Irrep              :   0
Energy             :  -315.6169080560828206 Eh
Relativity type    :
Basis              : AO
                                X                 Y                 Z
Electronic contribution:      0.376769702       0.218943849       0.159318332
Nuclear contribution   :     -0.352804438      -0.208582255      -0.190735766
                        -----------------------------------------
Total Dipole Moment    :      0.023965265       0.010361594      -0.031417434
                        -----------------------------------------
Magnitude (a.u.)       :      0.040850358
Magnitude (Debye)      :      0.103833357

VIBRATIONAL FREQUENCIES
-----------------------

Scaling factor for frequencies =  1.000000000  (already applied!)

     0:       0.00 cm**-1
     1:       0.00 cm**-1
     2:       0.00 cm**-1
     3:       0.00 cm**-1
     4:       0.00 cm**-1
     5:       0.00 cm**-1
     6:      63.02 cm**-1
     7:     103.26 cm**-1
     8:     195.01 cm**-1
     9:     230.30 cm**-1
    10:     244.73 cm**-1
    11:     276.26 cm**-1
    12:     279.19 cm**-1
    13:     298.83 cm**-1
    14:     308.89 cm**-1
    15:     325.98 cm**-1
    16:     360.77 cm**-1
    17:     391.92 cm**-1
    18:     414.71 cm**-1
    19:     419.97 cm**-1
    20:     460.19 cm**-1
    21:     508.52 cm**-1
    22:     746.82 cm**-1
    23:     839.26 cm**-1
    24:     871.75 cm**-1
    25:     907.63 cm**-1
    26:     926.62 cm**-1
    27:     933.85 cm**-1
    28:     939.19 cm**-1
    29:     953.57 cm**-1
    30:     964.81 cm**-1
    31:     990.94 cm**-1
    32:    1031.71 cm**-1
    33:    1037.05 cm**-1
    34:    1115.81 cm**-1
    35:    1133.97 cm**-1
    36:    1190.31 cm**-1
    37:    1219.90 cm**-1
    38:    1229.74 cm**-1
    39:    1264.98 cm**-1
    40:    1303.22 cm**-1
    41:    1318.56 cm**-1
    42:    1355.70 cm**-1
    43:    1370.04 cm**-1
    44:    1384.98 cm**-1
    45:    1387.41 cm**-1
    46:    1388.25 cm**-1
    47:    1409.73 cm**-1
    48:    1420.36 cm**-1
    49:    1468.57 cm**-1
    50:    1472.80 cm**-1
    51:    1477.37 cm**-1
    52:    1480.66 cm**-1
    53:    1482.19 cm**-1
    54:    1488.27 cm**-1
    55:    1498.61 cm**-1
    56:    1501.06 cm**-1
    57:    1502.94 cm**-1
    58:    1507.17 cm**-1
    59:    1514.30 cm**-1
    60:    2984.03 cm**-1
    61:    2994.75 cm**-1
    62:    2995.56 cm**-1
    63:    2998.63 cm**-1
    64:    3001.22 cm**-1
    65:    3005.25 cm**-1
    66:    3007.17 cm**-1
    67:    3029.89 cm**-1
    68:    3068.54 cm**-1
    69:    3072.44 cm**-1
    70:    3073.26 cm**-1
    71:    3075.47 cm**-1
    72:    3076.52 cm**-1
    73:    3079.08 cm**-1
    74:    3080.37 cm**-1
    75:    3081.23 cm**-1
    76:    3086.14 cm**-1
    77:    3098.61 cm**-1

IR SPECTRUM
-----------

 Mode   freq       eps      Int      T**2         TX        TY        TZ
       cm**-1   L/(mol*cm) km/mol    a.u.
----------------------------------------------------------------------------
  6:     63.02   0.000001    0.01  0.000007  (-0.000665  0.002542 -0.000479)
  7:    103.26   0.000001    0.00  0.000002  ( 0.001003  0.000762  0.000265)
  8:    195.01   0.000005    0.03  0.000008  (-0.002724 -0.000298  0.000884)
  9:    230.30   0.000001    0.01  0.000002  ( 0.000454  0.001184  0.000299)
 10:    244.73   0.000000    0.00  0.000001  (-0.000559  0.000461  0.000146)
 11:    276.26   0.000002    0.01  0.000002  (-0.000489  0.000765 -0.000977)
 12:    279.19   0.000011    0.06  0.000012  ( 0.003452  0.000065 -0.000731)
 13:    298.83   0.000003    0.01  0.000003  ( 0.001582 -0.000765  0.000027)
 14:    308.89   0.000006    0.03  0.000006  ( 0.001981 -0.001073 -0.001034)
 15:    325.98   0.000010    0.05  0.000010  ( 0.002516 -0.001170 -0.001388)
 16:    360.77   0.000011    0.05  0.000009  (-0.002663 -0.001512  0.000060)
 17:    391.92   0.000006    0.03  0.000005  (-0.001949 -0.000680  0.000765)
 18:    414.71   0.000012    0.06  0.000009  ( 0.001171  0.002698 -0.000715)
 19:    419.97   0.000021    0.11  0.000016  ( 0.003035  0.002510  0.000561)
 20:    460.19   0.000058    0.29  0.000039  ( 0.004613 -0.000137 -0.004238)
 21:    508.52   0.000004    0.02  0.000002  ( 0.000310 -0.000731  0.001346)
 22:    746.82   0.000054    0.27  0.000023  (-0.004206  0.000439 -0.002183)
 23:    839.26   0.000121    0.61  0.000045  ( 0.002103  0.002908 -0.005663)
 24:    871.75   0.000124    0.63  0.000044  ( 0.001196  0.006311  0.001745)
 25:    907.63   0.000024    0.12  0.000008  (-0.001390 -0.001697 -0.001868)
 26:    926.62   0.000193    0.98  0.000065  ( 0.007050 -0.003847 -0.000714)
 27:    933.85   0.000140    0.71  0.000047  (-0.005850  0.001374 -0.003267)
 28:    939.19   0.000047    0.24  0.000016  ( 0.000158  0.003568  0.001662)
 29:    953.57   0.000003    0.02  0.000001  ( 0.000801 -0.000488 -0.000339)
 30:    964.81   0.000009    0.05  0.000003  ( 0.000129 -0.001564 -0.000662)
 31:    990.94   0.000545    2.76  0.000172  ( 0.012979 -0.000509 -0.001733)
 32:   1031.71   0.000027    0.14  0.000008  ( 0.002575  0.000199  0.001270)
 33:   1037.05   0.000008    0.04  0.000002  (-0.000998  0.000185 -0.001190)
 34:   1115.81   0.000090    0.46  0.000025  ( 0.003094 -0.003841 -0.000968)
 35:   1133.97   0.000109    0.55  0.000030  (-0.003070 -0.004147  0.001871)
 36:   1190.31   0.001302    6.58  0.000341  (-0.018120  0.001740 -0.003162)
 37:   1219.90   0.000667    3.37  0.000171  ( 0.000037  0.012987  0.001401)
 38:   1229.74   0.000755    3.82  0.000192  (-0.011482 -0.001607 -0.007569)
 39:   1264.98   0.001465    7.40  0.000361  (-0.017344  0.001074  0.007704)
 40:   1303.22   0.000426    2.15  0.000102  (-0.000654 -0.010011  0.001162)
 41:   1318.56   0.000189    0.96  0.000045  ( 0.001317  0.005596  0.003422)
 42:   1355.70   0.000120    0.60  0.000028  ( 0.000294 -0.003763 -0.003643)
 43:   1370.04   0.001001    5.06  0.000228  ( 0.013044 -0.005538  0.005222)
 44:   1384.98   0.000396    2.00  0.000089  (-0.002539 -0.004644 -0.007826)
 45:   1387.41   0.001417    7.16  0.000319  (-0.001706  0.000204 -0.017767)
 46:   1388.25   0.003590   18.14  0.000807  ( 0.003167  0.028177  0.001767)
 47:   1409.73   0.000545    2.75  0.000121  ( 0.007624  0.004730 -0.006333)
 48:   1420.36   0.001605    8.11  0.000353  ( 0.016389  0.002152 -0.008915)
 49:   1468.57   0.000143    0.72  0.000030  (-0.001216 -0.001506  0.005165)
 50:   1472.80   0.000065    0.33  0.000014  (-0.001772 -0.003168 -0.000783)
 51:   1477.37   0.000010    0.05  0.000002  (-0.000628 -0.001284 -0.000230)
 52:   1480.66   0.000206    1.04  0.000043  ( 0.001692 -0.002956  0.005642)
 53:   1482.19   0.000029    0.15  0.000006  (-0.001173 -0.002046  0.000718)
 54:   1488.27   0.000812    4.10  0.000170  (-0.002449 -0.012706 -0.001653)
 55:   1498.61   0.000283    1.43  0.000059  ( 0.003115  0.001853 -0.006767)
 56:   1501.06   0.002054   10.38  0.000427  ( 0.001984 -0.015860  0.013095)
 57:   1502.94   0.002681   13.55  0.000557  (-0.009091 -0.002551 -0.021624)
 58:   1507.17   0.000676    3.42  0.000140  ( 0.001081 -0.003707 -0.011183)
 59:   1514.30   0.003754   18.97  0.000774  (-0.022592  0.002710  0.015996)
 60:   2984.03   0.003970   20.06  0.000415  (-0.000242  0.000106 -0.020375)
 61:   2994.75   0.008569   43.30  0.000893  (-0.020868  0.007645 -0.019976)
 62:   2995.56   0.004710   23.80  0.000491  (-0.009702  0.013674  0.014475)
 63:   2998.63   0.009906   50.06  0.001031  (-0.000884  0.031378  0.006750)
 64:   3001.22   0.003566   18.02  0.000371  (-0.014495 -0.010651 -0.006876)
 65:   3005.25   0.000489    2.47  0.000051  ( 0.003813 -0.005136 -0.003142)
 66:   3007.17   0.009963   50.35  0.001034  (-0.023654 -0.010664  0.018989)
 67:   3029.89   0.005237   26.47  0.000539  ( 0.004355  0.022795 -0.000913)
 68:   3068.54   0.001013    5.12  0.000103  (-0.000645 -0.008911  0.004820)
 69:   3072.44   0.000233    1.18  0.000024  (-0.003847 -0.002950 -0.000358)
 70:   3073.26   0.000699    3.53  0.000071  ( 0.006602 -0.003439 -0.003952)
 71:   3075.47   0.004695   23.73  0.000476  (-0.011941 -0.007584 -0.016623)
 72:   3076.52   0.011209   56.65  0.001137  (-0.001229  0.026013 -0.021420)
 73:   3079.08   0.021301  107.65  0.002159  (-0.035244 -0.000139  0.030277)
 74:   3080.37   0.006475   32.72  0.000656  ( 0.008284  0.020298  0.013242)
 75:   3081.23   0.009394   47.48  0.000951  ( 0.023636  0.013903  0.014125)
 76:   3086.14   0.011673   58.99  0.001180  ( 0.023370 -0.012329  0.021958)
 77:   3098.61   0.005394   27.26  0.000543  (-0.017920  0.013354  0.006618)

--------------------------
THERMOCHEMISTRY AT 298.15K
--------------------------

Temperature         ...   298.15 K
Pressure            ...     1.00 atm
Total Mass          ...   114.23 AMU
Quasi RRHO          ...     True
Cut-Off Frequency   ...     1.00 cm^-1

Throughout the following assumptions are being made:
  (1) The electronic state is orbitally nondegenerate
  (2) There are no thermally accessible electronically excited states
  (3) Hindered rotations indicated by low frequency modes are not
      treated as such but are treated as vibrations and this may
      cause some error
  (4) All equations used are the standard statistical mechanics
      equations for an ideal gas
  (5) All vibrations are strictly harmonic

freq.      63.02  E(vib)   ...       0.51
freq.     103.26  E(vib)   ...       0.46
freq.     195.01  E(vib)   ...       0.36
freq.     230.30  E(vib)   ...       0.32
freq.     244.73  E(vib)   ...       0.31
freq.     276.26  E(vib)   ...       0.28
freq.     279.19  E(vib)   ...       0.28
freq.     298.83  E(vib)   ...       0.26
freq.     308.89  E(vib)   ...       0.26
freq.     325.98  E(vib)   ...       0.24
freq.     360.77  E(vib)   ...       0.22
freq.     391.92  E(vib)   ...       0.20
freq.     414.71  E(vib)   ...       0.19
freq.     419.97  E(vib)   ...       0.18
freq.     460.19  E(vib)   ...       0.16
freq.     508.52  E(vib)   ...       0.14
freq.     746.82  E(vib)   ...       0.06
freq.     839.26  E(vib)   ...       0.04
freq.     871.75  E(vib)   ...       0.04
freq.     907.63  E(vib)   ...       0.03
freq.     926.62  E(vib)   ...       0.03
freq.     933.85  E(vib)   ...       0.03
freq.     939.19  E(vib)   ...       0.03
freq.     953.57  E(vib)   ...       0.03
freq.     964.81  E(vib)   ...       0.03
freq.     990.94  E(vib)   ...       0.02
freq.    1031.71  E(vib)   ...       0.02
freq.    1037.05  E(vib)   ...       0.02
freq.    1115.81  E(vib)   ...       0.01
freq.    1133.97  E(vib)   ...       0.01
freq.    1190.31  E(vib)   ...       0.01
freq.    1219.90  E(vib)   ...       0.01
freq.    1229.74  E(vib)   ...       0.01
freq.    1264.98  E(vib)   ...       0.01
freq.    1303.22  E(vib)   ...       0.01
freq.    1318.56  E(vib)   ...       0.01
freq.    1355.70  E(vib)   ...       0.01
freq.    1370.04  E(vib)   ...       0.01
freq.    1384.98  E(vib)   ...       0.00
freq.    1387.41  E(vib)   ...       0.00
freq.    1388.25  E(vib)   ...       0.00
freq.    1409.73  E(vib)   ...       0.00
freq.    1420.36  E(vib)   ...       0.00
freq.    1468.57  E(vib)   ...       0.00
freq.    1472.80  E(vib)   ...       0.00
freq.    1477.37  E(vib)   ...       0.00
freq.    1480.66  E(vib)   ...       0.00
freq.    1482.19  E(vib)   ...       0.00
freq.    1488.27  E(vib)   ...       0.00
freq.    1498.61  E(vib)   ...       0.00
freq.    1501.06  E(vib)   ...       0.00
freq.    1502.94  E(vib)   ...       0.00
freq.    1507.17  E(vib)   ...       0.00
freq.    1514.30  E(vib)   ...       0.00
freq.    2984.03  E(vib)   ...       0.00
freq.    2994.75  E(vib)   ...       0.00
freq.    2995.56  E(vib)   ...       0.00
freq.    2998.63  E(vib)   ...       0.00
freq.    3001.22  E(vib)   ...       0.00
freq.    3005.25  E(vib)   ...       0.00
freq.    3007.17  E(vib)   ...       0.00
freq.    3029.89  E(vib)   ...       0.00
freq.    3068.54  E(vib)   ...       0.00
freq.    3072.44  E(vib)   ...       0.00
freq.    3073.26  E(vib)   ...       0.00
freq.    3075.47  E(vib)   ...       0.00
freq.    3076.52  E(vib)   ...       0.00
freq.    3079.08  E(vib)   ...       0.00
freq.    3080.37  E(vib)   ...       0.00
freq.    3081.23  E(vib)   ...       0.00
freq.    3086.14  E(vib)   ...       0.00
freq.    3098.61  E(vib)   ...       0.00

------------
INNER ENERGY
------------

The inner energy is: U= E(el) + E(ZPE) + E(vib) + E(rot) + E(trans)
    E(el)   - is the total energy from the electronic structure calculation
              = E(kin-el) + E(nuc-el) + E(el-el) + E(nuc-nuc)
    E(ZPE)  - the the zero temperature vibrational energy from the frequency calculation
    E(vib)  - the the finite temperature correction to E(ZPE) due to population
              of excited vibrational states
    E(rot)  - is the rotational thermal energy
    E(trans)- is the translational thermal energy

Summary of contributions to the inner energy U:
Electronic energy                ...   -315.61223159 Eh
Zero point energy                ...      0.24312561 Eh     152.56 kcal/mol
Thermal vibrational correction   ...      0.00780248 Eh       4.90 kcal/mol
Thermal rotational correction    ...      0.00141627 Eh       0.89 kcal/mol
Thermal translational correction ...      0.00141627 Eh       0.89 kcal/mol
-----------------------------------------------------------------------
Total thermal energy                   -315.35847096 Eh

Summary of corrections to the electronic energy:
(perhaps to be used in another calculation)
Total thermal correction                  0.01063502 Eh       6.67 kcal/mol
Non-thermal (ZPE) correction              0.24312561 Eh     152.56 kcal/mol
-----------------------------------------------------------------------
Total correction                          0.25376063 Eh     159.24 kcal/mol

--------
ENTHALPY
--------

The enthalpy is H = U + kB*T
                kB is Boltzmann's constant
Total thermal energy              ...   -315.35847096 Eh
Thermal Enthalpy correction       ...      0.00094421 Eh       0.59 kcal/mol
-----------------------------------------------------------------------
Total Enthalpy                    ...   -315.35752675 Eh

Note: Only C1 symmetry has been detected, increase convergence thresholds
      if your molecule has a higher symmetry. Symmetry factor of 1.0 is
      used for the rotational entropy correction.

Note: Rotational entropy computed according to Herzberg
Infrared and Raman Spectra, Chapter V,1, Van Nostrand Reinhold, 1945
Point Group:  C1, Symmetry Number:   1
Rotational constants in cm-1:     0.097609     0.040715     0.036560

Vibrational entropy computed according to the QRRHO of S. Grimme
Chem.Eur.J. 2012 18 9955 using a reference frequency of 100.0 cm-1

-------
ENTROPY
-------

The entropy contributions are T*S = T*(S(el)+S(vib)+S(rot)+S(trans))
     S(el)   - electronic entropy
     S(vib)  - vibrational entropy
     S(rot)  - rotational entropy
     S(trans)- translational entropy
The entropies will be listed as multiplied by the temperature to get
units of energy

                             ****ORCA TERMINATED NORMALLY****
TOTAL RUN TIME: 0 days 0 hours 23 minutes 3 seconds 410 msec
