                         Program Version 6.0.1  -  RELEASE   -
|  1> ! r2scan-3c def2/J RI DEFGRID2 scfconv6 printgap
|  2> %output
|  3>     printlevel normal
|  4> end
|  5> * xyz 0 1
|  6> C -2.5180002976 0.1984512992 6.75844e-05
|  7> C -1.1594064734 -0.3975369947 -4.3406e-05
|  8> C -0.0195370658 0.2948262069 -0.0001223954
|  9> C 1.2864561027 -0.3494462741 -2.82328e-05
| 10> O 2.3461211557 0.2253760678 7.55098e-05
| 11> H -2.475304736 1.2841975712 -0.0003880337
| 12> H -3.0705638486 -0.1374532837 0.8775118496
| 13> H -3.0711396946 -0.1381902746 -0.8766980352
| 14> H -1.1207992484 -1.4808702907 1.51043e-05
| 15> H -0.0185230479 1.376254163 -0.0001870395
| 16> H 1.2394512777 -1.4581813053 5.43948e-05
| 17> *
| 18>
| 19>                          ****END OF INPUT****

CARTESIAN COORDINATES (ANGSTROEM)
---------------------------------
  C     -2.518000    0.198451    0.000068
  C     -1.159406   -0.397537   -0.000043
  C     -0.019537    0.294826   -0.000122
  C      1.286456   -0.349446   -0.000028
  O      2.346121    0.225376    0.000076
  H     -2.475305    1.284198   -0.000388
  H     -3.070564   -0.137453    0.877512
  H     -3.071140   -0.138190   -0.876698
  H     -1.120799   -1.480870    0.000015
  H     -0.018523    1.376254   -0.000187
  H      1.239451   -1.458181    0.000054

 Total Charge           Charge          ....    0
 Multiplicity           Mult            ....    1
 Number of Electrons    NEL             ....   38
 Basis Dimension        Dim             ....  130

ORBITAL ENERGIES
----------------

  NO   OCC          E(Eh)            E(eV)
   0   2.0000     -18.942712      -515.4574
   1   2.0000     -10.112772      -275.1825
   2   2.0000     -10.073456      -274.1127
   3   2.0000     -10.050531      -273.4889
   4   2.0000     -10.045858      -273.3617
   5   2.0000      -1.008367       -27.4391
   6   2.0000      -0.794514       -21.6198
   7   2.0000      -0.701790       -19.0967
   8   2.0000      -0.580967       -15.8089
   9   2.0000      -0.542813       -14.7707
  10   2.0000      -0.461386       -12.5549
  11   2.0000      -0.424740       -11.5578
  12   2.0000      -0.411761       -11.2046
  13   2.0000      -0.388018       -10.5585
  14   2.0000      -0.372886       -10.1467
  15   2.0000      -0.369802       -10.0628
  16   2.0000      -0.349473        -9.5097
  17   2.0000      -0.263233        -7.1629
  18   2.0000      -0.220459        -5.9990
  19   0.0000      -0.089168        -2.4264
  20   0.0000       0.022074         0.6007
  21   0.0000       0.085142         2.3168
  22   0.0000       0.105881         2.8812
  23   0.0000       0.116221         3.1625

MULLIKEN ATOMIC CHARGES
-----------------------
   0 C :   -0.482360
   1 C :   -0.057132
   2 C :   -0.099704
   3 C :    0.065176
   4 O :   -0.336592
   5 H :    0.159648
   6 H :    0.161571
   7 H :    0.161554
   8 H :    0.160272
   9 H :    0.173111
  10 H :    0.094455
Sum of atomic charges:   -0.0000000

LOEWDIN ATOMIC CHARGES
----------------------
   0 C :   -0.398560
   1 C :   -0.135416
   2 C :   -0.191604
   3 C :    0.187105
   4 O :   -0.451850
   5 H :    0.161572
   6 H :    0.168690
   7 H :    0.168672
   8 H :    0.165698
   9 H :    0.177467
  10 H :    0.148226

  Mayer bond orders larger than 0.100000
B(  0-C ,  1-C ) :   0.8999 B(  0-C ,  5-H ) :   0.9944 B(  0-C ,  6-H ) :   0.9562
B(  0-C ,  7-H ) :   0.9562 B(  1-C ,  2-C ) :   1.7510 B(  1-C ,  4-O ) :   0.1191
B(  1-C ,  8-H ) :   0.9303 B(  2-C ,  3-C ) :   0.9936 B(  2-C ,  9-H ) :   0.9371
B(  2-C , 10-H ) :  -0.1159 B(  3-C ,  4-O ) :   1.8741 B(  3-C , 10-H ) :   1.0174

Dispersion correction           -0.002173141
FINAL SINGLE POINT ENERGY      -231.174244032639

DIPOLE MOMENT
-------------

Method             : SCF
Type of density    : Electron Density
Multiplicity       :   1
Irrep              :   0
Energy             :  -231.1763303062119519 Eh
Relativity type    :
Basis              : AO
                                X                 Y                 Z
Electronic contribution:      6.338953422       0.145125771      -0.000270065
Nuclear contribution   :     -7.955493669      -0.516633230       0.000290301
                        -----------------------------------------
Total Dipole Moment    :     -1.616540247      -0.371507459       0.000020236
                        -----------------------------------------
Magnitude (a.u.)       :      1.658680247
Magnitude (Debye)      :      4.216030135

Rotational constants in cm-1:             1.108384             0.073359             0.069687
Rotational constants in MHz :         33228.507698          2199.234252          2089.162733

                             ****ORCA TERMINATED NORMALLY****
TOTAL RUN TIME: 0 days 0 hours 0 minutes 17 seconds 262 msec
