                         Program Version 6.0.1  -  RELEASE   -
|  1> ! r2scan-3c def2/J RI DEFGRID2 scfconv6 printgap
|  2> %output
|  3>     printlevel normal
|  4> end
|  5> * xyz 0 1
|  6> C 1.4550566392 -0.7081397888 -1.0547943133
|  7> C 0.6554713272 -0.4649527448 0.2215518699
|  8> C 1.3671604365 0.5537712186 1.1190558796
|  9> C -0.7380198537 0.0533527069 -0.110182054
| 10> O -1.0336019361 0.4685700875 -1.2011101666
| 11> C -1.7210885766 0.0375768305 1.0359894537
| 12> H 1.5504617762 0.217916056 -1.6158145731
| 13> H 2.4480461903 -1.0816506251 -0.8169120216
| 14> H 0.948347872 -1.4341159701 -1.6859266596
| 15> H 0.5508937097 -1.4056189114 0.7727892563
| 16> H 2.3875086037 0.2277547993 1.3076531462
| 17> H 0.8606661257 0.6616306295 2.0747080698
| 18> H 1.4026589186 1.5243485207 0.6290582919
| 19> H -2.7321095375 0.1564452221 0.655204044
| 20> H -1.5039851763 0.8740407796 1.6978807225
| 21> H -1.6433677715 -0.8820607677 1.6090649911
| 22> *
| 23>
| 24>                          ****END OF INPUT****

CARTESIAN COORDINATES (ANGSTROEM)
---------------------------------
  C      1.455057   -0.708140   -1.054794
  C      0.655471   -0.464953    0.221552
  C      1.367160    0.553771    1.119056
  C     -0.738020    0.053353   -0.110182
  O     -1.033602    0.468570   -1.201110
  C     -1.721089    0.037577    1.035989
  H      1.550462    0.217916   -1.615815
  H      2.448046   -1.081651   -0.816912
  H      0.948348   -1.434116   -1.685927
  H      0.550894   -1.405619    0.772789
  H      2.387509    0.227755    1.307653
  H      0.860666    0.661631    2.074708
  H      1.402659    1.524349    0.629058
  H     -2.732110    0.156445    0.655204
  H     -1.503985    0.874041    1.697881
  H     -1.643368   -0.882061    1.609065

 Total Charge           Charge          ....    0
 Multiplicity           Mult            ....    1
 Number of Electrons    NEL             ....   48
 Basis Dimension        Dim             ....  169

ORBITAL ENERGIES
----------------

  NO   OCC          E(Eh)            E(eV)
   0   2.0000     -18.938662      -515.3472
   1   2.0000     -10.116374      -275.2805
   2   2.0000     -10.046499      -273.3791
   3   2.0000     -10.034066      -273.0408
   4   2.0000     -10.033442      -273.0238
   5   2.0000     -10.016971      -272.5756
   6   2.0000      -1.010217       -27.4894
   7   2.0000      -0.777783       -21.1646
   8   2.0000      -0.709624       -19.3099
   9   2.0000      -0.657799       -17.8996
  10   2.0000      -0.590084       -16.0570
  11   2.0000      -0.489755       -13.3269
  12   2.0000      -0.450362       -12.2550
  13   2.0000      -0.430568       -11.7164
  14   2.0000      -0.419794       -11.4232
  15   2.0000      -0.397622       -10.8199
  16   2.0000      -0.379402       -10.3241
  17   2.0000      -0.369282       -10.0487
  18   2.0000      -0.359513        -9.7828
  19   2.0000      -0.332471        -9.0470
  20   2.0000      -0.328158        -8.9296
  21   2.0000      -0.312707        -8.5092
  22   2.0000      -0.311701        -8.4818
  23   2.0000      -0.212813        -5.7909
  24   0.0000      -0.043547        -1.1850
  25   0.0000       0.067131         1.8267
  26   0.0000       0.115460         3.1418
  27   0.0000       0.120526         3.2797
  28   0.0000       0.124619         3.3911

MULLIKEN ATOMIC CHARGES
-----------------------
   0 C :   -0.499979
   1 C :    0.011975
   2 C :   -0.497053
   3 C :    0.280311
   4 O :   -0.344805
   5 C :   -0.536503
   6 H :    0.165586
   7 H :    0.142736
   8 H :    0.153510
   9 H :    0.146259
  10 H :    0.152420
  11 H :    0.150810
  12 H :    0.164791
  13 H :    0.178236
  14 H :    0.175088
  15 H :    0.156616
Sum of atomic charges:   -0.0000000

LOEWDIN ATOMIC CHARGES
----------------------
   0 C :   -0.397324
   1 C :   -0.226253
   2 C :   -0.392101
   3 C :    0.221357
   4 O :   -0.456559
   5 C :   -0.389252
   6 H :    0.167211
   7 H :    0.151024
   8 H :    0.161772
   9 H :    0.166708
  10 H :    0.158224
  11 H :    0.154531
  12 H :    0.161277
  13 H :    0.175339
  14 H :    0.177801
  15 H :    0.166245

  Mayer bond orders larger than 0.100000
B(  0-C ,  1-C ) :   0.9247 B(  0-C ,  6-H ) :   0.9785 B(  0-C ,  7-H ) :   0.9756
B(  0-C ,  8-H ) :   0.9719 B(  1-C ,  2-C ) :   0.8665 B(  1-C ,  3-C ) :   0.8725
B(  1-C ,  9-H ) :   0.9306 B(  2-C , 10-H ) :   0.9671 B(  2-C , 11-H ) :   0.9721
B(  2-C , 12-H ) :   0.9787 B(  3-C ,  4-O ) :   1.9511 B(  3-C ,  5-C ) :   0.9179
B(  5-C , 13-H ) :   0.9793 B(  5-C , 14-H ) :   0.9467 B(  5-C , 15-H ) :   0.9630

Dispersion correction           -0.003919743
FINAL SINGLE POINT ENERGY      -271.704848165036

DIPOLE MOMENT
-------------

Method             : SCF
Type of density    : Electron Density
Multiplicity       :   1
Irrep              :   0
Energy             :  -271.7084697497443244 Eh
Relativity type    :
Basis              : AO
                                X                 Y                 Z
Electronic contribution:     -3.668760826       0.727768321      -3.302043324
Nuclear contribution   :      3.989810447      -1.063787656       4.323737470
                        -----------------------------------------
Total Dipole Moment    :      0.321049620      -0.336019335       1.021694147
                        -----------------------------------------
Magnitude (a.u.)       :      1.122426292
Magnitude (Debye)      :      2.852980905

Rotational constants in cm-1:             0.158377             0.100526             0.072831
Rotational constants in MHz :          4748.033072          3013.687207          2183.421578

                             ****ORCA TERMINATED NORMALLY****
TOTAL RUN TIME: 0 days 0 hours 0 minutes 15 seconds 344 msec
