                         Program Version 6.0.1  -  RELEASE   -
|  1> ! pbe def2-sv(p) def2/J RI DEFGRID1 loosescf d4 GCP(DFT/SV(P)) printgap
|  2> %output
|  3>     printlevel normal
|  4> end
|  5> * xyz 0 1
|  6> C -2.4628316006 -0.8312862661 -0.0344666908
|  7> O -1.1036080818 -0.7238438251 -0.4445084239
|  8> C -0.5208460179 0.4664860784 -0.3378919616
|  9> O -1.0566742482 1.4668180237 0.0512246527
| 10> C 0.9367774925 0.3816622045 -0.7541550874
| 11> Cl 1.838747983 -0.2979370443 0.6263609321
| 12> H -3.1099181015 -0.7563835132 -0.9098866713
| 13> H -2.7073445488 -0.0335820197 0.6686095733
| 14> H -2.5781441505 -1.8070762596 0.4327319853
| 15> H 1.3336414957 1.374609515 -0.9579228053
| 16> H 1.0685182422 -0.2925087328 -1.5983631451
| 17> *
| 18>
| 19>                          ****END OF INPUT****

CARTESIAN COORDINATES (ANGSTROEM)
---------------------------------
  C     -2.462832   -0.831286   -0.034467
  O     -1.103608   -0.723844   -0.444508
  C     -0.520846    0.466486   -0.337892
  O     -1.056674    1.466818    0.051225
  C      0.936777    0.381662   -0.754155
  Cl     1.838748   -0.297937    0.626361
  H     -3.109918   -0.756384   -0.909887
  H     -2.707345   -0.033582    0.668610
  H     -2.578144   -1.807076    0.432732
  H      1.333641    1.374610   -0.957923
  H      1.068518   -0.292509   -1.598363

 Total Charge           Charge          ....    0
 Multiplicity           Mult            ....    1
 Number of Electrons    NEL             ....   56
 Basis Dimension        Dim             ....   98

ORBITAL ENERGIES
----------------

  NO   OCC          E(Eh)            E(eV)
   0   2.0000    -100.632918     -2738.3609
   1   2.0000     -18.812249      -511.9073
   2   2.0000     -18.750950      -510.2393
   3   2.0000     -10.022106      -272.7154
   4   2.0000      -9.955574      -270.9049
   5   2.0000      -9.946940      -270.6700
   6   2.0000      -9.168769      -249.4949
   7   2.0000      -7.000896      -190.5041
   8   2.0000      -6.988285      -190.1609
   9   2.0000      -6.987878      -190.1498
  10   2.0000      -1.020764       -27.7764
  11   2.0000      -0.931459       -25.3463
  12   2.0000      -0.790439       -21.5089
  13   2.0000      -0.686211       -18.6728
  14   2.0000      -0.620573       -16.8866
  15   2.0000      -0.520436       -14.1618
  16   2.0000      -0.467112       -12.7108
  17   2.0000      -0.447661       -12.1815
  18   2.0000      -0.436384       -11.8746
  19   2.0000      -0.399589       -10.8734
  20   2.0000      -0.396634       -10.7929
  21   2.0000      -0.379256       -10.3201
  22   2.0000      -0.349480        -9.5098
  23   2.0000      -0.314238        -8.5508
  24   2.0000      -0.272340        -7.4108
  25   2.0000      -0.270060        -7.3487
  26   2.0000      -0.255294        -6.9469
  27   2.0000      -0.231074        -6.2878
  28   0.0000      -0.053138        -1.4460
  29   0.0000       0.024345         0.6624
  30   0.0000       0.053119         1.4454
  31   0.0000       0.067406         1.8342
  32   0.0000       0.082885         2.2554

MULLIKEN ATOMIC CHARGES
-----------------------
   0 C :   -0.129008
   1 O :   -0.237463
   2 C :    0.117179
   3 O :   -0.177098
   4 C :   -0.133357
   5 Cl:   -0.128114
   6 H :    0.123525
   7 H :    0.133688
   8 H :    0.128155
   9 H :    0.151737
  10 H :    0.150754
Sum of atomic charges:   -0.0000000

LOEWDIN ATOMIC CHARGES
----------------------
   0 C :   -0.207593
   1 O :   -0.068634
   2 C :    0.000611
   3 O :   -0.140789
   4 C :   -0.293710
   5 Cl:    0.063264
   6 H :    0.120658
   7 H :    0.124733
   8 H :    0.123789
   9 H :    0.139734
  10 H :    0.137938

  Mayer bond orders larger than 0.100000
B(  0-C ,  1-O ) :   0.9386 B(  0-C ,  6-H ) :   0.9595 B(  0-C ,  7-H ) :   0.9344
B(  0-C ,  8-H ) :   0.9593 B(  1-O ,  2-C ) :   1.2112 B(  1-O ,  3-O ) :   0.1034
B(  2-C ,  3-O ) :   2.0940 B(  2-C ,  4-C ) :   0.9801 B(  4-C ,  5-Cl) :   1.0397
B(  4-C ,  9-H ) :   0.9190 B(  4-C , 10-H ) :   0.9126

Dispersion correction           -0.008324073
FINAL SINGLE POINT ENERGY      -727.080836351820

DIPOLE MOMENT
-------------

Method             : SCF
Type of density    : Electron Density
Multiplicity       :   1
Irrep              :   0
Energy             :  -727.1228912666787210 Eh
Relativity type    :
Basis              : AO
                                X                 Y                 Z
Electronic contribution:      7.724013941       0.516897452       2.523958282
Nuclear contribution   :     -8.122661590      -1.010386575      -3.065148966
                        -----------------------------------------
Total Dipole Moment    :     -0.398647649      -0.493489123      -0.541190684
                        -----------------------------------------
Magnitude (a.u.)       :      0.833869786
Magnitude (Debye)      :      2.119528553

Rotational constants in cm-1:             0.190533             0.056211             0.049222
Rotational constants in MHz :          5712.027188          1685.150741          1475.650984

                             ****ORCA TERMINATED NORMALLY****
TOTAL RUN TIME: 0 days 0 hours 0 minutes 7 seconds 422 msec
