                         Program Version 6.0.1  -  RELEASE   -
|  1> ! r2scan-3c def2/J RI DEFGRID2 scfconv6 printgap
|  2> %output
|  3>     printlevel normal
|  4> end
|  5> * xyz 0 1
|  6> C -3.1784184725 -0.3053134741 3.2371e-05
|  7> O -2.0855930289 0.5799688285 -3.04978e-05
|  8> C -0.8267667603 0.060791823 -1.05773e-05
|  9> C -0.5256822965 -1.2978595633 2.71694e-05
| 10> C 0.7985410315 -1.7012637085 3.11775e-05
| 11> C 1.8272729611 -0.7804230837 1.1973e-05
| 12> C 1.5272232102 0.5787264372 -1.25181e-05
| 13> C 0.2058647381 0.994570675 -2.89591e-05
| 14> O 2.4990267112 1.5311435345 -2.25827e-05
| 15> H -4.0671167459 0.3240099629 -0.0001036359
| 16> H -3.1846553411 -0.9380527197 0.8936369804
| 17> H -3.1845670539 -0.9383068025 -0.893390911
| 18> H -1.3035019202 -2.0439982961 5.65116e-05
| 19> H 1.0288435375 -2.7563874848 5.38776e-05
| 20> H 2.8578308339 -1.1085021075 1.97439e-05
| 21> H -0.0268858377 2.0461061727 -5.44136e-05
| 22> H 3.3664974393 1.1088291316 2.10197e-05
| 23> *
| 24>
| 25>                          ****END OF INPUT****

CARTESIAN COORDINATES (ANGSTROEM)
---------------------------------
  C     -3.178418   -0.305313    0.000032
  O     -2.085593    0.579969   -0.000030
  C     -0.826767    0.060792   -0.000011
  C     -0.525682   -1.297860    0.000027
  C      0.798541   -1.701264    0.000031
  C      1.827273   -0.780423    0.000012
  C      1.527223    0.578726   -0.000013
  C      0.205865    0.994571   -0.000029
  O      2.499027    1.531144   -0.000023
  H     -4.067117    0.324010   -0.000104
  H     -3.184655   -0.938053    0.893637
  H     -3.184567   -0.938307   -0.893391
  H     -1.303502   -2.043998    0.000057
  H      1.028844   -2.756387    0.000054
  H      2.857831   -1.108502    0.000020
  H     -0.026886    2.046106   -0.000054
  H      3.366497    1.108829    0.000021

 Total Charge           Charge          ....    0
 Multiplicity           Mult            ....    1
 Number of Electrons    NEL             ....   66
 Basis Dimension        Dim             ....  221

ORBITAL ENERGIES
----------------

  NO   OCC          E(Eh)            E(eV)
   0   2.0000     -18.985273      -516.6155
   1   2.0000     -18.984010      -516.5812
   2   2.0000     -10.096454      -274.7385
   3   2.0000     -10.095692      -274.7177
   4   2.0000     -10.085849      -274.4499
   5   2.0000     -10.038524      -273.1621
   6   2.0000     -10.027979      -272.8752
   7   2.0000     -10.026481      -272.8344
   8   2.0000     -10.022814      -272.7346
   9   2.0000      -1.035517       -28.1779
  10   2.0000      -1.029057       -28.0021
  11   2.0000      -0.819517       -22.3002
  12   2.0000      -0.728996       -19.8370
  13   2.0000      -0.709585       -19.3088
  14   2.0000      -0.666692       -18.1416
  15   2.0000      -0.583274       -15.8717
  16   2.0000      -0.579145       -15.7593
  17   2.0000      -0.521767       -14.1980
  18   2.0000      -0.472741       -12.8639
  19   2.0000      -0.460502       -12.5309
  20   2.0000      -0.451716       -12.2918
  21   2.0000      -0.437990       -11.9183
  22   2.0000      -0.404963       -11.0196
  23   2.0000      -0.389954       -10.6112
  24   2.0000      -0.381381       -10.3779
  25   2.0000      -0.363364        -9.8876
  26   2.0000      -0.344330        -9.3697
  27   2.0000      -0.331064        -9.0087
  28   2.0000      -0.324746        -8.8368
  29   2.0000      -0.297079        -8.0839
  30   2.0000      -0.284016        -7.7285
  31   2.0000      -0.211595        -5.7578
  32   2.0000      -0.199898        -5.4395
  33   0.0000      -0.026547        -0.7224
  34   0.0000      -0.006395        -0.1740
  35   0.0000       0.057560         1.5663
  36   0.0000       0.070269         1.9121
  37   0.0000       0.086840         2.3631

MULLIKEN ATOMIC CHARGES
-----------------------
   0 C :   -0.337240
   1 O :   -0.182730
   2 C :    0.375988
   3 C :   -0.310122
   4 C :   -0.139276
   5 C :   -0.354572
   6 C :    0.468391
   7 C :   -0.475298
   8 O :   -0.411230
   9 H :    0.153774
  10 H :    0.152206
  11 H :    0.152197
  12 H :    0.148227
  13 H :    0.146333
  14 H :    0.136605
  15 H :    0.167427
  16 H :    0.309319
Sum of atomic charges:    0.0000000

LOEWDIN ATOMIC CHARGES
----------------------
   0 C :   -0.056427
   1 O :   -0.679389
   2 C :    0.198367
   3 C :   -0.199592
   4 C :   -0.142241
   5 C :   -0.196869
   6 C :    0.188434
   7 C :   -0.113653
   8 O :   -0.492339
   9 H :    0.179810
  10 H :    0.164335
  11 H :    0.164333
  12 H :    0.174258
  13 H :    0.168691
  14 H :    0.167712
  15 H :    0.192802
  16 H :    0.281769

  Mayer bond orders larger than 0.100000
B(  0-C ,  1-O ) :   0.8624 B(  0-C ,  9-H ) :   0.9679 B(  0-C , 10-H ) :   0.9639
B(  0-C , 11-H ) :   0.9639 B(  1-O ,  2-C ) :   1.0331 B(  2-C ,  3-C ) :   1.3670
B(  2-C ,  7-C ) :   1.3806 B(  3-C ,  4-C ) :   1.4210 B(  3-C , 12-H ) :   0.9249
B(  4-C ,  5-C ) :   1.4469 B(  4-C , 13-H ) :   0.9443 B(  5-C ,  6-C ) :   1.3103
B(  5-C , 14-H ) :   0.9355 B(  6-C ,  7-C ) :   1.3880 B(  6-C ,  8-O ) :   0.9040
B(  7-C ,  8-O ) :   0.1183 B(  7-C , 15-H ) :   0.9521 B(  8-O , 16-H ) :   0.8855

Dispersion correction           -0.005302625
FINAL SINGLE POINT ENERGY      -421.902693533960

DIPOLE MOMENT
-------------

Method             : SCF
Type of density    : Electron Density
Multiplicity       :   1
Irrep              :   0
Energy             :  -421.9055223953222367 Eh
Relativity type    :
Basis              : AO
                                X                 Y                 Z
Electronic contribution:      4.217873778       3.283108088      -0.000171504
Nuclear contribution   :     -4.228359109      -4.008771848       0.000223598
                        -----------------------------------------
Total Dipole Moment    :     -0.010485332      -0.725663761       0.000052094
                        -----------------------------------------
Magnitude (a.u.)       :      0.725739512
Magnitude (Debye)      :      1.844683239

Rotational constants in cm-1:             0.122694             0.037733             0.029018
Rotational constants in MHz :          3678.265319          1131.217930           869.942893

                             ****ORCA TERMINATED NORMALLY****
TOTAL RUN TIME: 0 days 0 hours 0 minutes 23 seconds 541 msec
