                         Program Version 6.0.1  -  RELEASE   -
|  1> ! r2scan-3c def2/J RI DEFGRID2 scfconv6 printgap
|  2> %output
|  3>     printlevel normal
|  4> end
|  5> * xyz 0 1
|  6> C 1.6198567398 -9.1551e-06 -8.053e-07
|  7> Br -0.3175261986 -9.325e-07 4.3e-09
|  8> H 1.9562608769 0.9535315293 -0.3938737356
|  9> H 1.956398431 -0.1355430658 1.022613448
| 10> H 1.9564884965 -0.8178054372 -0.6287304588
| 11> *
| 12>
| 13>                          ****END OF INPUT****

CARTESIAN COORDINATES (ANGSTROEM)
---------------------------------
  C      1.619857   -0.000009   -0.000001
  Br    -0.317526   -0.000001    0.000000
  H      1.956261    0.953532   -0.393874
  H      1.956398   -0.135543    1.022613
  H      1.956488   -0.817805   -0.628730

 Total Charge           Charge          ....    0
 Multiplicity           Mult            ....    1
 Number of Electrons    NEL             ....   44
 Basis Dimension        Dim             ....   70

ORBITAL ENERGIES
----------------

  NO   OCC          E(Eh)            E(eV)
   0   2.0000    -482.218109    -13121.8218
   1   2.0000     -62.290118     -1695.0003
   2   2.0000     -56.070707     -1525.7615
   3   2.0000     -56.067762     -1525.6814
   4   2.0000     -56.067762     -1525.6814
   5   2.0000     -10.089528      -274.5500
   6   2.0000      -8.622363      -234.6264
   7   2.0000      -6.430361      -174.9790
   8   2.0000      -6.415859      -174.5844
   9   2.0000      -6.415859      -174.5844
  10   2.0000      -2.527798       -68.7849
  11   2.0000      -2.524157       -68.6858
  12   2.0000      -2.524157       -68.6858
  13   2.0000      -2.513366       -68.3922
  14   2.0000      -2.513360       -68.3920
  15   2.0000      -0.773997       -21.0615
  16   2.0000      -0.640121       -17.4186
  17   2.0000      -0.417476       -11.3601
  18   2.0000      -0.417468       -11.3599
  19   2.0000      -0.369330       -10.0500
  20   2.0000      -0.253870        -6.9082
  21   2.0000      -0.253866        -6.9080
  22   0.0000      -0.024983        -0.6798
  23   0.0000       0.099671         2.7122
  24   0.0000       0.158148         4.3034
  25   0.0000       0.158168         4.3040
  26   0.0000       0.188981         5.1424

MULLIKEN ATOMIC CHARGES
-----------------------
   0 C :   -0.333214
   1 Br:   -0.163805
   2 H :    0.165668
   3 H :    0.165672
   4 H :    0.165680
Sum of atomic charges:   -0.0000000

LOEWDIN ATOMIC CHARGES
----------------------
   0 C :   -0.512831
   1 Br:    0.054110
   2 H :    0.152916
   3 H :    0.152900
   4 H :    0.152906

  Mayer bond orders larger than 0.100000
B(  0-C ,  1-Br) :   0.9770 B(  0-C ,  2-H ) :   0.9583 B(  0-C ,  3-H ) :   0.9583
B(  0-C ,  4-H ) :   0.9583

Dispersion correction           -0.000609161
FINAL SINGLE POINT ENERGY     -2614.030130364860

DIPOLE MOMENT
-------------

Method             : SCF
Type of density    : Electron Density
Multiplicity       :   1
Irrep              :   0
Energy             : -2614.0326286438676107 Eh
Relativity type    :
Basis              : AO
                                X                 Y                 Z
Electronic contribution:     -7.644412162      -0.000155989       0.000002530
Nuclear contribution   :      8.454654772       0.000180371       0.000008641
                        -----------------------------------------
Total Dipole Moment    :      0.810242611       0.000024381       0.000011172
                        -----------------------------------------
Magnitude (a.u.)       :      0.810242611
Magnitude (Debye)      :      2.059473048

Rotational constants in cm-1:             5.238356             0.319546             0.319545
Rotational constants in MHz :        157041.963792          9579.755515          9579.714649

                             ****ORCA TERMINATED NORMALLY****
TOTAL RUN TIME: 0 days 0 hours 0 minutes 11 seconds 689 msec
