                         Program Version 6.0.1  -  RELEASE   -
|  1> ! pbe def2-sv(p) def2/J RI DEFGRID1 loosescf d4 GCP(DFT/SV(P)) printgap
|  2> %output
|  3>     printlevel normal
|  4> end
|  5> * xyz 0 1
|  6> C -3.0480308424 -0.8032831754 0.4735765239
|  7> C -1.9211146154 -0.4456086989 -0.4952615124
|  8> H -2.3525313535 -0.3870406072 -1.5033171308
|  9> C -0.7891094353 -1.4788984351 -0.4918930964
| 10> C 0.1955799849 -1.1888042694 0.6356577137
| 11> C 0.8976577373 0.1762020104 0.4559559823
| 12> H 0.9396842128 0.6639497018 1.4345410956
| 13> C 0.0876881957 1.0969409269 -0.4756652154
| 14> C -1.3862548084 0.9465521556 -0.2019752534
| 15> O -2.0803892216 1.8471191438 0.1980735491
| 16> C 2.3222561827 -0.0102994634 -0.0239511102
| 17> C 2.6406447329 -0.3550429133 -1.2609952463
| 18> C 3.3660636036 0.1779263546 1.03458135
| 19> H -2.6561634668 -0.9548919143 1.4765235265
| 20> H -3.7700011072 0.0084153574 0.510657252
| 21> H -3.5532785872 -1.7121732693 0.1556991515
| 22> H -1.2130955745 -2.4766009493 -0.3623457148
| 23> H -0.2605762595 -1.4721965481 -1.445891502
| 24> H -0.3475546783 -1.1942854502 1.5825382539
| 25> H 0.9455871277 -1.9804406259 0.6815749027
| 26> H 0.388776398 2.1348730307 -0.3285333811
| 27> H 0.2690346176 0.8281789438 -1.5162721134
| 28> H 3.6651037286 -0.5058886994 -1.5559210934
| 29> H 1.9090377011 -0.5057399095 -2.0358444641
| 30> H 3.3450936918 1.2034254913 1.4027434603
| 31> H 3.1668088143 -0.4811853933 1.8792904756
| 32> H 4.3602601664 -0.0344418837 0.650879434
| 33> *
| 34>
| 35>                          ****END OF INPUT****

CARTESIAN COORDINATES (ANGSTROEM)
---------------------------------
  C     -3.048031   -0.803283    0.473577
  C     -1.921115   -0.445609   -0.495262
  H     -2.352531   -0.387041   -1.503317
  C     -0.789109   -1.478898   -0.491893
  C      0.195580   -1.188804    0.635658
  C      0.897658    0.176202    0.455956
  H      0.939684    0.663950    1.434541
  C      0.087688    1.096941   -0.475665
  C     -1.386255    0.946552   -0.201975
  O     -2.080389    1.847119    0.198074
  C      2.322256   -0.010299   -0.023951
  C      2.640645   -0.355043   -1.260995
  C      3.366064    0.177926    1.034581
  H     -2.656163   -0.954892    1.476524
  H     -3.770001    0.008415    0.510657
  H     -3.553279   -1.712173    0.155699
  H     -1.213096   -2.476601   -0.362346
  H     -0.260576   -1.472197   -1.445892
  H     -0.347555   -1.194285    1.582538
  H      0.945587   -1.980441    0.681575
  H      0.388776    2.134873   -0.328533
  H      0.269035    0.828179   -1.516272
  H      3.665104   -0.505889   -1.555921
  H      1.909038   -0.505740   -2.035844
  H      3.345094    1.203425    1.402743
  H      3.166809   -0.481185    1.879290
  H      4.360260   -0.034442    0.650879

 Total Charge           Charge          ....    0
 Multiplicity           Mult            ....    1
 Number of Electrons    NEL             ....   84
 Basis Dimension        Dim             ....  186

ORBITAL ENERGIES
----------------

  NO   OCC          E(Eh)            E(eV)
   0   2.0000     -18.739658      -509.9320
   1   2.0000      -9.968573      -271.2587
   2   2.0000      -9.909583      -269.6535
   3   2.0000      -9.905423      -269.5403
   4   2.0000      -9.902022      -269.4477
   5   2.0000      -9.893700      -269.2213
   6   2.0000      -9.893616      -269.2190
   7   2.0000      -9.892498      -269.1886
   8   2.0000      -9.887590      -269.0550
   9   2.0000      -9.877854      -268.7901
  10   2.0000      -9.877759      -268.7875
  11   2.0000      -0.939729       -25.5713
  12   2.0000      -0.773476       -21.0473
  13   2.0000      -0.729975       -19.8636
  14   2.0000      -0.683772       -18.6064
  15   2.0000      -0.658055       -17.9066
  16   2.0000      -0.619175       -16.8486
  17   2.0000      -0.610931       -16.6243
  18   2.0000      -0.550647       -14.9839
  19   2.0000      -0.537633       -14.6297
  20   2.0000      -0.471111       -12.8196
  21   2.0000      -0.456406       -12.4194
  22   2.0000      -0.448082       -12.1929
  23   2.0000      -0.427923       -11.6444
  24   2.0000      -0.416443       -11.3320
  25   2.0000      -0.402501       -10.9526
  26   2.0000      -0.389392       -10.5959
  27   2.0000      -0.379036       -10.3141
  28   2.0000      -0.363958        -9.9038
  29   2.0000      -0.360746        -9.8164
  30   2.0000      -0.353397        -9.6164
  31   2.0000      -0.349657        -9.5147
  32   2.0000      -0.334348        -9.0981
  33   2.0000      -0.329323        -8.9613
  34   2.0000      -0.327461        -8.9107
  35   2.0000      -0.314314        -8.5529
  36   2.0000      -0.306180        -8.3316
  37   2.0000      -0.289309        -7.8725
  38   2.0000      -0.278122        -7.5681
  39   2.0000      -0.277189        -7.5427
  40   2.0000      -0.223546        -6.0830
  41   2.0000      -0.191047        -5.1987
  42   0.0000      -0.050983        -1.3873
  43   0.0000      -0.017013        -0.4629
  44   0.0000       0.027947         0.7605
  45   0.0000       0.037178         1.0117
  46   0.0000       0.053689         1.4609

MULLIKEN ATOMIC CHARGES
-----------------------
   0 C :   -0.243167
   1 C :   -0.186978
   2 H :    0.101087
   3 C :   -0.103434
   4 C :   -0.111285
   5 C :   -0.170791
   6 H :    0.067023
   7 C :   -0.038262
   8 C :   -0.006893
   9 O :   -0.150459
  10 C :   -0.036721
  11 C :   -0.257321
  12 C :   -0.214743
  13 H :    0.100462
  14 H :    0.120296
  15 H :    0.098150
  16 H :    0.088391
  17 H :    0.078084
  18 H :    0.087203
  19 H :    0.094925
  20 H :    0.087346
  21 H :    0.091920
  22 H :    0.086449
  23 H :    0.096018
  24 H :    0.114930
  25 H :    0.109663
  26 H :    0.098106
Sum of atomic charges:   -0.0000000

LOEWDIN ATOMIC CHARGES
----------------------
   0 C :   -0.326568
   1 C :   -0.176768
   2 H :    0.142501
   3 C :   -0.217277
   4 C :   -0.213012
   5 C :   -0.124906
   6 H :    0.122785
   7 C :   -0.228903
   8 C :    0.047627
   9 O :   -0.119476
  10 C :   -0.046128
  11 C :   -0.271084
  12 C :   -0.320307
  13 H :    0.117991
  14 H :    0.127972
  15 H :    0.118774
  16 H :    0.122394
  17 H :    0.116529
  18 H :    0.118749
  19 H :    0.124960
  20 H :    0.131121
  21 H :    0.136158
  22 H :    0.120467
  23 H :    0.114200
  24 H :    0.130826
  25 H :    0.128113
  26 H :    0.123261

  Mayer bond orders larger than 0.100000
B(  0-C ,  1-C ) :   1.1221 B(  0-C , 13-H ) :   0.9499 B(  0-C , 14-H ) :   0.9357
B(  0-C , 15-H ) :   0.9461 B(  1-C ,  2-H ) :   0.8589 B(  1-C ,  3-C ) :   1.0754
B(  1-C ,  8-C ) :   0.9168 B(  3-C ,  4-C ) :   1.1796 B(  3-C , 16-H ) :   0.9135
B(  3-C , 17-H ) :   0.8845 B(  4-C ,  5-C ) :   1.0640 B(  4-C , 18-H ) :   0.9019
B(  4-C , 19-H ) :   0.9110 B(  5-C ,  6-H ) :   0.8862 B(  5-C ,  7-C ) :   1.0899
B(  5-C , 10-C ) :   0.9933 B(  7-C ,  8-C ) :   1.0820 B(  7-C , 20-H ) :   0.8939
B(  7-C , 21-H ) :   0.8593 B(  8-C ,  9-O ) :   2.2036 B( 10-C , 11-C ) :   2.0362
B( 10-C , 12-C ) :   1.1300 B( 11-C , 22-H ) :   0.9009 B( 11-C , 23-H ) :   0.9037
B( 12-C , 24-H ) :   0.9282 B( 12-C , 25-H ) :   0.9287 B( 12-C , 26-H ) :   0.9405

Dispersion correction           -0.028747305
FINAL SINGLE POINT ENERGY      -464.822565591843

DIPOLE MOMENT
-------------

Method             : SCF
Type of density    : Electron Density
Multiplicity       :   1
Irrep              :   0
Energy             :  -464.9080867839998064 Eh
Relativity type    :
Basis              : AO
                                X                 Y                 Z
Electronic contribution:     -3.919445732       5.637558842      -1.085619061
Nuclear contribution   :      4.506297755      -6.414101073       0.965798298
                        -----------------------------------------
Total Dipole Moment    :      0.586852024      -0.776542231      -0.119820763
                        -----------------------------------------
Magnitude (a.u.)       :      0.980698807
Magnitude (Debye)      :      2.492738265

Rotational constants in cm-1:             0.070401             0.023067             0.020730
Rotational constants in MHz :          2110.580747           691.542985           621.481957

                             ****ORCA TERMINATED NORMALLY****
TOTAL RUN TIME: 0 days 0 hours 0 minutes 26 seconds 446 msec
