                         Program Version 6.0.1  -  RELEASE   -
|  1> ! pbe def2-sv(p) def2/J RI DEFGRID1 loosescf d4 GCP(DFT/SV(P)) printgap
|  2> %output
|  3>     printlevel normal
|  4> end
|  5> * xyz 0 1
|  6> C 1.1410951237 -1.4137290445 -0.3913849184
|  7> C 0.6842016453 -0.2005996625 0.4244354096
|  8> C 1.6548829229 0.9640026486 0.2546801116
|  9> C -0.7232580809 0.2085187758 0.0116394145
| 10> O -0.9753726972 1.2885717252 -0.4575367333
| 11> C -1.7886612161 -0.8418229436 0.2195940227
| 12> H 0.5121306263 -2.2798050553 -0.2039397707
| 13> H 1.1127191941 -1.1831210718 -1.4541738677
| 14> H 2.1639740968 -1.6704759498 -0.1251721607
| 15> H 0.6424835858 -0.4855602289 1.4824930291
| 16> H 1.3170417668 1.8232430221 0.8283138657
| 17> H 1.7067148491 1.2569862052 -0.7909341584
| 18> H 2.6496548446 0.6837309102 0.5923241633
| 19> H -2.7615155984 -0.3641157895 0.3039305685
| 20> H -1.5901519177 -1.4467421953 1.0993602225
| 21> H -1.8086102045 -1.4920839027 -0.6536860402
| 22> *
| 23>
| 24>                          ****END OF INPUT****

CARTESIAN COORDINATES (ANGSTROEM)
---------------------------------
  C      1.141095   -1.413729   -0.391385
  C      0.684202   -0.200600    0.424435
  C      1.654883    0.964003    0.254680
  C     -0.723258    0.208519    0.011639
  O     -0.975373    1.288572   -0.457537
  C     -1.788661   -0.841823    0.219594
  H      0.512131   -2.279805   -0.203940
  H      1.112719   -1.183121   -1.454174
  H      2.163974   -1.670476   -0.125172
  H      0.642484   -0.485560    1.482493
  H      1.317042    1.823243    0.828314
  H      1.706715    1.256986   -0.790934
  H      2.649655    0.683731    0.592324
  H     -2.761516   -0.364116    0.303931
  H     -1.590152   -1.446742    1.099360
  H     -1.808610   -1.492084   -0.653686

 Total Charge           Charge          ....    0
 Multiplicity           Mult            ....    1
 Number of Electrons    NEL             ....   48
 Basis Dimension        Dim             ....  104

ORBITAL ENERGIES
----------------

  NO   OCC          E(Eh)            E(eV)
   0   2.0000     -18.738696      -509.9058
   1   2.0000      -9.970032      -271.2984
   2   2.0000      -9.903415      -269.4856
   3   2.0000      -9.889165      -269.0978
   4   2.0000      -9.885227      -268.9907
   5   2.0000      -9.872244      -268.6374
   6   2.0000      -0.940719       -25.5983
   7   2.0000      -0.729783       -19.8584
   8   2.0000      -0.664314       -18.0769
   9   2.0000      -0.615618       -16.7518
  10   2.0000      -0.554471       -15.0879
  11   2.0000      -0.461125       -12.5478
  12   2.0000      -0.427486       -11.6325
  13   2.0000      -0.413541       -11.2530
  14   2.0000      -0.397753       -10.8234
  15   2.0000      -0.379475       -10.3260
  16   2.0000      -0.360514        -9.8101
  17   2.0000      -0.352115        -9.5815
  18   2.0000      -0.343637        -9.3508
  19   2.0000      -0.317440        -8.6380
  20   2.0000      -0.313033        -8.5181
  21   2.0000      -0.299882        -8.1602
  22   2.0000      -0.299379        -8.1465
  23   2.0000      -0.194971        -5.3054
  24   0.0000      -0.046906        -1.2764
  25   0.0000       0.028772         0.7829
  26   0.0000       0.066757         1.8165
  27   0.0000       0.070866         1.9284
  28   0.0000       0.094644         2.5754

MULLIKEN ATOMIC CHARGES
-----------------------
   0 C :   -0.267932
   1 C :   -0.198748
   2 C :   -0.224476
   3 C :    0.004949
   4 O :   -0.155892
   5 C :   -0.254098
   6 H :    0.108468
   7 H :    0.110071
   8 H :    0.112975
   9 H :    0.092601
  10 H :    0.107288
  11 H :    0.103157
  12 H :    0.094005
  13 H :    0.120045
  14 H :    0.113334
  15 H :    0.134252
Sum of atomic charges:   -0.0000000

LOEWDIN ATOMIC CHARGES
----------------------
   0 C :   -0.323056
   1 C :   -0.186466
   2 C :   -0.328610
   3 C :    0.045807
   4 O :   -0.118827
   5 C :   -0.364688
   6 H :    0.118652
   7 H :    0.123492
   8 H :    0.124834
   9 H :    0.129633
  10 H :    0.123997
  11 H :    0.123443
  12 H :    0.116725
  13 H :    0.137223
  14 H :    0.130322
  15 H :    0.147518

  Mayer bond orders larger than 0.100000
B(  0-C ,  1-C ) :   1.0867 B(  0-C ,  6-H ) :   0.9447 B(  0-C ,  7-H ) :   0.9501
B(  0-C ,  8-H ) :   0.9504 B(  1-C ,  2-C ) :   1.1260 B(  1-C ,  3-C ) :   0.9322
B(  1-C ,  9-H ) :   0.8782 B(  2-C , 10-H ) :   0.9479 B(  2-C , 11-H ) :   0.9479
B(  2-C , 12-H ) :   0.9472 B(  3-C ,  4-O ) :   2.2089 B(  3-C ,  5-C ) :   1.0687
B(  5-C , 13-H ) :   0.9313 B(  5-C , 14-H ) :   0.9356 B(  5-C , 15-H ) :   0.9195

Dispersion correction           -0.011856591
FINAL SINGLE POINT ENERGY      -271.143295302657

DIPOLE MOMENT
-------------

Method             : SCF
Type of density    : Electron Density
Multiplicity       :   1
Irrep              :   0
Energy             :  -271.1973748263363859 Eh
Relativity type    :
Basis              : AO
                                X                 Y                 Z
Electronic contribution:     -3.467539729       3.909217940      -0.673378877
Nuclear contribution   :      3.686071079      -4.819891900       1.005039758
                        -----------------------------------------
Total Dipole Moment    :      0.218531351      -0.910673960       0.331660881
                        -----------------------------------------
Magnitude (a.u.)       :      0.993519981
Magnitude (Debye)      :      2.525327102

Rotational constants in cm-1:             0.157196             0.103709             0.071115
Rotational constants in MHz :          4712.613313          3109.113711          2131.973304

                             ****ORCA TERMINATED NORMALLY****
TOTAL RUN TIME: 0 days 0 hours 0 minutes 4 seconds 840 msec
