                         Program Version 6.0.1  -  RELEASE   -
|  1> ! r2scan-3c def2/J RI DEFGRID2 scfconv6 printgap
|  2> %output
|  3>     printlevel normal
|  4> end
|  5> * xyz 0 1
|  6> C -3.9860552352 -0.8548889858 1.0451194238
|  7> N -3.3194215216 -0.9370666519 -0.2313077121
|  8> C -2.1504648474 -0.3437599684 -0.5626203717
|  9> O -1.682325375 -0.367602826 -1.6722882773
| 10> O -1.5728480725 0.2616785045 0.507083129
| 11> C -0.3051034208 0.8067576501 0.3091580951
| 12> C -0.174478984 2.1686717633 0.2777066332
| 13> C 1.091577414 2.7498125837 0.121599718
| 14> C 2.2000409014 1.9633755403 -0.0131024937
| 15> C 2.0948114543 0.5571912376 0.0159153209
| 16> C 0.8200560206 -0.0450997721 0.1878018024
| 17> C 0.7260819363 -1.4508480977 0.237629344
| 18> C 1.8424732278 -2.2277830023 0.10426804
| 19> C 3.1014156629 -1.6367950207 -0.079161781
| 20> C 3.2246105192 -0.2764527626 -0.1183611235
| 21> H -4.7728121515 -0.0950380758 1.0361325917
| 22> H -3.2560326578 -0.5952727008 1.8075209946
| 23> H -4.429924925 -1.8209494042 1.2863039493
| 24> H -3.8369835808 -1.3151930998 -1.0096154738
| 25> H -1.0529174793 2.7888961194 0.3706914905
| 26> H 1.1750558467 3.8260082136 0.0987077122
| 27> H 3.1762665418 2.4069900116 -0.1451515729
| 28> H -0.2410643325 -1.9095709321 0.3819167153
| 29> H 1.7617027925 -3.304237623 0.1397877777
| 30> H 3.97218956 -2.2670787165 -0.1860878105
| 31> H 4.1927365588 0.184296376 -0.2538404528
| 32> *
| 33>
| 34>                          ****END OF INPUT****

CARTESIAN COORDINATES (ANGSTROEM)
---------------------------------
  C     -3.986055   -0.854889    1.045119
  N     -3.319422   -0.937067   -0.231308
  C     -2.150465   -0.343760   -0.562620
  O     -1.682325   -0.367603   -1.672288
  O     -1.572848    0.261679    0.507083
  C     -0.305103    0.806758    0.309158
  C     -0.174479    2.168672    0.277707
  C      1.091577    2.749813    0.121600
  C      2.200041    1.963376   -0.013102
  C      2.094811    0.557191    0.015915
  C      0.820056   -0.045100    0.187802
  C      0.726082   -1.450848    0.237629
  C      1.842473   -2.227783    0.104268
  C      3.101416   -1.636795   -0.079162
  C      3.224611   -0.276453   -0.118361
  H     -4.772812   -0.095038    1.036133
  H     -3.256033   -0.595273    1.807521
  H     -4.429925   -1.820949    1.286304
  H     -3.836984   -1.315193   -1.009615
  H     -1.052917    2.788896    0.370691
  H      1.175056    3.826008    0.098708
  H      3.176267    2.406990   -0.145152
  H     -0.241064   -1.909571    0.381917
  H      1.761703   -3.304238    0.139788
  H      3.972190   -2.267079   -0.186088
  H      4.192737    0.184296   -0.253840

 Total Charge           Charge          ....    0
 Multiplicity           Mult            ....    1
 Number of Electrons    NEL             ....  106
 Basis Dimension        Dim             ....  355

ORBITAL ENERGIES
----------------

  NO   OCC          E(Eh)            E(eV)
   0   2.0000     -19.005912      -517.1772
   1   2.0000     -18.915283      -514.7110
   2   2.0000     -14.193217      -386.2171
   3   2.0000     -10.174363      -276.8585
   4   2.0000     -10.101377      -274.8724
   5   2.0000     -10.072731      -274.0929
   6   2.0000     -10.049456      -273.4596
   7   2.0000     -10.048677      -273.4384
   8   2.0000     -10.040306      -273.2106
   9   2.0000     -10.039270      -273.1824
  10   2.0000     -10.038058      -273.1495
  11   2.0000     -10.037679      -273.1391
  12   2.0000     -10.036909      -273.1182
  13   2.0000     -10.036851      -273.1166
  14   2.0000     -10.036445      -273.1056
  15   2.0000      -1.083319       -29.4786
  16   2.0000      -0.985618       -26.8200
  17   2.0000      -0.902702       -24.5638
  18   2.0000      -0.847740       -23.0682
  19   2.0000      -0.796529       -21.6747
  20   2.0000      -0.746390       -20.3103
  21   2.0000      -0.717537       -19.5252
  22   2.0000      -0.700764       -19.0688
  23   2.0000      -0.681477       -18.5439
  24   2.0000      -0.625711       -17.0265
  25   2.0000      -0.594456       -16.1760
  26   2.0000      -0.589959       -16.0536
  27   2.0000      -0.546502       -14.8711
  28   2.0000      -0.510893       -13.9021
  29   2.0000      -0.490637       -13.3509
  30   2.0000      -0.474395       -12.9089
  31   2.0000      -0.468431       -12.7467
  32   2.0000      -0.466534       -12.6950
  33   2.0000      -0.443522       -12.0688
  34   2.0000      -0.426133       -11.5957
  35   2.0000      -0.420061       -11.4304
  36   2.0000      -0.401659       -10.9297
  37   2.0000      -0.398061       -10.8318
  38   2.0000      -0.384723       -10.4689
  39   2.0000      -0.382594       -10.4109
  40   2.0000      -0.376387       -10.2420
  41   2.0000      -0.370474       -10.0811
  42   2.0000      -0.358776        -9.7628
  43   2.0000      -0.348936        -9.4950
  44   2.0000      -0.319336        -8.6896
  45   2.0000      -0.311336        -8.4719
  46   2.0000      -0.307292        -8.3618
  47   2.0000      -0.284517        -7.7421
  48   2.0000      -0.260736        -7.0950
  49   2.0000      -0.244230        -6.6458
  50   2.0000      -0.235652        -6.4124
  51   2.0000      -0.231935        -6.3113
  52   2.0000      -0.202008        -5.4969
  53   0.0000      -0.068401        -1.8613
  54   0.0000      -0.038423        -1.0455
  55   0.0000      -0.000793        -0.0216
  56   0.0000       0.025039         0.6813
  57   0.0000       0.050901         1.3851

MULLIKEN ATOMIC CHARGES
-----------------------
   0 C :   -0.382398
   1 N :   -0.111903
   2 C :    0.237049
   3 O :   -0.427606
   4 O :   -0.199130
   5 C :    0.285349
   6 C :   -0.259047
   7 C :   -0.131901
   8 C :   -0.268223
   9 C :    0.189659
  10 C :    0.054996
  11 C :   -0.209748
  12 C :   -0.168591
  13 C :   -0.142883
  14 C :   -0.220027
  15 H :    0.146973
  16 H :    0.180395
  17 H :    0.146310
  18 H :    0.251703
  19 H :    0.156560
  20 H :    0.146983
  21 H :    0.144369
  22 H :    0.147051
  23 H :    0.145195
  24 H :    0.145184
  25 H :    0.143683
Sum of atomic charges:    0.0000000

LOEWDIN ATOMIC CHARGES
----------------------
   0 C :   -0.112770
   1 N :   -0.604084
   2 C :    0.445859
   3 O :   -0.384918
   4 O :   -0.523148
   5 C :    0.221587
   6 C :   -0.119282
   7 C :   -0.155342
   8 C :   -0.146299
   9 C :   -0.051279
  10 C :   -0.016880
  11 C :   -0.118376
  12 C :   -0.158847
  13 C :   -0.160388
  14 C :   -0.141966
  15 H :    0.165480
  16 H :    0.199302
  17 H :    0.171875
  18 H :    0.278064
  19 H :    0.180776
  20 H :    0.169829
  21 H :    0.171293
  22 H :    0.181856
  23 H :    0.168422
  24 H :    0.168075
  25 H :    0.171162

  Mayer bond orders larger than 0.100000
B(  0-C ,  1-N ) :   0.8739 B(  0-C , 15-H ) :   0.9579 B(  0-C , 16-H ) :   0.9627
B(  0-C , 17-H ) :   0.9683 B(  1-N ,  2-C ) :   1.2398 B(  1-N , 18-H ) :   0.9169
B(  2-C ,  3-O ) :   1.9229 B(  2-C ,  4-O ) :   1.0084 B(  4-O ,  5-C ) :   0.9420
B(  5-C ,  6-C ) :   1.5162 B(  5-C , 10-C ) :   1.2839 B(  6-C ,  7-C ) :   1.2215
B(  6-C , 19-H ) :   0.9306 B(  7-C ,  8-C ) :   1.5104 B(  7-C , 20-H ) :   0.9511
B(  8-C ,  9-C ) :   1.1752 B(  8-C , 21-H ) :   0.9446 B(  9-C , 10-C ) :   1.3998
B(  9-C , 14-C ) :   1.1806 B( 10-C , 11-C ) :   1.2663 B( 11-C , 12-C ) :   1.5174
B( 11-C , 22-H ) :   0.9457 B( 12-C , 13-C ) :   1.2612 B( 12-C , 23-H ) :   0.9478
B( 13-C , 14-C ) :   1.5145 B( 13-C , 24-H ) :   0.9487 B( 14-C , 25-H ) :   0.9496

Dispersion correction           -0.010939877
FINAL SINGLE POINT ENERGY      -668.975912559568

DIPOLE MOMENT
-------------

Method             : SCF
Type of density    : Electron Density
Multiplicity       :   1
Irrep              :   0
Energy             :  -668.9797368759546998 Eh
Relativity type    :
Basis              : AO
                                X                 Y                 Z
Electronic contribution:      2.552865906       1.816155593      -2.513579104
Nuclear contribution   :     -3.173456833      -1.977952768       3.289808485
                        -----------------------------------------
Total Dipole Moment    :     -0.620590927      -0.161797176       0.776229381
                        -----------------------------------------
Magnitude (a.u.)       :      1.006897948
Magnitude (Debye)      :      2.559331190

Rotational constants in cm-1:             0.035638             0.015186             0.011797
Rotational constants in MHz :          1068.403838           455.261677           353.656674

                             ****ORCA TERMINATED NORMALLY****
TOTAL RUN TIME: 0 days 0 hours 0 minutes 46 seconds 154 msec
