                         Program Version 6.0.1  -  RELEASE   -
|  1> ! pbe def2-sv(p) def2/J RI DEFGRID1 loosescf d4 GCP(DFT/SV(P)) printgap
|  2> %output
|  3>     printlevel normal
|  4> end
|  5> * xyz 0 1
|  6> C -2.2826587712 1.2636312667 0.2151171834
|  7> C -1.4216833844 0.0642235313 -0.1785125663
|  8> C -2.2528071268 -1.2163441468 -0.1163307935
|  9> C -0.1765853323 -0.0392201869 0.7244088881
| 10> C 1.1861241501 -0.0212960448 0.0074923618
| 11> C 1.304695459 -1.1888666449 -0.9742222228
| 12> C 1.3933949681 1.3035840405 -0.7298572744
| 13> C 2.28138131 -0.1639715611 1.0705914394
| 14> H -2.634499083 1.1597496226 1.2397400109
| 15> H -1.7125376271 2.1866712344 0.1369279067
| 16> H -3.1505472185 1.3423380918 -0.4368688508
| 17> H -1.1104580951 0.2081674979 -1.2167606289
| 18> H -1.6578296492 -2.075882466 -0.4157810886
| 19> H -2.6173745805 -1.3837266338 0.8954115957
| 20> H -3.1122350972 -1.1476784703 -0.7806073779
| 21> H -0.1853262779 0.7875092942 1.4380076867
| 22> H -0.236924517 -0.9609076275 1.3072087584
| 23> H 1.1644343033 -2.1357447681 -0.4571035135
| 24> H 2.2907180778 -1.1946591127 -1.4344111239
| 25> H 0.5640789732 -1.1178501606 -1.7663041437
| 26> H 0.6477093079 1.4462649713 -1.5073583661
| 27> H 2.3756438807 1.3252592852 -1.1970810689
| 28> H 1.3271096683 2.1386200644 -0.0356580745
| 29> H 2.2288537219 0.6514642564 1.7888446512
| 30> H 3.2660491454 -0.1481582369 0.6084246177
| 31> H 2.1734488452 -1.1021751988 1.6106785173
| 32> *
| 33>
| 34>                          ****END OF INPUT****

CARTESIAN COORDINATES (ANGSTROEM)
---------------------------------
  C     -2.282659    1.263631    0.215117
  C     -1.421683    0.064224   -0.178513
  C     -2.252807   -1.216344   -0.116331
  C     -0.176585   -0.039220    0.724409
  C      1.186124   -0.021296    0.007492
  C      1.304695   -1.188867   -0.974222
  C      1.393395    1.303584   -0.729857
  C      2.281381   -0.163972    1.070591
  H     -2.634499    1.159750    1.239740
  H     -1.712538    2.186671    0.136928
  H     -3.150547    1.342338   -0.436869
  H     -1.110458    0.208167   -1.216761
  H     -1.657830   -2.075882   -0.415781
  H     -2.617375   -1.383727    0.895412
  H     -3.112235   -1.147678   -0.780607
  H     -0.185326    0.787509    1.438008
  H     -0.236925   -0.960908    1.307209
  H      1.164434   -2.135745   -0.457104
  H      2.290718   -1.194659   -1.434411
  H      0.564079   -1.117850   -1.766304
  H      0.647709    1.446265   -1.507358
  H      2.375644    1.325259   -1.197081
  H      1.327110    2.138620   -0.035658
  H      2.228854    0.651464    1.788845
  H      3.266049   -0.148158    0.608425
  H      2.173449   -1.102175    1.610679

 Total Charge           Charge          ....    0
 Multiplicity           Mult            ....    1
 Number of Electrons    NEL             ....   66
 Basis Dimension        Dim             ....  148

ORBITAL ENERGIES
----------------

  NO   OCC          E(Eh)            E(eV)
   0   2.0000      -9.902631      -269.4643
   1   2.0000      -9.889038      -269.0944
   2   2.0000      -9.874371      -268.6953
   3   2.0000      -9.868770      -268.5429
   4   2.0000      -9.868742      -268.5421
   5   2.0000      -9.868165      -268.5264
   6   2.0000      -9.868123      -268.5253
   7   2.0000      -9.867674      -268.5131
   8   2.0000      -0.749055       -20.3828
   9   2.0000      -0.705783       -19.2053
  10   2.0000      -0.612762       -16.6741
  11   2.0000      -0.609532       -16.5862
  12   2.0000      -0.603845       -16.4315
  13   2.0000      -0.600727       -16.3466
  14   2.0000      -0.501913       -13.6577
  15   2.0000      -0.469373       -12.7723
  16   2.0000      -0.419220       -11.4075
  17   2.0000      -0.406138       -11.0516
  18   2.0000      -0.394987       -10.7482
  19   2.0000      -0.378381       -10.2963
  20   2.0000      -0.372279       -10.1302
  21   2.0000      -0.369208       -10.0467
  22   2.0000      -0.338547        -9.2123
  23   2.0000      -0.337854        -9.1935
  24   2.0000      -0.335486        -9.1290
  25   2.0000      -0.317447        -8.6382
  26   2.0000      -0.310971        -8.4619
  27   2.0000      -0.304264        -8.2794
  28   2.0000      -0.292713        -7.9651
  29   2.0000      -0.284875        -7.7518
  30   2.0000      -0.271060        -7.3759
  31   2.0000      -0.264766        -7.2046
  32   2.0000      -0.259336        -7.0569
  33   0.0000       0.027391         0.7453
  34   0.0000       0.055872         1.5204
  35   0.0000       0.063405         1.7253
  36   0.0000       0.071217         1.9379
  37   0.0000       0.081097         2.2068

MULLIKEN ATOMIC CHARGES
-----------------------
   0 C :   -0.253474
   1 C :   -0.174825
   2 C :   -0.254991
   3 C :   -0.055836
   4 C :   -0.282833
   5 C :   -0.211004
   6 C :   -0.211064
   7 C :   -0.203936
   8 H :    0.095905
   9 H :    0.099655
  10 H :    0.093491
  11 H :    0.085419
  12 H :    0.100696
  13 H :    0.095712
  14 H :    0.093742
  15 H :    0.068012
  16 H :    0.068439
  17 H :    0.093678
  18 H :    0.092546
  19 H :    0.100857
  20 H :    0.100201
  21 H :    0.092637
  22 H :    0.092411
  23 H :    0.091337
  24 H :    0.091582
  25 H :    0.091645
Sum of atomic charges:    0.0000000

LOEWDIN ATOMIC CHARGES
----------------------
   0 C :   -0.328406
   1 C :   -0.159577
   2 C :   -0.328860
   3 C :   -0.196242
   4 C :   -0.105282
   5 C :   -0.317460
   6 C :   -0.317617
   7 C :   -0.315330
   8 H :    0.115460
   9 H :    0.115216
  10 H :    0.114630
  11 H :    0.111806
  12 H :    0.115359
  13 H :    0.115357
  14 H :    0.114847
  15 H :    0.113394
  16 H :    0.113727
  17 H :    0.115595
  18 H :    0.116500
  19 H :    0.115609
  20 H :    0.115434
  21 H :    0.116511
  22 H :    0.115584
  23 H :    0.114620
  24 H :    0.114546
  25 H :    0.114580

  Mayer bond orders larger than 0.100000
B(  0-C ,  1-C ) :   1.1191 B(  0-C ,  8-H ) :   0.9479 B(  0-C ,  9-H ) :   0.9489
B(  0-C , 10-H ) :   0.9503 B(  1-C ,  2-C ) :   1.1188 B(  1-C ,  3-C ) :   1.0340
B(  1-C , 11-H ) :   0.9019 B(  2-C , 12-H ) :   0.9480 B(  2-C , 13-H ) :   0.9470
B(  2-C , 14-H ) :   0.9501 B(  3-C ,  4-C ) :   1.0537 B(  3-C , 15-H ) :   0.9157
B(  3-C , 16-H ) :   0.9137 B(  4-C ,  5-C ) :   1.0748 B(  4-C ,  6-C ) :   1.0759
B(  4-C ,  7-C ) :   1.0745 B(  5-C , 17-H ) :   0.9457 B(  5-C , 18-H ) :   0.9464
B(  5-C , 19-H ) :   0.9389 B(  6-C , 20-H ) :   0.9391 B(  6-C , 21-H ) :   0.9469
B(  6-C , 22-H ) :   0.9469 B(  7-C , 23-H ) :   0.9464 B(  7-C , 24-H ) :   0.9477
B(  7-C , 25-H ) :   0.9464

Dispersion correction           -0.023237114
FINAL SINGLE POINT ENERGY      -314.872765213324

DIPOLE MOMENT
-------------

Method             : SCF
Type of density    : Electron Density
Multiplicity       :   1
Irrep              :   0
Energy             :  -314.9594003712663834 Eh
Relativity type    :
Basis              : AO
                                X                 Y                 Z
Electronic contribution:      0.383596560       0.023647023       0.173055409
Nuclear contribution   :     -0.356207046      -0.019455931      -0.208919676
                        -----------------------------------------
Total Dipole Moment    :      0.027389514       0.004191092      -0.035864266
                        -----------------------------------------
Magnitude (a.u.)       :      0.045321036
Magnitude (Debye)      :      0.115196919

Rotational constants in cm-1:             0.097855             0.041140             0.036830
Rotational constants in MHz :          2933.628561          1233.343970          1104.130636

                             ****ORCA TERMINATED NORMALLY****
TOTAL RUN TIME: 0 days 0 hours 0 minutes 36 seconds 505 msec
