                         Program Version 6.0.1  -  RELEASE   -
|  1> ! pbe def2-sv(p) def2/J RI DEFGRID1 loosescf d4 GCP(DFT/SV(P)) printgap
|  2> %output
|  3>     printlevel normal
|  4> end
|  5> * xyz 0 1
|  6> C -2.3236062387 -0.9851135935 -0.3380161247
|  7> C -0.9399323673 -0.5347473802 0.1398198335
|  8> H -0.8634430173 -0.7410201492 1.2205766935
|  9> C -0.7313068886 0.9815487728 -0.0821209024
| 10> H -1.3415990254 1.3334374132 -0.922316743
| 11> C 0.7498310497 1.2569761598 -0.4453220096
| 12> H 0.9642925734 2.3076813426 -0.2140473726
| 13> C 1.649574277 0.338452057 0.404635219
| 14> H 2.7005176673 0.4902604724 0.1319536126
| 15> C 1.3177166218 -1.1341659522 0.0811903327
| 16> H 1.3142058183 -1.697911391 1.0370160976
| 17> O 0.0561394755 -1.275283306 -0.5379446036
| 18> O 2.274281014 -1.6145729399 -0.7941510536
| 19> O 1.4324041099 0.556440408 1.7843660345
| 20> O 1.0022161341 1.1030876407 -1.8101607945
| 21> O -1.1521335056 1.7200415899 1.0360113615
| 22> O -3.3389424585 -0.4267878149 0.4480486129
| 23> H -2.4115055635 -2.0697166188 -0.2424666104
| 24> H -2.4428715148 -0.7174165635 -1.3982654345
| 25> H 1.9868662254 -2.4761318063 -1.1206844214
| 26> H 1.9116350259 1.3479185685 2.0534029667
| 27> H 0.9120630757 0.1664990571 -2.0338322784
| 28> H -0.6017231501 1.4573025303 1.787869591
| 29> H -3.1677618764 0.5184098707 0.5558038743
| 30> *
| 31>
| 32>                          ****END OF INPUT****

CARTESIAN COORDINATES (ANGSTROEM)
---------------------------------
  C     -2.323606   -0.985114   -0.338016
  C     -0.939932   -0.534747    0.139820
  H     -0.863443   -0.741020    1.220577
  C     -0.731307    0.981549   -0.082121
  H     -1.341599    1.333437   -0.922317
  C      0.749831    1.256976   -0.445322
  H      0.964293    2.307681   -0.214047
  C      1.649574    0.338452    0.404635
  H      2.700518    0.490260    0.131954
  C      1.317717   -1.134166    0.081190
  H      1.314206   -1.697911    1.037016
  O      0.056139   -1.275283   -0.537945
  O      2.274281   -1.614573   -0.794151
  O      1.432404    0.556440    1.784366
  O      1.002216    1.103088   -1.810161
  O     -1.152134    1.720042    1.036011
  O     -3.338942   -0.426788    0.448049
  H     -2.411506   -2.069717   -0.242467
  H     -2.442872   -0.717417   -1.398265
  H      1.986866   -2.476132   -1.120684
  H      1.911635    1.347919    2.053403
  H      0.912063    0.166499   -2.033832
  H     -0.601723    1.457303    1.787870
  H     -3.167762    0.518410    0.555804

 Total Charge           Charge          ....    0
 Multiplicity           Mult            ....    1
 Number of Electrons    NEL             ....   96
 Basis Dimension        Dim             ....  192

ORBITAL ENERGIES
----------------

  NO   OCC          E(Eh)            E(eV)
   0   2.0000     -18.787420      -511.2317
   1   2.0000     -18.786517      -511.2071
   2   2.0000     -18.778083      -510.9776
   3   2.0000     -18.757212      -510.4097
   4   2.0000     -18.748820      -510.1813
   5   2.0000     -18.742901      -510.0203
   6   2.0000     -10.001460      -272.1536
   7   2.0000      -9.955290      -270.8972
   8   2.0000      -9.947596      -270.6878
   9   2.0000      -9.945292      -270.6252
  10   2.0000      -9.943664      -270.5808
  11   2.0000      -9.932632      -270.2806
  12   2.0000      -1.002638       -27.2832
  13   2.0000      -0.960680       -26.1414
  14   2.0000      -0.943235       -25.6667
  15   2.0000      -0.929976       -25.3059
  16   2.0000      -0.928606       -25.2687
  17   2.0000      -0.919760       -25.0279
  18   2.0000      -0.699573       -19.0364
  19   2.0000      -0.698231       -18.9998
  20   2.0000      -0.627964       -17.0878
  21   2.0000      -0.590757       -16.0753
  22   2.0000      -0.572141       -15.5688
  23   2.0000      -0.531005       -14.4494
  24   2.0000      -0.523753       -14.2520
  25   2.0000      -0.503786       -13.7087
  26   2.0000      -0.484610       -13.1869
  27   2.0000      -0.463401       -12.6098
  28   2.0000      -0.453233       -12.3331
  29   2.0000      -0.443381       -12.0650
  30   2.0000      -0.423613       -11.5271
  31   2.0000      -0.399911       -10.8821
  32   2.0000      -0.384934       -10.4746
  33   2.0000      -0.380514       -10.3543
  34   2.0000      -0.365194        -9.9374
  35   2.0000      -0.350352        -9.5336
  36   2.0000      -0.343243        -9.3401
  37   2.0000      -0.332048        -9.0355
  38   2.0000      -0.317539        -8.6407
  39   2.0000      -0.299451        -8.1485
  40   2.0000      -0.289628        -7.8812
  41   2.0000      -0.281316        -7.6550
  42   2.0000      -0.268046        -7.2939
  43   2.0000      -0.259562        -7.0630
  44   2.0000      -0.253164        -6.8889
  45   2.0000      -0.223561        -6.0834
  46   2.0000      -0.215797        -5.8721
  47   2.0000      -0.199672        -5.4334
  48   0.0000      -0.003292        -0.0896
  49   0.0000       0.021368         0.5815
  50   0.0000       0.032997         0.8979
  51   0.0000       0.049308         1.3417
  52   0.0000       0.057062         1.5527

MULLIKEN ATOMIC CHARGES
-----------------------
   0 C :    0.089702
   1 C :   -0.023510
   2 H :    0.067310
   3 C :    0.049092
   4 H :    0.075371
   5 C :    0.036626
   6 H :    0.066582
   7 C :    0.003601
   8 H :    0.096699
   9 C :    0.174468
  10 H :    0.070471
  11 O :   -0.315311
  12 O :   -0.378530
  13 O :   -0.415965
  14 O :   -0.407902
  15 O :   -0.428663
  16 O :   -0.437478
  17 H :    0.086047
  18 H :    0.072852
  19 H :    0.309195
  20 H :    0.314675
  21 H :    0.296603
  22 H :    0.294282
  23 H :    0.303781
Sum of atomic charges:    0.0000000

LOEWDIN ATOMIC CHARGES
----------------------
   0 C :   -0.116932
   1 C :   -0.082516
   2 H :    0.107534
   3 C :   -0.086265
   4 H :    0.117313
   5 C :   -0.080339
   6 H :    0.112722
   7 C :   -0.089490
   8 H :    0.119999
   9 C :    0.002434
  10 H :    0.092349
  11 O :   -0.158730
  12 O :   -0.290221
  13 O :   -0.311613
  14 O :   -0.307759
  15 O :   -0.315169
  16 O :   -0.331492
  17 H :    0.112605
  18 H :    0.095261
  19 H :    0.292023
  20 H :    0.296046
  21 H :    0.271799
  22 H :    0.270541
  23 H :    0.279899

  Mayer bond orders larger than 0.100000
B(  0-C ,  1-C ) :   1.0499 B(  0-C , 16-O ) :   1.0826 B(  0-C , 17-H ) :   0.9197
B(  0-C , 18-H ) :   0.9071 B(  1-C ,  2-H ) :   0.8686 B(  1-C ,  3-C ) :   0.9706
B(  1-C , 11-O ) :   0.9992 B(  3-C ,  4-H ) :   0.8846 B(  3-C ,  5-C ) :   0.9667
B(  3-C , 15-O ) :   1.0090 B(  5-C ,  6-H ) :   0.8923 B(  5-C ,  7-C ) :   1.0014
B(  5-C , 14-O ) :   1.0709 B(  7-C ,  8-H ) :   0.8965 B(  7-C ,  9-C ) :   0.9522
B(  7-C , 13-O ) :   1.0353 B(  9-C , 10-H ) :   0.8984 B(  9-C , 11-O ) :   1.0114
B(  9-C , 12-O ) :   1.1580 B( 12-O , 19-H ) :   0.8395 B( 13-O , 20-H ) :   0.8416
B( 14-O , 21-H ) :   0.8319 B( 15-O , 22-H ) :   0.8230 B( 16-O , 23-H ) :   0.8332

Dispersion correction           -0.025138214
FINAL SINGLE POINT ENERGY      -685.692976187332

DIPOLE MOMENT
-------------

Method             : SCF
Type of density    : Electron Density
Multiplicity       :   1
Irrep              :   0
Energy             :  -685.8262858152435228 Eh
Relativity type    :
Basis              : AO
                                X                 Y                 Z
Electronic contribution:      1.922946577      -0.159087955      -0.373882369
Nuclear contribution   :     -0.971003847      -0.074766179       0.804013947
                        -----------------------------------------
Total Dipole Moment    :      0.951942729      -0.233854134       0.430131578
                        -----------------------------------------
Magnitude (a.u.)       :      1.070465268
Magnitude (Debye)      :      2.720906478

Rotational constants in cm-1:             0.043441             0.025424             0.021852
Rotational constants in MHz :          1302.326207           762.179401           655.115216

                             ****ORCA TERMINATED NORMALLY****
TOTAL RUN TIME: 0 days 0 hours 0 minutes 11 seconds 459 msec
