                         Program Version 6.0.1  -  RELEASE   -
|  1> ! pbe def2-sv(p) def2/J RI DEFGRID1 loosescf d4 GCP(DFT/SV(P)) printgap
|  2> %output
|  3>     printlevel normal
|  4> end
|  5> * xyz 0 1
|  6> C -2.2378599801 0.2721604561 -3.31417e-05
|  7> C -1.3398898963 1.3292047921 2.10912e-05
|  8> C 0.0180016503 1.0791937351 4.71121e-05
|  9> C 0.4891286972 -0.2346866686 4.9667e-05
| 10> C -0.4202059245 -1.2918300856 -1.20738e-05
| 11> C -1.7780310393 -1.0363126442 -5.84643e-05
| 12> C 1.9333515885 -0.494152555 0.0001268009
| 13> O 2.7945644352 0.3480636049 -0.0001413758
| 14> H -3.300057988 0.467862677 -1.36733e-05
| 15> H -1.7033257064 2.3460243864 0.000103418
| 16> H 0.7377319083 1.8841909197 0.0001127609
| 17> H -0.0556513137 -2.3093163767 -3.1017e-05
| 18> H -2.4822605309 -1.8550627473 -8.34776e-05
| 19> H 2.1913949422 -1.5730802934 0.0004760137
| 20> *
| 21>
| 22>                          ****END OF INPUT****

CARTESIAN COORDINATES (ANGSTROEM)
---------------------------------
  C     -2.237860    0.272160   -0.000033
  C     -1.339890    1.329205    0.000021
  C      0.018002    1.079194    0.000047
  C      0.489129   -0.234687    0.000050
  C     -0.420206   -1.291830   -0.000012
  C     -1.778031   -1.036313   -0.000058
  C      1.933352   -0.494153    0.000127
  O      2.794564    0.348064   -0.000141
  H     -3.300058    0.467863   -0.000014
  H     -1.703326    2.346024    0.000103
  H      0.737732    1.884191    0.000113
  H     -0.055651   -2.309316   -0.000031
  H     -2.482261   -1.855063   -0.000083
  H      2.191395   -1.573080    0.000476

 Total Charge           Charge          ....    0
 Multiplicity           Mult            ....    1
 Number of Electrons    NEL             ....   56
 Basis Dimension        Dim             ....  124

ORBITAL ENERGIES
----------------

  NO   OCC          E(Eh)            E(eV)
   0   2.0000     -18.749049      -510.1876
   1   2.0000      -9.969325      -271.2791
   2   2.0000      -9.914559      -269.7889
   3   2.0000      -9.913841      -269.7693
   4   2.0000      -9.911109      -269.6950
   5   2.0000      -9.910357      -269.6745
   6   2.0000      -9.910318      -269.6735
   7   2.0000      -9.909946      -269.6634
   8   2.0000      -0.945775       -25.7358
   9   2.0000      -0.794705       -21.6250
  10   2.0000      -0.700721       -19.0676
  11   2.0000      -0.688277       -18.7290
  12   2.0000      -0.589847       -16.0506
  13   2.0000      -0.560538       -15.2530
  14   2.0000      -0.517950       -14.0941
  15   2.0000      -0.475402       -12.9364
  16   2.0000      -0.435955       -11.8629
  17   2.0000      -0.414317       -11.2741
  18   2.0000      -0.397063       -10.8046
  19   2.0000      -0.391458       -10.6521
  20   2.0000      -0.373598       -10.1661
  21   2.0000      -0.372933       -10.1480
  22   2.0000      -0.335288        -9.1236
  23   2.0000      -0.328610        -8.9419
  24   2.0000      -0.314939        -8.5699
  25   2.0000      -0.249591        -6.7917
  26   2.0000      -0.246179        -6.6989
  27   2.0000      -0.208327        -5.6689
  28   0.0000      -0.096778        -2.6335
  29   0.0000      -0.051413        -1.3990
  30   0.0000      -0.000844        -0.0230
  31   0.0000       0.036180         0.9845
  32   0.0000       0.059954         1.6314

MULLIKEN ATOMIC CHARGES
-----------------------
   0 C :   -0.040314
   1 C :   -0.043816
   2 C :   -0.090072
   3 C :    0.077972
   4 C :   -0.096910
   5 C :   -0.043752
   6 C :    0.038535
   7 O :   -0.149604
   8 H :    0.066134
   9 H :    0.064622
  10 H :    0.064959
  11 H :    0.055390
  12 H :    0.062089
  13 H :    0.034767
Sum of atomic charges:   -0.0000000

LOEWDIN ATOMIC CHARGES
----------------------
   0 C :   -0.101652
   1 C :   -0.116909
   2 C :   -0.081158
   3 C :   -0.096093
   4 C :   -0.096691
   5 C :   -0.119576
   6 C :    0.002567
   7 O :   -0.115118
   8 H :    0.128601
   9 H :    0.128811
  10 H :    0.134175
  11 H :    0.127448
  12 H :    0.128053
  13 H :    0.077539

  Mayer bond orders larger than 0.100000
B(  0-C ,  1-C ) :   1.3578 B(  0-C ,  5-C ) :   1.3794 B(  0-C ,  8-H ) :   0.9639
B(  1-C ,  2-C ) :   1.3759 B(  1-C ,  9-H ) :   0.9676 B(  2-C ,  3-C ) :   1.3488
B(  2-C , 10-H ) :   0.9601 B(  3-C ,  4-C ) :   1.3281 B(  3-C ,  6-C ) :   0.9833
B(  4-C ,  5-C ) :   1.3792 B(  4-C , 11-H ) :   0.9588 B(  5-C , 12-H ) :   0.9642
B(  6-C ,  7-O ) :   2.1554 B(  6-C , 13-H ) :   0.9130

Dispersion correction           -0.014086137
FINAL SINGLE POINT ENERGY      -344.843904992038

DIPOLE MOMENT
-------------

Method             : SCF
Type of density    : Electron Density
Multiplicity       :   1
Irrep              :   0
Energy             :  -344.8812970370526045 Eh
Relativity type    :
Basis              : AO
                                X                 Y                 Z
Electronic contribution:      3.130286144       0.595986001      -0.000349331
Nuclear contribution   :     -4.285614270      -0.969962601       0.000527058
                        -----------------------------------------
Total Dipole Moment    :     -1.155328125      -0.373976600       0.000177727
                        -----------------------------------------
Magnitude (a.u.)       :      1.214348223
Magnitude (Debye)      :      3.086627884

Rotational constants in cm-1:             0.176962             0.052675             0.040592
Rotational constants in MHz :          5305.196239          1579.159131          1216.925721

                             ****ORCA TERMINATED NORMALLY****
TOTAL RUN TIME: 0 days 0 hours 0 minutes 8 seconds 757 msec
