                         Program Version 6.0.1  -  RELEASE   -
|  1> ! r2scan-3c def2/J RI DEFGRID2 scfconv6 printgap
|  2> %output
|  3>     printlevel normal
|  4> end
|  5> * xyz 0 1
|  6> C -1.5241968845 0.6500105032 -0.0660559068
|  7> C -1.2503626875 -0.7967212925 -0.4646485796
|  8> C -0.0869977004 -1.1795283004 0.4462043336
|  9> C 0.7986506743 0.0812876901 0.4926774887
| 10> C -0.1251924872 1.2479442795 0.09556705
| 11> O 1.8587512236 0.0401991061 -0.4409714495
| 12> H -2.056302762 0.6748324603 0.8867986661
| 13> H -2.1175379168 1.1860177456 -0.8048362239
| 14> H -2.1159171432 -1.4448361983 -0.3345103653
| 15> H -0.9318522672 -0.8391737284 -1.5067621632
| 16> H -0.4557581869 -1.405007973 1.4478982723
| 17> H 0.4667516938 -2.0439482477 0.0789479259
| 18> H 1.214816874 0.2220647788 1.5020042951
| 19> H -0.1003021364 2.0545258894 0.8254593283
| 20> H 0.2394175889 1.6336537638 -0.8562660025
| 21> H 2.4261393462 -0.711914638 -0.2418046826
| 22> *
| 23>
| 24>                          ****END OF INPUT****

CARTESIAN COORDINATES (ANGSTROEM)
---------------------------------
  C     -1.524197    0.650011   -0.066056
  C     -1.250363   -0.796721   -0.464649
  C     -0.086998   -1.179528    0.446204
  C      0.798651    0.081288    0.492677
  C     -0.125192    1.247944    0.095567
  O      1.858751    0.040199   -0.440971
  H     -2.056303    0.674832    0.886799
  H     -2.117538    1.186018   -0.804836
  H     -2.115917   -1.444836   -0.334510
  H     -0.931852   -0.839174   -1.506762
  H     -0.455758   -1.405008    1.447898
  H      0.466752   -2.043948    0.078948
  H      1.214817    0.222065    1.502004
  H     -0.100302    2.054526    0.825459
  H      0.239418    1.633654   -0.856266
  H      2.426139   -0.711915   -0.241805

 Total Charge           Charge          ....    0
 Multiplicity           Mult            ....    1
 Number of Electrons    NEL             ....   48
 Basis Dimension        Dim             ....  169

ORBITAL ENERGIES
----------------

  NO   OCC          E(Eh)            E(eV)
   0   2.0000     -18.943229      -515.4715
   1   2.0000     -10.076077      -274.1840
   2   2.0000     -10.022564      -272.7278
   3   2.0000     -10.022092      -272.7150
   4   2.0000     -10.021475      -272.6982
   5   2.0000     -10.018399      -272.6145
   6   2.0000      -0.983686       -26.7675
   7   2.0000      -0.795133       -21.6367
   8   2.0000      -0.677867       -18.4457
   9   2.0000      -0.663570       -18.0566
  10   2.0000      -0.546029       -14.8582
  11   2.0000      -0.528344       -14.3770
  12   2.0000      -0.471950       -12.8424
  13   2.0000      -0.453054       -12.3282
  14   2.0000      -0.435300       -11.8451
  15   2.0000      -0.388335       -10.5671
  16   2.0000      -0.350954        -9.5499
  17   2.0000      -0.338163        -9.2019
  18   2.0000      -0.321728        -8.7547
  19   2.0000      -0.306547        -8.3416
  20   2.0000      -0.304076        -8.2743
  21   2.0000      -0.293060        -7.9746
  22   2.0000      -0.276146        -7.5143
  23   2.0000      -0.230067        -6.2604
  24   0.0000       0.064462         1.7541
  25   0.0000       0.093088         2.5331
  26   0.0000       0.104002         2.8301
  27   0.0000       0.129164         3.5147
  28   0.0000       0.133588         3.6351

MULLIKEN ATOMIC CHARGES
-----------------------
   0 C :   -0.273446
   1 C :   -0.282010
   2 C :   -0.318591
   3 C :    0.037806
   4 C :   -0.381903
   5 O :   -0.423896
   6 H :    0.147382
   7 H :    0.151656
   8 H :    0.150795
   9 H :    0.158952
  10 H :    0.149022
  11 H :    0.139035
  12 H :    0.139219
  13 H :    0.152080
  14 H :    0.174163
  15 H :    0.279735
Sum of atomic charges:   -0.0000000

LOEWDIN ATOMIC CHARGES
----------------------
   0 C :   -0.299998
   1 C :   -0.301471
   2 C :   -0.289291
   3 C :    0.064884
   4 C :   -0.269059
   5 O :   -0.619182
   6 H :    0.153806
   7 H :    0.157226
   8 H :    0.155450
   9 H :    0.159946
  10 H :    0.159331
  11 H :    0.162460
  12 H :    0.160434
  13 H :    0.159370
  14 H :    0.181868
  15 H :    0.264227

  Mayer bond orders larger than 0.100000
B(  0-C ,  1-C ) :   0.8998 B(  0-C ,  4-C ) :   0.9235 B(  0-C ,  6-H ) :   0.9845
B(  0-C ,  7-H ) :   0.9532 B(  1-C ,  2-C ) :   0.9111 B(  1-C ,  8-H ) :   0.9531
B(  1-C ,  9-H ) :   0.9881 B(  2-C ,  3-C ) :   0.9526 B(  2-C , 10-H ) :   0.9797
B(  2-C , 11-H ) :   0.9569 B(  3-C ,  4-C ) :   0.9648 B(  3-C ,  5-O ) :   0.9268
B(  3-C , 12-H ) :   0.9536 B(  4-C , 13-H ) :   0.9598 B(  4-C , 14-H ) :   0.9894
B(  5-O , 15-H ) :   0.9052

Dispersion correction           -0.003967573
FINAL SINGLE POINT ENERGY      -271.697989688627

DIPOLE MOMENT
-------------

Method             : SCF
Type of density    : Electron Density
Multiplicity       :   1
Irrep              :   0
Energy             :  -271.7016959259273108 Eh
Relativity type    :
Basis              : AO
                                X                 Y                 Z
Electronic contribution:      3.073273740       0.242995843      -0.544943038
Nuclear contribution   :     -3.190848169      -0.631526652       0.928743547
                        -----------------------------------------
Total Dipole Moment    :     -0.117574429      -0.388530809       0.383800509
                        -----------------------------------------
Magnitude (a.u.)       :      0.558643685
Magnitude (Debye)      :      1.419959402

Rotational constants in cm-1:             0.192671             0.110272             0.084866
Rotational constants in MHz :          5776.136807          3305.880212          2544.229522

                             ****ORCA TERMINATED NORMALLY****
TOTAL RUN TIME: 0 days 0 hours 0 minutes 21 seconds 774 msec
