                         Program Version 6.0.1  -  RELEASE   -
|  1> ! r2scan-3c def2/J RI DEFGRID2 scfconv6 printgap
|  2> %output
|  3>     printlevel normal
|  4> end
|  5> * xyz 0 1
|  6> C -1.6505535675 -1.2352295313 0.0085075674
|  7> C -0.9403683009 0.0234810237 -0.4850422404
|  8> H -0.9436580035 0.0750118882 -1.5792111092
|  9> C 0.5306169267 -0.009533004 -0.0341778784
| 10> F 1.2380543659 1.0201780759 -0.507050569
| 11> F 0.626415354 0.0399756482 1.3071621739
| 12> F 1.1591688897 -1.126886978 -0.4258033102
| 13> O -1.5399550111 1.2055067054 -0.0439032149
| 14> H -2.6949550219 -1.1927799028 -0.2874806344
| 15> H -1.5932746403 -1.2995375513 1.0940923738
| 16> H -1.1935718123 -2.1215956285 -0.4221224394
| 17> H -1.5709855088 1.2144179178 0.9222095003
| 18> *
| 19>
| 20>                          ****END OF INPUT****

CARTESIAN COORDINATES (ANGSTROEM)
---------------------------------
  C     -1.650554   -1.235230    0.008508
  C     -0.940368    0.023481   -0.485042
  H     -0.943658    0.075012   -1.579211
  C      0.530617   -0.009533   -0.034178
  F      1.238054    1.020178   -0.507051
  F      0.626415    0.039976    1.307162
  F      1.159169   -1.126887   -0.425803
  O     -1.539955    1.205507   -0.043903
  H     -2.694955   -1.192780   -0.287481
  H     -1.593275   -1.299538    1.094092
  H     -1.193572   -2.121596   -0.422122
  H     -1.570986    1.214418    0.922210

 Total Charge           Charge          ....    0
 Multiplicity           Mult            ....    1
 Number of Electrons    NEL             ....   58
 Basis Dimension        Dim             ....  178

ORBITAL ENERGIES
----------------

  NO   OCC          E(Eh)            E(eV)
   0   2.0000     -24.522884      -667.3016
   1   2.0000     -24.521837      -667.2731
   2   2.0000     -24.517257      -667.1485
   3   2.0000     -18.975868      -516.3596
   4   2.0000     -10.277406      -279.6624
   5   2.0000     -10.120178      -275.3840
   6   2.0000     -10.043976      -273.3105
   7   2.0000      -1.279814       -34.8255
   8   2.0000      -1.191236       -32.4152
   9   2.0000      -1.188332       -32.3362
  10   2.0000      -1.020349       -27.7651
  11   2.0000      -0.762154       -20.7393
  12   2.0000      -0.678569       -18.4648
  13   2.0000      -0.618226       -16.8228
  14   2.0000      -0.561589       -15.2816
  15   2.0000      -0.558563       -15.1993
  16   2.0000      -0.546754       -14.8779
  17   2.0000      -0.461592       -12.5606
  18   2.0000      -0.448641       -12.2082
  19   2.0000      -0.430135       -11.7046
  20   2.0000      -0.426502       -11.6057
  21   2.0000      -0.401420       -10.9232
  22   2.0000      -0.394531       -10.7357
  23   2.0000      -0.388763       -10.5788
  24   2.0000      -0.372066       -10.1244
  25   2.0000      -0.364680        -9.9234
  26   2.0000      -0.360141        -9.7999
  27   2.0000      -0.319790        -8.7019
  28   2.0000      -0.267498        -7.2790
  29   0.0000       0.046087         1.2541
  30   0.0000       0.084782         2.3070
  31   0.0000       0.098329         2.6757
  32   0.0000       0.108443         2.9509
  33   0.0000       0.133810         3.6412

MULLIKEN ATOMIC CHARGES
-----------------------
   0 C :   -0.477028
   1 C :   -0.028469
   2 H :    0.163435
   3 C :    0.561428
   4 F :   -0.193435
   5 F :   -0.229605
   6 F :   -0.213146
   7 O :   -0.389404
   8 H :    0.169528
   9 H :    0.158815
  10 H :    0.165951
  11 H :    0.311930
Sum of atomic charges:    0.0000000

LOEWDIN ATOMIC CHARGES
----------------------
   0 C :   -0.382849
   1 C :    0.071974
   2 H :    0.201125
   3 C :    0.510751
   4 F :   -0.196004
   5 F :   -0.216953
   6 F :   -0.211369
   7 O :   -0.554977
   8 H :    0.166649
   9 H :    0.165310
  10 H :    0.170186
  11 H :    0.276157

  Mayer bond orders larger than 0.100000
B(  0-C ,  1-C ) :   0.9519 B(  0-C ,  8-H ) :   0.9684 B(  0-C ,  9-H ) :   0.9585
B(  0-C , 10-H ) :   0.9618 B(  1-C ,  2-H ) :   0.9316 B(  1-C ,  3-C ) :   0.9699
B(  1-C ,  7-O ) :   0.9764 B(  3-C ,  4-F ) :   1.0345 B(  3-C ,  5-F ) :   1.0111
B(  3-C ,  6-F ) :   1.0095 B(  7-O , 11-H ) :   0.8814

Dispersion correction           -0.002564471
FINAL SINGLE POINT ENERGY      -492.057523130831

DIPOLE MOMENT
-------------

Method             : SCF
Type of density    : Electron Density
Multiplicity       :   1
Irrep              :   0
Energy             :  -492.0668948200437285 Eh
Relativity type    :
Basis              : AO
                                X                 Y                 Z
Electronic contribution:      9.668645027       2.580145522       0.749780706
Nuclear contribution   :    -10.326330734      -3.039279290      -0.603120506
                        -----------------------------------------
Total Dipole Moment    :     -0.657685707      -0.459133768       0.146660201
                        -----------------------------------------
Magnitude (a.u.)       :      0.815391636
Magnitude (Debye)      :      2.072560829

Rotational constants in cm-1:             0.117737             0.080286             0.065812
Rotational constants in MHz :          3529.663073          2406.901613          1973.007586

                             ****ORCA TERMINATED NORMALLY****
TOTAL RUN TIME: 0 days 0 hours 0 minutes 19 seconds 399 msec
