                         Program Version 6.0.1  -  RELEASE   -
|  1> ! pbe def2-sv(p) def2/J RI DEFGRID1 loosescf d4 GCP(DFT/SV(P)) printgap
|  2> %output
|  3>     printlevel normal
|  4> end
|  5> * xyz 0 1
|  6> C -3.3868399103 -0.0487298659 0.197870163
|  7> O -2.222454013 0.0717284263 -0.607086741
|  8> C -1.0459583131 -0.0105035258 0.0344652592
|  9> O -0.9656049089 -0.1769724116 1.2232748503
| 10> C 0.0964852594 0.1350937155 -0.94808445
| 11> C 0.9666372363 -1.1303206611 -0.9706050233
| 12> C 1.7686007961 -1.2937865657 0.316174941
| 13> C 2.6367475 -0.0643460675 0.5608218055
| 14> C 1.754866704 1.1751261921 0.6657273767
| 15> C 0.9526006893 1.366465706 -0.6170312549
| 16> H -3.4012607182 -1.0180734747 0.7002832842
| 17> H -4.2347792222 0.0458793258 -0.4752657348
| 18> H -3.4070073411 0.7381208864 0.9546274382
| 19> H -0.3608936917 0.2720110171 -1.9335128839
| 20> H 0.3339999176 -2.0060162531 -1.1332963932
| 21> H 1.653510268 -1.0513668167 -1.8172842823
| 22> H 1.0843894178 -1.4204167504 1.1556348863
| 23> H 2.3909338612 -2.1883952085 0.2446169173
| 24> H 3.2098541657 -0.1914333205 1.4808804373
| 25> H 3.3450712263 0.0562872766 -0.2634603018
| 26> H 1.0706637583 1.0563446244 1.5063263678
| 27> H 2.3672762478 2.0612094943 0.8461582764
| 28> H 0.3101078846 2.24587841 -0.5310650808
| 29> H 1.6389039798 1.5333515795 -1.4513197548
| 30> *
| 31>
| 32>                          ****END OF INPUT****

CARTESIAN COORDINATES (ANGSTROEM)
---------------------------------
  C     -3.386840   -0.048730    0.197870
  O     -2.222454    0.071728   -0.607087
  C     -1.045958   -0.010504    0.034465
  O     -0.965605   -0.176972    1.223275
  C      0.096485    0.135094   -0.948084
  C      0.966637   -1.130321   -0.970605
  C      1.768601   -1.293787    0.316175
  C      2.636747   -0.064346    0.560822
  C      1.754867    1.175126    0.665727
  C      0.952601    1.366466   -0.617031
  H     -3.401261   -1.018073    0.700283
  H     -4.234779    0.045879   -0.475266
  H     -3.407007    0.738121    0.954627
  H     -0.360894    0.272011   -1.933513
  H      0.334000   -2.006016   -1.133296
  H      1.653510   -1.051367   -1.817284
  H      1.084389   -1.420417    1.155635
  H      2.390934   -2.188395    0.244617
  H      3.209854   -0.191433    1.480880
  H      3.345071    0.056287   -0.263460
  H      1.070664    1.056345    1.506326
  H      2.367276    2.061209    0.846158
  H      0.310108    2.245878   -0.531065
  H      1.638904    1.533352   -1.451320

 Total Charge           Charge          ....    0
 Multiplicity           Mult            ....    1
 Number of Electrons    NEL             ....   78
 Basis Dimension        Dim             ....  168

ORBITAL ENERGIES
----------------

  NO   OCC          E(Eh)            E(eV)
   0   2.0000     -18.797297      -511.5004
   1   2.0000     -18.740550      -509.9563
   2   2.0000     -10.004960      -272.2488
   3   2.0000      -9.939275      -270.4614
   4   2.0000      -9.902681      -269.4657
   5   2.0000      -9.888828      -269.0887
   6   2.0000      -9.888770      -269.0871
   7   2.0000      -9.876227      -268.7458
   8   2.0000      -9.874166      -268.6897
   9   2.0000      -9.874107      -268.6881
  10   2.0000      -1.006829       -27.3972
  11   2.0000      -0.917755       -24.9734
  12   2.0000      -0.758748       -20.6466
  13   2.0000      -0.690195       -18.7812
  14   2.0000      -0.665459       -18.1081
  15   2.0000      -0.648889       -17.6572
  16   2.0000      -0.557135       -15.1604
  17   2.0000      -0.540123       -14.6975
  18   2.0000      -0.510632       -13.8950
  19   2.0000      -0.494816       -13.4646
  20   2.0000      -0.437372       -11.9015
  21   2.0000      -0.436575       -11.8798
  22   2.0000      -0.429399       -11.6846
  23   2.0000      -0.412877       -11.2350
  24   2.0000      -0.396187       -10.7808
  25   2.0000      -0.388655       -10.5759
  26   2.0000      -0.376378       -10.2418
  27   2.0000      -0.351474        -9.5641
  28   2.0000      -0.333992        -9.0884
  29   2.0000      -0.333755        -9.0819
  30   2.0000      -0.329787        -8.9740
  31   2.0000      -0.324474        -8.8294
  32   2.0000      -0.300066        -8.1652
  33   2.0000      -0.298605        -8.1255
  34   2.0000      -0.284291        -7.7359
  35   2.0000      -0.260532        -7.0894
  36   2.0000      -0.258286        -7.0283
  37   2.0000      -0.257940        -7.0189
  38   2.0000      -0.216707        -5.8969
  39   0.0000      -0.021387        -0.5820
  40   0.0000       0.033067         0.8998
  41   0.0000       0.052877         1.4389
  42   0.0000       0.065826         1.7912
  43   0.0000       0.077560         2.1105

MULLIKEN ATOMIC CHARGES
-----------------------
   0 C :   -0.112221
   1 O :   -0.240702
   2 C :    0.134915
   3 O :   -0.194092
   4 C :   -0.145438
   5 C :   -0.131667
   6 C :   -0.154250
   7 C :   -0.160566
   8 C :   -0.153118
   9 C :   -0.132275
  10 H :    0.116496
  11 H :    0.120625
  12 H :    0.116449
  13 H :    0.076920
  14 H :    0.088750
  15 H :    0.080654
  16 H :    0.103630
  17 H :    0.080834
  18 H :    0.083888
  19 H :    0.067530
  20 H :    0.103374
  21 H :    0.080764
  22 H :    0.088643
  23 H :    0.080859
Sum of atomic charges:   -0.0000000

LOEWDIN ATOMIC CHARGES
----------------------
   0 C :   -0.209233
   1 O :   -0.075760
   2 C :    0.052020
   3 O :   -0.151289
   4 C :   -0.165508
   5 C :   -0.206511
   6 C :   -0.234638
   7 C :   -0.224143
   8 C :   -0.234570
   9 C :   -0.206542
  10 H :    0.117868
  11 H :    0.119709
  12 H :    0.117853
  13 H :    0.127001
  14 H :    0.117715
  15 H :    0.117449
  16 H :    0.124576
  17 H :    0.114602
  18 H :    0.116423
  19 H :    0.108685
  20 H :    0.124590
  21 H :    0.114534
  22 H :    0.117738
  23 H :    0.117430

  Mayer bond orders larger than 0.100000
B(  0-C ,  1-O ) :   0.9489 B(  0-C , 10-H ) :   0.9513 B(  0-C , 11-H ) :   0.9590
B(  0-C , 12-H ) :   0.9511 B(  1-O ,  2-C ) :   1.2137 B(  2-C ,  3-O ) :   2.0200
B(  2-C ,  4-C ) :   0.9476 B(  4-C ,  5-C ) :   1.0777 B(  4-C ,  9-C ) :   1.0773
B(  4-C , 13-H ) :   0.8766 B(  5-C ,  6-C ) :   1.1292 B(  5-C , 14-H ) :   0.9196
B(  5-C , 15-H ) :   0.9125 B(  6-C ,  7-C ) :   1.1340 B(  6-C , 16-H ) :   0.9016
B(  6-C , 17-H ) :   0.9164 B(  7-C ,  8-C ) :   1.1346 B(  7-C , 18-H ) :   0.9188
B(  7-C , 19-H ) :   0.9179 B(  8-C ,  9-C ) :   1.1292 B(  8-C , 20-H ) :   0.9013
B(  8-C , 21-H ) :   0.9166 B(  9-C , 22-H ) :   0.9194 B(  9-C , 23-H ) :   0.9127

Dispersion correction           -0.023589406
FINAL SINGLE POINT ENERGY      -462.705993051099

DIPOLE MOMENT
-------------

Method             : SCF
Type of density    : Electron Density
Multiplicity       :   1
Irrep              :   0
Energy             :  -462.7942596002524169 Eh
Relativity type    :
Basis              : AO
                                X                 Y                 Z
Electronic contribution:     -5.926917357      -0.061622928       0.203542618
Nuclear contribution   :      5.582457903       0.123573095      -0.663226853
                        -----------------------------------------
Total Dipole Moment    :     -0.344459454       0.061950167      -0.459684234
                        -----------------------------------------
Magnitude (a.u.)       :      0.577754043
Magnitude (Debye)      :      1.468534070

Rotational constants in cm-1:             0.089695             0.028384             0.027611
Rotational constants in MHz :          2688.987718           850.920086           827.744771

                             ****ORCA TERMINATED NORMALLY****
TOTAL RUN TIME: 0 days 0 hours 0 minutes 8 seconds 507 msec
