                         Program Version 6.0.1  -  RELEASE   -
|  1> ! r2scan-3c def2/J RI DEFGRID2 scfconv6 printgap
|  2> %output
|  3>     printlevel normal
|  4> end
|  5> * xyz 0 1
|  6> C -0.8214264393 -2.2877081301 0.0002113667
|  7> C 0.0714869713 -1.0842340628 2.76141e-05
|  8> C 1.4496824949 -1.253339188 -0.0003971521
|  9> C 2.3126095472 -0.1704888864 -0.0003505453
| 10> C 1.8098395034 1.121142466 0.0001969646
| 11> C 0.4443205519 1.3118004647 0.0004188906
| 12> C -0.434585027 0.2256649285 0.0002960472
| 13> C -1.8730882815 0.5166893718 0.0002216256
| 14> O -2.3508237213 1.624898563 -0.0005950359
| 15> H -1.4605991152 -2.2969925236 -0.8814739066
| 16> H -0.2264353598 -3.1978419521 -0.0002303337
| 17> H -1.4595862221 -2.2971952304 0.8826406617
| 18> H 1.8572541411 -2.2543945207 -0.0007591717
| 19> H 3.3798581951 -0.3367821884 -0.0007128125
| 20> H 2.4796546224 1.9676322841 0.0004448895
| 21> H 0.0180140992 2.3041701106 0.0006767306
| 22> H -2.5312599123 -0.37128318 0.0014137508
| 23> *
| 24>
| 25>                          ****END OF INPUT****

CARTESIAN COORDINATES (ANGSTROEM)
---------------------------------
  C     -0.821426   -2.287708    0.000211
  C      0.071487   -1.084234    0.000028
  C      1.449682   -1.253339   -0.000397
  C      2.312610   -0.170489   -0.000351
  C      1.809840    1.121142    0.000197
  C      0.444321    1.311800    0.000419
  C     -0.434585    0.225665    0.000296
  C     -1.873088    0.516689    0.000222
  O     -2.350824    1.624899   -0.000595
  H     -1.460599   -2.296993   -0.881474
  H     -0.226435   -3.197842   -0.000230
  H     -1.459586   -2.297195    0.882641
  H      1.857254   -2.254395   -0.000759
  H      3.379858   -0.336782   -0.000713
  H      2.479655    1.967632    0.000445
  H      0.018014    2.304170    0.000677
  H     -2.531260   -0.371283    0.001414

 Total Charge           Charge          ....    0
 Multiplicity           Mult            ....    1
 Number of Electrons    NEL             ....   64
 Basis Dimension        Dim             ....  216

ORBITAL ENERGIES
----------------

  NO   OCC          E(Eh)            E(eV)
   0   2.0000     -18.944231      -515.4987
   1   2.0000     -10.115514      -275.2571
   2   2.0000     -10.067253      -273.9439
   3   2.0000     -10.053590      -273.5721
   4   2.0000     -10.050400      -273.4853
   5   2.0000     -10.048230      -273.4262
   6   2.0000     -10.047200      -273.3982
   7   2.0000     -10.046100      -273.3683
   8   2.0000     -10.043579      -273.2997
   9   2.0000      -1.011224       -27.5168
  10   2.0000      -0.846513       -23.0348
  11   2.0000      -0.762298       -20.7432
  12   2.0000      -0.739514       -20.1232
  13   2.0000      -0.674390       -18.3511
  14   2.0000      -0.625352       -17.0167
  15   2.0000      -0.574709       -15.6386
  16   2.0000      -0.542231       -14.7549
  17   2.0000      -0.490558       -13.3488
  18   2.0000      -0.459866       -12.5136
  19   2.0000      -0.431148       -11.7321
  20   2.0000      -0.414502       -11.2792
  21   2.0000      -0.411610       -11.2005
  22   2.0000      -0.396167       -10.7803
  23   2.0000      -0.394100       -10.7240
  24   2.0000      -0.375018       -10.2047
  25   2.0000      -0.372264       -10.1298
  26   2.0000      -0.340689        -9.2706
  27   2.0000      -0.332603        -9.0506
  28   2.0000      -0.322083        -8.7643
  29   2.0000      -0.250625        -6.8199
  30   2.0000      -0.244519        -6.6537
  31   2.0000      -0.222347        -6.0504
  32   0.0000      -0.097316        -2.6481
  33   0.0000      -0.041645        -1.1332
  34   0.0000       0.005787         0.1575
  35   0.0000       0.074069         2.0155
  36   0.0000       0.083424         2.2701

MULLIKEN ATOMIC CHARGES
-----------------------
   0 C :   -0.577952
   1 C :    0.094978
   2 C :   -0.198607
   3 C :   -0.119199
   4 C :   -0.155618
   5 C :   -0.183870
   6 C :    0.227885
   7 C :    0.018956
   8 O :   -0.347229
   9 H :    0.175447
  10 H :    0.152963
  11 H :    0.175451
  12 H :    0.148206
  13 H :    0.148602
  14 H :    0.149447
  15 H :    0.183307
  16 H :    0.107232
Sum of atomic charges:    0.0000000

LOEWDIN ATOMIC CHARGES
----------------------
   0 C :   -0.392548
   1 C :   -0.064926
   2 C :   -0.164417
   3 C :   -0.133850
   4 C :   -0.165049
   5 C :   -0.094390
   6 C :   -0.099750
   7 C :    0.215394
   8 O :   -0.457178
   9 H :    0.168039
  10 H :    0.161740
  11 H :    0.168047
  12 H :    0.169583
  13 H :    0.169737
  14 H :    0.169875
  15 H :    0.189772
  16 H :    0.159921

  Mayer bond orders larger than 0.100000
B(  0-C ,  1-C ) :   0.7841 B(  0-C ,  9-H ) :   0.9764 B(  0-C , 10-H ) :   0.9825
B(  0-C , 11-H ) :   0.9764 B(  1-C ,  2-C ) :   1.4023 B(  1-C ,  6-C ) :   1.4006
B(  2-C ,  3-C ) :   1.4428 B(  2-C , 12-H ) :   0.9278 B(  3-C ,  4-C ) :   1.3841
B(  3-C , 13-H ) :   0.9466 B(  4-C ,  5-C ) :   1.4031 B(  4-C , 14-H ) :   0.9551
B(  5-C ,  6-C ) :   1.3392 B(  5-C , 15-H ) :   0.9569 B(  6-C ,  7-C ) :   0.9012
B(  6-C ,  8-O ) :  -0.1095 B(  7-C ,  8-O ) :   1.9431 B(  7-C , 16-H ) :   1.0044

Dispersion correction           -0.005766265
FINAL SINGLE POINT ENERGY      -384.789937668908

DIPOLE MOMENT
-------------

Method             : SCF
Type of density    : Electron Density
Multiplicity       :   1
Irrep              :   0
Energy             :  -384.7897145565317487 Eh
Relativity type    :
Basis              : AO
                                X                 Y                 Z
Electronic contribution:     -1.014115034       5.000043524      -0.001221194
Nuclear contribution   :      1.894896730      -6.057791882       0.001867345
                        -----------------------------------------
Total Dipole Moment    :      0.880781696      -1.057748358       0.000646151
                        -----------------------------------------
Magnitude (a.u.)       :      1.376447748
Magnitude (Debye)      :      3.498652132

Rotational constants in cm-1:             0.084117             0.052596             0.032557
Rotational constants in MHz :          2521.753351          1576.797715           976.048775

                             ****ORCA TERMINATED NORMALLY****
TOTAL RUN TIME: 0 days 0 hours 0 minutes 26 seconds 378 msec
