                         Program Version 6.0.1  -  RELEASE   -
|  1> ! r2scan-3c def2/J RI DEFGRID2 scfconv6 printgap
|  2> %output
|  3>     printlevel normal
|  4> end
|  5> * xyz 0 1
|  6> C -2.4871135496 0.6232020057 1.3201195437
|  7> O -1.2513067727 0.5545996733 0.6239917966
|  8> C -1.1992399152 -0.3093872795 -0.3952578132
|  9> O -2.1357531337 -0.9992256353 -0.7101147441
| 10> C 0.1434003541 -0.3671371143 -1.0973034913
| 11> C 1.0283236309 -1.4192019722 -0.4064459375
| 12> C 1.5924766134 -0.9080183908 0.9140455686
| 13> C 2.4053853361 0.3606612235 0.6804220728
| 14> C 1.5148400453 1.4452475391 0.0848707035
| 15> C 0.8770439154 0.9725312377 -1.2193428854
| 16> H -3.2815443917 0.9572154221 0.649778854
| 17> H -2.3436986569 1.3366372786 2.1278161229
| 18> H -2.7548651318 -0.3585637953 1.716102172
| 19> H -0.0879000019 -0.7348498055 -2.1038645296
| 20> H 0.4473644125 -2.3302720496 -0.2477425052
| 21> H 1.8558292494 -1.6619781454 -1.077260949
| 22> H 0.777960416 -0.6914052968 1.6072363453
| 23> H 2.2206747706 -1.6806549961 1.3626552651
| 24> H 2.8345017818 0.7090974012 1.6218505747
| 25> H 3.2293537428 0.1430139556 -0.0038062863
| 26> H 0.7361237826 1.7036054947 0.8012737341
| 27> H 2.1029463356 2.3442198996 -0.1134172553
| 28> H 0.1863180957 1.7333102684 -1.5888002761
| 29> H 1.6639013849 0.8469303078 -1.9678842025
| 30> *
| 31>
| 32>                          ****END OF INPUT****

CARTESIAN COORDINATES (ANGSTROEM)
---------------------------------
  C     -2.487114    0.623202    1.320120
  O     -1.251307    0.554600    0.623992
  C     -1.199240   -0.309387   -0.395258
  O     -2.135753   -0.999226   -0.710115
  C      0.143400   -0.367137   -1.097303
  C      1.028324   -1.419202   -0.406446
  C      1.592477   -0.908018    0.914046
  C      2.405385    0.360661    0.680422
  C      1.514840    1.445248    0.084871
  C      0.877044    0.972531   -1.219343
  H     -3.281544    0.957215    0.649779
  H     -2.343699    1.336637    2.127816
  H     -2.754865   -0.358564    1.716102
  H     -0.087900   -0.734850   -2.103865
  H      0.447364   -2.330272   -0.247743
  H      1.855829   -1.661978   -1.077261
  H      0.777960   -0.691405    1.607236
  H      2.220675   -1.680655    1.362655
  H      2.834502    0.709097    1.621851
  H      3.229354    0.143014   -0.003806
  H      0.736124    1.703605    0.801274
  H      2.102946    2.344220   -0.113417
  H      0.186318    1.733310   -1.588800
  H      1.663901    0.846930   -1.967884

 Total Charge           Charge          ....    0
 Multiplicity           Mult            ....    1
 Number of Electrons    NEL             ....   78
 Basis Dimension        Dim             ....  270

ORBITAL ENERGIES
----------------

  NO   OCC          E(Eh)            E(eV)
   0   2.0000     -19.000638      -517.0336
   1   2.0000     -18.929860      -515.1077
   2   2.0000     -10.150398      -276.2064
   3   2.0000     -10.086403      -274.4650
   4   2.0000     -10.046905      -273.3902
   5   2.0000     -10.033572      -273.0274
   6   2.0000     -10.030851      -272.9533
   7   2.0000     -10.024052      -272.7683
   8   2.0000     -10.022641      -272.7299
   9   2.0000     -10.019600      -272.6472
  10   2.0000      -1.076107       -29.2824
  11   2.0000      -0.980700       -26.6862
  12   2.0000      -0.808550       -22.0018
  13   2.0000      -0.732107       -19.9216
  14   2.0000      -0.712573       -19.3901
  15   2.0000      -0.691171       -18.8077
  16   2.0000      -0.596453       -16.2303
  17   2.0000      -0.578704       -15.7473
  18   2.0000      -0.545790       -14.8517
  19   2.0000      -0.521779       -14.1983
  20   2.0000      -0.463863       -12.6224
  21   2.0000      -0.454604       -12.3704
  22   2.0000      -0.450645       -12.2627
  23   2.0000      -0.432535       -11.7699
  24   2.0000      -0.413647       -11.2559
  25   2.0000      -0.407554       -11.0901
  26   2.0000      -0.396805       -10.7976
  27   2.0000      -0.369410       -10.0522
  28   2.0000      -0.358763        -9.7624
  29   2.0000      -0.349273        -9.5042
  30   2.0000      -0.339416        -9.2360
  31   2.0000      -0.339129        -9.2282
  32   2.0000      -0.326035        -8.8719
  33   2.0000      -0.313611        -8.5338
  34   2.0000      -0.285471        -7.7681
  35   2.0000      -0.277056        -7.5391
  36   2.0000      -0.272293        -7.4095
  37   2.0000      -0.269260        -7.3269
  38   2.0000      -0.234171        -6.3721
  39   0.0000      -0.016001        -0.4354
  40   0.0000       0.057932         1.5764
  41   0.0000       0.086501         2.3538
  42   0.0000       0.094590         2.5739
  43   0.0000       0.108853         2.9620

MULLIKEN ATOMIC CHARGES
-----------------------
   0 C :   -0.303781
   1 O :   -0.146775
   2 C :    0.196276
   3 O :   -0.394545
   4 C :    0.098275
   5 C :   -0.381209
   6 C :   -0.262767
   7 C :   -0.329216
   8 C :   -0.279182
   9 C :   -0.388205
  10 H :    0.160193
  11 H :    0.149173
  12 H :    0.162788
  13 H :    0.169557
  14 H :    0.159843
  15 H :    0.160276
  16 H :    0.158370
  17 H :    0.150566
  18 H :    0.150620
  19 H :    0.144991
  20 H :    0.172181
  21 H :    0.145914
  22 H :    0.148567
  23 H :    0.158089
Sum of atomic charges:    0.0000000

LOEWDIN ATOMIC CHARGES
----------------------
   0 C :   -0.046300
   1 O :   -0.619945
   2 C :    0.358037
   3 O :   -0.416466
   4 C :   -0.155215
   5 C :   -0.268185
   6 C :   -0.297763
   7 C :   -0.300101
   8 C :   -0.299006
   9 C :   -0.277500
  10 H :    0.176965
  11 H :    0.174538
  12 H :    0.177729
  13 H :    0.185322
  14 H :    0.167624
  15 H :    0.160999
  16 H :    0.163648
  17 H :    0.155368
  18 H :    0.155281
  19 H :    0.153250
  20 H :    0.173074
  21 H :    0.153375
  22 H :    0.164454
  23 H :    0.160817

  Mayer bond orders larger than 0.100000
B(  0-C ,  1-O ) :   0.8539 B(  0-C , 10-H ) :   0.9617 B(  0-C , 11-H ) :   0.9696
B(  0-C , 12-H ) :   0.9626 B(  1-O ,  2-C ) :   1.0468 B(  2-C ,  3-O ) :   1.8460
B(  2-C ,  4-C ) :   0.9586 B(  4-C ,  5-C ) :   0.8859 B(  4-C ,  9-C ) :   0.9174
B(  4-C , 13-H ) :   0.9279 B(  5-C ,  6-C ) :   0.9089 B(  5-C , 14-H ) :   0.9436
B(  5-C , 15-H ) :   0.9824 B(  6-C ,  7-C ) :   0.8966 B(  6-C , 16-H ) :   0.9868
B(  6-C , 17-H ) :   0.9396 B(  7-C ,  8-C ) :   0.9012 B(  7-C , 18-H ) :   0.9483
B(  7-C , 19-H ) :   1.0047 B(  8-C ,  9-C ) :   0.8923 B(  8-C , 20-H ) :   0.9904
B(  8-C , 21-H ) :   0.9407 B(  9-C , 22-H ) :   0.9546 B(  9-C , 23-H ) :   0.9853

Dispersion correction           -0.008017271
FINAL SINGLE POINT ENERGY      -463.632464822773

DIPOLE MOMENT
-------------

Method             : SCF
Type of density    : Electron Density
Multiplicity       :   1
Irrep              :   0
Energy             :  -463.6378150958886408 Eh
Relativity type    :
Basis              : AO
                                X                 Y                 Z
Electronic contribution:     -6.626594457      -1.674443235      -2.179140839
Nuclear contribution   :      7.067624477       2.166489992       2.610521439
                        -----------------------------------------
Total Dipole Moment    :      0.441030020       0.492046757       0.431380600
                        -----------------------------------------
Magnitude (a.u.)       :      0.789117679
Magnitude (Debye)      :      2.005777739

Rotational constants in cm-1:             0.069738             0.033824             0.030974
Rotational constants in MHz :          2090.692749          1014.006488           928.579653

                             ****ORCA TERMINATED NORMALLY****
TOTAL RUN TIME: 0 days 0 hours 0 minutes 24 seconds 968 msec
