                         Program Version 6.0.0  -   RELEASE  -
|  1> ! r2SCAN-3c DEF2-TZVP FREQ
|  2> * xyzfile 0 1 censo.xyz
|  3>
|  4>                          ****END OF INPUT****

CARTESIAN COORDINATES (ANGSTROEM)
---------------------------------
  C     -1.247853    0.172984   -0.000064
  C      0.114046   -0.416130   -0.000701
  O      1.151108    0.229793    0.000157
  H     -1.222944    1.263966    0.000577
  H     -1.792587   -0.201502   -0.876251
  H     -1.792695   -0.202546    0.875615
  H      0.156556   -1.524175    0.000461

 Total Charge           Charge          ....    0
 Multiplicity           Mult            ....    1
 Number of Electrons    NEL             ....   24
 Basis Dimension        Dim             ....  117

ORBITAL ENERGIES
----------------

  NO   OCC          E(Eh)            E(eV)
   0   2.0000     -18.953044      -515.7386
   1   2.0000     -10.127105      -275.5725
   2   2.0000     -10.048308      -273.4284
   3   2.0000      -1.006840       -27.3975
   4   2.0000      -0.730365       -19.8742
   5   2.0000      -0.552683       -15.0393
   6   2.0000      -0.448970       -12.2171
   7   2.0000      -0.420996       -11.4559
   8   2.0000      -0.406604       -11.0643
   9   2.0000      -0.370460       -10.0807
  10   2.0000      -0.338359        -9.2072
  11   2.0000      -0.227400        -6.1879
  12   0.0000      -0.063006        -1.7145
  13   0.0000       0.056002         1.5239
  14   0.0000       0.085431         2.3247
  15   0.0000       0.107039         2.9127
  16   0.0000       0.110330         3.0022

MULLIKEN ATOMIC CHARGES
-----------------------
   0 C :   -0.246908
   1 C :    0.148301
   2 O :   -0.311863
   3 H :    0.119994
   4 H :    0.119593
   5 H :    0.119663
   6 H :    0.051221
Sum of atomic charges:   -0.0000000

LOEWDIN ATOMIC CHARGES
----------------------
   0 C :   -0.292943
   1 C :   -0.312728
   2 O :    0.091773
   3 H :    0.129957
   4 H :    0.139903
   5 H :    0.139907
   6 H :    0.104132

  Mayer bond orders larger than 0.100000
B(  0-C ,  1-C ) :   0.9526 B(  0-C ,  3-H ) :   0.9552 B(  0-C ,  4-H ) :   0.9389
B(  0-C ,  5-H ) :   0.9389 B(  1-C ,  2-O ) :   2.0661 B(  1-C ,  6-H ) :   0.9560

Dispersion correction           -0.000882405
FINAL SINGLE POINT ENERGY      -153.803257376526

DIPOLE MOMENT
-------------

Method             : SCF
Type of density    : Electron Density
Multiplicity       :   1
Irrep              :   0
Energy             :  -153.8057389290264609 Eh
Relativity type    :
Basis              : AO
                                X                 Y                 Z
Electronic contribution:      3.280120972       0.216400111      -0.001135487
Nuclear contribution   :     -4.356430522      -0.627187268       0.000916023
                        -----------------------------------------
Total Dipole Moment    :     -1.076309551      -0.410787157      -0.000219464
                        -----------------------------------------
Magnitude (a.u.)       :      1.152036625
Magnitude (Debye)      :      2.928244389

VIBRATIONAL FREQUENCIES
-----------------------

Scaling factor for frequencies =  1.000000000  (already applied!)

     0:       0.00 cm**-1
     1:       0.00 cm**-1
     2:       0.00 cm**-1
     3:       0.00 cm**-1
     4:       0.00 cm**-1
     5:       0.00 cm**-1
     6:     194.73 cm**-1
     7:     523.12 cm**-1
     8:     762.23 cm**-1
     9:     907.22 cm**-1
    10:    1119.06 cm**-1
    11:    1144.05 cm**-1
    12:    1367.06 cm**-1
    13:    1405.45 cm**-1
    14:    1449.30 cm**-1
    15:    1458.54 cm**-1
    16:    1718.44 cm**-1
    17:    2905.04 cm**-1
    18:    2998.48 cm**-1
    19:    3061.54 cm**-1
    20:    3130.65 cm**-1

IR SPECTRUM
-----------

 Mode   freq       eps      Int      T**2         TX        TY        TZ
       cm**-1   L/(mol*cm) km/mol    a.u.
----------------------------------------------------------------------------
  6:    194.73   0.000075    0.38  0.000120  (-0.000093 -0.000056  0.010933)
  7:    523.12   0.002485   12.56  0.001482  ( 0.029722 -0.024471 -0.000003)
  8:    762.23   0.000310    1.57  0.000127  (-0.000003 -0.000021 -0.011262)
  9:    907.22   0.001574    7.95  0.000541  (-0.021435  0.009051  0.000003)
 10:   1119.06   0.000067    0.34  0.000019  (-0.000098  0.000024  0.004325)
 11:   1144.05   0.004764   24.08  0.001300  ( 0.028589 -0.021960  0.000015)
 12:   1367.06   0.006366   32.17  0.001453  ( 0.038024 -0.002725  0.000010)
 13:   1405.45   0.002305   11.65  0.000512  ( 0.017809 -0.013953 -0.000001)
 14:   1449.30   0.005301   26.79  0.001141  (-0.023321 -0.024445 -0.000009)
 15:   1458.54   0.002393   12.10  0.000512  ( 0.000012 -0.000011  0.022630)
 16:   1718.44   0.034763  175.68  0.006313  (-0.074695 -0.027081  0.000019)
 17:   2905.04   0.024611  124.37  0.002644  ( 0.005532 -0.051118 -0.000004)
 18:   2998.48   0.000550    2.78  0.000057  ( 0.005051  0.005629  0.000020)
 19:   3061.54   0.001027    5.19  0.000105  ( 0.000010 -0.000006  0.010229)
 20:   3130.65   0.001799    9.09  0.000179  (-0.000911  0.013360  0.000007)

--------------------------
THERMOCHEMISTRY AT 298.15K
--------------------------

Temperature         ...   298.15 K
Pressure            ...     1.00 atm
Total Mass          ...    44.05 AMU
Quasi RRHO          ...     True
Cut-Off Frequency   ...     1.00 cm^-1

Throughout the following assumptions are being made:
  (1) The electronic state is orbitally nondegenerate
  (2) There are no thermally accessible electronically excited states
  (3) Hindered rotations indicated by low frequency modes are not
      treated as such but are treated as vibrations and this may
      cause some error
  (4) All equations used are the standard statistical mechanics
      equations for an ideal gas
  (5) All vibrations are strictly harmonic

freq.     194.73  E(vib)   ...       0.36
freq.     523.12  E(vib)   ...       0.13
freq.     762.23  E(vib)   ...       0.06
freq.     907.22  E(vib)   ...       0.03
freq.    1119.06  E(vib)   ...       0.01
freq.    1144.05  E(vib)   ...       0.01
freq.    1367.06  E(vib)   ...       0.01
freq.    1405.45  E(vib)   ...       0.00
freq.    1449.30  E(vib)   ...       0.00
freq.    1458.54  E(vib)   ...       0.00
freq.    1718.44  E(vib)   ...       0.00
freq.    2905.04  E(vib)   ...       0.00
freq.    2998.48  E(vib)   ...       0.00
freq.    3061.54  E(vib)   ...       0.00
freq.    3130.65  E(vib)   ...       0.00

------------
INNER ENERGY
------------

The inner energy is: U= E(el) + E(ZPE) + E(vib) + E(rot) + E(trans)
    E(el)   - is the total energy from the electronic structure calculation
              = E(kin-el) + E(nuc-el) + E(el-el) + E(nuc-nuc)
    E(ZPE)  - the the zero temperature vibrational energy from the frequency calculation
    E(vib)  - the the finite temperature correction to E(ZPE) due to population
              of excited vibrational states
    E(rot)  - is the rotational thermal energy
    E(trans)- is the translational thermal energy

Summary of contributions to the inner energy U:
Electronic energy                ...   -153.80325738 Eh
Zero point energy                ...      0.05500613 Eh      34.52 kcal/mol
Thermal vibrational correction   ...      0.00099297 Eh       0.62 kcal/mol
Thermal rotational correction    ...      0.00141627 Eh       0.89 kcal/mol
Thermal translational correction ...      0.00141627 Eh       0.89 kcal/mol
-----------------------------------------------------------------------
Total thermal energy                   -153.74442573 Eh

Summary of corrections to the electronic energy:
(perhaps to be used in another calculation)
Total thermal correction                  0.00382551 Eh       2.40 kcal/mol
Non-thermal (ZPE) correction              0.05500613 Eh      34.52 kcal/mol
-----------------------------------------------------------------------
Total correction                          0.05883165 Eh      36.92 kcal/mol

--------
ENTHALPY
--------

The enthalpy is H = U + kB*T
                kB is Boltzmann's constant
Total thermal energy              ...   -153.74442573 Eh
Thermal Enthalpy correction       ...      0.00094421 Eh       0.59 kcal/mol
-----------------------------------------------------------------------
Total Enthalpy                    ...   -153.74348152 Eh

Note: Only C1 symmetry has been detected, increase convergence thresholds
      if your molecule has a higher symmetry. Symmetry factor of 1.0 is
      used for the rotational entropy correction.

Note: Rotational entropy computed according to Herzberg
Infrared and Raman Spectra, Chapter V,1, Van Nostrand Reinhold, 1945
Point Group:  C1, Symmetry Number:   1
Rotational constants in cm-1:     1.901572     0.339764     0.304359

Vibrational entropy computed according to the QRRHO of S. Grimme
Chem.Eur.J. 2012 18 9955 using a reference frequency of 100.0 cm-1

-------
ENTROPY
-------

The entropy contributions are T*S = T*(S(el)+S(vib)+S(rot)+S(trans))
     S(el)   - electronic entropy
     S(vib)  - vibrational entropy
     S(rot)  - rotational entropy
     S(trans)- translational entropy
The entropies will be listed as multiplied by the temperature to get
units of energy

Electronic entropy                ...      0.00000000 Eh      0.00 kcal/mol
Vibrational entropy               ...      0.00158890 Eh      1.00 kcal/mol
Rotational entropy                ...      0.01027860 Eh      6.45 kcal/mol
Translational entropy             ...      0.01771022 Eh     11.11 kcal/mol
-----------------------------------------------------------------------
Final entropy term                ...      0.02957772 Eh     18.56 kcal/mol

In case the symmetry of your molecule has not been determined correctly
or in case you have a reason to use a different symmetry number we print
out the resulting rotational entropy values for sn=1,12:

 non-linear molecules -----------------------------------
|  sn= 1 | S(rot)=       0.01027860 Eh      6.45 kcal/mol|
|  sn= 2 | S(rot)=       0.00962415 Eh      6.04 kcal/mol|
|  sn= 3 | S(rot)=       0.00924132 Eh      5.80 kcal/mol|
|  sn= 4 | S(rot)=       0.00896969 Eh      5.63 kcal/mol|
|  sn= 5 | S(rot)=       0.00875900 Eh      5.50 kcal/mol|
|  sn= 6 | S(rot)=       0.00858686 Eh      5.39 kcal/mol|
|  sn= 7 | S(rot)=       0.00844131 Eh      5.30 kcal/mol|
|  sn= 8 | S(rot)=       0.00831523 Eh      5.22 kcal/mol|
|  sn= 9 | S(rot)=       0.00820403 Eh      5.15 kcal/mol|
|  sn=10 | S(rot)=       0.00810455 Eh      5.09 kcal/mol|
|  sn=11 | S(rot)=       0.00801456 Eh      5.03 kcal/mol|
|  sn=12 | S(rot)=       0.00793240 Eh      4.98 kcal/mol|
 linear molecules ---------------------------------------
|  Dinfh | S(rot)=       0.00644895 Eh      4.05 kcal/mol|
|  Cinfv | S(rot)=       0.00710341 Eh      4.46 kcal/mol|
 --------------------------------------------------------

-------------------
GIBBS FREE ENERGY
-------------------

The Gibbs free energy is G = H - T*S

Total enthalpy                    ...   -153.74348152 Eh
Total entropy correction          ...     -0.02957772 Eh    -18.56 kcal/mol
-----------------------------------------------------------------------
Final Gibbs free energy         ...   -153.77305924 Eh

For completeness - the Gibbs free energy minus the electronic energy
G-E(el)                           ...      0.03019813 Eh     18.95 kcal/mol

                             ****ORCA TERMINATED NORMALLY****
TOTAL RUN TIME: 0 days 0 hours 1 minutes 5 seconds 411 msec
