                         Program Version 6.0.0  -   RELEASE  -
|  1> ! r2SCAN-3c DEF2-TZVP FREQ
|  2> * xyzfile 0 1 vacuum_censo.xyz
|  3>
|  4>                          ****END OF INPUT****

CARTESIAN COORDINATES (ANGSTROEM)
---------------------------------
  C     -1.256607   -0.168155    0.000008
  C      0.125805    0.415807    0.000077
  O      1.145039   -0.231911    0.000062
  H     -1.805191    0.195017    0.877908
  H     -1.804802    0.194357   -0.878417
  H     -1.220576   -1.258445    0.000391
  H      0.165913    1.531532   -0.000146

 Total Charge           Charge          ....    0
 Multiplicity           Mult            ....    1
 Number of Electrons    NEL             ....   24
 Basis Dimension        Dim             ....  117

ORBITAL ENERGIES
----------------

  NO   OCC          E(Eh)            E(eV)
   0   2.0000     -18.953343      -515.7467
   1   2.0000     -10.127787      -275.5911
   2   2.0000     -10.047427      -273.4044
   3   2.0000      -1.015037       -27.6206
   4   2.0000      -0.725726       -19.7480
   5   2.0000      -0.551198       -14.9989
   6   2.0000      -0.448652       -12.2084
   7   2.0000      -0.420004       -11.4289
   8   2.0000      -0.406646       -11.0654
   9   2.0000      -0.370796       -10.0899
  10   2.0000      -0.342937        -9.3318
  11   2.0000      -0.227692        -6.1958
  12   0.0000      -0.060520        -1.6468
  13   0.0000       0.057313         1.5596
  14   0.0000       0.084119         2.2890
  15   0.0000       0.109032         2.9669
  16   0.0000       0.110764         3.0140

MULLIKEN ATOMIC CHARGES
-----------------------
   0 C :   -0.255544
   1 C :    0.146183
   2 O :   -0.294685
   3 H :    0.119273
   4 H :    0.119294
   5 H :    0.118428
   6 H :    0.047051
Sum of atomic charges:   -0.0000000

LOEWDIN ATOMIC CHARGES
----------------------
   0 C :   -0.294458
   1 C :   -0.320366
   2 O :    0.109632
   3 H :    0.137053
   4 H :    0.137070
   5 H :    0.128475
   6 H :    0.102593

  Mayer bond orders larger than 0.100000
B(  0-C ,  1-C ) :   0.9439 B(  0-C ,  3-H ) :   0.9411 B(  0-C ,  4-H ) :   0.9411
B(  0-C ,  5-H ) :   0.9568 B(  1-C ,  2-O ) :   2.0818 B(  1-C ,  6-H ) :   0.9521

Dispersion correction           -0.000881949
FINAL SINGLE POINT ENERGY      -153.803788310904

DIPOLE MOMENT
-------------

Method             : SCF
Type of density    : Electron Density
Multiplicity       :   1
Irrep              :   0
Energy             :  -153.8062479153277877 Eh
Relativity type    :
Basis              : AO
                                X                 Y                 Z
Electronic contribution:      3.331251845      -0.222479560       0.000318640
Nuclear contribution   :     -4.362367251       0.623893801      -0.000395335
                        -----------------------------------------
Total Dipole Moment    :     -1.031115405       0.401414241      -0.000076695
                        -----------------------------------------
Magnitude (a.u.)       :      1.106495539
Magnitude (Debye)      :      2.812488148

VIBRATIONAL FREQUENCIES
-----------------------

Scaling factor for frequencies =  1.000000000  (already applied!)

     0:       0.00 cm**-1
     1:       0.00 cm**-1
     2:       0.00 cm**-1
     3:       0.00 cm**-1
     4:       0.00 cm**-1
     5:       0.00 cm**-1
     6:     174.44 cm**-1
     7:     513.71 cm**-1
     8:     763.62 cm**-1
     9:     880.29 cm**-1
    10:    1123.87 cm**-1
    11:    1126.83 cm**-1
    12:    1361.28 cm**-1
    13:    1414.39 cm**-1
    14:    1450.56 cm**-1
    15:    1459.56 cm**-1
    16:    1786.07 cm**-1
    17:    2835.20 cm**-1
    18:    3002.93 cm**-1
    19:    3068.90 cm**-1
    20:    3132.53 cm**-1

IR SPECTRUM
-----------

 Mode   freq       eps      Int      T**2         TX        TY        TZ
       cm**-1   L/(mol*cm) km/mol    a.u.
----------------------------------------------------------------------------
  6:    174.44   0.000082    0.41  0.000146  (-0.000026  0.000021 -0.012095)
  7:    513.71   0.002456   12.41  0.001492  ( 0.029337  0.025129 -0.000001)
  8:    763.62   0.000256    1.29  0.000105  ( 0.000018 -0.000001  0.010233)
  9:    880.29   0.002408   12.17  0.000854  ( 0.027042  0.011057  0.000001)
 10:   1123.87   0.000071    0.36  0.000020  ( 0.000164  0.000128  0.004440)
 11:   1126.83   0.005287   26.72  0.001464  ( 0.030651  0.022908 -0.000024)
 12:   1361.28   0.005866   29.64  0.001345  ( 0.036333  0.004959  0.000009)
 13:   1414.39   0.001896    9.58  0.000418  ( 0.016895  0.011525  0.000003)
 14:   1450.56   0.004650   23.50  0.001000  (-0.020555  0.024040  0.000014)
 15:   1459.56   0.002259   11.42  0.000483  ( 0.000009 -0.000016  0.021978)
 16:   1786.07   0.036605  184.99  0.006396  (-0.074477  0.029135 -0.000008)
 17:   2835.20   0.028147  142.24  0.003098  ( 0.006338  0.055298 -0.000004)
 18:   3002.93   0.000425    2.15  0.000044  ( 0.005508 -0.003714  0.000001)
 19:   3068.90   0.001137    5.74  0.000116  (-0.000009 -0.000000  0.010751)
 20:   3132.53   0.001879    9.49  0.000187  ( 0.000742  0.013661  0.000000)

--------------------------
THERMOCHEMISTRY AT 298.15K
--------------------------

Temperature         ...   298.15 K
Pressure            ...     1.00 atm
Total Mass          ...    44.05 AMU
Quasi RRHO          ...     True
Cut-Off Frequency   ...     1.00 cm^-1

Throughout the following assumptions are being made:
  (1) The electronic state is orbitally nondegenerate
  (2) There are no thermally accessible electronically excited states
  (3) Hindered rotations indicated by low frequency modes are not
      treated as such but are treated as vibrations and this may
      cause some error
  (4) All equations used are the standard statistical mechanics
      equations for an ideal gas
  (5) All vibrations are strictly harmonic

freq.     174.44  E(vib)   ...       0.38
freq.     513.71  E(vib)   ...       0.13
freq.     763.62  E(vib)   ...       0.06
freq.     880.29  E(vib)   ...       0.04
freq.    1123.87  E(vib)   ...       0.01
freq.    1126.83  E(vib)   ...       0.01
freq.    1361.28  E(vib)   ...       0.01
freq.    1414.39  E(vib)   ...       0.00
freq.    1450.56  E(vib)   ...       0.00
freq.    1459.56  E(vib)   ...       0.00
freq.    1786.07  E(vib)   ...       0.00
freq.    2835.20  E(vib)   ...       0.00
freq.    3002.93  E(vib)   ...       0.00
freq.    3068.90  E(vib)   ...       0.00
freq.    3132.53  E(vib)   ...       0.00

------------
INNER ENERGY
------------

The inner energy is: U= E(el) + E(ZPE) + E(vib) + E(rot) + E(trans)
    E(el)   - is the total energy from the electronic structure calculation
              = E(kin-el) + E(nuc-el) + E(el-el) + E(nuc-nuc)
    E(ZPE)  - the the zero temperature vibrational energy from the frequency calculation
    E(vib)  - the the finite temperature correction to E(ZPE) due to population
              of excited vibrational states
    E(rot)  - is the rotational thermal energy
    E(trans)- is the translational thermal energy

Summary of contributions to the inner energy U:
Electronic energy                ...   -153.80378831 Eh
Zero point energy                ...      0.05489055 Eh      34.44 kcal/mol
Thermal vibrational correction   ...      0.00103804 Eh       0.65 kcal/mol
Thermal rotational correction    ...      0.00141627 Eh       0.89 kcal/mol
Thermal translational correction ...      0.00141627 Eh       0.89 kcal/mol
-----------------------------------------------------------------------
Total thermal energy                   -153.74502719 Eh

Summary of corrections to the electronic energy:
(perhaps to be used in another calculation)
Total thermal correction                  0.00387058 Eh       2.43 kcal/mol
Non-thermal (ZPE) correction              0.05489055 Eh      34.44 kcal/mol
-----------------------------------------------------------------------
Total correction                          0.05876112 Eh      36.87 kcal/mol

--------
ENTHALPY
--------

The enthalpy is H = U + kB*T
                kB is Boltzmann's constant
Total thermal energy              ...   -153.74502719 Eh
Thermal Enthalpy correction       ...      0.00094421 Eh       0.59 kcal/mol
-----------------------------------------------------------------------
Total Enthalpy                    ...   -153.74408298 Eh

Note: Only C1 symmetry has been detected, increase convergence thresholds
      if your molecule has a higher symmetry. Symmetry factor of 1.0 is
      used for the rotational entropy correction.

Note: Rotational entropy computed according to Herzberg
Infrared and Raman Spectra, Chapter V,1, Van Nostrand Reinhold, 1945
Point Group:  C1, Symmetry Number:   1
Rotational constants in cm-1:     1.900859     0.338609     0.303500

Vibrational entropy computed according to the QRRHO of S. Grimme
Chem.Eur.J. 2012 18 9955 using a reference frequency of 100.0 cm-1

-------
ENTROPY
-------

The entropy contributions are T*S = T*(S(el)+S(vib)+S(rot)+S(trans))
     S(el)   - electronic entropy
     S(vib)  - vibrational entropy
     S(rot)  - rotational entropy
     S(trans)- translational entropy
The entropies will be listed as multiplied by the temperature to get
units of energy

Electronic entropy                ...      0.00000000 Eh      0.00 kcal/mol
Vibrational entropy               ...      0.00169962 Eh      1.07 kcal/mol
Rotational entropy                ...      0.01028172 Eh      6.45 kcal/mol
Translational entropy             ...      0.01771022 Eh     11.11 kcal/mol
-----------------------------------------------------------------------
Final entropy term                ...      0.02969156 Eh     18.63 kcal/mol

In case the symmetry of your molecule has not been determined correctly
or in case you have a reason to use a different symmetry number we print
out the resulting rotational entropy values for sn=1,12:

 non-linear molecules -----------------------------------
|  sn= 1 | S(rot)=       0.01028172 Eh      6.45 kcal/mol|
|  sn= 2 | S(rot)=       0.00962727 Eh      6.04 kcal/mol|
|  sn= 3 | S(rot)=       0.00924443 Eh      5.80 kcal/mol|
|  sn= 4 | S(rot)=       0.00897281 Eh      5.63 kcal/mol|
|  sn= 5 | S(rot)=       0.00876212 Eh      5.50 kcal/mol|
|  sn= 6 | S(rot)=       0.00858998 Eh      5.39 kcal/mol|
|  sn= 7 | S(rot)=       0.00844443 Eh      5.30 kcal/mol|
|  sn= 8 | S(rot)=       0.00831835 Eh      5.22 kcal/mol|
|  sn= 9 | S(rot)=       0.00820715 Eh      5.15 kcal/mol|
|  sn=10 | S(rot)=       0.00810767 Eh      5.09 kcal/mol|
|  sn=11 | S(rot)=       0.00801768 Eh      5.03 kcal/mol|
|  sn=12 | S(rot)=       0.00793552 Eh      4.98 kcal/mol|
 linear molecules ---------------------------------------
|  Dinfh | S(rot)=       0.00645162 Eh      4.05 kcal/mol|
|  Cinfv | S(rot)=       0.00710608 Eh      4.46 kcal/mol|
 --------------------------------------------------------

-------------------
GIBBS FREE ENERGY
-------------------

The Gibbs free energy is G = H - T*S

Total enthalpy                    ...   -153.74408298 Eh
Total entropy correction          ...     -0.02969156 Eh    -18.63 kcal/mol
-----------------------------------------------------------------------
Final Gibbs free energy         ...   -153.77377454 Eh

For completeness - the Gibbs free energy minus the electronic energy
G-E(el)                           ...      0.03001377 Eh     18.83 kcal/mol

                             ****ORCA TERMINATED NORMALLY****
TOTAL RUN TIME: 0 days 0 hours 1 minutes 4 seconds 501 msec
