                         Program Version 6.0.1  -  RELEASE   -
|  1> ! r2scan-3c def2/J RI DEFGRID2 scfconv6 printgap
|  2> %output
|  3>     printlevel normal
|  4> end
|  5> * xyz 0 1
|  6> C -2.8744521665 -0.4025818568 -0.0082827784
|  7> N -1.8117123687 0.5642538603 -0.0065761273
|  8> C -0.4796141683 0.2537247104 -0.0020466059
|  9> C -0.021945499 -1.0665521847 0.0035261181
| 10> C 1.3335238219 -1.3347436026 0.0083519104
| 11> C 2.2614003407 -0.3078714838 0.0077578134
| 12> C 1.8160370031 1.004739793 0.0022366962
| 13> C 0.4663051852 1.2851920637 -0.0026182106
| 14> H -3.8293730772 0.1176988804 -0.0130746539
| 15> H -2.8327277365 -1.0400355098 0.88151369
| 16> H -2.8261978408 -1.0445048453 -0.8945621838
| 17> H -2.0550979978 1.538664764 -0.0118290987
| 18> H -0.7258158295 -1.8838564685 0.0040990734
| 19> H 1.6678510037 -2.3626024975 0.0125665063
| 20> H 3.3185567374 -0.5257185859 0.0115188165
| 21> H 2.5285476016 1.8173110771 0.0017119036
| 22> H 0.1243768215 2.3115333154 -0.006913447
| 23> *
| 24>
| 25>                          ****END OF INPUT****

CARTESIAN COORDINATES (ANGSTROEM)
---------------------------------
  C     -2.874452   -0.402582   -0.008283
  N     -1.811712    0.564254   -0.006576
  C     -0.479614    0.253725   -0.002047
  C     -0.021945   -1.066552    0.003526
  C      1.333524   -1.334744    0.008352
  C      2.261400   -0.307871    0.007758
  C      1.816037    1.004740    0.002237
  C      0.466305    1.285192   -0.002618
  H     -3.829373    0.117699   -0.013075
  H     -2.832728   -1.040036    0.881514
  H     -2.826198   -1.044505   -0.894562
  H     -2.055098    1.538665   -0.011829
  H     -0.725816   -1.883856    0.004099
  H      1.667851   -2.362602    0.012567
  H      3.318557   -0.525719    0.011519
  H      2.528548    1.817311    0.001712
  H      0.124377    2.311533   -0.006913

 Total Charge           Charge          ....    0
 Multiplicity           Mult            ....    1
 Number of Electrons    NEL             ....   58
 Basis Dimension        Dim             ....  202

ORBITAL ENERGIES
----------------

  NO   OCC          E(Eh)            E(eV)
   0   2.0000     -14.172793      -385.6613
   1   2.0000     -10.068495      -273.9777
   2   2.0000     -10.065981      -273.9093
   3   2.0000     -10.024470      -272.7797
   4   2.0000     -10.024046      -272.7682
   5   2.0000     -10.020597      -272.6743
   6   2.0000     -10.018656      -272.6215
   7   2.0000     -10.012130      -272.4439
   8   2.0000      -0.905670       -24.6445
   9   2.0000      -0.805043       -21.9063
  10   2.0000      -0.712202       -19.3800
  11   2.0000      -0.705022       -19.1846
  12   2.0000      -0.648713       -17.6524
  13   2.0000      -0.575995       -15.6736
  14   2.0000      -0.552778       -15.0419
  15   2.0000      -0.500781       -13.6269
  16   2.0000      -0.464403       -12.6371
  17   2.0000      -0.436412       -11.8754
  18   2.0000      -0.414116       -11.2687
  19   2.0000      -0.403753       -10.9867
  20   2.0000      -0.389370       -10.5953
  21   2.0000      -0.380722       -10.3600
  22   2.0000      -0.361615        -9.8401
  23   2.0000      -0.342125        -9.3097
  24   2.0000      -0.318066        -8.6550
  25   2.0000      -0.300579        -8.1792
  26   2.0000      -0.269801        -7.3417
  27   2.0000      -0.227028        -6.1777
  28   2.0000      -0.171062        -4.6548
  29   0.0000      -0.021526        -0.5858
  30   0.0000      -0.000695        -0.0189
  31   0.0000       0.069906         1.9022
  32   0.0000       0.092127         2.5069
  33   0.0000       0.101067         2.7502

MULLIKEN ATOMIC CHARGES
-----------------------
   0 C :   -0.427846
   1 N :   -0.131579
   2 C :    0.328415
   3 C :   -0.305254
   4 C :   -0.145490
   5 C :   -0.207486
   6 C :   -0.126063
   7 C :   -0.381616
   8 H :    0.145028
   9 H :    0.154256
  10 H :    0.154225
  11 H :    0.234956
  12 H :    0.142952
  13 H :    0.142987
  14 H :    0.144731
  15 H :    0.144781
  16 H :    0.133004
Sum of atomic charges:    0.0000000

LOEWDIN ATOMIC CHARGES
----------------------
   0 C :   -0.130846
   1 N :   -0.749288
   2 C :    0.141307
   3 C :   -0.177812
   4 C :   -0.154270
   5 C :   -0.210940
   6 C :   -0.157077
   7 C :   -0.164710
   8 H :    0.177642
   9 H :    0.166241
  10 H :    0.166193
  11 H :    0.259997
  12 H :    0.171230
  13 H :    0.165823
  14 H :    0.164240
  15 H :    0.166063
  16 H :    0.166208

  Mayer bond orders larger than 0.100000
B(  0-C ,  1-N ) :   0.8738 B(  0-C ,  8-H ) :   0.9707 B(  0-C ,  9-H ) :   0.9572
B(  0-C , 10-H ) :   0.9571 B(  1-N ,  2-C ) :   1.1622 B(  1-N , 11-H ) :   0.9270
B(  2-C ,  3-C ) :   1.3212 B(  2-C ,  7-C ) :   1.3083 B(  3-C ,  4-C ) :   1.4081
B(  3-C , 12-H ) :   0.9459 B(  4-C ,  5-C ) :   1.4336 B(  4-C , 13-H ) :   0.9510
B(  5-C ,  6-C ) :   1.4049 B(  5-C , 14-H ) :   0.9498 B(  6-C ,  7-C ) :   1.4535
B(  6-C , 15-H ) :   0.9422 B(  7-C , 16-H ) :   0.9433

Dispersion correction           -0.005289817
FINAL SINGLE POINT ENERGY      -326.813751801029

DIPOLE MOMENT
-------------

Method             : SCF
Type of density    : Electron Density
Multiplicity       :   1
Irrep              :   0
Energy             :  -326.8173803287415922 Eh
Relativity type    :
Basis              : AO
                                X                 Y                 Z
Electronic contribution:      3.510582970       1.220682590       0.009620208
Nuclear contribution   :     -4.353541635      -1.002163038      -0.014079871
                        -----------------------------------------
Total Dipole Moment    :     -0.842958666       0.218519552      -0.004459663
                        -----------------------------------------
Magnitude (a.u.)       :      0.870832932
Magnitude (Debye)      :      2.213481404

Rotational constants in cm-1:             0.169050             0.050982             0.039461
Rotational constants in MHz :          5067.999715          1528.395226          1183.004022

                             ****ORCA TERMINATED NORMALLY****
TOTAL RUN TIME: 0 days 0 hours 0 minutes 17 seconds 197 msec
