                         Program Version 6.0.1  -  RELEASE   -
|  1> ! pbe def2-sv(p) def2/J RI DEFGRID1 loosescf d4 GCP(DFT/SV(P)) printgap
|  2> %output
|  3>     printlevel normal
|  4> end
|  5> * xyz 0 1
|  6> C -2.4425343146 -0.3990753101 1.3608948383
|  7> C -2.0489755275 -0.4686242721 -0.1190575284
|  8> H -2.9764866574 -0.5662686057 -0.696011139
|  9> C -1.1345387824 -1.6472641479 -0.437456986
| 10> C 0.2621790016 -1.5260030199 0.186205183
| 11> C 0.7683596394 -0.0757834069 0.2657427638
| 12> H 0.4700984271 0.352847584 1.232729087
| 13> C 0.0750496411 0.7669518594 -0.8150073533
| 14> C -1.4068602781 0.8408841633 -0.5371123404
| 15> O -2.0329788429 1.868545633 -0.6213216521
| 16> C 2.2809010402 0.0341963607 0.225695402
| 17> C 3.0926861375 -0.9753497433 0.50040238
| 18> C 2.8429812393 1.3977167475 -0.0586119924
| 19> H -3.0601517861 0.4784327251 1.5363756542
| 20> H -3.0087142324 -1.2859743212 1.6364820868
| 21> H -1.5654910559 -0.3385362155 1.9992695732
| 22> H -1.601898905 -2.5723868283 -0.0944483915
| 23> H -1.0396472472 -1.7199465815 -1.5233483728
| 24> H 0.2613170884 -1.9609718102 1.1863879739
| 25> H 0.9475657456 -2.1129286913 -0.4268476642
| 26> H 0.4581418421 1.7856017058 -0.8504021348
| 27> H 0.2283986908 0.3086067238 -1.7949988424
| 28> H 4.1614098898 -0.8409549739 0.5027086367
| 29> H 2.7518808627 -1.9660994685 0.7400045579
| 30> H 2.3300150751 2.156925661 0.5296673095
| 31> H 3.901709258 1.4279116698 0.1850405942
| 32> H 2.7327116381 1.6500268609 -1.1125517779
| 33> *
| 34>
| 35>                          ****END OF INPUT****

CARTESIAN COORDINATES (ANGSTROEM)
---------------------------------
  C     -2.442534   -0.399075    1.360895
  C     -2.048976   -0.468624   -0.119058
  H     -2.976487   -0.566269   -0.696011
  C     -1.134539   -1.647264   -0.437457
  C      0.262179   -1.526003    0.186205
  C      0.768360   -0.075783    0.265743
  H      0.470098    0.352848    1.232729
  C      0.075050    0.766952   -0.815007
  C     -1.406860    0.840884   -0.537112
  O     -2.032979    1.868546   -0.621322
  C      2.280901    0.034196    0.225695
  C      3.092686   -0.975350    0.500402
  C      2.842981    1.397717   -0.058612
  H     -3.060152    0.478433    1.536376
  H     -3.008714   -1.285974    1.636482
  H     -1.565491   -0.338536    1.999270
  H     -1.601899   -2.572387   -0.094448
  H     -1.039647   -1.719947   -1.523348
  H      0.261317   -1.960972    1.186388
  H      0.947566   -2.112929   -0.426848
  H      0.458142    1.785602   -0.850402
  H      0.228399    0.308607   -1.794999
  H      4.161410   -0.840955    0.502709
  H      2.751881   -1.966099    0.740005
  H      2.330015    2.156926    0.529667
  H      3.901709    1.427912    0.185041
  H      2.732712    1.650027   -1.112552

 Total Charge           Charge          ....    0
 Multiplicity           Mult            ....    1
 Number of Electrons    NEL             ....   84
 Basis Dimension        Dim             ....  186

ORBITAL ENERGIES
----------------

  NO   OCC          E(Eh)            E(eV)
   0   2.0000     -18.734456      -509.7905
   1   2.0000      -9.969245      -271.2769
   2   2.0000      -9.912555      -269.7343
   3   2.0000      -9.904543      -269.5163
   4   2.0000      -9.902082      -269.4494
   5   2.0000      -9.894111      -269.2324
   6   2.0000      -9.893190      -269.2074
   7   2.0000      -9.892572      -269.1906
   8   2.0000      -9.886399      -269.0226
   9   2.0000      -9.883492      -268.9435
  10   2.0000      -9.871625      -268.6206
  11   2.0000      -0.937391       -25.5077
  12   2.0000      -0.773556       -21.0495
  13   2.0000      -0.729917       -19.8620
  14   2.0000      -0.682910       -18.5829
  15   2.0000      -0.661163       -17.9912
  16   2.0000      -0.621057       -16.8998
  17   2.0000      -0.606254       -16.4970
  18   2.0000      -0.556296       -15.1376
  19   2.0000      -0.532920       -14.5015
  20   2.0000      -0.475593       -12.9416
  21   2.0000      -0.460306       -12.5256
  22   2.0000      -0.443715       -12.0741
  23   2.0000      -0.426128       -11.5955
  24   2.0000      -0.414003       -11.2656
  25   2.0000      -0.403191       -10.9714
  26   2.0000      -0.385043       -10.4775
  27   2.0000      -0.376243       -10.2381
  28   2.0000      -0.373750       -10.1703
  29   2.0000      -0.366463        -9.9720
  30   2.0000      -0.355214        -9.6659
  31   2.0000      -0.346975        -9.4417
  32   2.0000      -0.338066        -9.1992
  33   2.0000      -0.324356        -8.8262
  34   2.0000      -0.321413        -8.7461
  35   2.0000      -0.319075        -8.6825
  36   2.0000      -0.310001        -8.4356
  37   2.0000      -0.282610        -7.6902
  38   2.0000      -0.279354        -7.6016
  39   2.0000      -0.278467        -7.5775
  40   2.0000      -0.221720        -6.0333
  41   2.0000      -0.190411        -5.1813
  42   0.0000      -0.050412        -1.3718
  43   0.0000      -0.017501        -0.4762
  44   0.0000       0.026178         0.7123
  45   0.0000       0.041361         1.1255
  46   0.0000       0.052517         1.4290

MULLIKEN ATOMIC CHARGES
-----------------------
   0 C :   -0.257205
   1 C :   -0.167064
   2 H :    0.088926
   3 C :   -0.078476
   4 C :   -0.157872
   5 C :   -0.163682
   6 H :    0.096586
   7 C :   -0.092546
   8 C :    0.005620
   9 O :   -0.152169
  10 C :   -0.048746
  11 C :   -0.228142
  12 C :   -0.236951
  13 H :    0.119686
  14 H :    0.107143
  15 H :    0.108427
  16 H :    0.084872
  17 H :    0.077642
  18 H :    0.092085
  19 H :    0.093895
  20 H :    0.093914
  21 H :    0.102105
  22 H :    0.080335
  23 H :    0.092079
  24 H :    0.115121
  25 H :    0.100112
  26 H :    0.124307
Sum of atomic charges:    0.0000000

LOEWDIN ATOMIC CHARGES
----------------------
   0 C :   -0.320528
   1 C :   -0.175679
   2 H :    0.137049
   3 C :   -0.218904
   4 C :   -0.221153
   5 C :   -0.130098
   6 H :    0.131754
   7 C :   -0.238380
   8 C :    0.051546
   9 O :   -0.121675
  10 C :   -0.051538
  11 C :   -0.269123
  12 C :   -0.324703
  13 H :    0.128403
  14 H :    0.122610
  15 H :    0.118112
  16 H :    0.122273
  17 H :    0.118130
  18 H :    0.120944
  19 H :    0.125755
  20 H :    0.130916
  21 H :    0.141195
  22 H :    0.118767
  23 H :    0.118819
  24 H :    0.128002
  25 H :    0.125741
  26 H :    0.131766

  Mayer bond orders larger than 0.100000
B(  0-C ,  1-C ) :   1.0946 B(  0-C , 13-H ) :   0.9435 B(  0-C , 14-H ) :   0.9469
B(  0-C , 15-H ) :   0.9436 B(  1-C ,  2-H ) :   0.8702 B(  1-C ,  3-C ) :   1.1024
B(  1-C ,  8-C ) :   0.9242 B(  3-C ,  4-C ) :   1.1414 B(  3-C , 16-H ) :   0.9104
B(  3-C , 17-H ) :   0.8983 B(  4-C ,  5-C ) :   1.1110 B(  4-C , 18-H ) :   0.9073
B(  4-C , 19-H ) :   0.8982 B(  5-C ,  6-H ) :   0.8518 B(  5-C ,  7-C ) :   1.1200
B(  5-C , 10-C ) :   1.0037 B(  7-C ,  8-C ) :   1.0566 B(  7-C , 20-H ) :   0.8752
B(  7-C , 21-H ) :   0.8646 B(  8-C ,  9-O ) :   2.1997 B( 10-C , 11-C ) :   2.0557
B( 10-C , 12-C ) :   1.1180 B( 11-C , 22-H ) :   0.8976 B( 11-C , 23-H ) :   0.8963
B( 12-C , 24-H ) :   0.9328 B( 12-C , 25-H ) :   0.9340 B( 12-C , 26-H ) :   0.9221

Dispersion correction           -0.028699337
FINAL SINGLE POINT ENERGY      -464.821255375235

DIPOLE MOMENT
-------------

Method             : SCF
Type of density    : Electron Density
Multiplicity       :   1
Irrep              :   0
Energy             :  -464.9072974260459432 Eh
Relativity type    :
Basis              : AO
                                X                 Y                 Z
Electronic contribution:     -4.231861750       4.102628886      -2.733290028
Nuclear contribution   :      4.652110017      -4.854242676       2.852248143
                        -----------------------------------------
Total Dipole Moment    :      0.420248268      -0.751613790       0.118958115
                        -----------------------------------------
Magnitude (a.u.)       :      0.869300252
Magnitude (Debye)      :      2.209585643

Rotational constants in cm-1:             0.060773             0.025731             0.020546
Rotational constants in MHz :          1821.931856           771.408698           615.964272

                             ****ORCA TERMINATED NORMALLY****
TOTAL RUN TIME: 0 days 0 hours 0 minutes 18 seconds 966 msec
