                         Program Version 6.0.1  -  RELEASE   -
|  1> ! r2scan-3c def2/J RI DEFGRID2 scfconv6 printgap
|  2> %output
|  3>     printlevel normal
|  4> end
|  5> * xyz 0 1
|  6> C -2.5821948316 0.0114571867 -0.0187876296
|  7> C -1.8847621793 1.1888296125 0.1959412099
|  8> C -0.5012276152 1.1872388253 0.2082109619
|  9> C 0.1957561891 -0.0006416197 0.009795981
| 10> C -0.511900292 -1.1834877261 -0.1828308613
| 11> C -1.8938090992 -1.1762936916 -0.2047029369
| 12> C 1.6862217578 -0.0748897898 0.0279797017
| 13> O 2.2910718125 -1.0619012499 0.3900154913
| 14> N 2.327874992 1.046036672 -0.3904080194
| 15> H -3.6621409079 0.0194975727 -0.0320343805
| 16> H -2.4214455516 2.1123509359 0.3575943335
| 17> H 0.0291953444 2.1083657213 0.4039962042
| 18> H 0.0436171338 -2.0998299642 -0.3137875942
| 19> H -2.4359028009 -2.0969057817 -0.3619749233
| 20> H 1.8411237462 1.8174833899 -0.8084050782
| 21> H 3.3331876371 1.0284449073 -0.4353425622
| 22> *
| 23>
| 24>                          ****END OF INPUT****

CARTESIAN COORDINATES (ANGSTROEM)
---------------------------------
  C     -2.582195    0.011457   -0.018788
  C     -1.884762    1.188830    0.195941
  C     -0.501228    1.187239    0.208211
  C      0.195756   -0.000642    0.009796
  C     -0.511900   -1.183488   -0.182831
  C     -1.893809   -1.176294   -0.204703
  C      1.686222   -0.074890    0.027980
  O      2.291072   -1.061901    0.390015
  N      2.327875    1.046037   -0.390408
  H     -3.662141    0.019498   -0.032034
  H     -2.421446    2.112351    0.357594
  H      0.029195    2.108366    0.403996
  H      0.043617   -2.099830   -0.313788
  H     -2.435903   -2.096906   -0.361975
  H      1.841124    1.817483   -0.808405
  H      3.333188    1.028445   -0.435343

 Total Charge           Charge          ....    0
 Multiplicity           Mult            ....    1
 Number of Electrons    NEL             ....   64
 Basis Dimension        Dim             ....  216

ORBITAL ENERGIES
----------------

  NO   OCC          E(Eh)            E(eV)
   0   2.0000     -18.913494      -514.6623
   1   2.0000     -14.185607      -386.0100
   2   2.0000     -10.133734      -275.7529
   3   2.0000     -10.053623      -273.5730
   4   2.0000     -10.051663      -273.5197
   5   2.0000     -10.047527      -273.4071
   6   2.0000     -10.047064      -273.3945
   7   2.0000     -10.044912      -273.3360
   8   2.0000     -10.043952      -273.3098
   9   2.0000      -1.005237       -27.3539
  10   2.0000      -0.878283       -23.8993
  11   2.0000      -0.837978       -22.8025
  12   2.0000      -0.737666       -20.0729
  13   2.0000      -0.728407       -19.8210
  14   2.0000      -0.618761       -16.8373
  15   2.0000      -0.587709       -15.9924
  16   2.0000      -0.554690       -15.0939
  17   2.0000      -0.526164       -14.3177
  18   2.0000      -0.488131       -13.2827
  19   2.0000      -0.453173       -12.3315
  20   2.0000      -0.432122       -11.7586
  21   2.0000      -0.413784       -11.2596
  22   2.0000      -0.401896       -10.9362
  23   2.0000      -0.386600       -10.5199
  24   2.0000      -0.381034       -10.3685
  25   2.0000      -0.349109        -9.4997
  26   2.0000      -0.333883        -9.0854
  27   2.0000      -0.321907        -8.7595
  28   2.0000      -0.251524        -6.8443
  29   2.0000      -0.249409        -6.7868
  30   2.0000      -0.248034        -6.7493
  31   2.0000      -0.222291        -6.0489
  32   0.0000      -0.065205        -1.7743
  33   0.0000      -0.043233        -1.1764
  34   0.0000       0.025592         0.6964
  35   0.0000       0.059927         1.6307
  36   0.0000       0.094213         2.5637

MULLIKEN ATOMIC CHARGES
-----------------------
   0 C :   -0.126821
   1 C :   -0.142651
   2 C :   -0.248096
   3 C :    0.109922
   4 C :   -0.196071
   5 C :   -0.149133
   6 C :    0.293227
   7 O :   -0.410654
   8 N :   -0.397084
   9 H :    0.148978
  10 H :    0.147430
  11 H :    0.142411
  12 H :    0.176802
  13 H :    0.148950
  14 H :    0.254884
  15 H :    0.247904
Sum of atomic charges:   -0.0000000

LOEWDIN ATOMIC CHARGES
----------------------
   0 C :   -0.151959
   1 C :   -0.160387
   2 C :   -0.145535
   3 C :   -0.038440
   4 C :   -0.109791
   5 C :   -0.156338
   6 C :    0.321830
   7 O :   -0.446097
   8 N :   -0.500874
   9 H :    0.168672
  10 H :    0.168778
  11 H :    0.171448
  12 H :    0.188257
  13 H :    0.169811
  14 H :    0.258940
  15 H :    0.261685

  Mayer bond orders larger than 0.100000
B(  0-C ,  1-C ) :   1.4237 B(  0-C ,  5-C ) :   1.4033 B(  0-C ,  9-H ) :   0.9462
B(  1-C ,  2-C ) :   1.4068 B(  1-C , 10-H ) :   0.9466 B(  2-C ,  3-C ) :   1.3625
B(  2-C , 11-H ) :   0.9575 B(  3-C ,  4-C ) :   1.4328 B(  3-C ,  6-C ) :   0.9292
B(  4-C ,  5-C ) :   1.3876 B(  4-C , 12-H ) :   0.9487 B(  5-C , 13-H ) :   0.9537
B(  6-C ,  7-O ) :   1.9904 B(  6-C ,  8-N ) :   1.0924 B(  8-N , 14-H ) :   0.9155
B(  8-N , 15-H ) :   0.9189

Dispersion correction           -0.005357511
FINAL SINGLE POINT ENERGY      -400.864181685248

DIPOLE MOMENT
-------------

Method             : SCF
Type of density    : Electron Density
Multiplicity       :   1
Irrep              :   0
Energy             :  -400.8660852365304095 Eh
Relativity type    :
Basis              : AO
                                X                 Y                 Z
Electronic contribution:      2.429484564      -1.501733347       0.549369084
Nuclear contribution   :     -3.023324245       2.700772811      -1.112747243
                        -----------------------------------------
Total Dipole Moment    :     -0.593839681       1.199039464      -0.563378158
                        -----------------------------------------
Magnitude (a.u.)       :      1.451804447
Magnitude (Debye)      :      3.690193640

Rotational constants in cm-1:             0.128801             0.040683             0.031834
Rotational constants in MHz :          3861.367678          1219.650034           954.348943

                             ****ORCA TERMINATED NORMALLY****
TOTAL RUN TIME: 0 days 0 hours 0 minutes 30 seconds 524 msec
