                         Program Version 6.0.1  -  RELEASE   -
|  1> ! r2scan-3c def2/J RI DEFGRID2 scfconv6 printgap
|  2> %output
|  3>     printlevel normal
|  4> end
|  5> * xyz 0 1
|  6> C -1.5027946405 1.1831862526 -0.568547169
|  7> C -0.8037213824 0.16648726 0.0740363495
|  8> C -1.5070801332 -0.8432365649 0.7220712761
|  9> C -2.8919109271 -0.8407355738 0.7166072365
| 10> C -3.6004157313 0.167044825 0.0624600772
| 11> C -2.8875420129 1.1799250238 -0.5782818365
| 12> Cl -3.7343153409 2.4367033343 -1.3879369585
| 13> Cl -5.315355467 0.1628770356 0.0498110666
| 14> Cl -3.7450781101 -2.091876396 1.5269310905
| 15> C 0.6705539669 0.1862072925 0.0784808999
| 16> C 1.3370667059 1.3387320457 0.4810037451
| 17> C 2.7201277264 1.3932488503 0.5048286133
| 18> C 3.4736949966 0.2865282694 0.1147615704
| 19> C 2.8173565661 -0.8698761875 -0.3058692968
| 20> C 1.4237946319 -0.9196019001 -0.3227348679
| 21> Cl 0.653900946 -2.3429130378 -0.9012004167
| 22> Cl 3.7329950829 -2.2292773514 -0.8067769017
| 23> Cl 5.1852229968 0.3423383923 0.1429668671
| 24> Cl 3.5107735008 2.8273531451 1.017205809
| 25> H -0.9709146805 1.9687365427 -1.0806856664
| 26> H -0.9839130964 -1.625151228 1.2475818995
| 27> H 0.7673558269 2.1978778134 0.7965337905
| 28> *
| 29>
| 30>                          ****END OF INPUT****

CARTESIAN COORDINATES (ANGSTROEM)
---------------------------------
  C     -1.502795    1.183186   -0.568547
  C     -0.803721    0.166487    0.074036
  C     -1.507080   -0.843237    0.722071
  C     -2.891911   -0.840736    0.716607
  C     -3.600416    0.167045    0.062460
  C     -2.887542    1.179925   -0.578282
  Cl    -3.734315    2.436703   -1.387937
  Cl    -5.315355    0.162877    0.049811
  Cl    -3.745078   -2.091876    1.526931
  C      0.670554    0.186207    0.078481
  C      1.337067    1.338732    0.481004
  C      2.720128    1.393249    0.504829
  C      3.473695    0.286528    0.114762
  C      2.817357   -0.869876   -0.305869
  C      1.423795   -0.919602   -0.322735
  Cl     0.653901   -2.342913   -0.901200
  Cl     3.732995   -2.229277   -0.806777
  Cl     5.185223    0.342338    0.142967
  Cl     3.510774    2.827353    1.017206
  H     -0.970915    1.968737   -1.080686
  H     -0.983913   -1.625151    1.247582
  H      0.767356    2.197878    0.796534

 Total Charge           Charge          ....    0
 Multiplicity           Mult            ....    1
 Number of Electrons    NEL             ....  194
 Basis Dimension        Dim             ....  432

ORBITAL ENERGIES
----------------

  NO   OCC          E(Eh)            E(eV)
   0   2.0000    -101.247591     -2755.0870
   1   2.0000    -101.247330     -2755.0799
   2   2.0000    -101.246494     -2755.0572
   3   2.0000    -101.246285     -2755.0515
   4   2.0000    -101.242234     -2754.9412
   5   2.0000    -101.241997     -2754.9348
   6   2.0000    -101.241170     -2754.9123
   7   2.0000     -10.142841      -276.0007
   8   2.0000     -10.141495      -275.9641
   9   2.0000     -10.138526      -275.8833
  10   2.0000     -10.137366      -275.8517
  11   2.0000     -10.134105      -275.7630
  12   2.0000     -10.133129      -275.7365
  13   2.0000     -10.132660      -275.7237
  14   2.0000     -10.097993      -274.7804
  15   2.0000     -10.090163      -274.5673
  16   2.0000     -10.083295      -274.3804
  17   2.0000     -10.076570      -274.1974
  18   2.0000     -10.075385      -274.1652
  19   2.0000      -9.403375      -255.8788
  20   2.0000      -9.403159      -255.8730
  21   2.0000      -9.402519      -255.8555
  22   2.0000      -9.402171      -255.8461
  23   2.0000      -9.398009      -255.7328
  24   2.0000      -9.397912      -255.7302
  25   2.0000      -9.397097      -255.7080
  26   2.0000      -7.150059      -194.5630
  27   2.0000      -7.149836      -194.5569
  28   2.0000      -7.149053      -194.5356
  29   2.0000      -7.148681      -194.5255
  30   2.0000      -7.144648      -194.4158
  31   2.0000      -7.144395      -194.4089
  32   2.0000      -7.143580      -194.3867
  33   2.0000      -7.139708      -194.2813
  34   2.0000      -7.139505      -194.2758
  35   2.0000      -7.138856      -194.2581
  36   2.0000      -7.138602      -194.2512
  37   2.0000      -7.138433      -194.2466
  38   2.0000      -7.138372      -194.2450
  39   2.0000      -7.137842      -194.2305
  40   2.0000      -7.137645      -194.2252
  41   2.0000      -7.134359      -194.1358
  42   2.0000      -7.134194      -194.1313
  43   2.0000      -7.133393      -194.1095
  44   2.0000      -7.133385      -194.1093
  45   2.0000      -7.133267      -194.1061
  46   2.0000      -7.132568      -194.0871
  47   2.0000      -0.933467       -25.4009
  48   2.0000      -0.919231       -25.0135
  49   2.0000      -0.887770       -24.1574
  50   2.0000      -0.868817       -23.6417
  51   2.0000      -0.867692       -23.6111
  52   2.0000      -0.843788       -22.9606
  53   2.0000      -0.833550       -22.6821
  54   2.0000      -0.826431       -22.4883
  55   2.0000      -0.808624       -22.0038
  56   2.0000      -0.753123       -20.4935
  57   2.0000      -0.728842       -19.8328
  58   2.0000      -0.719910       -19.5897
  59   2.0000      -0.705667       -19.2022
  60   2.0000      -0.631531       -17.1848
  61   2.0000      -0.613590       -16.6966
  62   2.0000      -0.601223       -16.3601
  63   2.0000      -0.579522       -15.7696
  64   2.0000      -0.523711       -14.2509
  65   2.0000      -0.520118       -14.1531
  66   2.0000      -0.500103       -13.6085
  67   2.0000      -0.493265       -13.4224
  68   2.0000      -0.473914       -12.8959
  69   2.0000      -0.459086       -12.4924
  70   2.0000      -0.446185       -12.1413
  71   2.0000      -0.442949       -12.0533
  72   2.0000      -0.441300       -12.0084
  73   2.0000      -0.434641       -11.8272
  74   2.0000      -0.426323       -11.6008
  75   2.0000      -0.413702       -11.2574
  76   2.0000      -0.398582       -10.8460
  77   2.0000      -0.384815       -10.4714
  78   2.0000      -0.381122       -10.3709
  79   2.0000      -0.379036       -10.3141
  80   2.0000      -0.362751        -9.8709
  81   2.0000      -0.359445        -9.7810
  82   2.0000      -0.340623        -9.2688
  83   2.0000      -0.329924        -8.9777
  84   2.0000      -0.327027        -8.8989
  85   2.0000      -0.323973        -8.8157
  86   2.0000      -0.321157        -8.7391
  87   2.0000      -0.319103        -8.6832
  88   2.0000      -0.310493        -8.4489
  89   2.0000      -0.308001        -8.3811
  90   2.0000      -0.305283        -8.3072
  91   2.0000      -0.286893        -7.8068
  92   2.0000      -0.286763        -7.8032
  93   2.0000      -0.261218        -7.1081
  94   2.0000      -0.249743        -6.7958
  95   2.0000      -0.248810        -6.7705
  96   2.0000      -0.237437        -6.4610
  97   0.0000      -0.094852        -2.5811
  98   0.0000      -0.079667        -2.1678
  99   0.0000      -0.072175        -1.9640
 100   0.0000      -0.060622        -1.6496
 101   0.0000      -0.054127        -1.4729

MULLIKEN ATOMIC CHARGES
-----------------------
   0 C :   -0.271036
   1 C :    0.189099
   2 C :   -0.248495
   3 C :    0.099646
   4 C :    0.043952
   5 C :    0.105255
   6 Cl:   -0.091742
   7 Cl:   -0.067860
   8 Cl:   -0.090035
   9 C :    0.176996
  10 C :   -0.317815
  11 C :    0.113120
  12 C :    0.077451
  13 C :    0.033276
  14 C :   -0.011991
  15 Cl:   -0.059396
  16 Cl:   -0.058820
  17 Cl:   -0.057597
  18 Cl:   -0.086361
  19 H :    0.171909
  20 H :    0.176418
  21 H :    0.174026
Sum of atomic charges:    0.0000000

LOEWDIN ATOMIC CHARGES
----------------------
   0 C :   -0.148511
   1 C :   -0.068583
   2 C :   -0.150127
   3 C :   -0.175103
   4 C :   -0.198383
   5 C :   -0.175051
   6 Cl:    0.170942
   7 Cl:    0.184728
   8 Cl:    0.172472
   9 C :   -0.070345
  10 C :   -0.141809
  11 C :   -0.179979
  12 C :   -0.196022
  13 C :   -0.189823
  14 C :   -0.164214
  15 Cl:    0.198901
  16 Cl:    0.191702
  17 Cl:    0.191877
  18 Cl:    0.175389
  19 H :    0.189414
  20 H :    0.190256
  21 H :    0.192270

  Mayer bond orders larger than 0.100000
B(  0-C ,  1-C ) :   1.3574 B(  0-C ,  5-C ) :   1.3408 B(  0-C , 19-H ) :   0.9297
B(  1-C ,  2-C ) :   1.3473 B(  1-C ,  9-C ) :   0.7484 B(  2-C ,  3-C ) :   1.3586
B(  2-C , 20-H ) :   0.9193 B(  3-C ,  4-C ) :   1.2085 B(  3-C ,  8-Cl) :   1.0774
B(  4-C ,  5-C ) :   1.2199 B(  4-C ,  7-Cl) :   1.2086 B(  5-C ,  6-Cl) :   1.0743
B(  9-C , 10-C ) :   1.3614 B(  9-C , 14-C ) :   1.2487 B( 10-C , 11-C ) :   1.3165
B( 10-C , 21-H ) :   0.9264 B( 11-C , 12-C ) :   1.2121 B( 11-C , 18-Cl) :   1.0859
B( 12-C , 13-C ) :   1.0949 B( 12-C , 17-Cl) :   1.2525 B( 13-C , 14-C ) :   1.0984
B( 13-C , 16-Cl) :   1.2750 B( 14-C , 15-Cl) :   1.2935

Dispersion correction           -0.015281513
FINAL SINGLE POINT ENERGY     -3680.218118038814

DIPOLE MOMENT
-------------

Method             : SCF
Type of density    : Electron Density
Multiplicity       :   1
Irrep              :   0
Energy             : -3680.2163726748758563 Eh
Relativity type    :
Basis              : AO
                                X                 Y                 Z
Electronic contribution:      1.721852593      -3.366702896      -1.283703976
Nuclear contribution   :     -1.500808653       3.585345349       1.385720658
                        -----------------------------------------
Total Dipole Moment    :      0.221043940       0.218642453       0.102016681
                        -----------------------------------------
Magnitude (a.u.)       :      0.327219115
Magnitude (Debye)      :      0.831724892

Rotational constants in cm-1:             0.011824             0.003394             0.002883
Rotational constants in MHz :           354.476704           101.755084            86.431885

                             ****ORCA TERMINATED NORMALLY****
TOTAL RUN TIME: 0 days 0 hours 1 minutes 6 seconds 173 msec
