                         Program Version 6.0.0  -   RELEASE  -
|  1> ! r2SCAN-3c DEF2-TZVP FREQ
|  2> * xyzfile 0 1 censo.xyz
|  3>
|  4>                          ****END OF INPUT****

CARTESIAN COORDINATES (ANGSTROEM)
---------------------------------
  C      3.370118    0.031793    0.152493
  N      1.949181   -0.236465    0.370976
  C      1.651128   -1.215215    1.416522
  C      1.057262    0.217505   -0.532603
  O      1.412876    0.824279   -1.566351
  C     -0.402753    0.025191   -0.271827
  C     -1.203606   -0.466428   -1.306446
  C     -2.577793   -0.583827   -1.129908
  C     -3.164720   -0.183368    0.069138
  C     -2.371971    0.328282    1.094058
  C     -0.993598    0.424655    0.930226
  H      3.508305    1.034992   -0.253485
  H      3.810679   -0.695653   -0.540847
  H      3.887882   -0.039509    1.111924
  H      2.321561   -2.074049    1.299014
  H      0.624750   -1.569587    1.336290
  H      1.807321   -0.785839    2.412082
  H     -0.742796   -0.762174   -2.243831
  H     -3.192320   -0.982910   -1.930633
  H     -4.238517   -0.265806    0.202838
  H     -2.826969    0.653442    2.024304
  H     -0.379987    0.823782    1.731889

 Total Charge           Charge          ....    0
 Multiplicity           Mult            ....    1
 Number of Electrons    NEL             ....   80
 Basis Dimension        Dim             ....  407

ORBITAL ENERGIES
----------------

  NO   OCC          E(Eh)            E(eV)
   0   2.0000     -18.905324      -514.4400
   1   2.0000     -14.201257      -386.4359
   2   2.0000     -10.124048      -275.4893
   3   2.0000     -10.075243      -274.1613
   4   2.0000     -10.064778      -273.8765
   5   2.0000     -10.051877      -273.5255
   6   2.0000     -10.046875      -273.3894
   7   2.0000     -10.044323      -273.3199
   8   2.0000     -10.043505      -273.2977
   9   2.0000     -10.042624      -273.2737
  10   2.0000     -10.042109      -273.2597
  11   2.0000      -0.985249       -26.8100
  12   2.0000      -0.899986       -24.4899
  13   2.0000      -0.829257       -22.5652
  14   2.0000      -0.734993       -20.0002
  15   2.0000      -0.720917       -19.6172
  16   2.0000      -0.694322       -18.8935
  17   2.0000      -0.671131       -18.2624
  18   2.0000      -0.589882       -16.0515
  19   2.0000      -0.580175       -15.7874
  20   2.0000      -0.524759       -14.2794
  21   2.0000      -0.497820       -13.5464
  22   2.0000      -0.459989       -12.5169
  23   2.0000      -0.450472       -12.2580
  24   2.0000      -0.443439       -12.0666
  25   2.0000      -0.424190       -11.5428
  26   2.0000      -0.412838       -11.2339
  27   2.0000      -0.395656       -10.7664
  28   2.0000      -0.382942       -10.4204
  29   2.0000      -0.380605       -10.3568
  30   2.0000      -0.370127       -10.0717
  31   2.0000      -0.362950        -9.8764
  32   2.0000      -0.348795        -9.4912
  33   2.0000      -0.333616        -9.0782
  34   2.0000      -0.324126        -8.8199
  35   2.0000      -0.315777        -8.5927
  36   2.0000      -0.246473        -6.7069
  37   2.0000      -0.243775        -6.6334
  38   2.0000      -0.221525        -6.0280
  39   2.0000      -0.207565        -5.6481
  40   0.0000      -0.055599        -1.5129
  41   0.0000      -0.040604        -1.1049
  42   0.0000       0.012682         0.3451
  43   0.0000       0.035783         0.9737
  44   0.0000       0.059270         1.6128

MULLIKEN ATOMIC CHARGES
-----------------------
   0 C :   -0.259356
   1 N :   -0.074951
   2 C :   -0.281467
   3 C :    0.239260
   4 O :   -0.423431
   5 C :    0.167438
   6 C :   -0.196051
   7 C :   -0.101604
   8 C :   -0.111092
   9 C :   -0.093214
  10 C :   -0.221588
  11 H :    0.148383
  12 H :    0.122474
  13 H :    0.113677
  14 H :    0.122981
  15 H :    0.152385
  16 H :    0.121643
  17 H :    0.121234
  18 H :    0.111390
  19 H :    0.112604
  20 H :    0.109635
  21 H :    0.119649
Sum of atomic charges:   -0.0000000

LOEWDIN ATOMIC CHARGES
----------------------
   0 C :   -0.272928
   1 N :    0.164279
   2 C :   -0.279490
   3 C :   -0.392250
   4 O :    0.041210
   5 C :   -0.119372
   6 C :   -0.086285
   7 C :   -0.134190
   8 C :   -0.135838
   9 C :   -0.139579
  10 C :   -0.108852
  11 H :    0.129098
  12 H :    0.118024
  13 H :    0.117202
  14 H :    0.118574
  15 H :    0.131050
  16 H :    0.113836
  17 H :    0.154576
  18 H :    0.144505
  19 H :    0.143474
  20 H :    0.143764
  21 H :    0.149191

  Mayer bond orders larger than 0.100000
B(  0-C ,  1-N ) :   0.9134 B(  0-C , 11-H ) :   0.9622 B(  0-C , 12-H ) :   0.9695
B(  0-C , 13-H ) :   0.9635 B(  1-N ,  2-C ) :   0.9128 B(  1-N ,  3-C ) :   1.2635
B(  2-C , 14-H ) :   0.9625 B(  2-C , 15-H ) :   0.9642 B(  2-C , 16-H ) :   0.9707
B(  3-C ,  4-O ) :   1.9165 B(  3-C ,  5-C ) :   0.8693 B(  5-C ,  6-C ) :   1.3569
B(  5-C , 10-C ) :   1.3007 B(  6-C ,  7-C ) :   1.4233 B(  6-C , 17-H ) :   0.9742
B(  7-C ,  8-C ) :   1.3775 B(  7-C , 18-H ) :   0.9732 B(  8-C ,  9-C ) :   1.3925
B(  8-C , 19-H ) :   0.9681 B(  9-C , 10-C ) :   1.4238 B(  9-C , 20-H ) :   0.9715
B( 10-C , 21-H ) :   0.9725

Dispersion correction           -0.007941511
FINAL SINGLE POINT ENERGY      -479.474512248755

DIPOLE MOMENT
-------------

Method             : SCF
Type of density    : Electron Density
Multiplicity       :   1
Irrep              :   0
Energy             :  -479.4802513884883410 Eh
Relativity type    :
Basis              : AO
                                X                 Y                 Z
Electronic contribution:     -4.440675302       2.679251421      -4.190218576
Nuclear contribution   :      4.408709238      -3.539514889       5.476008948
                        -----------------------------------------
Total Dipole Moment    :     -0.031966065      -0.860263468       1.285790372
                        -----------------------------------------
Magnitude (a.u.)       :      1.547362900
Magnitude (Debye)      :      3.933083926

VIBRATIONAL FREQUENCIES
-----------------------

Scaling factor for frequencies =  1.000000000  (already applied!)

     0:       0.00 cm**-1
     1:       0.00 cm**-1
     2:       0.00 cm**-1
     3:       0.00 cm**-1
     4:       0.00 cm**-1
     5:       0.00 cm**-1
     6:      48.43 cm**-1
     7:      64.98 cm**-1
     8:      98.14 cm**-1
     9:     116.48 cm**-1
    10:     139.49 cm**-1
    11:     226.36 cm**-1
    12:     256.03 cm**-1
    13:     301.87 cm**-1
    14:     337.60 cm**-1
    15:     386.49 cm**-1
    16:     411.87 cm**-1
    17:     441.35 cm**-1
    18:     558.02 cm**-1
    19:     633.37 cm**-1
    20:     645.97 cm**-1
    21:     711.20 cm**-1
    22:     717.31 cm**-1
    23:     745.64 cm**-1
    24:     802.73 cm**-1
    25:     855.28 cm**-1
    26:     919.15 cm**-1
    27:     934.85 cm**-1
    28:     965.86 cm**-1
    29:     984.49 cm**-1
    30:    1021.40 cm**-1
    31:    1047.02 cm**-1
    32:    1060.80 cm**-1
    33:    1096.86 cm**-1
    34:    1105.59 cm**-1
    35:    1119.38 cm**-1
    36:    1155.79 cm**-1
    37:    1182.33 cm**-1
    38:    1197.48 cm**-1
    39:    1228.79 cm**-1
    40:    1273.51 cm**-1
    41:    1329.59 cm**-1
    42:    1349.95 cm**-1
    43:    1423.13 cm**-1
    44:    1431.59 cm**-1
    45:    1466.80 cm**-1
    46:    1470.37 cm**-1
    47:    1477.84 cm**-1
    48:    1483.86 cm**-1
    49:    1495.13 cm**-1
    50:    1513.24 cm**-1
    51:    1529.06 cm**-1
    52:    1599.38 cm**-1
    53:    1618.04 cm**-1
    54:    1633.22 cm**-1
    55:    3000.00 cm**-1
    56:    3005.50 cm**-1
    57:    3059.49 cm**-1
    58:    3083.32 cm**-1
    59:    3130.11 cm**-1
    60:    3144.94 cm**-1
    61:    3156.52 cm**-1
    62:    3163.32 cm**-1
    63:    3171.52 cm**-1
    64:    3178.24 cm**-1
    65:    3185.36 cm**-1

IR SPECTRUM
-----------

 Mode   freq       eps      Int      T**2         TX        TY        TZ
       cm**-1   L/(mol*cm) km/mol    a.u.
----------------------------------------------------------------------------
  6:     48.43   0.000040    0.20  0.000256  ( 0.007936 -0.012309 -0.006468)
  7:     64.98   0.000444    2.24  0.002133  (-0.003388  0.044271  0.012722)
  8:     98.14   0.000098    0.50  0.000311  (-0.002536  0.014728 -0.009388)
  9:    116.48   0.000491    2.48  0.001316  (-0.027835 -0.005362  0.022633)
 10:    139.49   0.000375    1.89  0.000838  ( 0.026552 -0.007601  0.008674)
 11:    226.36   0.000075    0.38  0.000103  ( 0.002867  0.001902 -0.009549)
 12:    256.03   0.000549    2.77  0.000669  (-0.005189 -0.014709 -0.020624)
 13:    301.87   0.000618    3.12  0.000639  (-0.014976 -0.011227 -0.016993)
 14:    337.60   0.000183    0.92  0.000169  ( 0.011460  0.002282  0.005698)
 15:    386.49   0.002340   11.82  0.001889  ( 0.043443 -0.001080  0.000769)
 16:    411.87   0.000244    1.23  0.000185  (-0.013395 -0.000386  0.002220)
 17:    441.35   0.001055    5.33  0.000746  (-0.012052 -0.015451  0.019017)
 18:    558.02   0.001838    9.29  0.001028  (-0.026079  0.018554 -0.001842)
 19:    633.37   0.000043    0.22  0.000021  (-0.002736  0.003419 -0.001396)
 20:    645.97   0.002104   10.63  0.001016  ( 0.025802 -0.008850  0.016498)
 21:    711.20   0.010270   51.90  0.004506  ( 0.011785 -0.062158  0.022443)
 22:    717.31   0.002154   10.89  0.000937  ( 0.014995 -0.026630  0.001801)
 23:    745.64   0.002613   13.20  0.001093  ( 0.007693 -0.031754  0.005090)
 24:    802.73   0.003003   15.18  0.001167  (-0.005397 -0.024204  0.023503)
 25:    855.28   0.000164    0.83  0.000060  (-0.007449 -0.001706  0.001252)
 26:    919.15   0.000158    0.80  0.000054  ( 0.006832 -0.002544  0.000739)
 27:    934.85   0.000795    4.02  0.000265  (-0.001239 -0.014470  0.007387)
 28:    965.86   0.000141    0.72  0.000046  ( 0.006739 -0.000260 -0.000479)
 29:    984.49   0.000057    0.29  0.000018  ( 0.001586  0.003888 -0.000546)
 30:   1021.40   0.000028    0.14  0.000009  (-0.002122  0.001995  0.000205)
 31:   1047.02   0.002397   12.11  0.000714  ( 0.026498 -0.002584  0.002350)
 32:   1060.80   0.003295   16.65  0.000969  (-0.029558 -0.006964  0.006871)
 33:   1096.86   0.007468   37.74  0.002125  ( 0.034209 -0.007595  0.029943)
 34:   1105.59   0.004207   21.26  0.001187  (-0.030561  0.014788 -0.005898)
 35:   1119.38   0.000237    1.20  0.000066  (-0.007711  0.000073 -0.002588)
 36:   1155.79   0.001650    8.34  0.000445  ( 0.017110  0.002096  0.012176)
 37:   1182.33   0.000012    0.06  0.000003  ( 0.001305  0.000520  0.001120)
 38:   1197.48   0.000711    3.59  0.000185  ( 0.011976 -0.004064  0.005025)
 39:   1228.79   0.003114   15.74  0.000791  (-0.016388  0.011322 -0.019852)
 40:   1273.51   0.010131   51.20  0.002483  (-0.049369  0.003492 -0.005746)
 41:   1329.59   0.000060    0.30  0.000014  ( 0.001641  0.003205 -0.001044)
 42:   1349.95   0.000181    0.92  0.000042  (-0.001746 -0.001845 -0.005952)
 43:   1423.13   0.017233   87.09  0.003779  (-0.049594  0.023869 -0.027378)
 44:   1431.59   0.002880   14.56  0.000628  (-0.023543 -0.005252 -0.006782)
 45:   1466.80   0.008318   42.04  0.001770  (-0.039165 -0.015016  0.003224)
 46:   1470.37   0.001315    6.64  0.000279  ( 0.001449  0.012689  0.010764)
 47:   1477.84   0.001335    6.75  0.000282  ( 0.009992 -0.010845 -0.008026)
 48:   1483.86   0.004403   22.25  0.000926  (-0.027445  0.013071  0.001390)
 49:   1495.13   0.000366    1.85  0.000076  (-0.000097 -0.003400 -0.008046)
 50:   1513.24   0.004414   22.31  0.000910  ( 0.028563  0.005111 -0.008267)
 51:   1529.06   0.012347   62.40  0.002520  ( 0.047457  0.008640 -0.013896)
 52:   1599.38   0.044170  223.22  0.008618  (-0.028429  0.043239 -0.077075)
 53:   1618.04   0.021003  106.14  0.004051  (-0.019082  0.034915 -0.049674)
 54:   1633.22   0.003777   19.08  0.000722  (-0.015144  0.012967 -0.018003)
 55:   3000.00   0.006611   33.41  0.000688  ( 0.009450  0.010638 -0.022029)
 56:   3005.50   0.014280   72.17  0.001483  (-0.031020  0.018831 -0.012880)
 57:   3059.49   0.006042   30.54  0.000616  (-0.007171  0.016849  0.016764)
 58:   3083.32   0.003846   19.44  0.000389  ( 0.007562  0.008231  0.016259)
 59:   3130.11   0.001069    5.40  0.000107  (-0.001709  0.008083 -0.006194)
 60:   3144.94   0.001676    8.47  0.000166  ( 0.011577  0.003984  0.004045)
 61:   3156.52   0.000216    1.09  0.000021  (-0.004615  0.000199 -0.000120)
 62:   3163.32   0.000419    2.12  0.000041  ( 0.003768 -0.001661 -0.004938)
 63:   3171.52   0.002506   12.66  0.000247  (-0.012520 -0.004372 -0.008408)
 64:   3178.24   0.003417   17.27  0.000336  (-0.003830  0.006628  0.016641)
 65:   3185.36   0.002513   12.70  0.000246  ( 0.015581  0.001806  0.000390)

--------------------------
THERMOCHEMISTRY AT 298.15K
--------------------------

Temperature         ...   298.15 K
Pressure            ...     1.00 atm
Total Mass          ...   149.19 AMU
Quasi RRHO          ...     True
Cut-Off Frequency   ...     1.00 cm^-1

Throughout the following assumptions are being made:
  (1) The electronic state is orbitally nondegenerate
  (2) There are no thermally accessible electronically excited states
  (3) Hindered rotations indicated by low frequency modes are not
      treated as such but are treated as vibrations and this may
      cause some error
  (4) All equations used are the standard statistical mechanics
      equations for an ideal gas
  (5) All vibrations are strictly harmonic

freq.      48.43  E(vib)   ...       0.53
freq.      64.98  E(vib)   ...       0.50
freq.      98.14  E(vib)   ...       0.46
freq.     116.48  E(vib)   ...       0.44
freq.     139.49  E(vib)   ...       0.42
freq.     226.36  E(vib)   ...       0.33
freq.     256.03  E(vib)   ...       0.30
freq.     301.87  E(vib)   ...       0.26
freq.     337.60  E(vib)   ...       0.24
freq.     386.49  E(vib)   ...       0.20
freq.     411.87  E(vib)   ...       0.19
freq.     441.35  E(vib)   ...       0.17
freq.     558.02  E(vib)   ...       0.12
freq.     633.37  E(vib)   ...       0.09
freq.     645.97  E(vib)   ...       0.09
freq.     711.20  E(vib)   ...       0.07
freq.     717.31  E(vib)   ...       0.07
freq.     745.64  E(vib)   ...       0.06
freq.     802.73  E(vib)   ...       0.05
freq.     855.28  E(vib)   ...       0.04
freq.     919.15  E(vib)   ...       0.03
freq.     934.85  E(vib)   ...       0.03
freq.     965.86  E(vib)   ...       0.03
freq.     984.49  E(vib)   ...       0.02
freq.    1021.40  E(vib)   ...       0.02
freq.    1047.02  E(vib)   ...       0.02
freq.    1060.80  E(vib)   ...       0.02
freq.    1096.86  E(vib)   ...       0.02
freq.    1105.59  E(vib)   ...       0.02
freq.    1119.38  E(vib)   ...       0.01
freq.    1155.79  E(vib)   ...       0.01
freq.    1182.33  E(vib)   ...       0.01
freq.    1197.48  E(vib)   ...       0.01
freq.    1228.79  E(vib)   ...       0.01
freq.    1273.51  E(vib)   ...       0.01
freq.    1329.59  E(vib)   ...       0.01
freq.    1349.95  E(vib)   ...       0.01
freq.    1423.13  E(vib)   ...       0.00
freq.    1431.59  E(vib)   ...       0.00
freq.    1466.80  E(vib)   ...       0.00
freq.    1470.37  E(vib)   ...       0.00
freq.    1477.84  E(vib)   ...       0.00
freq.    1483.86  E(vib)   ...       0.00
freq.    1495.13  E(vib)   ...       0.00
freq.    1513.24  E(vib)   ...       0.00
freq.    1529.06  E(vib)   ...       0.00
freq.    1599.38  E(vib)   ...       0.00
freq.    1618.04  E(vib)   ...       0.00
freq.    1633.22  E(vib)   ...       0.00
freq.    3000.00  E(vib)   ...       0.00
freq.    3005.50  E(vib)   ...       0.00
freq.    3059.49  E(vib)   ...       0.00
freq.    3083.32  E(vib)   ...       0.00
freq.    3130.11  E(vib)   ...       0.00
freq.    3144.94  E(vib)   ...       0.00
freq.    3156.52  E(vib)   ...       0.00
freq.    3163.32  E(vib)   ...       0.00
freq.    3171.52  E(vib)   ...       0.00
freq.    3178.24  E(vib)   ...       0.00
freq.    3185.36  E(vib)   ...       0.00

------------
INNER ENERGY
------------

The inner energy is: U= E(el) + E(ZPE) + E(vib) + E(rot) + E(trans)
    E(el)   - is the total energy from the electronic structure calculation
              = E(kin-el) + E(nuc-el) + E(el-el) + E(nuc-nuc)
    E(ZPE)  - the the zero temperature vibrational energy from the frequency calculation
    E(vib)  - the the finite temperature correction to E(ZPE) due to population
              of excited vibrational states
    E(rot)  - is the rotational thermal energy
    E(trans)- is the translational thermal energy

Summary of contributions to the inner energy U:
Electronic energy                ...   -479.47451225 Eh
Zero point energy                ...      0.18200608 Eh     114.21 kcal/mol
Thermal vibrational correction   ...      0.00784897 Eh       4.93 kcal/mol
Thermal rotational correction    ...      0.00141627 Eh       0.89 kcal/mol
Thermal translational correction ...      0.00141627 Eh       0.89 kcal/mol
-----------------------------------------------------------------------
Total thermal energy                   -479.28182466 Eh

Summary of corrections to the electronic energy:
(perhaps to be used in another calculation)
Total thermal correction                  0.01068151 Eh       6.70 kcal/mol
Non-thermal (ZPE) correction              0.18200608 Eh     114.21 kcal/mol
-----------------------------------------------------------------------
Total correction                          0.19268759 Eh     120.91 kcal/mol

--------
ENTHALPY
--------

The enthalpy is H = U + kB*T
                kB is Boltzmann's constant
Total thermal energy              ...   -479.28182466 Eh
Thermal Enthalpy correction       ...      0.00094421 Eh       0.59 kcal/mol
-----------------------------------------------------------------------
Total Enthalpy                    ...   -479.28088045 Eh

Note: Only C1 symmetry has been detected, increase convergence thresholds
      if your molecule has a higher symmetry. Symmetry factor of 1.0 is
      used for the rotational entropy correction.

Note: Rotational entropy computed according to Herzberg
Infrared and Raman Spectra, Chapter V,1, Van Nostrand Reinhold, 1945
Point Group:  C1, Symmetry Number:   1
Rotational constants in cm-1:     0.081364     0.023965     0.020654

Vibrational entropy computed according to the QRRHO of S. Grimme
Chem.Eur.J. 2012 18 9955 using a reference frequency of 100.0 cm-1

-------
ENTROPY
-------

The entropy contributions are T*S = T*(S(el)+S(vib)+S(rot)+S(trans))
     S(el)   - electronic entropy
     S(vib)  - vibrational entropy
     S(rot)  - rotational entropy
     S(trans)- translational entropy
The entropies will be listed as multiplied by the temperature to get
units of energy

Electronic entropy                ...      0.00000000 Eh      0.00 kcal/mol
Vibrational entropy               ...      0.01367497 Eh      8.58 kcal/mol
Rotational entropy                ...      0.01428830 Eh      8.97 kcal/mol
Translational entropy             ...      0.01943785 Eh     12.20 kcal/mol
-----------------------------------------------------------------------
Final entropy term                ...      0.04740112 Eh     29.74 kcal/mol

In case the symmetry of your molecule has not been determined correctly
or in case you have a reason to use a different symmetry number we print
out the resulting rotational entropy values for sn=1,12:

 non-linear molecules -----------------------------------

                             ****ORCA TERMINATED NORMALLY****
TOTAL RUN TIME: 0 days 0 hours 26 minutes 46 seconds 395 msec
