                         Program Version 6.0.0  -   RELEASE  -
|  1> ! r2SCAN-3c DEF2-TZVP FREQ
|  2> * xyzfile 0 1 vacuum_censo.xyz
|  3>
|  4>                          ****END OF INPUT****

CARTESIAN COORDINATES (ANGSTROEM)
---------------------------------
  C      3.355947   -0.073504    0.214084
  N      1.942445    0.215837    0.416725
  C      1.662701    1.260129    1.393212
  C      1.057002   -0.205329   -0.544182
  O      1.422895   -0.767083   -1.572421
  C     -0.406642   -0.019698   -0.273009
  C     -0.986165   -0.371201    0.948581
  C     -2.363954   -0.288176    1.119856
  C     -3.170115    0.161460    0.077846
  C     -2.596789    0.506598   -1.143909
  C     -1.223186    0.401326   -1.324138
  H      3.837017   -0.207867    1.188997
  H      3.862500    0.745241   -0.316595
  H      3.457445   -0.982484   -0.378869
  H      1.870204    0.910757    2.413162
  H      0.621387    1.574810    1.334097
  H      2.298557    2.134797    1.196526
  H     -0.358257   -0.732621    1.757632
  H     -2.809138   -0.579461    2.065952
  H     -4.244411    0.232998    0.214241
  H     -3.224337    0.847432   -1.961135
  H     -0.766455    0.631934   -2.280737

 Total Charge           Charge          ....    0
 Multiplicity           Mult            ....    1
 Number of Electrons    NEL             ....   80
 Basis Dimension        Dim             ....  407

ORBITAL ENERGIES
----------------

  NO   OCC          E(Eh)            E(eV)
   0   2.0000     -18.911291      -514.6024
   1   2.0000     -14.197263      -386.3272
   2   2.0000     -10.126500      -275.5561
   3   2.0000     -10.072720      -274.0927
   4   2.0000     -10.061321      -273.7825
   5   2.0000     -10.051583      -273.5175
   6   2.0000     -10.047249      -273.3995
   7   2.0000     -10.044865      -273.3347
   8   2.0000     -10.044355      -273.3208
   9   2.0000     -10.042868      -273.2803
  10   2.0000     -10.042372      -273.2668
  11   2.0000      -0.995624       -27.0923
  12   2.0000      -0.900876       -24.5141
  13   2.0000      -0.830348       -22.5949
  14   2.0000      -0.735312       -20.0089
  15   2.0000      -0.721528       -19.6338
  16   2.0000      -0.691970       -18.8295
  17   2.0000      -0.665212       -18.1013
  18   2.0000      -0.589510       -16.0414
  19   2.0000      -0.580543       -15.7974
  20   2.0000      -0.523939       -14.2571
  21   2.0000      -0.497213       -13.5298
  22   2.0000      -0.459889       -12.5142
  23   2.0000      -0.448235       -12.1971
  24   2.0000      -0.443232       -12.0609
  25   2.0000      -0.424274       -11.5451
  26   2.0000      -0.413173       -11.2430
  27   2.0000      -0.395877       -10.7724
  28   2.0000      -0.380438       -10.3522
  29   2.0000      -0.376262       -10.2386
  30   2.0000      -0.373836       -10.1726
  31   2.0000      -0.364174        -9.9097
  32   2.0000      -0.349262        -9.5039
  33   2.0000      -0.336836        -9.1658
  34   2.0000      -0.326326        -8.8798
  35   2.0000      -0.316905        -8.6234
  36   2.0000      -0.247901        -6.7457
  37   2.0000      -0.244366        -6.6495
  38   2.0000      -0.223852        -6.0913
  39   2.0000      -0.211693        -5.7605
  40   0.0000      -0.058674        -1.5966
  41   0.0000      -0.040990        -1.1154
  42   0.0000       0.013309         0.3622
  43   0.0000       0.037429         1.0185
  44   0.0000       0.059511         1.6194

MULLIKEN ATOMIC CHARGES
-----------------------
   0 C :   -0.260342
   1 N :   -0.096368
   2 C :   -0.269892
   3 C :    0.236353
   4 O :   -0.395213
   5 C :    0.159773
   6 C :   -0.225200
   7 C :   -0.092219
   8 C :   -0.108602
   9 C :   -0.099695
  10 C :   -0.196046
  11 H :    0.110396
  12 H :    0.115396
  13 H :    0.153217
  14 H :    0.119181
  15 H :    0.151350
  16 H :    0.115550
  17 H :    0.123171
  18 H :    0.109998
  19 H :    0.113177
  20 H :    0.111558
  21 H :    0.124457
Sum of atomic charges:    0.0000000

LOEWDIN ATOMIC CHARGES
----------------------
   0 C :   -0.281005
   1 N :    0.153243
   2 C :   -0.286561
   3 C :   -0.395590
   4 O :    0.073526
   5 C :   -0.121234
   6 C :   -0.109035
   7 C :   -0.139461
   8 C :   -0.134544
   9 C :   -0.133917
  10 C :   -0.086251
  11 H :    0.115979
  12 H :    0.114798
  13 H :    0.130711
  14 H :    0.114136
  15 H :    0.130905
  16 H :    0.116767
  17 H :    0.150112
  18 H :    0.144035
  19 H :    0.143742
  20 H :    0.144691
  21 H :    0.154952

  Mayer bond orders larger than 0.100000
B(  0-C ,  1-N ) :   0.9221 B(  0-C , 11-H ) :   0.9636 B(  0-C , 12-H ) :   0.9700
B(  0-C , 13-H ) :   0.9608 B(  1-N ,  2-C ) :   0.9184 B(  1-N ,  3-C ) :   1.2294
B(  2-C , 14-H ) :   0.9729 B(  2-C , 15-H ) :   0.9644 B(  2-C , 16-H ) :   0.9593
B(  3-C ,  4-O ) :   1.9395 B(  3-C ,  5-C ) :   0.8741 B(  5-C ,  6-C ) :   1.3022
B(  5-C , 10-C ) :   1.3617 B(  6-C ,  7-C ) :   1.4220 B(  6-C , 17-H ) :   0.9723
B(  7-C ,  8-C ) :   1.3904 B(  7-C , 18-H ) :   0.9721 B(  8-C ,  9-C ) :   1.3789
B(  8-C , 19-H ) :   0.9679 B(  9-C , 10-C ) :   1.4197 B(  9-C , 20-H ) :   0.9734
B( 10-C , 21-H ) :   0.9694

Dispersion correction           -0.007938176
FINAL SINGLE POINT ENERGY      -479.475871077099

DIPOLE MOMENT
-------------

Method             : SCF
Type of density    : Electron Density
Multiplicity       :   1
Irrep              :   0
Energy             :  -479.4817249617088919 Eh
Relativity type    :
Basis              : AO
                                X                 Y                 Z
Electronic contribution:     -4.519799882      -2.697998413      -4.289383698
Nuclear contribution   :      4.402875400       3.462096773       5.472324184
                        -----------------------------------------
Total Dipole Moment    :     -0.116924482       0.764098360       1.182940486
                        -----------------------------------------
Magnitude (a.u.)       :      1.413105032
Magnitude (Debye)      :      3.591827544

VIBRATIONAL FREQUENCIES
-----------------------

Scaling factor for frequencies =  1.000000000  (already applied!)

     0:       0.00 cm**-1
     1:       0.00 cm**-1
     2:       0.00 cm**-1
     3:       0.00 cm**-1
     4:       0.00 cm**-1
     5:       0.00 cm**-1
     6:      60.33 cm**-1
     7:      96.08 cm**-1
     8:     111.66 cm**-1
     9:     120.68 cm**-1
    10:     167.76 cm**-1
    11:     232.16 cm**-1
    12:     260.97 cm**-1
    13:     306.82 cm**-1
    14:     340.77 cm**-1
    15:     390.69 cm**-1
    16:     413.11 cm**-1
    17:     436.31 cm**-1
    18:     550.53 cm**-1
    19:     633.65 cm**-1
    20:     645.77 cm**-1
    21:     711.26 cm**-1
    22:     711.99 cm**-1
    23:     740.65 cm**-1
    24:     803.11 cm**-1
    25:     857.61 cm**-1
    26:     923.37 cm**-1
    27:     938.63 cm**-1
    28:     969.19 cm**-1
    29:     986.13 cm**-1
    30:    1023.36 cm**-1
    31:    1048.93 cm**-1
    32:    1069.17 cm**-1
    33:    1088.36 cm**-1
    34:    1103.61 cm**-1
    35:    1123.17 cm**-1
    36:    1165.16 cm**-1
    37:    1183.07 cm**-1
    38:    1197.45 cm**-1
    39:    1227.54 cm**-1
    40:    1274.60 cm**-1
    41:    1333.90 cm**-1
    42:    1354.07 cm**-1
    43:    1401.29 cm**-1
    44:    1430.05 cm**-1
    45:    1460.96 cm**-1
    46:    1473.11 cm**-1
    47:    1477.49 cm**-1
    48:    1483.83 cm**-1
    49:    1498.06 cm**-1
    50:    1516.59 cm**-1
    51:    1530.40 cm**-1
    52:    1614.41 cm**-1
    53:    1634.73 cm**-1
    54:    1686.35 cm**-1
    55:    2977.05 cm**-1
    56:    2984.75 cm**-1
    57:    3029.29 cm**-1
    58:    3054.88 cm**-1
    59:    3135.64 cm**-1
    60:    3136.79 cm**-1
    61:    3155.64 cm**-1
    62:    3162.85 cm**-1
    63:    3171.28 cm**-1
    64:    3180.57 cm**-1
    65:    3187.80 cm**-1

IR SPECTRUM
-----------

 Mode   freq       eps      Int      T**2         TX        TY        TZ
       cm**-1   L/(mol*cm) km/mol    a.u.
----------------------------------------------------------------------------
  6:     60.33   0.000504    2.55  0.002609  ( 0.008179  0.048799 -0.012677)
  7:     96.08   0.000083    0.42  0.000270  (-0.003334 -0.013994 -0.007945)
  8:    111.66   0.000295    1.49  0.000826  (-0.020597  0.002652  0.019856)
  9:    120.68   0.000404    2.04  0.001045  (-0.032259 -0.001515  0.001607)
 10:    167.76   0.000266    1.34  0.000495  ( 0.011391  0.010984  0.015632)
 11:    232.16   0.000076    0.39  0.000103  ( 0.008222 -0.003639 -0.004663)
 12:    260.97   0.000566    2.86  0.000676  (-0.006793  0.009241 -0.023340)
 13:    306.82   0.000788    3.98  0.000802  (-0.016147  0.010076 -0.020969)
 14:    340.77   0.000257    1.30  0.000235  (-0.011423  0.004730 -0.009086)
 15:    390.69   0.001968    9.94  0.001572  ( 0.039567  0.000455  0.002439)
 16:    413.11   0.000288    1.45  0.000217  ( 0.014574 -0.000281 -0.002203)
 17:    436.31   0.001038    5.24  0.000742  (-0.016471  0.014722  0.015944)
 18:    550.53   0.001358    6.86  0.000770  (-0.022063 -0.016822  0.000176)
 19:    633.65   0.000052    0.26  0.000025  (-0.003053 -0.003974 -0.000545)
 20:    645.77   0.001623    8.20  0.000784  (-0.023249 -0.009325 -0.012518)
 21:    711.26   0.007365   37.22  0.003232  ( 0.004813  0.053894  0.017432)
 22:    711.99   0.006325   31.96  0.002772  ( 0.022179  0.047137  0.007633)
 23:    740.65   0.001401    7.08  0.000590  (-0.005459 -0.023587  0.001993)
 24:    803.11   0.003171   16.03  0.001232  (-0.006008  0.026830  0.021824)
 25:    857.61   0.000177    0.90  0.000065  ( 0.007815 -0.001834  0.000337)
 26:    923.37   0.000091    0.46  0.000031  ( 0.005373  0.001411 -0.000032)
 27:    938.63   0.000903    4.57  0.000300  ( 0.000141  0.015885  0.006930)
 28:    969.19   0.000187    0.94  0.000060  (-0.007623 -0.000933 -0.001050)
 29:    986.13   0.000064    0.32  0.000020  ( 0.000626 -0.004437 -0.000333)
 30:   1023.36   0.000046    0.23  0.000014  ( 0.002845  0.002336  0.000612)
 31:   1048.93   0.004134   20.89  0.001230  (-0.033888 -0.005476 -0.007186)
 32:   1069.17   0.002914   14.73  0.000851  (-0.028588  0.005068  0.002772)
 33:   1088.36   0.017502   88.45  0.005018  (-0.054422 -0.019969 -0.040716)
 34:   1103.61   0.001600    8.08  0.000452  (-0.017048 -0.012265  0.003357)
 35:   1123.17   0.000129    0.65  0.000036  (-0.005051  0.003066  0.000893)
 36:   1165.16   0.002100   10.62  0.000563  (-0.016591  0.002452 -0.016772)
 37:   1183.07   0.000010    0.05  0.000003  ( 0.000833 -0.000761  0.001160)
 38:   1197.45   0.001409    7.12  0.000367  (-0.017209 -0.005590 -0.006318)
 39:   1227.54   0.005700   28.81  0.001449  ( 0.027648  0.014637  0.021691)
 40:   1274.60   0.013833   69.91  0.003387  ( 0.058118 -0.000377  0.002999)
 41:   1333.90   0.000034    0.17  0.000008  ( 0.001040 -0.002523  0.000763)
 42:   1354.07   0.000237    1.20  0.000055  (-0.001949  0.001854 -0.006881)
 43:   1401.29   0.032772  165.61  0.007298  (-0.073065 -0.026691 -0.035317)
 44:   1430.05   0.001920    9.70  0.000419  (-0.017416  0.010755 -0.000111)
 45:   1460.96   0.004873   24.63  0.001041  (-0.031919  0.004603  0.000944)
 46:   1473.11   0.002214   11.19  0.000469  ( 0.010411 -0.012323  0.014451)
 47:   1477.49   0.000320    1.62  0.000068  ( 0.005492 -0.005087  0.003411)
 48:   1483.83   0.003028   15.30  0.000637  (-0.012812 -0.021737 -0.000536)
 49:   1498.06   0.001519    7.68  0.000316  ( 0.006374 -0.000066 -0.016606)
 50:   1516.59   0.000885    4.47  0.000182  (-0.013487 -0.000014 -0.000369)
 51:   1530.40   0.009429   47.65  0.001923  (-0.040286 -0.007511 -0.015595)
 52:   1614.41   0.001477    7.46  0.000285  (-0.002631  0.003923  0.016222)
 53:   1634.73   0.000716    3.62  0.000137  (-0.008927  0.002927  0.006956)
 54:   1686.35   0.056796  287.03  0.010510  (-0.000789  0.051637  0.088562)
 55:   2977.05   0.008460   42.75  0.000887  (-0.000689 -0.019367 -0.022611)
 56:   2984.75   0.017642   89.16  0.001845  (-0.037743 -0.019262 -0.006996)
 57:   3029.29   0.006759   34.16  0.000696  ( 0.005256  0.015336 -0.020821)
 58:   3054.88   0.004958   25.06  0.000507  ( 0.007412 -0.011233  0.018039)
 59:   3135.64   0.000707    3.57  0.000070  (-0.006943 -0.001519 -0.004454)
 60:   3136.79   0.001429    7.22  0.000142  (-0.009234  0.007518  0.000574)
 61:   3155.64   0.000285    1.44  0.000028  ( 0.005234 -0.000019  0.000860)
 62:   3162.85   0.000357    1.80  0.000035  ( 0.005201  0.000415 -0.002830)
 63:   3171.28   0.003257   16.46  0.000321  ( 0.009648 -0.005532  0.014030)
 64:   3180.57   0.003187   16.10  0.000313  (-0.012529 -0.003431  0.011996)
 65:   3187.80   0.001825    9.22  0.000179  (-0.011919  0.003100 -0.005197)

--------------------------
THERMOCHEMISTRY AT 298.15K
--------------------------

Temperature         ...   298.15 K
Pressure            ...     1.00 atm
Total Mass          ...   149.19 AMU
Quasi RRHO          ...     True
Cut-Off Frequency   ...     1.00 cm^-1

Throughout the following assumptions are being made:
  (1) The electronic state is orbitally nondegenerate
  (2) There are no thermally accessible electronically excited states
  (3) Hindered rotations indicated by low frequency modes are not
      treated as such but are treated as vibrations and this may
      cause some error
  (4) All equations used are the standard statistical mechanics
      equations for an ideal gas
  (5) All vibrations are strictly harmonic

freq.      60.33  E(vib)   ...       0.51
freq.      96.08  E(vib)   ...       0.47
freq.     111.66  E(vib)   ...       0.45
freq.     120.68  E(vib)   ...       0.44
freq.     167.76  E(vib)   ...       0.38
freq.     232.16  E(vib)   ...       0.32
freq.     260.97  E(vib)   ...       0.30
freq.     306.82  E(vib)   ...       0.26
freq.     340.77  E(vib)   ...       0.23
freq.     390.69  E(vib)   ...       0.20
freq.     413.11  E(vib)   ...       0.19
freq.     436.31  E(vib)   ...       0.17
freq.     550.53  E(vib)   ...       0.12
freq.     633.65  E(vib)   ...       0.09
freq.     645.77  E(vib)   ...       0.09
freq.     711.26  E(vib)   ...       0.07
freq.     711.99  E(vib)   ...       0.07
freq.     740.65  E(vib)   ...       0.06
freq.     803.11  E(vib)   ...       0.05
freq.     857.61  E(vib)   ...       0.04
freq.     923.37  E(vib)   ...       0.03
freq.     938.63  E(vib)   ...       0.03
freq.     969.19  E(vib)   ...       0.03
freq.     986.13  E(vib)   ...       0.02
freq.    1023.36  E(vib)   ...       0.02
freq.    1048.93  E(vib)   ...       0.02
freq.    1069.17  E(vib)   ...       0.02
freq.    1088.36  E(vib)   ...       0.02
freq.    1103.61  E(vib)   ...       0.02
freq.    1123.17  E(vib)   ...       0.01
freq.    1165.16  E(vib)   ...       0.01
freq.    1183.07  E(vib)   ...       0.01
freq.    1197.45  E(vib)   ...       0.01
freq.    1227.54  E(vib)   ...       0.01
freq.    1274.60  E(vib)   ...       0.01
freq.    1333.90  E(vib)   ...       0.01
freq.    1354.07  E(vib)   ...       0.01
freq.    1401.29  E(vib)   ...       0.00
freq.    1430.05  E(vib)   ...       0.00
freq.    1460.96  E(vib)   ...       0.00
freq.    1473.11  E(vib)   ...       0.00
freq.    1477.49  E(vib)   ...       0.00
freq.    1483.83  E(vib)   ...       0.00
freq.    1498.06  E(vib)   ...       0.00
freq.    1516.59  E(vib)   ...       0.00
freq.    1530.40  E(vib)   ...       0.00
freq.    1614.41  E(vib)   ...       0.00
freq.    1634.73  E(vib)   ...       0.00
freq.    1686.35  E(vib)   ...       0.00
freq.    2977.05  E(vib)   ...       0.00
freq.    2984.75  E(vib)   ...       0.00
freq.    3029.29  E(vib)   ...       0.00
freq.    3054.88  E(vib)   ...       0.00
freq.    3135.64  E(vib)   ...       0.00
freq.    3136.79  E(vib)   ...       0.00
freq.    3155.64  E(vib)   ...       0.00
freq.    3162.85  E(vib)   ...       0.00
freq.    3171.28  E(vib)   ...       0.00
freq.    3180.57  E(vib)   ...       0.00
freq.    3187.80  E(vib)   ...       0.00

------------
INNER ENERGY
------------

The inner energy is: U= E(el) + E(ZPE) + E(vib) + E(rot) + E(trans)
    E(el)   - is the total energy from the electronic structure calculation
              = E(kin-el) + E(nuc-el) + E(el-el) + E(nuc-nuc)
    E(ZPE)  - the the zero temperature vibrational energy from the frequency calculation
    E(vib)  - the the finite temperature correction to E(ZPE) due to population
              of excited vibrational states
    E(rot)  - is the rotational thermal energy
    E(trans)- is the translational thermal energy

Summary of contributions to the inner energy U:
Electronic energy                ...   -479.47587108 Eh
Zero point energy                ...      0.18222028 Eh     114.34 kcal/mol
Thermal vibrational correction   ...      0.00765765 Eh       4.81 kcal/mol
Thermal rotational correction    ...      0.00141627 Eh       0.89 kcal/mol
Thermal translational correction ...      0.00141627 Eh       0.89 kcal/mol
-----------------------------------------------------------------------
Total thermal energy                   -479.28316060 Eh

Summary of corrections to the electronic energy:
(perhaps to be used in another calculation)
Total thermal correction                  0.01049019 Eh       6.58 kcal/mol
Non-thermal (ZPE) correction              0.18222028 Eh     114.34 kcal/mol
-----------------------------------------------------------------------
Total correction                          0.19271047 Eh     120.93 kcal/mol

--------
ENTHALPY
--------

The enthalpy is H = U + kB*T
                kB is Boltzmann's constant
Total thermal energy              ...   -479.28316060 Eh
Thermal Enthalpy correction       ...      0.00094421 Eh       0.59 kcal/mol
-----------------------------------------------------------------------
Total Enthalpy                    ...   -479.28221640 Eh

Note: Only C1 symmetry has been detected, increase convergence thresholds
      if your molecule has a higher symmetry. Symmetry factor of 1.0 is
      used for the rotational entropy correction.

Note: Rotational entropy computed according to Herzberg
Infrared and Raman Spectra, Chapter V,1, Van Nostrand Reinhold, 1945
Point Group:  C1, Symmetry Number:   1
Rotational constants in cm-1:     0.081505     0.024049     0.020538

Vibrational entropy computed according to the QRRHO of S. Grimme
Chem.Eur.J. 2012 18 9955 using a reference frequency of 100.0 cm-1

-------
ENTROPY
-------

The entropy contributions are T*S = T*(S(el)+S(vib)+S(rot)+S(trans))
     S(el)   - electronic entropy
     S(vib)  - vibrational entropy
     S(rot)  - rotational entropy
     S(trans)- translational entropy
The entropies will be listed as multiplied by the temperature to get
units of energy

Electronic entropy                ...      0.00000000 Eh      0.00 kcal/mol
Vibrational entropy               ...      0.01320346 Eh      8.29 kcal/mol
Rotational entropy                ...      0.01428847 Eh      8.97 kcal/mol
Translational entropy             ...      0.01943785 Eh     12.20 kcal/mol
-----------------------------------------------------------------------
Final entropy term                ...      0.04692979 Eh     29.45 kcal/mol

In case the symmetry of your molecule has not been determined correctly
or in case you have a reason to use a different symmetry number we print
out the resulting rotational entropy values for sn=1,12:

 non-linear molecules -----------------------------------

                             ****ORCA TERMINATED NORMALLY****
TOTAL RUN TIME: 0 days 0 hours 26 minutes 9 seconds 570 msec
