                         Program Version 6.0.1  -  RELEASE   -
|  1> ! r2scan-3c def2/J RI DEFGRID2 scfconv6 printgap
|  2> %output
|  3>     printlevel normal
|  4> end
|  5> * xyz 0 1
|  6> C -1.5965771396 1.6888396242 0.3660141147
|  7> C -1.5908405244 0.2336446049 0.8247343174
|  8> C -2.2448288694 -0.6706188459 -0.2157918942
|  9> C -0.1818563112 -0.2364813061 1.1612646112
| 10> Br 1.0216295274 -0.1874528273 -0.3778679687
| 11> H -1.0422701668 1.7967132687 -0.564099564
| 12> H -2.616080094 2.0261787102 0.1963076615
| 13> H -1.1422059013 2.33322141 1.116421559
| 14> H -2.1594974118 0.1588175906 1.7616459736
| 15> H -3.2718746058 -0.3605556114 -0.391851219
| 16> H -2.2521023971 -1.7058085078 0.1206090162
| 17> H -1.7055527665 -0.616904682 -1.1594004631
| 18> H -0.1797020089 -1.2708901375 1.5037798083
| 19> H 0.2792997453 0.39987144 1.9160514113
| 20> *
| 21>
| 22>                          ****END OF INPUT****

CARTESIAN COORDINATES (ANGSTROEM)
---------------------------------
  C     -1.596577    1.688840    0.366014
  C     -1.590841    0.233645    0.824734
  C     -2.244829   -0.670619   -0.215792
  C     -0.181856   -0.236481    1.161265
  Br     1.021630   -0.187453   -0.377868
  H     -1.042270    1.796713   -0.564100
  H     -2.616080    2.026179    0.196308
  H     -1.142206    2.333221    1.116422
  H     -2.159497    0.158818    1.761646
  H     -3.271875   -0.360556   -0.391851
  H     -2.252102   -1.705809    0.120609
  H     -1.705553   -0.616905   -1.159400
  H     -0.179702   -1.270890    1.503780
  H      0.279300    0.399871    1.916051

 Total Charge           Charge          ....    0
 Multiplicity           Mult            ....    1
 Number of Electrons    NEL             ....   68
 Basis Dimension        Dim             ....  157

ORBITAL ENERGIES
----------------

  NO   OCC          E(Eh)            E(eV)
   0   2.0000    -482.211044    -13121.6296
   1   2.0000     -62.283054     -1694.8081
   2   2.0000     -56.063451     -1525.5641
   3   2.0000     -56.060818     -1525.4924
   4   2.0000     -56.060793     -1525.4917
   5   2.0000     -10.089277      -274.5432
   6   2.0000     -10.054451      -273.5955
   7   2.0000     -10.022163      -272.7169
   8   2.0000     -10.022159      -272.7168
   9   2.0000      -8.615362      -234.4359
  10   2.0000      -6.422668      -174.7697
  11   2.0000      -6.409337      -174.4069
  12   2.0000      -6.409103      -174.4006
  13   2.0000      -2.520305       -68.5810
  14   2.0000      -2.517014       -68.4914
  15   2.0000      -2.516826       -68.4863
  16   2.0000      -2.506930       -68.2170
  17   2.0000      -2.506906       -68.2164
  18   2.0000      -0.804545       -21.8928
  19   2.0000      -0.734617       -19.9899
  20   2.0000      -0.658500       -17.9187
  21   2.0000      -0.640672       -17.4336
  22   2.0000      -0.532521       -14.4906
  23   2.0000      -0.450519       -12.2592
  24   2.0000      -0.433921       -11.8076
  25   2.0000      -0.414165       -11.2700
  26   2.0000      -0.364249        -9.9117
  27   2.0000      -0.361464        -9.8359
  28   2.0000      -0.350313        -9.5325
  29   2.0000      -0.324407        -8.8276
  30   2.0000      -0.313117        -8.5204
  31   2.0000      -0.306725        -8.3464
  32   2.0000      -0.250246        -6.8095
  33   2.0000      -0.247658        -6.7391
  34   0.0000      -0.019338        -0.5262
  35   0.0000       0.076704         2.0872
  36   0.0000       0.127308         3.4642
  37   0.0000       0.128060         3.4847
  38   0.0000       0.130728         3.5573

MULLIKEN ATOMIC CHARGES
-----------------------
   0 C :   -0.475771
   1 C :   -0.059856
   2 C :   -0.475532
   3 C :   -0.202876
   4 Br:   -0.185586
   5 H :    0.169255
   6 H :    0.146752
   7 H :    0.144155
   8 H :    0.146767
   9 H :    0.146726
  10 H :    0.144095
  11 H :    0.169271
  12 H :    0.166292
  13 H :    0.166308
Sum of atomic charges:    0.0000000

LOEWDIN ATOMIC CHARGES
----------------------
   0 C :   -0.421606
   1 C :   -0.272649
   2 C :   -0.421601
   3 C :   -0.386563
   4 Br:    0.074367
   5 H :    0.161902
   6 H :    0.155019
   7 H :    0.154304
   8 H :    0.164466
   9 H :    0.155003
  10 H :    0.154293
  11 H :    0.161928
  12 H :    0.160571
  13 H :    0.160567

  Mayer bond orders larger than 0.100000
B(  0-C ,  1-C ) :   0.9359 B(  0-C ,  5-H ) :   0.9711 B(  0-C ,  6-H ) :   0.9702
B(  0-C ,  7-H ) :   0.9708 B(  1-C ,  2-C ) :   0.9359 B(  1-C ,  3-C ) :   0.9149
B(  1-C ,  8-H ) :   0.9357 B(  2-C ,  9-H ) :   0.9702 B(  2-C , 10-H ) :   0.9708
B(  2-C , 11-H ) :   0.9710 B(  3-C ,  4-Br) :   0.9541 B(  3-C , 12-H ) :   0.9586
B(  3-C , 13-H ) :   0.9587

Dispersion correction           -0.003637641
FINAL SINGLE POINT ENERGY     -2731.933786365353

DIPOLE MOMENT
-------------

Method             : SCF
Type of density    : Electron Density
Multiplicity       :   1
Irrep              :   0
Energy             : -2731.9372506032509591 Eh
Relativity type    :
Basis              : AO
                                X                 Y                 Z
Electronic contribution:     22.054831686      -4.297266281      -7.140559427
Nuclear contribution   :    -22.704760603       4.330477233       7.729808979
                        -----------------------------------------
Total Dipole Moment    :     -0.649928917       0.033210952       0.589249552
                        -----------------------------------------
Magnitude (a.u.)       :      0.877909790
Magnitude (Debye)      :      2.231469347

Rotational constants in cm-1:             0.186191             0.057166             0.053447
Rotational constants in MHz :          5581.874943          1713.808398          1602.311840

                             ****ORCA TERMINATED NORMALLY****
TOTAL RUN TIME: 0 days 0 hours 0 minutes 12 seconds 573 msec
