                         Program Version 6.0.1  -  RELEASE   -
|  1> ! pbe def2-sv(p) def2/J RI DEFGRID1 loosescf d4 GCP(DFT/SV(P)) printgap
|  2> %output
|  3>     printlevel normal
|  4> end
|  5> * xyz 0 1
|  6> C -2.2876341846 0.299207642 1.1738383189
|  7> C -1.7578325855 -0.1147754331 -0.1759157301
|  8> O -2.4805912197 -0.5327477097 -1.0463958677
|  9> C -0.2590787698 0.0003211663 -0.3817187083
| 10> C 0.4103619412 -1.2670804461 0.1940733657
| 11> C 1.8719064373 -1.0031746501 0.5718626806
| 12> C 2.4942048822 0.0046484854 -0.3875815089
| 13> C 1.8272338389 1.3775257997 -0.2284753701
| 14> C 0.3710280257 1.2473995713 0.2361420583
| 15> H -1.6595524766 -0.0766431317 1.9763766482
| 16> H -2.2951921539 1.386452394 1.2280326429
| 17> H -3.3050764783 -0.063029329 1.2962980724
| 18> H -0.0908623212 0.0252346225 -1.4630231489
| 19> H -0.1339898658 -1.6139413485 1.0750841554
| 20> H 0.3539394314 -2.0600037595 -0.5528296528
| 21> H 1.936324912 -0.6122585215 1.5889995972
| 22> H 2.4275621691 -1.9418717229 0.5465504735
| 23> H 3.5659697358 0.0896303097 -0.2020210057
| 24> H 2.3670576006 -0.3594478896 -1.4085290204
| 25> H 2.3776721612 1.9766023127 0.4993690742
| 26> H 1.8639691729 1.907788135 -1.1815420706
| 27> H 0.3353387199 1.1765878334 1.3236612091
| 28> H -0.1865339082 2.1381050651 -0.0593168488
| 29> *
| 30>
| 31>                          ****END OF INPUT****

CARTESIAN COORDINATES (ANGSTROEM)
---------------------------------
  C     -2.287634    0.299208    1.173838
  C     -1.757833   -0.114775   -0.175916
  O     -2.480591   -0.532748   -1.046396
  C     -0.259079    0.000321   -0.381719
  C      0.410362   -1.267080    0.194073
  C      1.871906   -1.003175    0.571863
  C      2.494205    0.004648   -0.387582
  C      1.827234    1.377526   -0.228475
  C      0.371028    1.247400    0.236142
  H     -1.659552   -0.076643    1.976377
  H     -2.295192    1.386452    1.228033
  H     -3.305076   -0.063029    1.296298
  H     -0.090862    0.025235   -1.463023
  H     -0.133990   -1.613941    1.075084
  H      0.353939   -2.060004   -0.552830
  H      1.936325   -0.612259    1.589000
  H      2.427562   -1.941872    0.546550
  H      3.565970    0.089630   -0.202021
  H      2.367058   -0.359448   -1.408529
  H      2.377672    1.976602    0.499369
  H      1.863969    1.907788   -1.181542
  H      0.335339    1.176588    1.323661
  H     -0.186534    2.138105   -0.059317

 Total Charge           Charge          ....    0
 Multiplicity           Mult            ....    1
 Number of Electrons    NEL             ....   70
 Basis Dimension        Dim             ....  154

ORBITAL ENERGIES
----------------

  NO   OCC          E(Eh)            E(eV)
   0   2.0000     -18.731493      -509.7098
   1   2.0000      -9.968140      -271.2469
   2   2.0000      -9.897266      -269.3183
   3   2.0000      -9.894675      -269.2478
   4   2.0000      -9.893050      -269.2036
   5   2.0000      -9.889376      -269.1036
   6   2.0000      -9.888805      -269.0881
   7   2.0000      -9.886940      -269.0373
   8   2.0000      -9.884521      -268.9715
   9   2.0000      -0.934293       -25.4234
  10   2.0000      -0.766504       -20.8576
  11   2.0000      -0.692380       -18.8406
  12   2.0000      -0.672376       -18.2963
  13   2.0000      -0.650920       -17.7124
  14   2.0000      -0.569855       -15.5065
  15   2.0000      -0.552423       -15.0322
  16   2.0000      -0.490008       -13.3338
  17   2.0000      -0.468980       -12.7616
  18   2.0000      -0.448322       -12.1995
  19   2.0000      -0.427693       -11.6381
  20   2.0000      -0.402569       -10.9545
  21   2.0000      -0.396642       -10.7932
  22   2.0000      -0.385195       -10.4817
  23   2.0000      -0.370272       -10.0756
  24   2.0000      -0.353036        -9.6066
  25   2.0000      -0.344522        -9.3749
  26   2.0000      -0.334818        -9.1109
  27   2.0000      -0.331483        -9.0201
  28   2.0000      -0.324918        -8.8415
  29   2.0000      -0.318951        -8.6791
  30   2.0000      -0.304613        -8.2889
  31   2.0000      -0.280814        -7.6413
  32   2.0000      -0.268020        -7.2932
  33   2.0000      -0.267151        -7.2696
  34   2.0000      -0.187948        -5.1143
  35   0.0000      -0.042123        -1.1462
  36   0.0000       0.020365         0.5542
  37   0.0000       0.038784         1.0554
  38   0.0000       0.057526         1.5654
  39   0.0000       0.063459         1.7268

MULLIKEN ATOMIC CHARGES
-----------------------
   0 C :   -0.268620
   1 C :    0.023314
   2 O :   -0.155621
   3 C :   -0.184344
   4 C :   -0.144279
   5 C :   -0.141690
   6 C :   -0.160229
   7 C :   -0.141757
   8 C :   -0.125906
   9 H :    0.121688
  10 H :    0.129378
  11 H :    0.117744
  12 H :    0.071400
  13 H :    0.087016
  14 H :    0.095487
  15 H :    0.076401
  16 H :    0.090367
  17 H :    0.088677
  18 H :    0.083593
  19 H :    0.081921
  20 H :    0.086130
  21 H :    0.075592
  22 H :    0.093737
Sum of atomic charges:   -0.0000000

LOEWDIN ATOMIC CHARGES
----------------------
   0 C :   -0.363971
   1 C :    0.045086
   2 O :   -0.125227
   3 C :   -0.168755
   4 C :   -0.209548
   5 C :   -0.227448
   6 C :   -0.229991
   7 C :   -0.225753
   8 C :   -0.221374
   9 H :    0.132023
  10 H :    0.145531
  11 H :    0.134676
  12 H :    0.127267
  13 H :    0.117240
  14 H :    0.125312
  15 H :    0.114766
  16 H :    0.121302
  17 H :    0.119441
  18 H :    0.116815
  19 H :    0.117853
  20 H :    0.118904
  21 H :    0.115767
  22 H :    0.120088

  Mayer bond orders larger than 0.100000
B(  0-C ,  1-C ) :   1.0685 B(  0-C ,  9-H ) :   0.9268 B(  0-C , 10-H ) :   0.9134
B(  0-C , 11-H ) :   0.9310 B(  1-C ,  2-O ) :   2.2185 B(  1-C ,  3-C ) :   0.9407
B(  3-C ,  4-C ) :   1.0687 B(  3-C ,  8-C ) :   1.1210 B(  3-C , 12-H ) :   0.8658
B(  4-C ,  5-C ) :   1.1446 B(  4-C , 13-H ) :   0.9126 B(  4-C , 14-H ) :   0.9130
B(  5-C ,  6-C ) :   1.1851 B(  5-C , 15-H ) :   0.9055 B(  5-C , 16-H ) :   0.9185
B(  6-C ,  7-C ) :   1.1384 B(  6-C , 17-H ) :   0.9224 B(  6-C , 18-H ) :   0.9126
B(  7-C ,  8-C ) :   1.1468 B(  7-C , 19-H ) :   0.9181 B(  7-C , 20-H ) :   0.9202
B(  8-C , 21-H ) :   0.8777 B(  8-C , 22-H ) :   0.9238

Dispersion correction           -0.022122751
FINAL SINGLE POINT ENERGY      -387.599133556353

DIPOLE MOMENT
-------------

Method             : SCF
Type of density    : Electron Density
Multiplicity       :   1
Irrep              :   0
Energy             :  -387.6764362130456902 Eh
Relativity type    :
Basis              : AO
                                X                 Y                 Z
Electronic contribution:     -6.281842038      -1.513164356      -3.660283012
Nuclear contribution   :      7.052580632       1.843292639       4.363004952
                        -----------------------------------------
Total Dipole Moment    :      0.770738594       0.330128283       0.702721940
                        -----------------------------------------
Magnitude (a.u.)       :      1.094002189
Magnitude (Debye)      :      2.780732575

Rotational constants in cm-1:             0.101086             0.035076             0.032284
Rotational constants in MHz :          3030.477040          1051.563161           967.839330

                             ****ORCA TERMINATED NORMALLY****
TOTAL RUN TIME: 0 days 0 hours 0 minutes 10 seconds 929 msec
