                         Program Version 6.0.0  -   RELEASE  -
|  1> ! r2SCAN-3c DEF2-TZVP FREQ
|  2> * xyzfile 0 1 censo.xyz
|  3>
|  4>                          ****END OF INPUT****

CARTESIAN COORDINATES (ANGSTROEM)
---------------------------------
  C     -0.797709    0.000006    0.663852
  C      0.606721    0.000063    0.003923
  Cl     0.507464    0.000001   -1.779861
  Cl     1.496797   -1.454793    0.561957
  Cl     1.496632    1.455061    0.561845
  Cl    -1.720857    1.466804    0.210051
  Cl    -1.720698   -1.466926    0.210153
  H     -0.677176    0.000051    1.749902

 Total Charge           Charge          ....    0
 Multiplicity           Mult            ....    1
 Number of Electrons    NEL             ....   98
 Basis Dimension        Dim             ....  253

ORBITAL ENERGIES
----------------

  NO   OCC          E(Eh)            E(eV)
   0   2.0000    -101.222943     -2754.4163
   1   2.0000    -101.222942     -2754.4163
   2   2.0000    -101.220356     -2754.3459
   3   2.0000    -101.214590     -2754.1890
   4   2.0000    -101.214587     -2754.1889
   5   2.0000     -10.252120      -278.9744
   6   2.0000     -10.199748      -277.5493
   7   2.0000      -9.399097      -255.7624
   8   2.0000      -9.399096      -255.7624
   9   2.0000      -9.396409      -255.6893
  10   2.0000      -9.390558      -255.5301
  11   2.0000      -9.390555      -255.5300
  12   2.0000      -7.144685      -194.4168
  13   2.0000      -7.144684      -194.4167
  14   2.0000      -7.142033      -194.3446
  15   2.0000      -7.136032      -194.1813
  16   2.0000      -7.136030      -194.1812
  17   2.0000      -7.133574      -194.1144
  18   2.0000      -7.133574      -194.1144
  19   2.0000      -7.133402      -194.1097
  20   2.0000      -7.133401      -194.1097
  21   2.0000      -7.130845      -194.0402
  22   2.0000      -7.130721      -194.0368
  23   2.0000      -7.125119      -193.8843
  24   2.0000      -7.125117      -193.8843
  25   2.0000      -7.124927      -193.8791
  26   2.0000      -7.124927      -193.8791
  27   2.0000      -0.938351       -25.5338
  28   2.0000      -0.869426       -23.6583
  29   2.0000      -0.819963       -22.3123
  30   2.0000      -0.813940       -22.1484
  31   2.0000      -0.798624       -21.7317
  32   2.0000      -0.689740       -18.7688
  33   2.0000      -0.583825       -15.8867
  34   2.0000      -0.500271       -13.6131
  35   2.0000      -0.482368       -13.1259
  36   2.0000      -0.479564       -13.0496
  37   2.0000      -0.436876       -11.8880
  38   2.0000      -0.425856       -11.5881
  39   2.0000      -0.346027        -9.4159
  40   2.0000      -0.341856        -9.3024
  41   2.0000      -0.328013        -8.9257
  42   2.0000      -0.322703        -8.7812
  43   2.0000      -0.319522        -8.6946
  44   2.0000      -0.310321        -8.4443
  45   2.0000      -0.308288        -8.3890
  46   2.0000      -0.297830        -8.1044
  47   2.0000      -0.293731        -7.9928
  48   2.0000      -0.283916        -7.7258
  49   0.0000      -0.080549        -2.1918
  50   0.0000      -0.065152        -1.7729
  51   0.0000      -0.063616        -1.7311
  52   0.0000      -0.024614        -0.6698
  53   0.0000       0.006605         0.1797

MULLIKEN ATOMIC CHARGES
-----------------------
   0 C :    0.012592
   1 C :    0.171516
   2 Cl:   -0.055163
   3 Cl:   -0.061925
   4 Cl:   -0.061925
   5 Cl:   -0.082865
   6 Cl:   -0.082866
   7 H :    0.160636
Sum of atomic charges:    0.0000000

LOEWDIN ATOMIC CHARGES
----------------------
   0 C :   -0.807608
   1 C :   -1.088131
   2 Cl:    0.367404
   3 Cl:    0.359996
   4 Cl:    0.359996
   5 Cl:    0.336064
   6 Cl:    0.336061
   7 H :    0.136217

  Mayer bond orders larger than 0.100000
B(  0-C ,  1-C ) :   0.9497 B(  0-C ,  5-Cl) :   1.0816 B(  0-C ,  6-Cl) :   1.0816
B(  0-C ,  7-H ) :   0.9371 B(  1-C ,  2-Cl) :   1.1118 B(  1-C ,  3-Cl) :   1.0853
B(  1-C ,  4-Cl) :   1.0853

Dispersion correction           -0.004176313
FINAL SINGLE POINT ENERGY     -2377.694553519827

DIPOLE MOMENT
-------------

Method             : SCF
Type of density    : Electron Density
Multiplicity       :   1
Irrep              :   0
Energy             : -2377.7009158867372207 Eh
Relativity type    :
Basis              : AO
                                X                 Y                 Z
Electronic contribution:      0.795555636      -0.000006639      -1.622263971
Nuclear contribution   :     -0.739862536       0.000024714       1.998885338
                        -----------------------------------------
Total Dipole Moment    :      0.055693100       0.000018075       0.376621367
                        -----------------------------------------
Magnitude (a.u.)       :      0.380716923
Magnitude (Debye)      :      0.967705514

VIBRATIONAL FREQUENCIES
-----------------------

Scaling factor for frequencies =  1.000000000  (already applied!)

     0:       0.00 cm**-1
     1:       0.00 cm**-1
     2:       0.00 cm**-1
     3:       0.00 cm**-1
     4:       0.00 cm**-1
     5:       0.00 cm**-1
     6:      84.76 cm**-1
     7:     162.83 cm**-1
     8:     173.85 cm**-1
     9:     224.06 cm**-1
    10:     236.04 cm**-1
    11:     276.15 cm**-1
    12:     313.84 cm**-1
    13:     322.16 cm**-1
    14:     391.87 cm**-1
    15:     561.91 cm**-1
    16:     691.05 cm**-1
    17:     701.52 cm**-1
    18:     760.23 cm**-1
    19:     770.82 cm**-1
    20:     997.59 cm**-1
    21:    1216.58 cm**-1
    22:    1259.28 cm**-1
    23:    3104.32 cm**-1

IR SPECTRUM
-----------

 Mode   freq       eps      Int      T**2         TX        TY        TZ
       cm**-1   L/(mol*cm) km/mol    a.u.
----------------------------------------------------------------------------
  6:     84.76   0.000006    0.03  0.000023  (-0.000000  0.004770  0.000000)
  7:    162.83   0.000049    0.25  0.000095  (-0.000001  0.009735  0.000000)
  8:    173.85   0.000071    0.36  0.000128  (-0.007980 -0.000001  0.007995)
  9:    224.06   0.000003    0.02  0.000005  (-0.000223  0.000000 -0.002154)
 10:    236.04   0.000002    0.01  0.000003  ( 0.000000  0.001618  0.000000)
 11:    276.15   0.000018    0.09  0.000020  (-0.004358 -0.000001 -0.001018)
 12:    313.84   0.000078    0.40  0.000078  (-0.000000  0.008817 -0.000001)
 13:    322.16   0.000135    0.68  0.000130  (-0.011297  0.000000  0.001637)
 14:    391.87   0.000203    1.03  0.000162  ( 0.000865  0.000000 -0.012694)
 15:    561.91   0.008040   40.63  0.004465  ( 0.026663 -0.000000 -0.061273)
 16:    691.05   0.022411  113.25  0.010120  (-0.084767 -0.000019 -0.054173)
 17:    701.52   0.048299  244.09  0.021486  ( 0.000016 -0.146579  0.000011)
 18:    760.23   0.000678    3.43  0.000278  ( 0.000000  0.016686  0.000001)
 19:    770.82   0.012683   64.09  0.005135  ( 0.013644  0.000005  0.070345)
 20:    997.59   0.001757    8.88  0.000550  (-0.000337  0.000000  0.023439)
 21:   1216.58   0.001795    9.07  0.000460  ( 0.000001 -0.021458  0.000000)
 22:   1259.28   0.000891    4.50  0.000221  (-0.011002 -0.000000  0.009987)
 23:   3104.32   0.000735    3.71  0.000074  (-0.006534 -0.000000  0.005580)

--------------------------
THERMOCHEMISTRY AT 298.15K
--------------------------

Temperature         ...   298.15 K
Pressure            ...     1.00 atm
Total Mass          ...   202.30 AMU
Quasi RRHO          ...     True
Cut-Off Frequency   ...     1.00 cm^-1

Throughout the following assumptions are being made:
  (1) The electronic state is orbitally nondegenerate
  (2) There are no thermally accessible electronically excited states
  (3) Hindered rotations indicated by low frequency modes are not
      treated as such but are treated as vibrations and this may
      cause some error
  (4) All equations used are the standard statistical mechanics
      equations for an ideal gas
  (5) All vibrations are strictly harmonic

freq.      84.76  E(vib)   ...       0.48
freq.     162.83  E(vib)   ...       0.39
freq.     173.85  E(vib)   ...       0.38
freq.     224.06  E(vib)   ...       0.33
freq.     236.04  E(vib)   ...       0.32
freq.     276.15  E(vib)   ...       0.28
freq.     313.84  E(vib)   ...       0.25
freq.     322.16  E(vib)   ...       0.25
freq.     391.87  E(vib)   ...       0.20
freq.     561.91  E(vib)   ...       0.11
freq.     691.05  E(vib)   ...       0.07
freq.     701.52  E(vib)   ...       0.07
freq.     760.23  E(vib)   ...       0.06
freq.     770.82  E(vib)   ...       0.05
freq.     997.59  E(vib)   ...       0.02
freq.    1216.58  E(vib)   ...       0.01
freq.    1259.28  E(vib)   ...       0.01
freq.    3104.32  E(vib)   ...       0.00

------------
INNER ENERGY
------------

The inner energy is: U= E(el) + E(ZPE) + E(vib) + E(rot) + E(trans)
    E(el)   - is the total energy from the electronic structure calculation
              = E(kin-el) + E(nuc-el) + E(el-el) + E(nuc-nuc)
    E(ZPE)  - the the zero temperature vibrational energy from the frequency calculation
    E(vib)  - the the finite temperature correction to E(ZPE) due to population
              of excited vibrational states
    E(rot)  - is the rotational thermal energy
    E(trans)- is the translational thermal energy

Summary of contributions to the inner energy U:
Electronic energy                ...  -2377.69455352 Eh
Zero point energy                ...      0.02790497 Eh      17.51 kcal/mol
Thermal vibrational correction   ...      0.00523803 Eh       3.29 kcal/mol
Thermal rotational correction    ...      0.00141627 Eh       0.89 kcal/mol
Thermal translational correction ...      0.00141627 Eh       0.89 kcal/mol
-----------------------------------------------------------------------
Total thermal energy                  -2377.65857798 Eh

Summary of corrections to the electronic energy:
(perhaps to be used in another calculation)
Total thermal correction                  0.00807057 Eh       5.06 kcal/mol
Non-thermal (ZPE) correction              0.02790497 Eh      17.51 kcal/mol
-----------------------------------------------------------------------
Total correction                          0.03597554 Eh      22.57 kcal/mol

--------
ENTHALPY
--------

The enthalpy is H = U + kB*T
                kB is Boltzmann's constant
Total thermal energy              ...  -2377.65857798 Eh
Thermal Enthalpy correction       ...      0.00094421 Eh       0.59 kcal/mol
-----------------------------------------------------------------------
Total Enthalpy                    ...  -2377.65763377 Eh

Note: Rotational entropy computed according to Herzberg
Infrared and Raman Spectra, Chapter V,1, Van Nostrand Reinhold, 1945
Point Group:  Cs, Symmetry Number:   1
Rotational constants in cm-1:     0.037567     0.031413     0.024317

Vibrational entropy computed according to the QRRHO of S. Grimme
Chem.Eur.J. 2012 18 9955 using a reference frequency of 100.0 cm-1

-------
ENTROPY
-------

The entropy contributions are T*S = T*(S(el)+S(vib)+S(rot)+S(trans))
     S(el)   - electronic entropy
     S(vib)  - vibrational entropy
     S(rot)  - rotational entropy
     S(trans)- translational entropy
The entropies will be listed as multiplied by the temperature to get
units of energy

Electronic entropy                ...      0.00000000 Eh      0.00 kcal/mol
Vibrational entropy               ...      0.00898875 Eh      5.64 kcal/mol
Rotational entropy                ...      0.01444828 Eh      9.07 kcal/mol
Translational entropy             ...      0.01986909 Eh     12.47 kcal/mol
-----------------------------------------------------------------------
Final entropy term                ...      0.04330612 Eh     27.17 kcal/mol

In case the symmetry of your molecule has not been determined correctly
or in case you have a reason to use a different symmetry number we print
out the resulting rotational entropy values for sn=1,12:

 non-linear molecules -----------------------------------
|  sn= 1 | S(rot)=       0.01444828 Eh      9.07 kcal/mol|
|  sn= 2 | S(rot)=       0.01379383 Eh      8.66 kcal/mol|
|  sn= 3 | S(rot)=       0.01341099 Eh      8.42 kcal/mol|
|  sn= 4 | S(rot)=       0.01313937 Eh      8.25 kcal/mol|
|  sn= 5 | S(rot)=       0.01292868 Eh      8.11 kcal/mol|
|  sn= 6 | S(rot)=       0.01275654 Eh      8.00 kcal/mol|
|  sn= 7 | S(rot)=       0.01261099 Eh      7.91 kcal/mol|
|  sn= 8 | S(rot)=       0.01248491 Eh      7.83 kcal/mol|
|  sn= 9 | S(rot)=       0.01237371 Eh      7.76 kcal/mol|
|  sn=10 | S(rot)=       0.01227423 Eh      7.70 kcal/mol|
|  sn=11 | S(rot)=       0.01218424 Eh      7.65 kcal/mol|
|  sn=12 | S(rot)=       0.01210208 Eh      7.59 kcal/mol|
 linear molecules ---------------------------------------
|  Dinfh | S(rot)=       0.00883492 Eh      5.54 kcal/mol|
|  Cinfv | S(rot)=       0.00948938 Eh      5.95 kcal/mol|
 --------------------------------------------------------

-------------------
GIBBS FREE ENERGY
-------------------

The Gibbs free energy is G = H - T*S

Total enthalpy                    ...  -2377.65763377 Eh
Total entropy correction          ...     -0.04330612 Eh    -27.17 kcal/mol
-----------------------------------------------------------------------
Final Gibbs free energy         ...  -2377.70093989 Eh

For completeness - the Gibbs free energy minus the electronic energy
G-E(el)                           ...     -0.00638637 Eh     -4.01 kcal/mol

                             ****ORCA TERMINATED NORMALLY****
TOTAL RUN TIME: 0 days 0 hours 3 minutes 49 seconds 387 msec
