                         Program Version 6.0.0  -   RELEASE  -
|  1> ! r2SCAN-3c DEF2-TZVP FREQ
|  2> * xyzfile 0 1 vacuum_censo.xyz
|  3>
|  4>                          ****END OF INPUT****

CARTESIAN COORDINATES (ANGSTROEM)
---------------------------------
  C     -0.799122    0.000057    0.652169
  C      0.608797   -0.000086   -0.004477
  Cl     1.492994   -1.455763    0.566644
  Cl     1.493471    1.455158    0.567106
  Cl     0.513084    0.000220   -1.780871
  Cl    -1.722195    1.466975    0.212923
  Cl    -1.722687   -1.466432    0.212514
  H     -0.664906   -0.000115    1.736262

 Total Charge           Charge          ....    0
 Multiplicity           Mult            ....    1
 Number of Electrons    NEL             ....   98
 Basis Dimension        Dim             ....  253

ORBITAL ENERGIES
----------------

  NO   OCC          E(Eh)            E(eV)
   0   2.0000    -101.222685     -2754.4093
   1   2.0000    -101.222681     -2754.4092
   2   2.0000    -101.221358     -2754.3732
   3   2.0000    -101.214678     -2754.1914
   4   2.0000    -101.214675     -2754.1913
   5   2.0000     -10.251840      -278.9667
   6   2.0000     -10.198768      -277.5226
   7   2.0000      -9.398829      -255.7551
   8   2.0000      -9.398824      -255.7550
   9   2.0000      -9.397474      -255.7183
  10   2.0000      -9.390677      -255.5333
  11   2.0000      -9.390674      -255.5332
  12   2.0000      -7.144413      -194.4094
  13   2.0000      -7.144408      -194.4092
  14   2.0000      -7.143073      -194.3729
  15   2.0000      -7.136140      -194.1842
  16   2.0000      -7.136137      -194.1842
  17   2.0000      -7.133312      -194.1073
  18   2.0000      -7.133308      -194.1072
  19   2.0000      -7.133136      -194.1025
  20   2.0000      -7.133132      -194.1024
  21   2.0000      -7.131925      -194.0696
  22   2.0000      -7.131780      -194.0656
  23   2.0000      -7.125238      -193.8876
  24   2.0000      -7.125237      -193.8875
  25   2.0000      -7.125047      -193.8824
  26   2.0000      -7.125046      -193.8824
  27   2.0000      -0.938693       -25.5431
  28   2.0000      -0.870025       -23.6746
  29   2.0000      -0.819811       -22.3082
  30   2.0000      -0.815311       -22.1857
  31   2.0000      -0.798880       -21.7386
  32   2.0000      -0.689225       -18.7548
  33   2.0000      -0.583510       -15.8781
  34   2.0000      -0.499963       -13.6047
  35   2.0000      -0.482325       -13.1247
  36   2.0000      -0.479905       -13.0589
  37   2.0000      -0.437443       -11.9034
  38   2.0000      -0.426292       -11.6000
  39   2.0000      -0.346330        -9.4241
  40   2.0000      -0.341859        -9.3025
  41   2.0000      -0.327877        -8.9220
  42   2.0000      -0.322704        -8.7812
  43   2.0000      -0.319423        -8.6919
  44   2.0000      -0.310313        -8.4441
  45   2.0000      -0.308595        -8.3973
  46   2.0000      -0.298017        -8.1095
  47   2.0000      -0.294343        -8.0095
  48   2.0000      -0.283931        -7.7261
  49   0.0000      -0.080646        -2.1945
  50   0.0000      -0.063498        -1.7279
  51   0.0000      -0.063240        -1.7208
  52   0.0000      -0.023049        -0.6272
  53   0.0000       0.007486         0.2037

MULLIKEN ATOMIC CHARGES
-----------------------
   0 C :    0.013939
   1 C :    0.170480
   2 Cl:   -0.063429
   3 Cl:   -0.063448
   4 Cl:   -0.051577
   5 Cl:   -0.082048
   6 Cl:   -0.082050
   7 H :    0.158134
Sum of atomic charges:   -0.0000000

LOEWDIN ATOMIC CHARGES
----------------------
   0 C :   -0.815748
   1 C :   -1.090243
   2 Cl:    0.358008
   3 Cl:    0.357972
   4 Cl:    0.376094
   5 Cl:    0.339037
   6 Cl:    0.339034
   7 H :    0.135846

  Mayer bond orders larger than 0.100000
B(  0-C ,  1-C ) :   0.9479 B(  0-C ,  5-Cl) :   1.0831 B(  0-C ,  6-Cl) :   1.0831
B(  0-C ,  7-H ) :   0.9387 B(  1-C ,  2-Cl) :   1.0836 B(  1-C ,  3-Cl) :   1.0835
B(  1-C ,  4-Cl) :   1.1179

Dispersion correction           -0.004176731
FINAL SINGLE POINT ENERGY     -2377.694714686963

DIPOLE MOMENT
-------------

Method             : SCF
Type of density    : Electron Density
Multiplicity       :   1
Irrep              :   0
Energy             : -2377.7011250937594014 Eh
Relativity type    :
Basis              : AO
                                X                 Y                 Z
Electronic contribution:      0.779970292       0.000074053      -1.618120126
Nuclear contribution   :     -0.726227310      -0.000173679       1.974128603
                        -----------------------------------------
Total Dipole Moment    :      0.053742982      -0.000099627       0.356008477
                        -----------------------------------------
Magnitude (a.u.)       :      0.360042155
Magnitude (Debye)      :      0.915154430

VIBRATIONAL FREQUENCIES
-----------------------

Scaling factor for frequencies =  1.000000000  (already applied!)

     0:       0.00 cm**-1
     1:       0.00 cm**-1
     2:       0.00 cm**-1
     3:       0.00 cm**-1
     4:       0.00 cm**-1
     5:       0.00 cm**-1
     6:      83.08 cm**-1
     7:     163.01 cm**-1
     8:     172.32 cm**-1
     9:     224.10 cm**-1
    10:     235.33 cm**-1
    11:     276.17 cm**-1
    12:     313.60 cm**-1
    13:     322.63 cm**-1
    14:     391.75 cm**-1
    15:     568.77 cm**-1
    16:     692.98 cm**-1
    17:     704.00 cm**-1
    18:     762.44 cm**-1
    19:     775.03 cm**-1
    20:     995.78 cm**-1
    21:    1221.56 cm**-1
    22:    1264.99 cm**-1
    23:    3105.34 cm**-1

IR SPECTRUM
-----------

 Mode   freq       eps      Int      T**2         TX        TY        TZ
       cm**-1   L/(mol*cm) km/mol    a.u.
----------------------------------------------------------------------------
  6:     83.08   0.000006    0.03  0.000023  ( 0.000001  0.004822 -0.000001)
  7:    163.01   0.000054    0.27  0.000103  ( 0.000002  0.010167  0.000002)
  8:    172.32   0.000075    0.38  0.000135  ( 0.008062 -0.000001 -0.008368)
  9:    224.10   0.000003    0.01  0.000004  ( 0.000257 -0.000001  0.001955)
 10:    235.33   0.000002    0.01  0.000003  (-0.000000 -0.001625 -0.000000)
 11:    276.17   0.000015    0.08  0.000017  (-0.004098 -0.000001 -0.000102)
 12:    313.60   0.000098    0.50  0.000098  ( 0.000004  0.009887  0.000005)
 13:    322.63   0.000139    0.70  0.000134  ( 0.011304 -0.000002 -0.002585)
 14:    391.75   0.000227    1.15  0.000181  (-0.000157  0.000003  0.013442)
 15:    568.77   0.007564   38.23  0.004150  ( 0.028462  0.000004 -0.057794)
 16:    692.98   0.022262  112.50  0.010025  ( 0.083810  0.000165  0.054782)
 17:    704.00   0.048919  247.22  0.021684  (-0.000079  0.147256 -0.000038)
 18:    762.44   0.000012    0.06  0.000005  (-0.000001 -0.002221 -0.000061)
 19:    775.03   0.013334   67.38  0.005369  ( 0.012611 -0.000032  0.072179)
 20:    995.78   0.002029   10.25  0.000636  (-0.001398  0.000001 -0.025178)
 21:   1221.56   0.001851    9.35  0.000473  ( 0.000003  0.021746  0.000001)
 22:   1264.99   0.000906    4.58  0.000224  ( 0.011067  0.000000 -0.010053)
 23:   3105.34   0.000702    3.55  0.000071  (-0.006620  0.000000  0.005166)

--------------------------
THERMOCHEMISTRY AT 298.15K
--------------------------

Temperature         ...   298.15 K
Pressure            ...     1.00 atm
Total Mass          ...   202.30 AMU
Quasi RRHO          ...     True
Cut-Off Frequency   ...     1.00 cm^-1

Throughout the following assumptions are being made:
  (1) The electronic state is orbitally nondegenerate
  (2) There are no thermally accessible electronically excited states
  (3) Hindered rotations indicated by low frequency modes are not
      treated as such but are treated as vibrations and this may
      cause some error
  (4) All equations used are the standard statistical mechanics
      equations for an ideal gas
  (5) All vibrations are strictly harmonic

freq.      83.08  E(vib)   ...       0.48
freq.     163.01  E(vib)   ...       0.39
freq.     172.32  E(vib)   ...       0.38
freq.     224.10  E(vib)   ...       0.33
freq.     235.33  E(vib)   ...       0.32
freq.     276.17  E(vib)   ...       0.28
freq.     313.60  E(vib)   ...       0.25
freq.     322.63  E(vib)   ...       0.25
freq.     391.75  E(vib)   ...       0.20
freq.     568.77  E(vib)   ...       0.11
freq.     692.98  E(vib)   ...       0.07
freq.     704.00  E(vib)   ...       0.07
freq.     762.44  E(vib)   ...       0.06
freq.     775.03  E(vib)   ...       0.05
freq.     995.78  E(vib)   ...       0.02
freq.    1221.56  E(vib)   ...       0.01
freq.    1264.99  E(vib)   ...       0.01
freq.    3105.34  E(vib)   ...       0.00

------------
INNER ENERGY
------------

The inner energy is: U= E(el) + E(ZPE) + E(vib) + E(rot) + E(trans)
    E(el)   - is the total energy from the electronic structure calculation
              = E(kin-el) + E(nuc-el) + E(el-el) + E(nuc-nuc)
    E(ZPE)  - the the zero temperature vibrational energy from the frequency calculation
    E(vib)  - the the finite temperature correction to E(ZPE) due to population
              of excited vibrational states
    E(rot)  - is the rotational thermal energy
    E(trans)- is the translational thermal energy

Summary of contributions to the inner energy U:
Electronic energy                ...  -2377.69471469 Eh
Zero point energy                ...      0.02795970 Eh      17.54 kcal/mol
Thermal vibrational correction   ...      0.00523600 Eh       3.29 kcal/mol
Thermal rotational correction    ...      0.00141627 Eh       0.89 kcal/mol
Thermal translational correction ...      0.00141627 Eh       0.89 kcal/mol
-----------------------------------------------------------------------
Total thermal energy                  -2377.65868645 Eh

Summary of corrections to the electronic energy:
(perhaps to be used in another calculation)
Total thermal correction                  0.00806854 Eh       5.06 kcal/mol
Non-thermal (ZPE) correction              0.02795970 Eh      17.54 kcal/mol
-----------------------------------------------------------------------
Total correction                          0.03602824 Eh      22.61 kcal/mol

--------
ENTHALPY
--------

The enthalpy is H = U + kB*T
                kB is Boltzmann's constant
Total thermal energy              ...  -2377.65868645 Eh
Thermal Enthalpy correction       ...      0.00094421 Eh       0.59 kcal/mol
-----------------------------------------------------------------------
Total Enthalpy                    ...  -2377.65774224 Eh

Note: Rotational entropy computed according to Herzberg
Infrared and Raman Spectra, Chapter V,1, Van Nostrand Reinhold, 1945
Point Group:  Cs, Symmetry Number:   1
Rotational constants in cm-1:     0.037531     0.031396     0.024317

Vibrational entropy computed according to the QRRHO of S. Grimme
Chem.Eur.J. 2012 18 9955 using a reference frequency of 100.0 cm-1

-------
ENTROPY
-------

The entropy contributions are T*S = T*(S(el)+S(vib)+S(rot)+S(trans))
     S(el)   - electronic entropy
     S(vib)  - vibrational entropy
     S(rot)  - rotational entropy
     S(trans)- translational entropy
The entropies will be listed as multiplied by the temperature to get
units of energy

Electronic entropy                ...      0.00000000 Eh      0.00 kcal/mol
Vibrational entropy               ...      0.00899119 Eh      5.64 kcal/mol
Rotational entropy                ...      0.01444898 Eh      9.07 kcal/mol
Translational entropy             ...      0.01986909 Eh     12.47 kcal/mol
-----------------------------------------------------------------------
Final entropy term                ...      0.04330926 Eh     27.18 kcal/mol

In case the symmetry of your molecule has not been determined correctly
or in case you have a reason to use a different symmetry number we print
out the resulting rotational entropy values for sn=1,12:

 non-linear molecules -----------------------------------
|  sn= 1 | S(rot)=       0.01444898 Eh      9.07 kcal/mol|
|  sn= 2 | S(rot)=       0.01379453 Eh      8.66 kcal/mol|
|  sn= 3 | S(rot)=       0.01341169 Eh      8.42 kcal/mol|
|  sn= 4 | S(rot)=       0.01314007 Eh      8.25 kcal/mol|
|  sn= 5 | S(rot)=       0.01292938 Eh      8.11 kcal/mol|
|  sn= 6 | S(rot)=       0.01275724 Eh      8.01 kcal/mol|
|  sn= 7 | S(rot)=       0.01261169 Eh      7.91 kcal/mol|
|  sn= 8 | S(rot)=       0.01248561 Eh      7.83 kcal/mol|
|  sn= 9 | S(rot)=       0.01237441 Eh      7.77 kcal/mol|
|  sn=10 | S(rot)=       0.01227493 Eh      7.70 kcal/mol|
|  sn=11 | S(rot)=       0.01218494 Eh      7.65 kcal/mol|
|  sn=12 | S(rot)=       0.01210278 Eh      7.59 kcal/mol|
 linear molecules ---------------------------------------
|  Dinfh | S(rot)=       0.00883492 Eh      5.54 kcal/mol|
|  Cinfv | S(rot)=       0.00948938 Eh      5.95 kcal/mol|
 --------------------------------------------------------

-------------------
GIBBS FREE ENERGY
-------------------

The Gibbs free energy is G = H - T*S

Total enthalpy                    ...  -2377.65774224 Eh
Total entropy correction          ...     -0.04330926 Eh    -27.18 kcal/mol
-----------------------------------------------------------------------
Final Gibbs free energy         ...  -2377.70105150 Eh

For completeness - the Gibbs free energy minus the electronic energy
G-E(el)                           ...     -0.00633682 Eh     -3.98 kcal/mol

                             ****ORCA TERMINATED NORMALLY****
TOTAL RUN TIME: 0 days 0 hours 3 minutes 52 seconds 72 msec
