                         Program Version 6.0.1  -  RELEASE   -
|  1> ! pbe def2-sv(p) def2/J RI DEFGRID1 loosescf d4 GCP(DFT/SV(P)) printgap
|  2> %output
|  3>     printlevel normal
|  4> end
|  5> * xyz 0 1
|  6> C -2.1947289262 0.1583988039 0.636575556
|  7> C -1.3958894678 -0.2973926937 -0.576008941
|  8> O -0.1046638655 -0.7792833933 -0.1995854851
|  9> C 0.8635875787 0.1287014964 -0.0325472528
| 10> O 0.712870181 1.3109359772 -0.1891221499
| 11> C 2.1600316831 -0.5385274366 0.3466248474
| 12> H -3.1902577338 0.4605593187 0.3244908202
| 13> H -2.2779143734 -0.6505582293 1.358476951
| 14> H -1.701337703 1.0047174934 1.1081142523
| 15> H -1.2727700517 0.531701701 -1.2805978546
| 16> H -1.8797841767 -1.1408858198 -1.0728299013
| 17> H 2.810258856 0.1786801526 0.8380106603
| 18> H 2.6466080138 -0.8922766563 -0.5603786079
| 19> H 1.9673803735 -1.391181311 0.9904754971
| 20> *
| 21>
| 22>                          ****END OF INPUT****

CARTESIAN COORDINATES (ANGSTROEM)
---------------------------------
  C     -2.194729    0.158399    0.636576
  C     -1.395889   -0.297393   -0.576009
  O     -0.104664   -0.779283   -0.199585
  C      0.863588    0.128701   -0.032547
  O      0.712870    1.310936   -0.189122
  C      2.160032   -0.538527    0.346625
  H     -3.190258    0.460559    0.324491
  H     -2.277914   -0.650558    1.358477
  H     -1.701338    1.004717    1.108114
  H     -1.272770    0.531702   -1.280598
  H     -1.879784   -1.140886   -1.072830
  H      2.810259    0.178680    0.838011
  H      2.646608   -0.892277   -0.560379
  H      1.967380   -1.391181    0.990475

 Total Charge           Charge          ....    0
 Multiplicity           Mult            ....    1
 Number of Electrons    NEL             ....   48
 Basis Dimension        Dim             ....  100

ORBITAL ENERGIES
----------------

  NO   OCC          E(Eh)            E(eV)
   0   2.0000     -18.795441      -511.4499
   1   2.0000     -18.733693      -509.7697
   2   2.0000     -10.008178      -272.3364
   3   2.0000      -9.944338      -270.5992
   4   2.0000      -9.893043      -269.2034
   5   2.0000      -9.884537      -268.9719
   6   2.0000      -1.004089       -27.3226
   7   2.0000      -0.914563       -24.8865
   8   2.0000      -0.709018       -19.2934
   9   2.0000      -0.660669       -17.9777
  10   2.0000      -0.586642       -15.9634
  11   2.0000      -0.495573       -13.4852
  12   2.0000      -0.449114       -12.2210
  13   2.0000      -0.428451       -11.6588
  14   2.0000      -0.416362       -11.3298
  15   2.0000      -0.384711       -10.4685
  16   2.0000      -0.379105       -10.3160
  17   2.0000      -0.360935        -9.8215
  18   2.0000      -0.350323        -9.5328
  19   2.0000      -0.329608        -8.9691
  20   2.0000      -0.320535        -8.7222
  21   2.0000      -0.291471        -7.9313
  22   2.0000      -0.256053        -6.9676
  23   2.0000      -0.220369        -5.9965
  24   0.0000      -0.018430        -0.5015
  25   0.0000       0.047060         1.2806
  26   0.0000       0.061724         1.6796
  27   0.0000       0.085426         2.3246
  28   0.0000       0.091711         2.4956

MULLIKEN ATOMIC CHARGES
-----------------------
   0 C :   -0.305998
   1 C :   -0.014216
   2 O :   -0.245445
   3 C :    0.083010
   4 O :   -0.198279
   5 C :   -0.250842
   6 H :    0.110630
   7 H :    0.110974
   8 H :    0.126585
   9 H :    0.103898
  10 H :    0.099532
  11 H :    0.124333
  12 H :    0.134211
  13 H :    0.121607
Sum of atomic charges:    0.0000000

LOEWDIN ATOMIC CHARGES
----------------------
   0 C :   -0.357359
   1 C :   -0.116958
   2 O :   -0.076895
   3 C :    0.030015
   4 O :   -0.159222
   5 C :   -0.360450
   6 H :    0.129250
   7 H :    0.123042
   8 H :    0.129782
   9 H :    0.117029
  10 H :    0.115577
  11 H :    0.139407
  12 H :    0.148739
  13 H :    0.138043

  Mayer bond orders larger than 0.100000
B(  0-C ,  1-C ) :   1.1697 B(  0-C ,  6-H ) :   0.9449 B(  0-C ,  7-H ) :   0.9494
B(  0-C ,  8-H ) :   0.9462 B(  1-C ,  2-O ) :   0.9349 B(  1-C ,  9-H ) :   0.9151
B(  1-C , 10-H ) :   0.9370 B(  2-O ,  3-C ) :   1.1866 B(  3-C ,  4-O ) :   2.0610
B(  3-C ,  5-C ) :   1.0792 B(  5-C , 11-H ) :   0.9416 B(  5-C , 12-H ) :   0.9255
B(  5-C , 13-H ) :   0.9359

Dispersion correction           -0.009146922
FINAL SINGLE POINT ENERGY      -307.031786790078

DIPOLE MOMENT
-------------

Method             : SCF
Type of density    : Electron Density
Multiplicity       :   1
Irrep              :   0
Energy             :  -307.0862642289222322 Eh
Relativity type    :
Basis              : AO
                                X                 Y                 Z
Electronic contribution:      2.500441839       1.137921169      -1.565581560
Nuclear contribution   :     -2.709622843      -1.773928122       1.594528910
                        -----------------------------------------
Total Dipole Moment    :     -0.209181004      -0.636006953       0.028947350
                        -----------------------------------------
Magnitude (a.u.)       :      0.670148854
Magnitude (Debye)      :      1.703383016

Rotational constants in cm-1:             0.248475             0.077817             0.068698
Rotational constants in MHz :          7449.098725          2332.881148          2059.513421

                             ****ORCA TERMINATED NORMALLY****
TOTAL RUN TIME: 0 days 0 hours 0 minutes 12 seconds 804 msec
