                         Program Version 6.0.0  -   RELEASE  -
|  1> ! r2SCAN-3c DEF2-TZVP FREQ
|  2> * xyzfile 0 1 censo.xyz
|  3>
|  4>                          ****END OF INPUT****

CARTESIAN COORDINATES (ANGSTROEM)
---------------------------------
  C     -3.454632   -1.180049    0.000134
  C     -2.060308   -0.624215   -0.000028
  C     -1.873145    0.782171   -0.000047
  C     -0.626236    1.367721   -0.000064
  C      0.531005    0.527753   -0.000006
  C      1.849169    1.047240    0.000148
  C      2.942140    0.209374    0.000180
  C      2.767643   -1.189993    0.000026
  C      1.501312   -1.727395   -0.000106
  C      0.356088   -0.893394   -0.000085
  C     -0.951994   -1.439103   -0.000105
  C     -0.486023    2.862470   -0.000128
  H     -4.010639   -0.838584    0.880625
  H     -4.011408   -0.837258   -0.879345
  H     -3.447856   -2.272691   -0.000659
  H     -2.754292    1.420168   -0.000072
  H      1.998564    2.121558    0.000271
  H      3.944625    0.625942    0.000328
  H      3.636529   -1.840922    0.000018
  H      1.358863   -2.804787   -0.000211
  H     -1.065462   -2.520503   -0.000159
  H      0.063659    3.213480    0.880628
  H      0.064755    3.213303   -0.880263
  H     -1.468701    3.339385   -0.000785

 Total Charge           Charge          ....    0
 Multiplicity           Mult            ....    1
 Number of Electrons    NEL             ....   84
 Basis Dimension        Dim             ....  444

ORBITAL ENERGIES
----------------

  NO   OCC          E(Eh)            E(eV)
   0   2.0000     -10.046660      -273.3835
   1   2.0000     -10.043784      -273.3053
   2   2.0000     -10.042832      -273.2793
   3   2.0000     -10.041404      -273.2405
   4   2.0000     -10.035267      -273.0735
   5   2.0000     -10.034963      -273.0652
   6   2.0000     -10.034454      -273.0514
   7   2.0000     -10.034111      -273.0420
   8   2.0000     -10.031427      -272.9690
   9   2.0000     -10.030576      -272.9458
  10   2.0000     -10.030401      -272.9411
  11   2.0000     -10.029233      -272.9093
  12   2.0000      -0.839843       -22.8533
  13   2.0000      -0.792243       -21.5580
  14   2.0000      -0.757595       -20.6152
  15   2.0000      -0.722718       -19.6661
  16   2.0000      -0.700549       -19.0629
  17   2.0000      -0.661338       -17.9959
  18   2.0000      -0.645648       -17.5690
  19   2.0000      -0.584880       -15.9154
  20   2.0000      -0.564461       -15.3598
  21   2.0000      -0.540666       -14.7123
  22   2.0000      -0.481108       -13.0916
  23   2.0000      -0.471498       -12.8301
  24   2.0000      -0.449735       -12.2379
  25   2.0000      -0.416376       -11.3302
  26   2.0000      -0.402022       -10.9396
  27   2.0000      -0.399375       -10.8675
  28   2.0000      -0.385742       -10.4966
  29   2.0000      -0.384602       -10.4656
  30   2.0000      -0.383923       -10.4471
  31   2.0000      -0.364105        -9.9078
  32   2.0000      -0.356627        -9.7043
  33   2.0000      -0.350362        -9.5338
  34   2.0000      -0.346030        -9.4160
  35   2.0000      -0.328755        -8.9459
  36   2.0000      -0.300931        -8.1888
  37   2.0000      -0.294370        -8.0102
  38   2.0000      -0.293423        -7.9844
  39   2.0000      -0.257372        -7.0034
  40   2.0000      -0.223039        -6.0692
  41   2.0000      -0.196405        -5.3445
  42   0.0000      -0.063885        -1.7384
  43   0.0000      -0.036725        -0.9993
  44   0.0000       0.001469         0.0400
  45   0.0000       0.052365         1.4249
  46   0.0000       0.057734         1.5710

MULLIKEN ATOMIC CHARGES
-----------------------
   0 C :   -0.352035
   1 C :    0.249708
   2 C :   -0.277169
   3 C :    0.148480
   4 C :    0.081808
   5 C :   -0.223414
   6 C :   -0.125710
   7 C :   -0.087244
   8 C :   -0.208458
   9 C :    0.227592
  10 C :   -0.350043
  11 C :   -0.365479
  12 H :    0.116534
  13 H :    0.116511
  14 H :    0.109406
  15 H :    0.088291
  16 H :    0.104100
  17 H :    0.106373
  18 H :    0.107406
  19 H :    0.096218
  20 H :    0.085336
  21 H :    0.121603
  22 H :    0.121577
  23 H :    0.108610
Sum of atomic charges:    0.0000000

LOEWDIN ATOMIC CHARGES
----------------------
   0 C :   -0.252823
   1 C :   -0.172856
   2 C :   -0.093165
   3 C :   -0.131586
   4 C :   -0.068235
   5 C :   -0.104630
   6 C :   -0.144190
   7 C :   -0.143738
   8 C :   -0.102355
   9 C :   -0.090066
  10 C :   -0.087558
  11 C :   -0.252098
  12 H :    0.129916
  13 H :    0.129904
  14 H :    0.125787
  15 H :    0.146739
  16 H :    0.147388
  17 H :    0.142280
  18 H :    0.142430
  19 H :    0.145577
  20 H :    0.146368
  21 H :    0.130116
  22 H :    0.130109
  23 H :    0.126686

  Mayer bond orders larger than 0.100000
B(  0-C ,  1-C ) :   0.8991 B(  0-C , 12-H ) :   0.9649 B(  0-C , 13-H ) :   0.9649
B(  0-C , 14-H ) :   0.9909 B(  1-C ,  2-C ) :   1.1817 B(  1-C , 10-C ) :   1.4859
B(  2-C ,  3-C ) :   1.5213 B(  2-C , 15-H ) :   0.9857 B(  3-C ,  4-C ) :   1.1232
B(  3-C , 11-C ) :   0.9071 B(  4-C ,  5-C ) :   1.1858 B(  4-C ,  9-C ) :   1.2197
B(  5-C ,  6-C ) :   1.5339 B(  5-C , 16-H ) :   0.9823 B(  6-C ,  7-C ) :   1.2687
B(  6-C , 17-H ) :   0.9719 B(  7-C ,  8-C ) :   1.5096 B(  7-C , 18-H ) :   0.9709
B(  8-C ,  9-C ) :   1.2034 B(  8-C , 19-H ) :   0.9859 B(  9-C , 10-C ) :   1.1770
B( 10-C , 20-H ) :   0.9865 B( 11-C , 21-H ) :   0.9708 B( 11-C , 22-H ) :   0.9708
B( 11-C , 23-H ) :   0.9857

Dispersion correction           -0.009490746
FINAL SINGLE POINT ENERGY      -464.429520312060

DIPOLE MOMENT
-------------

Method             : SCF
Type of density    : Electron Density
Multiplicity       :   1
Irrep              :   0
Energy             :  -464.4270556997620361 Eh
Relativity type    :
Basis              : AO
                                X                 Y                 Z
Electronic contribution:      5.156883720      -2.537691245      -0.000295464
Nuclear contribution   :     -5.354548314       2.662837692       0.000395857
                        -----------------------------------------
Total Dipole Moment    :     -0.197664594       0.125146447       0.000100393
                        -----------------------------------------
Magnitude (a.u.)       :      0.233950710
Magnitude (Debye)      :      0.594655447

VIBRATIONAL FREQUENCIES
-----------------------

Scaling factor for frequencies =  1.000000000  (already applied!)

     0:       0.00 cm**-1
     1:       0.00 cm**-1
     2:       0.00 cm**-1
     3:       0.00 cm**-1
     4:       0.00 cm**-1
     5:       0.00 cm**-1
     6:     107.39 cm**-1
     7:     131.84 cm**-1
     8:     153.12 cm**-1
     9:     196.77 cm**-1
    10:     229.89 cm**-1
    11:     266.39 cm**-1
    12:     290.75 cm**-1
    13:     297.07 cm**-1
    14:     427.93 cm**-1
    15:     441.68 cm**-1
    16:     481.21 cm**-1
    17:     514.96 cm**-1
    18:     536.12 cm**-1
    19:     551.62 cm**-1
    20:     557.35 cm**-1
    21:     645.92 cm**-1
    22:     654.77 cm**-1
    23:     750.06 cm**-1
    24:     757.08 cm**-1
    25:     792.24 cm**-1
    26:     848.44 cm**-1
    27:     863.81 cm**-1
    28:     885.06 cm**-1
    29:     890.66 cm**-1
    30:     939.31 cm**-1
    31:     963.93 cm**-1
    32:     978.44 cm**-1
    33:     998.26 cm**-1
    34:    1031.83 cm**-1
    35:    1047.89 cm**-1
    36:    1051.51 cm**-1
    37:    1055.04 cm**-1
    38:    1089.92 cm**-1
    39:    1155.34 cm**-1
    40:    1181.17 cm**-1
    41:    1194.04 cm**-1
    42:    1246.26 cm**-1
    43:    1259.05 cm**-1
    44:    1306.07 cm**-1
    45:    1376.62 cm**-1
    46:    1388.06 cm**-1
    47:    1398.63 cm**-1
    48:    1402.67 cm**-1
    49:    1423.83 cm**-1
    50:    1438.19 cm**-1
    51:    1473.42 cm**-1
    52:    1474.21 cm**-1
    53:    1474.79 cm**-1
    54:    1492.21 cm**-1
    55:    1502.27 cm**-1
    56:    1537.27 cm**-1
    57:    1606.87 cm**-1
    58:    1634.13 cm**-1
    59:    1652.37 cm**-1
    60:    3003.09 cm**-1
    61:    3003.57 cm**-1
    62:    3062.16 cm**-1
    63:    3062.92 cm**-1
    64:    3101.30 cm**-1
    65:    3102.87 cm**-1
    66:    3139.64 cm**-1
    67:    3146.05 cm**-1
    68:    3149.38 cm**-1
    69:    3159.50 cm**-1
    70:    3172.84 cm**-1
    71:    3183.86 cm**-1

IR SPECTRUM
-----------

 Mode   freq       eps      Int      T**2         TX        TY        TZ
       cm**-1   L/(mol*cm) km/mol    a.u.
----------------------------------------------------------------------------
  6:    107.39   0.000171    0.87  0.000497  ( 0.000011 -0.000037  0.022303)
  7:    131.84   0.000012    0.06  0.000028  (-0.000041 -0.000045  0.005250)
  8:    153.12   0.000582    2.94  0.001186  (-0.000028  0.000020  0.034436)
  9:    196.77   0.000178    0.90  0.000282  ( 0.000035 -0.000071 -0.016802)
 10:    229.89   0.000000    0.00  0.000000  (-0.000025 -0.000020 -0.000226)
 11:    266.39   0.000135    0.68  0.000158  ( 0.004970 -0.011566 -0.000009)
 12:    290.75   0.000100    0.50  0.000107  ( 0.010169  0.001911  0.000012)
 13:    297.07   0.000029    0.15  0.000031  (-0.000002  0.000014  0.005564)
 14:    427.93   0.000568    2.87  0.000415  ( 0.000042 -0.000048 -0.020361)
 15:    441.68   0.000219    1.11  0.000155  (-0.001142  0.012394 -0.000015)
 16:    481.21   0.000114    0.57  0.000074  (-0.003377 -0.007896  0.000006)
 17:    514.96   0.000106    0.53  0.000064  (-0.000009  0.000062 -0.008002)
 18:    536.12   0.000069    0.35  0.000040  ( 0.004941 -0.003960 -0.000015)
 19:    551.62   0.001586    8.01  0.000897  (-0.000012 -0.000034 -0.029949)
 20:    557.35   0.000183    0.92  0.000102  (-0.008567  0.005389 -0.000002)
 21:    645.92   0.000113    0.57  0.000055  ( 0.000027 -0.000011 -0.007390)
 22:    654.77   0.000330    1.67  0.000157  (-0.010284  0.007167 -0.000002)
 23:    750.06   0.007456   37.68  0.003102  (-0.000006 -0.000022 -0.055697)
 24:    757.08   0.000080    0.41  0.000033  (-0.004193 -0.003946  0.000019)
 25:    792.24   0.001353    6.83  0.000533  ( 0.000053 -0.000008  0.023081)
 26:    848.44   0.003314   16.75  0.001219  ( 0.000021 -0.000009  0.034911)
 27:    863.81   0.003206   16.20  0.001158  (-0.000002  0.000010  0.034031)
 28:    885.06   0.000020    0.10  0.000007  (-0.001928  0.001847 -0.000001)
 29:    890.66   0.000101    0.51  0.000035  ( 0.000013 -0.000011 -0.005935)
 30:    939.31   0.000230    1.16  0.000076  ( 0.000005 -0.000022 -0.008740)
 31:    963.93   0.000015    0.08  0.000005  ( 0.000020 -0.000008  0.002196)
 32:    978.44   0.000216    1.09  0.000069  (-0.008182 -0.001447  0.000002)
 33:    998.26   0.001316    6.65  0.000411  (-0.015749 -0.012781  0.000006)
 34:   1031.83   0.000290    1.47  0.000088  (-0.006018  0.007178  0.000005)
 35:   1047.89   0.001500    7.58  0.000447  ( 0.019854 -0.007250 -0.000001)
 36:   1051.51   0.000381    1.92  0.000113  (-0.000004 -0.000002  0.010630)
 37:   1055.04   0.000233    1.18  0.000069  (-0.000033 -0.000017  0.008301)
 38:   1089.92   0.000087    0.44  0.000025  ( 0.003991  0.003019 -0.000003)
 39:   1155.34   0.000400    2.02  0.000108  (-0.003944 -0.009616 -0.000004)
 40:   1181.17   0.000078    0.39  0.000021  ( 0.002382 -0.003854  0.000002)
 41:   1194.04   0.000431    2.18  0.000113  (-0.006399 -0.008468  0.000002)
 42:   1246.26   0.000254    1.29  0.000064  ( 0.006449  0.004702 -0.000002)
 43:   1259.05   0.000071    0.36  0.000018  ( 0.004119 -0.000756 -0.000000)
 44:   1306.07   0.000320    1.62  0.000076  (-0.003953  0.007802  0.000007)
 45:   1376.62   0.000228    1.15  0.000052  (-0.002740 -0.006640 -0.000001)
 46:   1388.06   0.000310    1.56  0.000070  (-0.008296 -0.000876 -0.000000)
 47:   1398.63   0.000379    1.92  0.000085  ( 0.004892  0.007787 -0.000005)
 48:   1402.67   0.000371    1.88  0.000083  (-0.003164 -0.008521 -0.000005)
 49:   1423.83   0.001082    5.47  0.000237  ( 0.011380 -0.010379 -0.000006)
 50:   1438.19   0.002646   13.37  0.000574  ( 0.010975 -0.021302 -0.000001)
 51:   1473.42   0.002422   12.24  0.000513  (-0.000013 -0.000045  0.022651)
 52:   1474.21   0.000155    0.78  0.000033  ( 0.003359  0.004636  0.000075)
 53:   1474.79   0.000709    3.58  0.000150  (-0.000017 -0.000028 -0.012249)
 54:   1492.21   0.001078    5.45  0.000225  (-0.003929  0.014493  0.000006)
 55:   1502.27   0.002206   11.15  0.000458  ( 0.021050 -0.003882  0.000011)
 56:   1537.27   0.001587    8.02  0.000322  ( 0.017582  0.003615 -0.000005)
 57:   1606.87   0.000440    2.22  0.000085  ( 0.001588 -0.009106  0.000002)
 58:   1634.13   0.002252   11.38  0.000430  (-0.012706 -0.016390  0.000000)
 59:   1652.37   0.003922   19.82  0.000741  ( 0.024331  0.012194 -0.000004)
 60:   3003.09   0.009259   46.79  0.000962  ( 0.022864  0.020961 -0.000008)
 61:   3003.57   0.004321   21.84  0.000449  (-0.015031  0.014934  0.000017)
 62:   3062.16   0.002544   12.86  0.000259  (-0.000003 -0.000007  0.016101)
 63:   3062.92   0.003190   16.12  0.000325  ( 0.000024  0.000009  0.018028)
 64:   3101.30   0.002921   14.76  0.000294  ( 0.000402 -0.017141  0.000000)
 65:   3102.87   0.003221   16.28  0.000324  ( 0.016096 -0.008058  0.000004)
 66:   3139.64   0.004344   21.95  0.000432  (-0.014034  0.015323 -0.000000)
 67:   3146.05   0.001575    7.96  0.000156  ( 0.008266  0.009376  0.000001)
 68:   3149.38   0.001352    6.83  0.000134  (-0.004560 -0.010637 -0.000001)
 69:   3159.50   0.001911    9.66  0.000189  ( 0.005835  0.012439  0.000002)
 70:   3172.84   0.004676   23.63  0.000460  (-0.012227  0.017619  0.000001)
 71:   3183.86   0.003346   16.91  0.000328  ( 0.016442  0.007591  0.000002)

--------------------------
THERMOCHEMISTRY AT 298.15K
--------------------------

Temperature         ...   298.15 K
Pressure            ...     1.00 atm
Total Mass          ...   156.23 AMU
Quasi RRHO          ...     True
Cut-Off Frequency   ...     1.00 cm^-1

Throughout the following assumptions are being made:
  (1) The electronic state is orbitally nondegenerate
  (2) There are no thermally accessible electronically excited states
  (3) Hindered rotations indicated by low frequency modes are not
      treated as such but are treated as vibrations and this may
      cause some error
  (4) All equations used are the standard statistical mechanics
      equations for an ideal gas
  (5) All vibrations are strictly harmonic

freq.     107.39  E(vib)   ...       0.45
freq.     131.84  E(vib)   ...       0.42
freq.     153.12  E(vib)   ...       0.40
freq.     196.77  E(vib)   ...       0.36
freq.     229.89  E(vib)   ...       0.32
freq.     266.39  E(vib)   ...       0.29
freq.     290.75  E(vib)   ...       0.27
freq.     297.07  E(vib)   ...       0.27
freq.     427.93  E(vib)   ...       0.18
freq.     441.68  E(vib)   ...       0.17
freq.     481.21  E(vib)   ...       0.15
freq.     514.96  E(vib)   ...       0.13
freq.     536.12  E(vib)   ...       0.12
freq.     551.62  E(vib)   ...       0.12
freq.     557.35  E(vib)   ...       0.12
freq.     645.92  E(vib)   ...       0.09
freq.     654.77  E(vib)   ...       0.08
freq.     750.06  E(vib)   ...       0.06
freq.     757.08  E(vib)   ...       0.06
freq.     792.24  E(vib)   ...       0.05
freq.     848.44  E(vib)   ...       0.04
freq.     863.81  E(vib)   ...       0.04
freq.     885.06  E(vib)   ...       0.04
freq.     890.66  E(vib)   ...       0.04
freq.     939.31  E(vib)   ...       0.03
freq.     963.93  E(vib)   ...       0.03
freq.     978.44  E(vib)   ...       0.03
freq.     998.26  E(vib)   ...       0.02
freq.    1031.83  E(vib)   ...       0.02
freq.    1047.89  E(vib)   ...       0.02
freq.    1051.51  E(vib)   ...       0.02
freq.    1055.04  E(vib)   ...       0.02
freq.    1089.92  E(vib)   ...       0.02
freq.    1155.34  E(vib)   ...       0.01
freq.    1181.17  E(vib)   ...       0.01
freq.    1194.04  E(vib)   ...       0.01
freq.    1246.26  E(vib)   ...       0.01
freq.    1259.05  E(vib)   ...       0.01
freq.    1306.07  E(vib)   ...       0.01
freq.    1376.62  E(vib)   ...       0.01
freq.    1388.06  E(vib)   ...       0.00
freq.    1398.63  E(vib)   ...       0.00
freq.    1402.67  E(vib)   ...       0.00
freq.    1423.83  E(vib)   ...       0.00
freq.    1438.19  E(vib)   ...       0.00
freq.    1473.42  E(vib)   ...       0.00
freq.    1474.21  E(vib)   ...       0.00
freq.    1474.79  E(vib)   ...       0.00
freq.    1492.21  E(vib)   ...       0.00
freq.    1502.27  E(vib)   ...       0.00
freq.    1537.27  E(vib)   ...       0.00
freq.    1606.87  E(vib)   ...       0.00
freq.    1634.13  E(vib)   ...       0.00
freq.    1652.37  E(vib)   ...       0.00
freq.    3003.09  E(vib)   ...       0.00
freq.    3003.57  E(vib)   ...       0.00
freq.    3062.16  E(vib)   ...       0.00
freq.    3062.92  E(vib)   ...       0.00
freq.    3101.30  E(vib)   ...       0.00
freq.    3102.87  E(vib)   ...       0.00
freq.    3139.64  E(vib)   ...       0.00
freq.    3146.05  E(vib)   ...       0.00
freq.    3149.38  E(vib)   ...       0.00
freq.    3159.50  E(vib)   ...       0.00
freq.    3172.84  E(vib)   ...       0.00
freq.    3183.86  E(vib)   ...       0.00

------------
INNER ENERGY
------------

The inner energy is: U= E(el) + E(ZPE) + E(vib) + E(rot) + E(trans)
    E(el)   - is the total energy from the electronic structure calculation
              = E(kin-el) + E(nuc-el) + E(el-el) + E(nuc-nuc)
    E(ZPE)  - the the zero temperature vibrational energy from the frequency calculation
    E(vib)  - the the finite temperature correction to E(ZPE) due to population
              of excited vibrational states
    E(rot)  - is the rotational thermal energy
    E(trans)- is the translational thermal energy

Summary of contributions to the inner energy U:
Electronic energy                ...   -464.42952031 Eh
Zero point energy                ...      0.20123707 Eh     126.28 kcal/mol
Thermal vibrational correction   ...      0.00728019 Eh       4.57 kcal/mol
Thermal rotational correction    ...      0.00141627 Eh       0.89 kcal/mol
Thermal translational correction ...      0.00141627 Eh       0.89 kcal/mol
-----------------------------------------------------------------------
Total thermal energy                   -464.21817051 Eh

Summary of corrections to the electronic energy:
(perhaps to be used in another calculation)
Total thermal correction                  0.01011273 Eh       6.35 kcal/mol
Non-thermal (ZPE) correction              0.20123707 Eh     126.28 kcal/mol
-----------------------------------------------------------------------
Total correction                          0.21134980 Eh     132.62 kcal/mol

--------
ENTHALPY
--------

The enthalpy is H = U + kB*T
                kB is Boltzmann's constant
Total thermal energy              ...   -464.21817051 Eh
Thermal Enthalpy correction       ...      0.00094421 Eh       0.59 kcal/mol
-----------------------------------------------------------------------
Total Enthalpy                    ...   -464.21722630 Eh

Note: Only C1 symmetry has been detected, increase convergence thresholds
      if your molecule has a higher symmetry. Symmetry factor of 1.0 is
      used for the rotational entropy correction.

Note: Rotational entropy computed according to Herzberg
Infrared and Raman Spectra, Chapter V,1, Van Nostrand Reinhold, 1945
Point Group:  C1, Symmetry Number:   1
Rotational constants in cm-1:     0.052597     0.027307     0.018095

Vibrational entropy computed according to the QRRHO of S. Grimme
Chem.Eur.J. 2012 18 9955 using a reference frequency of 100.0 cm-1

-------
ENTROPY
-------

The entropy contributions are T*S = T*(S(el)+S(vib)+S(rot)+S(trans))
     S(el)   - electronic entropy
     S(vib)  - vibrational entropy
     S(rot)  - rotational entropy
     S(trans)- translational entropy
The entropies will be listed as multiplied by the temperature to get
units of energy

Electronic entropy                ...      0.00000000 Eh      0.00 kcal/mol
Vibrational entropy               ...      0.01191899 Eh      7.48 kcal/mol
Rotational entropy                ...      0.01449506 Eh      9.10 kcal/mol
Translational entropy             ...      0.01950311 Eh     12.24 kcal/mol
-----------------------------------------------------------------------
Final entropy term                ...      0.04591716 Eh     28.81 kcal/mol

                             ****ORCA TERMINATED NORMALLY****
TOTAL RUN TIME: 0 days 0 hours 32 minutes 16 seconds 700 msec
