                         Program Version 6.0.0  -   RELEASE  -
|  1> ! r2SCAN-3c DEF2-TZVP FREQ
|  2> * xyzfile 0 1 vacuum_censo.xyz
|  3>
|  4>                          ****END OF INPUT****

CARTESIAN COORDINATES (ANGSTROEM)
---------------------------------
  C     -3.454739   -1.179907    0.000154
  C     -2.059055   -0.622942    0.000056
  C     -1.871441    0.781566   -0.000070
  C     -0.625567    1.365585   -0.000103
  C      0.530982    0.527629   -0.000021
  C      1.848681    1.044821    0.000180
  C      2.940974    0.208435    0.000231
  C      2.766378   -1.189257    0.000062
  C      1.500720   -1.724438   -0.000075
  C      0.356372   -0.892072   -0.000065
  C     -0.951214   -1.435052    0.000007
  C     -0.485809    2.861998    0.000007
  H     -3.448668   -2.272367    0.001834
  H     -4.011502   -0.840182    0.880707
  H     -4.010555   -0.842933   -0.882068
  H     -2.752500    1.420019   -0.000102
  H      1.999463    2.118740    0.000346
  H      3.943042    0.625366    0.000406
  H      3.634367   -1.840876    0.000056
  H      1.359176   -2.801759   -0.000171
  H     -1.065452   -2.516290    0.000071
  H     -1.467410    3.340754   -0.001470
  H      0.060053    3.213360    0.883030
  H      0.062698    3.213357   -0.881353

 Total Charge           Charge          ....    0
 Multiplicity           Mult            ....    1
 Number of Electrons    NEL             ....   84
 Basis Dimension        Dim             ....  444

ORBITAL ENERGIES
----------------

  NO   OCC          E(Eh)            E(eV)
   0   2.0000     -10.046294      -273.3735
   1   2.0000     -10.043427      -273.2955
   2   2.0000     -10.042294      -273.2647
   3   2.0000     -10.040907      -273.2270
   4   2.0000     -10.034804      -273.0609
   5   2.0000     -10.034524      -273.0533
   6   2.0000     -10.034019      -273.0395
   7   2.0000     -10.033678      -273.0303
   8   2.0000     -10.031317      -272.9660
   9   2.0000     -10.030457      -272.9426
  10   2.0000     -10.030177      -272.9350
  11   2.0000     -10.028764      -272.8965
  12   2.0000      -0.840561       -22.8728
  13   2.0000      -0.792821       -21.5737
  14   2.0000      -0.757591       -20.6151
  15   2.0000      -0.722967       -19.6729
  16   2.0000      -0.700743       -19.0682
  17   2.0000      -0.661434       -17.9985
  18   2.0000      -0.645809       -17.5734
  19   2.0000      -0.585188       -15.9238
  20   2.0000      -0.564776       -15.3683
  21   2.0000      -0.540875       -14.7180
  22   2.0000      -0.481260       -13.0958
  23   2.0000      -0.471584       -12.8324
  24   2.0000      -0.450058       -12.2467
  25   2.0000      -0.416381       -11.3303
  26   2.0000      -0.401776       -10.9329
  27   2.0000      -0.399636       -10.8746
  28   2.0000      -0.385958       -10.5024
  29   2.0000      -0.384842       -10.4721
  30   2.0000      -0.383343       -10.4313
  31   2.0000      -0.363846        -9.9008
  32   2.0000      -0.356440        -9.6992
  33   2.0000      -0.350894        -9.5483
  34   2.0000      -0.345971        -9.4143
  35   2.0000      -0.328547        -8.9402
  36   2.0000      -0.301213        -8.1964
  37   2.0000      -0.293962        -7.9991
  38   2.0000      -0.293905        -7.9976
  39   2.0000      -0.257598        -7.0096
  40   2.0000      -0.223359        -6.0779
  41   2.0000      -0.196524        -5.3477
  42   0.0000      -0.063694        -1.7332
  43   0.0000      -0.036474        -0.9925
  44   0.0000       0.001991         0.0542
  45   0.0000       0.052459         1.4275
  46   0.0000       0.058341         1.5875

MULLIKEN ATOMIC CHARGES
-----------------------
   0 C :   -0.352700
   1 C :    0.248257
   2 C :   -0.275461
   3 C :    0.148192
   4 C :    0.081717
   5 C :   -0.223417
   6 C :   -0.125397
   7 C :   -0.086718
   8 C :   -0.208586
   9 C :    0.228245
  10 C :   -0.348813
  11 C :   -0.365989
  12 H :    0.109401
  13 H :    0.116637
  14 H :    0.116679
  15 H :    0.088257
  16 H :    0.103891
  17 H :    0.106230
  18 H :    0.107301
  19 H :    0.095789
  20 H :    0.084803
  21 H :    0.108557
  22 H :    0.121600
  23 H :    0.121525
Sum of atomic charges:    0.0000000

LOEWDIN ATOMIC CHARGES
----------------------
   0 C :   -0.252434
   1 C :   -0.172901
   2 C :   -0.093352
   3 C :   -0.131269
   4 C :   -0.068713
   5 C :   -0.104402
   6 C :   -0.144280
   7 C :   -0.143818
   8 C :   -0.102260
   9 C :   -0.090549
  10 C :   -0.087454
  11 C :   -0.251825
  12 H :    0.125599
  13 H :    0.129731
  14 H :    0.129746
  15 H :    0.147016
  16 H :    0.147538
  17 H :    0.142413
  18 H :    0.142553
  19 H :    0.145736
  20 H :    0.146568
  21 H :    0.126408
  22 H :    0.129989
  23 H :    0.129959

  Mayer bond orders larger than 0.100000
B(  0-C ,  1-C ) :   0.8994 B(  0-C , 12-H ) :   0.9911 B(  0-C , 13-H ) :   0.9650
B(  0-C , 14-H ) :   0.9649 B(  1-C ,  2-C ) :   1.1820 B(  1-C , 10-C ) :   1.4876
B(  2-C ,  3-C ) :   1.5223 B(  2-C , 15-H ) :   0.9861 B(  3-C ,  4-C ) :   1.1238
B(  3-C , 11-C ) :   0.9072 B(  4-C ,  5-C ) :   1.1857 B(  4-C ,  9-C ) :   1.2199
B(  5-C ,  6-C ) :   1.5345 B(  5-C , 16-H ) :   0.9826 B(  6-C ,  7-C ) :   1.2686
B(  6-C , 17-H ) :   0.9721 B(  7-C ,  8-C ) :   1.5103 B(  7-C , 18-H ) :   0.9710
B(  8-C ,  9-C ) :   1.2034 B(  8-C , 19-H ) :   0.9861 B(  9-C , 10-C ) :   1.1767
B( 10-C , 20-H ) :   0.9868 B( 11-C , 21-H ) :   0.9858 B( 11-C , 22-H ) :   0.9708
B( 11-C , 23-H ) :   0.9709

Dispersion correction           -0.009495744
FINAL SINGLE POINT ENERGY      -464.429587627853

DIPOLE MOMENT
-------------

Method             : SCF
Type of density    : Electron Density
Multiplicity       :   1
Irrep              :   0
Energy             :  -464.4271218741596385 Eh
Relativity type    :
Basis              : AO
                                X                 Y                 Z
Electronic contribution:      5.164421490      -2.534877560      -0.000701629
Nuclear contribution   :     -5.360768800       2.657913275       0.000799569
                        -----------------------------------------
Total Dipole Moment    :     -0.196347310       0.123035714       0.000097941
                        -----------------------------------------
Magnitude (a.u.)       :      0.231711163
Magnitude (Debye)      :      0.588962970

VIBRATIONAL FREQUENCIES
-----------------------

Scaling factor for frequencies =  1.000000000  (already applied!)

     0:       0.00 cm**-1
     1:       0.00 cm**-1
     2:       0.00 cm**-1
     3:       0.00 cm**-1
     4:       0.00 cm**-1
     5:       0.00 cm**-1
     6:     103.46 cm**-1
     7:     125.03 cm**-1
     8:     152.35 cm**-1
     9:     193.63 cm**-1
    10:     227.41 cm**-1
    11:     265.69 cm**-1
    12:     290.30 cm**-1
    13:     295.86 cm**-1
    14:     426.16 cm**-1
    15:     441.83 cm**-1
    16:     480.99 cm**-1
    17:     513.43 cm**-1
    18:     536.37 cm**-1
    19:     550.17 cm**-1
    20:     557.43 cm**-1
    21:     645.09 cm**-1
    22:     654.94 cm**-1
    23:     749.38 cm**-1
    24:     758.37 cm**-1
    25:     791.65 cm**-1
    26:     848.98 cm**-1
    27:     864.98 cm**-1
    28:     885.86 cm**-1
    29:     891.55 cm**-1
    30:     939.65 cm**-1
    31:     963.97 cm**-1
    32:     979.04 cm**-1
    33:     997.12 cm**-1
    34:    1031.05 cm**-1
    35:    1050.75 cm**-1
    36:    1052.04 cm**-1
    37:    1055.14 cm**-1
    38:    1089.81 cm**-1
    39:    1156.87 cm**-1
    40:    1182.77 cm**-1
    41:    1195.33 cm**-1
    42:    1249.07 cm**-1
    43:    1261.37 cm**-1
    44:    1307.34 cm**-1
    45:    1380.94 cm**-1
    46:    1393.21 cm**-1
    47:    1398.54 cm**-1
    48:    1403.42 cm**-1
    49:    1427.12 cm**-1
    50:    1440.66 cm**-1
    51:    1474.47 cm**-1
    52:    1475.40 cm**-1
    53:    1476.01 cm**-1
    54:    1493.15 cm**-1
    55:    1502.78 cm**-1
    56:    1541.58 cm**-1
    57:    1612.39 cm**-1
    58:    1639.46 cm**-1
    59:    1658.65 cm**-1
    60:    3003.43 cm**-1
    61:    3004.52 cm**-1
    62:    3063.18 cm**-1
    63:    3064.94 cm**-1
    64:    3101.88 cm**-1
    65:    3103.14 cm**-1
    66:    3137.74 cm**-1
    67:    3146.24 cm**-1
    68:    3150.95 cm**-1
    69:    3161.39 cm**-1
    70:    3175.00 cm**-1
    71:    3185.68 cm**-1

IR SPECTRUM
-----------

 Mode   freq       eps      Int      T**2         TX        TY        TZ
       cm**-1   L/(mol*cm) km/mol    a.u.
----------------------------------------------------------------------------
  6:    103.46   0.000158    0.80  0.000476  ( 0.000068 -0.000005  0.021823)
  7:    125.03   0.000002    0.01  0.000004  (-0.000005  0.000155  0.001987)
  8:    152.35   0.000571    2.88  0.001169  (-0.000057 -0.000002  0.034187)
  9:    193.63   0.000201    1.02  0.000324  (-0.000019  0.000033  0.017993)
 10:    227.41   0.000002    0.01  0.000003  ( 0.000101 -0.000064  0.001831)
 11:    265.69   0.000138    0.70  0.000162  ( 0.004871 -0.011748 -0.000006)
 12:    290.30   0.000102    0.52  0.000110  ( 0.010315  0.001920  0.000037)
 13:    295.86   0.000027    0.14  0.000029  (-0.000015  0.000066  0.005349)
 14:    426.16   0.000580    2.93  0.000425  (-0.000064  0.000095  0.020616)
 15:    441.83   0.000223    1.12  0.000157  (-0.001047  0.012494 -0.000026)
 16:    480.99   0.000110    0.56  0.000072  (-0.003435 -0.007734  0.000003)
 17:    513.43   0.000109    0.55  0.000066  (-0.000039 -0.000137  0.008127)
 18:    536.37   0.000068    0.34  0.000039  ( 0.004849 -0.003986 -0.000050)
 19:    550.17   0.001559    7.88  0.000884  (-0.000026 -0.000046 -0.029736)
 20:    557.43   0.000183    0.92  0.000102  (-0.008597  0.005322 -0.000073)
 21:    645.09   0.000109    0.55  0.000053  (-0.000005 -0.000007 -0.007263)
 22:    654.94   0.000331    1.67  0.000158  (-0.010308  0.007159  0.000003)
 23:    749.38   0.007496   37.88  0.003122  (-0.000007 -0.000023 -0.055872)
 24:    758.37   0.000082    0.41  0.000034  (-0.004328 -0.003876 -0.000028)
 25:    791.65   0.001336    6.75  0.000527  ( 0.000079 -0.000022  0.022951)
 26:    848.98   0.003112   15.72  0.001144  ( 0.000009 -0.000016  0.033819)
 27:    864.98   0.003342   16.89  0.001206  ( 0.000014  0.000008 -0.034726)
 28:    885.86   0.000022    0.11  0.000008  (-0.002056  0.001841  0.000002)
 29:    891.55   0.000079    0.40  0.000027  ( 0.000029 -0.000033 -0.005243)
 30:    939.65   0.000237    1.20  0.000079  ( 0.000011 -0.000033 -0.008870)
 31:    963.97   0.000015    0.08  0.000005  (-0.000021  0.000019 -0.002231)
 32:    979.04   0.000215    1.09  0.000069  ( 0.008108  0.001690  0.000011)
 33:    997.12   0.001302    6.58  0.000408  (-0.015672 -0.012724 -0.000013)
 34:   1031.05   0.000348    1.76  0.000105  (-0.006723  0.007752 -0.000004)
 35:   1050.75   0.001473    7.44  0.000438  ( 0.019769 -0.006834 -0.000050)
 36:   1052.04   0.000407    2.06  0.000121  ( 0.000098 -0.000017  0.010993)
 37:   1055.14   0.000206    1.04  0.000061  ( 0.000034 -0.000021  0.007811)
 38:   1089.81   0.000081    0.41  0.000023  (-0.003911 -0.002787  0.000007)
 39:   1156.87   0.000391    1.98  0.000105  (-0.003940 -0.009481  0.000003)
 40:   1182.77   0.000077    0.39  0.000020  ( 0.002409 -0.003799 -0.000000)
 41:   1195.33   0.000426    2.15  0.000111  (-0.006326 -0.008442 -0.000008)
 42:   1249.07   0.000239    1.21  0.000060  ( 0.006270  0.004504  0.000006)
 43:   1261.37   0.000089    0.45  0.000022  ( 0.004669 -0.000560 -0.000001)
 44:   1307.34   0.000337    1.70  0.000080  ( 0.004177 -0.007936 -0.000003)
 45:   1380.94   0.000302    1.53  0.000068  (-0.003240 -0.007601 -0.000001)
 46:   1393.21   0.000194    0.98  0.000043  (-0.006281  0.001994  0.000003)
 47:   1398.54   0.000343    1.73  0.000077  (-0.005418 -0.006866 -0.000007)
 48:   1403.42   0.000457    2.31  0.000102  (-0.003929 -0.009280 -0.000009)
 49:   1427.12   0.000952    4.81  0.000208  ( 0.011092 -0.009228  0.000012)
 50:   1440.66   0.002811   14.21  0.000609  ( 0.011500 -0.021834 -0.000012)
 51:   1474.47   0.002294   11.59  0.000486  (-0.000002  0.000033  0.022036)
 52:   1475.40   0.000212    1.07  0.000045  ( 0.003985  0.005338 -0.000696)
 53:   1476.01   0.000818    4.13  0.000173  ( 0.000131  0.000154  0.013146)
 54:   1493.15   0.001081    5.46  0.000226  (-0.005057  0.014153 -0.000036)
 55:   1502.78   0.002070   10.46  0.000430  (-0.020494  0.003130 -0.000033)
 56:   1541.58   0.001596    8.06  0.000323  ( 0.017534  0.003941 -0.000004)
 57:   1612.39   0.000451    2.28  0.000087  ( 0.001157 -0.009270  0.000001)
 58:   1639.46   0.002220   11.22  0.000423  (-0.012794 -0.016091 -0.000003)
 59:   1658.65   0.003789   19.15  0.000713  ( 0.023969  0.011758 -0.000001)
 60:   3003.43   0.007029   35.52  0.000730  ( 0.008865  0.025530  0.000032)
 61:   3004.52   0.006427   32.48  0.000668  ( 0.025812  0.001119  0.000012)
 62:   3063.18   0.002672   13.50  0.000272  ( 0.000004  0.000036 -0.016499)
 63:   3064.94   0.003037   15.35  0.000309  (-0.000025 -0.000006  0.017585)
 64:   3101.88   0.002963   14.97  0.000298  (-0.000150  0.017264 -0.000009)
 65:   3103.14   0.003274   16.55  0.000329  (-0.016102  0.008364 -0.000005)
 66:   3137.74   0.004368   22.07  0.000434  ( 0.014514 -0.014959  0.000002)
 67:   3146.24   0.001917    9.69  0.000190  ( 0.008041  0.011202 -0.000001)
 68:   3150.95   0.001274    6.44  0.000126  ( 0.003717  0.010602  0.000000)
 69:   3161.39   0.001777    8.98  0.000175  ( 0.005718  0.011946  0.000002)
 70:   3175.00   0.004652   23.51  0.000457  (-0.011638  0.017938  0.000000)
 71:   3185.68   0.003443   17.40  0.000337  (-0.016916 -0.007153 -0.000001)

--------------------------
THERMOCHEMISTRY AT 298.15K
--------------------------

Temperature         ...   298.15 K
Pressure            ...     1.00 atm
Total Mass          ...   156.23 AMU
Quasi RRHO          ...     True
Cut-Off Frequency   ...     1.00 cm^-1

Throughout the following assumptions are being made:
  (1) The electronic state is orbitally nondegenerate
  (2) There are no thermally accessible electronically excited states
  (3) Hindered rotations indicated by low frequency modes are not
      treated as such but are treated as vibrations and this may
      cause some error
  (4) All equations used are the standard statistical mechanics
      equations for an ideal gas
  (5) All vibrations are strictly harmonic

freq.     103.46  E(vib)   ...       0.46
freq.     125.03  E(vib)   ...       0.43
freq.     152.35  E(vib)   ...       0.40
freq.     193.63  E(vib)   ...       0.36
freq.     227.41  E(vib)   ...       0.33
freq.     265.69  E(vib)   ...       0.29
freq.     290.30  E(vib)   ...       0.27
freq.     295.86  E(vib)   ...       0.27
freq.     426.16  E(vib)   ...       0.18
freq.     441.83  E(vib)   ...       0.17
freq.     480.99  E(vib)   ...       0.15
freq.     513.43  E(vib)   ...       0.13
freq.     536.37  E(vib)   ...       0.12
freq.     550.17  E(vib)   ...       0.12
freq.     557.43  E(vib)   ...       0.12
freq.     645.09  E(vib)   ...       0.09
freq.     654.94  E(vib)   ...       0.08
freq.     749.38  E(vib)   ...       0.06
freq.     758.37  E(vib)   ...       0.06
freq.     791.65  E(vib)   ...       0.05
freq.     848.98  E(vib)   ...       0.04
freq.     864.98  E(vib)   ...       0.04
freq.     885.86  E(vib)   ...       0.04
freq.     891.55  E(vib)   ...       0.03
freq.     939.65  E(vib)   ...       0.03
freq.     963.97  E(vib)   ...       0.03
freq.     979.04  E(vib)   ...       0.03
freq.     997.12  E(vib)   ...       0.02
freq.    1031.05  E(vib)   ...       0.02
freq.    1050.75  E(vib)   ...       0.02
freq.    1052.04  E(vib)   ...       0.02
freq.    1055.14  E(vib)   ...       0.02
freq.    1089.81  E(vib)   ...       0.02
freq.    1156.87  E(vib)   ...       0.01
freq.    1182.77  E(vib)   ...       0.01
freq.    1195.33  E(vib)   ...       0.01
freq.    1249.07  E(vib)   ...       0.01
freq.    1261.37  E(vib)   ...       0.01
freq.    1307.34  E(vib)   ...       0.01
freq.    1380.94  E(vib)   ...       0.01
freq.    1393.21  E(vib)   ...       0.00
freq.    1398.54  E(vib)   ...       0.00
freq.    1403.42  E(vib)   ...       0.00
freq.    1427.12  E(vib)   ...       0.00
freq.    1440.66  E(vib)   ...       0.00
freq.    1474.47  E(vib)   ...       0.00
freq.    1475.40  E(vib)   ...       0.00
freq.    1476.01  E(vib)   ...       0.00
freq.    1493.15  E(vib)   ...       0.00
freq.    1502.78  E(vib)   ...       0.00
freq.    1541.58  E(vib)   ...       0.00
freq.    1612.39  E(vib)   ...       0.00
freq.    1639.46  E(vib)   ...       0.00
freq.    1658.65  E(vib)   ...       0.00
freq.    3003.43  E(vib)   ...       0.00
freq.    3004.52  E(vib)   ...       0.00
freq.    3063.18  E(vib)   ...       0.00
freq.    3064.94  E(vib)   ...       0.00
freq.    3101.88  E(vib)   ...       0.00
freq.    3103.14  E(vib)   ...       0.00
freq.    3137.74  E(vib)   ...       0.00
freq.    3146.24  E(vib)   ...       0.00
freq.    3150.95  E(vib)   ...       0.00
freq.    3161.39  E(vib)   ...       0.00
freq.    3175.00  E(vib)   ...       0.00
freq.    3185.68  E(vib)   ...       0.00

------------
INNER ENERGY
------------

The inner energy is: U= E(el) + E(ZPE) + E(vib) + E(rot) + E(trans)
    E(el)   - is the total energy from the electronic structure calculation
              = E(kin-el) + E(nuc-el) + E(el-el) + E(nuc-nuc)
    E(ZPE)  - the the zero temperature vibrational energy from the frequency calculation
    E(vib)  - the the finite temperature correction to E(ZPE) due to population
              of excited vibrational states
    E(rot)  - is the rotational thermal energy
    E(trans)- is the translational thermal energy

Summary of contributions to the inner energy U:
Electronic energy                ...   -464.42958763 Eh
Zero point energy                ...      0.20134017 Eh     126.34 kcal/mol
Thermal vibrational correction   ...      0.00731412 Eh       4.59 kcal/mol
Thermal rotational correction    ...      0.00141627 Eh       0.89 kcal/mol
Thermal translational correction ...      0.00141627 Eh       0.89 kcal/mol
-----------------------------------------------------------------------
Total thermal energy                   -464.21810080 Eh

Summary of corrections to the electronic energy:
(perhaps to be used in another calculation)
Total thermal correction                  0.01014666 Eh       6.37 kcal/mol
Non-thermal (ZPE) correction              0.20134017 Eh     126.34 kcal/mol
-----------------------------------------------------------------------
Total correction                          0.21148683 Eh     132.71 kcal/mol

--------
ENTHALPY
--------

The enthalpy is H = U + kB*T
                kB is Boltzmann's constant
Total thermal energy              ...   -464.21810080 Eh
Thermal Enthalpy correction       ...      0.00094421 Eh       0.59 kcal/mol
-----------------------------------------------------------------------
Total Enthalpy                    ...   -464.21715659 Eh

Note: Only C1 symmetry has been detected, increase convergence thresholds
      if your molecule has a higher symmetry. Symmetry factor of 1.0 is
      used for the rotational entropy correction.

Note: Rotational entropy computed according to Herzberg
Infrared and Raman Spectra, Chapter V,1, Van Nostrand Reinhold, 1945
Point Group:  C1, Symmetry Number:   1
Rotational constants in cm-1:     0.052685     0.027324     0.018114

Vibrational entropy computed according to the QRRHO of S. Grimme
Chem.Eur.J. 2012 18 9955 using a reference frequency of 100.0 cm-1

-------
ENTROPY
-------

The entropy contributions are T*S = T*(S(el)+S(vib)+S(rot)+S(trans))
     S(el)   - electronic entropy
     S(vib)  - vibrational entropy
     S(rot)  - rotational entropy
     S(trans)- translational entropy
The entropies will be listed as multiplied by the temperature to get
units of energy

Electronic entropy                ...      0.00000000 Eh      0.00 kcal/mol
Vibrational entropy               ...      0.01200771 Eh      7.53 kcal/mol
Rotational entropy                ...      0.01449349 Eh      9.09 kcal/mol
Translational entropy             ...      0.01950311 Eh     12.24 kcal/mol
-----------------------------------------------------------------------
Final entropy term                ...      0.04600431 Eh     28.87 kcal/mol

                             ****ORCA TERMINATED NORMALLY****
TOTAL RUN TIME: 0 days 0 hours 31 minutes 39 seconds 848 msec
