                         Program Version 6.0.1  -  RELEASE   -
|  1> ! pbe def2-sv(p) def2/J RI DEFGRID1 loosescf d4 GCP(DFT/SV(P)) printgap
|  2> %output
|  3>     printlevel normal
|  4> end
|  5> * xyz 0 1
|  6> C 2.7594473566 -0.0001021009 -0.7323597559
|  7> C 1.9893030643 0.0001357619 0.5900685495
|  8> C 0.5124011404 4.69094e-05 0.3289282564
|  9> C -0.1946953289 1.1879700654 0.1798404211
| 10> C -1.5495925612 1.1312642687 -0.1021654452
| 11> N -2.2192801484 -5.65172e-05 -0.2415649946
| 12> C -1.5495260983 -1.1313183053 -0.1020219965
| 13> C -0.1946075307 -1.1879322346 0.1799245164
| 14> H 2.5083421856 -0.8822801833 -1.3172266271
| 15> H 3.8309117649 0.0004983956 -0.5467645059
| 16> H 2.5074938661 0.8813532758 -1.3179730639
| 17> H 2.2627781133 0.8859893312 1.1668840726
| 18> H 2.2628532992 -0.8855226412 1.1671355082
| 19> H 0.3037502561 2.1401853059 0.2857986651
| 20> H -2.1322178532 2.0357149883 -0.2223569416
| 21> H -2.1320444217 -2.0358015729 -0.2224050758
| 22> H 0.3039088763 -2.1401185089 0.2857942667
| 23> *
| 24>
| 25>                          ****END OF INPUT****

CARTESIAN COORDINATES (ANGSTROEM)
---------------------------------
  C      2.759447   -0.000102   -0.732360
  C      1.989303    0.000136    0.590069
  C      0.512401    0.000047    0.328928
  C     -0.194695    1.187970    0.179840
  C     -1.549593    1.131264   -0.102165
  N     -2.219280   -0.000057   -0.241565
  C     -1.549526   -1.131318   -0.102022
  C     -0.194608   -1.187932    0.179925
  H      2.508342   -0.882280   -1.317227
  H      3.830912    0.000498   -0.546765
  H      2.507494    0.881353   -1.317973
  H      2.262778    0.885989    1.166884
  H      2.262853   -0.885523    1.167136
  H      0.303750    2.140185    0.285799
  H     -2.132218    2.035715   -0.222357
  H     -2.132044   -2.035802   -0.222405
  H      0.303909   -2.140119    0.285794

 Total Charge           Charge          ....    0
 Multiplicity           Mult            ....    1
 Number of Electrons    NEL             ....   58
 Basis Dimension        Dim             ....  130

ORBITAL ENERGIES
----------------

  NO   OCC          E(Eh)            E(eV)
   0   2.0000     -13.973778      -380.2458
   1   2.0000      -9.919410      -269.9209
   2   2.0000      -9.918028      -269.8833
   3   2.0000      -9.918020      -269.8831
   4   2.0000      -9.902768      -269.4680
   5   2.0000      -9.898666      -269.3564
   6   2.0000      -9.898657      -269.3562
   7   2.0000      -9.889324      -269.1022
   8   2.0000      -0.855161       -23.2701
   9   2.0000      -0.750982       -20.4352
  10   2.0000      -0.683254       -18.5923
  11   2.0000      -0.679708       -18.4958
  12   2.0000      -0.582984       -15.8638
  13   2.0000      -0.568905       -15.4807
  14   2.0000      -0.529743       -14.4150
  15   2.0000      -0.458196       -12.4681
  16   2.0000      -0.447887       -12.1876
  17   2.0000      -0.415973       -11.3192
  18   2.0000      -0.393195       -10.6994
  19   2.0000      -0.390848       -10.6355
  20   2.0000      -0.378858       -10.3093
  21   2.0000      -0.362591        -9.8666
  22   2.0000      -0.340302        -9.2601
  23   2.0000      -0.326330        -8.8799
  24   2.0000      -0.315676        -8.5900
  25   2.0000      -0.304577        -8.2880
  26   2.0000      -0.249418        -6.7870
  27   2.0000      -0.238998        -6.5035
  28   2.0000      -0.199409        -5.4262
  29   0.0000      -0.050936        -1.3860
  30   0.0000      -0.043302        -1.1783
  31   0.0000       0.037418         1.0182
  32   0.0000       0.062726         1.7069
  33   0.0000       0.065328         1.7777

MULLIKEN ATOMIC CHARGES
-----------------------
   0 C :   -0.274437
   1 C :   -0.126705
   2 C :    0.071336
   3 C :   -0.121020
   4 C :   -0.054544
   5 N :   -0.057944
   6 C :   -0.054548
   7 C :   -0.121016
   8 H :    0.106479
   9 H :    0.111777
  10 H :    0.106483
  11 H :    0.092586
  12 H :    0.092590
  13 H :    0.048434
  14 H :    0.066049
  15 H :    0.066046
  16 H :    0.048434
Sum of atomic charges:    0.0000000

LOEWDIN ATOMIC CHARGES
----------------------
   0 C :   -0.330459
   1 C :   -0.217102
   2 C :   -0.017035
   3 C :   -0.143409
   4 C :   -0.079369
   5 N :   -0.081752
   6 C :   -0.079368
   7 C :   -0.143407
   8 H :    0.121692
   9 H :    0.121713
  10 H :    0.121692
  11 H :    0.124684
  12 H :    0.124687
  13 H :    0.125087
  14 H :    0.113630
  15 H :    0.113630
  16 H :    0.125087

  Mayer bond orders larger than 0.100000
B(  0-C ,  1-C ) :   1.1439 B(  0-C ,  8-H ) :   0.9546 B(  0-C ,  9-H ) :   0.9486
B(  0-C , 10-H ) :   0.9546 B(  1-C ,  2-C ) :   1.0725 B(  1-C , 11-H ) :   0.9094
B(  1-C , 12-H ) :   0.9094 B(  2-C ,  3-C ) :   1.4143 B(  2-C ,  7-C ) :   1.4143
B(  3-C ,  4-C ) :   1.3759 B(  3-C , 13-H ) :   0.9437 B(  4-C ,  5-N ) :   1.5497
B(  4-C , 14-H ) :   0.9515 B(  5-N ,  6-C ) :   1.5497 B(  6-C ,  7-C ) :   1.3759
B(  6-C , 15-H ) :   0.9515 B(  7-C , 16-H ) :   0.9437

Dispersion correction           -0.016319317
FINAL SINGLE POINT ENERGY      -326.178023656062

DIPOLE MOMENT
-------------

Method             : SCF
Type of density    : Electron Density
Multiplicity       :   1
Irrep              :   0
Energy             :  -326.2272095994617871 Eh
Relativity type    :
Basis              : AO
                                X                 Y                 Z
Electronic contribution:     -8.100642438       0.000008160       0.826838795
Nuclear contribution   :      9.102867073       0.000016944      -0.677850683
                        -----------------------------------------
Total Dipole Moment    :      1.002224635       0.000025103       0.148988112
                        -----------------------------------------
Magnitude (a.u.)       :      1.013238214
Magnitude (Debye)      :      2.575446865

Rotational constants in cm-1:             0.159091             0.049956             0.041908
Rotational constants in MHz :          4769.427291          1497.653889          1256.381752

                             ****ORCA TERMINATED NORMALLY****
TOTAL RUN TIME: 0 days 0 hours 0 minutes 12 seconds 680 msec
