                         Program Version 6.0.1  -  RELEASE   -
|  1> ! r2scan-3c def2/J RI DEFGRID2 scfconv6 printgap
|  2> %output
|  3>     printlevel normal
|  4> end
|  5> * xyz 0 1
|  6> C 1.3890286628 2.4748111532 1.1971801646
|  7> C 1.6973298506 1.6790028549 -0.0705295109
|  8> C 2.7748560025 0.5952070917 0.1902155317
|  9> C 1.9835857738 -0.6762826253 0.1290921818
| 10> C 2.3472634062 -1.9872375946 0.3397407467
| 11> C 1.3824600682 -2.9764971904 0.2000418476
| 12> C 0.0777324029 -2.6505548567 -0.1258618238
| 13> C -0.292539775 -1.3296886768 -0.3405567871
| 14> C 0.6772102058 -0.3428758578 -0.2245861691
| 15> O 0.491764037 0.9743433324 -0.4415089316
| 16> O -1.6027781673 -1.02088599 -0.6853870634
| 17> C -2.2395749783 -0.1208606143 0.1196136201
| 18> O -1.83552952 0.2550323473 1.1875911288
| 19> N -3.4037215086 0.2453620571 -0.4565106548
| 20> C -4.3296178264 1.1474033372 0.177255525
| 21> C 2.0714740105 2.6037574276 -1.2253966372
| 22> H 1.0613611276 1.7971310518 1.982150259
| 23> H 2.2702042795 3.0181124756 1.5289989674
| 24> H 0.5852971524 3.1799648978 1.002423465
| 25> H 3.5539783021 0.6124239293 -0.5755900505
| 26> H 3.2505936918 0.7335925107 1.161621554
| 27> H 3.3614707505 -2.2398164567 0.6091949179
| 28> H 1.6468603692 -4.0102235062 0.3599043756
| 29> H -0.6760520616 -3.4166855728 -0.2178272569
| 30> H -3.6296107458 -0.143501726 -1.3572363731
| 31> H -5.2895594162 0.6583197006 0.3564928153
| 32> H -4.4887770559 2.0347066002 -0.4387691947
| 33> H -3.8927446701 1.4435729687 1.1293280484
| 34> H 1.2598719565 3.3006569601 -1.417373082
| 35> H 2.2483066209 2.023028438 -2.1280875479
| 36> H 2.9697865092 3.1634810191 -0.9786722154
| 37> *
| 38>
| 39>                          ****END OF INPUT****

CARTESIAN COORDINATES (ANGSTROEM)
---------------------------------
  C      1.389029    2.474811    1.197180
  C      1.697330    1.679003   -0.070530
  C      2.774856    0.595207    0.190216
  C      1.983586   -0.676283    0.129092
  C      2.347263   -1.987238    0.339741
  C      1.382460   -2.976497    0.200042
  C      0.077732   -2.650555   -0.125862
  C     -0.292540   -1.329689   -0.340557
  C      0.677210   -0.342876   -0.224586
  O      0.491764    0.974343   -0.441509
  O     -1.602778   -1.020886   -0.685387
  C     -2.239575   -0.120861    0.119614
  O     -1.835530    0.255032    1.187591
  N     -3.403722    0.245362   -0.456511
  C     -4.329618    1.147403    0.177256
  C      2.071474    2.603757   -1.225397
  H      1.061361    1.797131    1.982150
  H      2.270204    3.018112    1.528999
  H      0.585297    3.179965    1.002423
  H      3.553978    0.612424   -0.575590
  H      3.250594    0.733593    1.161622
  H      3.361471   -2.239816    0.609195
  H      1.646860   -4.010224    0.359904
  H     -0.676052   -3.416686   -0.217827
  H     -3.629611   -0.143502   -1.357236
  H     -5.289559    0.658320    0.356493
  H     -4.488777    2.034707   -0.438769
  H     -3.892745    1.443573    1.129328
  H      1.259872    3.300657   -1.417373
  H      2.248307    2.023028   -2.128088
  H      2.969787    3.163481   -0.978672

 Total Charge           Charge          ....    0
 Multiplicity           Mult            ....    1
 Number of Electrons    NEL             ....  118
 Basis Dimension        Dim             ....  399

ORBITAL ENERGIES
----------------

  NO   OCC          E(Eh)            E(eV)
   0   2.0000     -18.997905      -516.9593
   1   2.0000     -18.976955      -516.3892
   2   2.0000     -18.913031      -514.6497
   3   2.0000     -14.186748      -386.0410
   4   2.0000     -10.167321      -276.6669
   5   2.0000     -10.101743      -274.8824
   6   2.0000     -10.090589      -274.5789
   7   2.0000     -10.085520      -274.4409
   8   2.0000     -10.064230      -273.8616
   9   2.0000     -10.040825      -273.2247
  10   2.0000     -10.036354      -273.1031
  11   2.0000     -10.031704      -272.9765
  12   2.0000     -10.030224      -272.9363
  13   2.0000     -10.026498      -272.8349
  14   2.0000     -10.024431      -272.7786
  15   2.0000     -10.018529      -272.6180
  16   2.0000      -1.075849       -29.2753
  17   2.0000      -1.037842       -28.2411
  18   2.0000      -0.981308       -26.7028
  19   2.0000      -0.896791       -24.4029
  20   2.0000      -0.821503       -22.3542
  21   2.0000      -0.779511       -21.2116
  22   2.0000      -0.736569       -20.0431
  23   2.0000      -0.715139       -19.4599
  24   2.0000      -0.675683       -18.3863
  25   2.0000      -0.662558       -18.0291
  26   2.0000      -0.653893       -17.7933
  27   2.0000      -0.597014       -16.2456
  28   2.0000      -0.576777       -15.6949
  29   2.0000      -0.550573       -14.9818
  30   2.0000      -0.540939       -14.7197
  31   2.0000      -0.525970       -14.3124
  32   2.0000      -0.472590       -12.8598
  33   2.0000      -0.455405       -12.3922
  34   2.0000      -0.449107       -12.2208
  35   2.0000      -0.444850       -12.1050
  36   2.0000      -0.440511       -11.9869
  37   2.0000      -0.429255       -11.6806
  38   2.0000      -0.413190       -11.2435
  39   2.0000      -0.406603       -11.0642
  40   2.0000      -0.388371       -10.5681
  41   2.0000      -0.386634       -10.5209
  42   2.0000      -0.378825       -10.3083
  43   2.0000      -0.373906       -10.1745
  44   2.0000      -0.371504       -10.1091
  45   2.0000      -0.360538        -9.8107
  46   2.0000      -0.351957        -9.5772
  47   2.0000      -0.348897        -9.4940
  48   2.0000      -0.340239        -9.2584
  49   2.0000      -0.327312        -8.9066
  50   2.0000      -0.324959        -8.8426
  51   2.0000      -0.314548        -8.5593
  52   2.0000      -0.296872        -8.0783
  53   2.0000      -0.285299        -7.7634
  54   2.0000      -0.278441        -7.5768
  55   2.0000      -0.242248        -6.5919
  56   2.0000      -0.229863        -6.2549
  57   2.0000      -0.218344        -5.9415
  58   2.0000      -0.188734        -5.1357
  59   0.0000      -0.026798        -0.7292
  60   0.0000      -0.010349        -0.2816
  61   0.0000       0.033404         0.9090
  62   0.0000       0.055372         1.5068
  63   0.0000       0.076161         2.0725

MULLIKEN ATOMIC CHARGES
-----------------------
   0 C :   -0.491502
   1 C :    0.290673
   2 C :   -0.473062
   3 C :    0.251892
   4 C :   -0.294004
   5 C :   -0.134993
   6 C :   -0.290733
   7 C :   -0.008830
   8 C :    0.169646
   9 O :   -0.152089
  10 O :   -0.168704
  11 C :    0.322595
  12 O :   -0.461510
  13 N :   -0.152284
  14 C :   -0.395244
  15 C :   -0.486191
  16 H :    0.170724
  17 H :    0.153677
  18 H :    0.156836
  19 H :    0.170630
  20 H :    0.172724
  21 H :    0.148845
  22 H :    0.146174
  23 H :    0.157537
  24 H :    0.247027
  25 H :    0.141848
  26 H :    0.142459
  27 H :    0.194964
  28 H :    0.160421
  29 H :    0.155621
  30 H :    0.154855
Sum of atomic charges:   -0.0000000

LOEWDIN ATOMIC CHARGES
----------------------
   0 C :   -0.365935
   1 C :    0.103240
   2 C :   -0.218644
   3 C :   -0.050960
   4 C :   -0.156653
   5 C :   -0.177942
   6 C :   -0.121807
   7 C :    0.210623
   8 C :    0.237840
   9 O :   -0.624868
  10 O :   -0.484907
  11 C :    0.453435
  12 O :   -0.389272
  13 N :   -0.607399
  14 C :   -0.110895
  15 C :   -0.369152
  16 H :    0.172880
  17 H :    0.158072
  18 H :    0.165926
  19 H :    0.174375
  20 H :    0.176347
  21 H :    0.169790
  22 H :    0.167352
  23 H :    0.180038
  24 H :    0.276152
  25 H :    0.167414
  26 H :    0.168079
  27 H :    0.205908
  28 H :    0.165081
  29 H :    0.164097
  30 H :    0.161787

  Mayer bond orders larger than 0.100000
B(  0-C ,  1-C ) :   0.9796 B(  0-C , 16-H ) :   0.9541 B(  0-C , 17-H ) :   0.9803
B(  0-C , 18-H ) :   0.9662 B(  1-C ,  2-C ) :   0.8880 B(  1-C ,  8-C ) :   0.1154
B(  1-C ,  9-O ) :   0.6423 B(  1-C , 15-C ) :   0.9540 B(  2-C ,  3-C ) :   0.7074
B(  2-C , 19-H ) :   0.9590 B(  2-C , 20-H ) :   0.9758 B(  3-C ,  4-C ) :   1.2942
B(  3-C ,  7-C ) :  -0.1026 B(  3-C ,  8-C ) :   1.3837 B(  4-C ,  5-C ) :   1.4215
B(  4-C , 21-H ) :   0.9393 B(  5-C ,  6-C ) :   1.3861 B(  5-C ,  8-C ) :   0.1076
B(  5-C , 22-H ) :   0.9495 B(  6-C ,  7-C ) :   1.3422 B(  6-C , 23-H ) :   0.9412
B(  7-C ,  8-C ) :   1.5058 B(  7-C , 10-O ) :   0.9400 B(  8-C ,  9-O ) :   1.1104
B( 10-O , 11-C ) :   1.0655 B( 11-C , 12-O ) :   1.8495 B( 11-C , 13-N ) :   1.2544
B( 13-N , 14-C ) :   0.9001 B( 13-N , 24-H ) :   0.9114 B( 14-C , 25-H ) :   0.9621
B( 14-C , 26-H ) :   0.9620 B( 14-C , 27-H ) :   0.9604 B( 15-C , 28-H ) :   0.9753
B( 15-C , 29-H ) :   0.9709 B( 15-C , 30-H ) :   0.9754

Dispersion correction           -0.012282043
FINAL SINGLE POINT ENERGY      -746.593389021042

DIPOLE MOMENT
-------------

Method             : SCF
Type of density    : Electron Density
Multiplicity       :   1
Irrep              :   0
Energy             :  -746.6012462711573789 Eh
Relativity type    :
Basis              : AO
                                X                 Y                 Z
Electronic contribution:     -3.946238141     -10.958517675      -1.521318902
Nuclear contribution   :      3.907054557      11.407669847       0.952098976
                        -----------------------------------------
Total Dipole Moment    :     -0.039183584       0.449152172      -0.569219925
                        -----------------------------------------
Magnitude (a.u.)       :      0.726143478
Magnitude (Debye)      :      1.845710039

Rotational constants in cm-1:             0.024256             0.014973             0.010365
Rotational constants in MHz :           727.177658           448.865796           310.742328

                             ****ORCA TERMINATED NORMALLY****
TOTAL RUN TIME: 0 days 0 hours 1 minutes 26 seconds 186 msec
