                         Program Version 6.0.1  -  RELEASE   -
|  1> ! pbe def2-sv(p) def2/J RI DEFGRID1 loosescf d4 GCP(DFT/SV(P)) printgap
|  2> %output
|  3>     printlevel normal
|  4> end
|  5> * xyz 0 1
|  6> C -2.6632044932 -0.1441771812 -0.0015011825
|  7> O -1.3602813282 -0.7127193466 -0.0004012433
|  8> C -0.3123945532 0.1283200834 0.0010891459
|  9> O -0.4084318335 1.3292032217 0.001918666
| 10> C 0.959943961 -0.6302004876 0.0016869718
| 11> C 2.1287802069 -0.0333714259 -0.7439708205
| 12> C 2.1305856236 -0.0298229182 0.7414241753
| 13> H -3.1832956011 -0.4774051112 -0.8998520041
| 14> H -2.5911585123 0.9450859752 0.009559748
| 15> H -3.1915225459 -0.4956056355 0.8849078566
| 16> H 0.8315705576 -1.7033294152 0.0040691393
| 17> H 2.782382035 -0.7113510387 -1.2705546718
| 18> H 1.9510788631 0.9038470042 -1.2485513953
| 19> H 2.7856266166 -0.7050906773 1.2696772973
| 20> H 1.9538835239 0.9098403789 1.2418112548
| 21> *
| 22>
| 23>                          ****END OF INPUT****

CARTESIAN COORDINATES (ANGSTROEM)
---------------------------------
  C     -2.663204   -0.144177   -0.001501
  O     -1.360281   -0.712719   -0.000401
  C     -0.312395    0.128320    0.001089
  O     -0.408432    1.329203    0.001919
  C      0.959944   -0.630200    0.001687
  C      2.128780   -0.033371   -0.743971
  C      2.130586   -0.029823    0.741424
  H     -3.183296   -0.477405   -0.899852
  H     -2.591159    0.945086    0.009560
  H     -3.191523   -0.495606    0.884908
  H      0.831571   -1.703329    0.004069
  H      2.782382   -0.711351   -1.270555
  H      1.951079    0.903847   -1.248551
  H      2.785627   -0.705091    1.269677
  H      1.953884    0.909840    1.241811

 Total Charge           Charge          ....    0
 Multiplicity           Mult            ....    1
 Number of Electrons    NEL             ....   54
 Basis Dimension        Dim             ....  114

ORBITAL ENERGIES
----------------

  NO   OCC          E(Eh)            E(eV)
   0   2.0000     -18.796756      -511.4857
   1   2.0000     -18.734672      -509.7963
   2   2.0000     -10.005086      -272.2522
   3   2.0000      -9.934986      -270.3447
   4   2.0000      -9.910945      -269.6905
   5   2.0000      -9.901764      -269.4407
   6   2.0000      -9.901685      -269.4385
   7   2.0000      -1.002079       -27.2680
   8   2.0000      -0.914762       -24.8919
   9   2.0000      -0.793385       -21.5891
  10   2.0000      -0.671605       -18.2753
  11   2.0000      -0.571420       -15.5491
  12   2.0000      -0.543141       -14.7796
  13   2.0000      -0.496837       -13.5196
  14   2.0000      -0.476215       -12.9585
  15   2.0000      -0.442766       -12.0483
  16   2.0000      -0.429750       -11.6941
  17   2.0000      -0.402758       -10.9596
  18   2.0000      -0.391555       -10.6548
  19   2.0000      -0.362845        -9.8735
  20   2.0000      -0.345400        -9.3988
  21   2.0000      -0.325767        -8.8646
  22   2.0000      -0.299471        -8.1490
  23   2.0000      -0.275375        -7.4933
  24   2.0000      -0.266388        -7.2488
  25   2.0000      -0.253940        -6.9101
  26   2.0000      -0.227051        -6.1784
  27   0.0000      -0.019414        -0.5283
  28   0.0000       0.043836         1.1928
  29   0.0000       0.059944         1.6312
  30   0.0000       0.072885         1.9833
  31   0.0000       0.090273         2.4564

MULLIKEN ATOMIC CHARGES
-----------------------
   0 C :   -0.136334
   1 O :   -0.252143
   2 C :    0.168120
   3 O :   -0.191665
   4 C :   -0.182856
   5 C :   -0.186417
   6 C :   -0.186091
   7 H :    0.119988
   8 H :    0.133446
   9 H :    0.120016
  10 H :    0.098922
  11 H :    0.118148
  12 H :    0.129388
  13 H :    0.118111
  14 H :    0.129368
Sum of atomic charges:   -0.0000000

LOEWDIN ATOMIC CHARGES
----------------------
   0 C :   -0.213795
   1 O :   -0.080966
   2 C :    0.047235
   3 O :   -0.167327
   4 C :   -0.177042
   5 C :   -0.217210
   6 C :   -0.217301
   7 H :    0.118521
   8 H :    0.123628
   9 H :    0.118565
  10 H :    0.134586
  11 H :    0.130241
  12 H :    0.135289
  13 H :    0.130245
  14 H :    0.135333

  Mayer bond orders larger than 0.100000
B(  0-C ,  1-O ) :   0.9477 B(  0-C ,  7-H ) :   0.9598 B(  0-C ,  8-H ) :   0.9270
B(  0-C ,  9-H ) :   0.9598 B(  1-O ,  2-C ) :   1.1899 B(  2-C ,  3-O ) :   2.0857
B(  2-C ,  4-C ) :   1.0116 B(  4-C ,  5-C ) :   0.9705 B(  4-C ,  6-C ) :   0.9706
B(  4-C , 10-H ) :   0.9143 B(  5-C ,  6-C ) :   1.0915 B(  5-C , 11-H ) :   0.9296
B(  5-C , 12-H ) :   0.9223 B(  6-C , 13-H ) :   0.9296 B(  6-C , 14-H ) :   0.9221

Dispersion correction           -0.010873572
FINAL SINGLE POINT ENERGY      -345.031194931671

DIPOLE MOMENT
-------------

Method             : SCF
Type of density    : Electron Density
Multiplicity       :   1
Irrep              :   0
Energy             :  -345.0878988006876398 Eh
Relativity type    :
Basis              : AO
                                X                 Y                 Z
Electronic contribution:     -1.323437455       0.637494855       0.007050975
Nuclear contribution   :      1.229588709      -1.242389369      -0.008357964
                        -----------------------------------------
Total Dipole Moment    :     -0.093848747      -0.604894515      -0.001306989
                        -----------------------------------------
Magnitude (a.u.)       :      0.612132886
Magnitude (Debye)      :      1.555918144

Rotational constants in cm-1:             0.241383             0.054178             0.049798
Rotational constants in MHz :          7236.481896          1624.226749          1492.907578

                             ****ORCA TERMINATED NORMALLY****
TOTAL RUN TIME: 0 days 0 hours 0 minutes 9 seconds 972 msec
