                         Program Version 6.0.1  -  RELEASE   -
|  1> ! r2scan-3c def2/J RI DEFGRID2 scfconv6 printgap
|  2> %output
|  3>     printlevel normal
|  4> end
|  5> * xyz 0 1
|  6> C -2.4752476072 -1.1810211441 -0.0037681085
|  7> C -1.6921741442 0.1097038872 0.0002182982
|  8> O -2.2476171572 1.1858599496 0.0031920767
|  9> C -0.209335244 0.0046184776 0.0005081757
| 10> C 0.524720065 1.1918728876 -0.0013604437
| 11> C 1.9051987096 1.169200121 -0.001986807
| 12> C 2.5748495472 -0.0439737391 -0.0005620021
| 13> C 1.8570471883 -1.2293602468 0.0016949241
| 14> C 0.4744373183 -1.2102750014 0.0021815766
| 15> H -2.2310877881 -1.7646193952 -0.888690575
| 16> H -3.5382055344 -0.9533870324 -0.0055172023
| 17> H -2.2349394959 -1.7678710981 0.8800728187
| 18> H -0.0171005076 2.1260502145 -0.0023640521
| 19> H 2.4612700165 2.0949210644 -0.0035906988
| 20> H 3.6546743454 -0.0671858703 -0.0011560833
| 21> H 2.3795827392 -2.1748559395 0.0030898398
| 22> H -0.0634174126 -2.1454470222 0.0041219679
| 23> *
| 24>
| 25>                          ****END OF INPUT****

CARTESIAN COORDINATES (ANGSTROEM)
---------------------------------
  C     -2.475248   -1.181021   -0.003768
  C     -1.692174    0.109704    0.000218
  O     -2.247617    1.185860    0.003192
  C     -0.209335    0.004618    0.000508
  C      0.524720    1.191873   -0.001360
  C      1.905199    1.169200   -0.001987
  C      2.574850   -0.043974   -0.000562
  C      1.857047   -1.229360    0.001695
  C      0.474437   -1.210275    0.002182
  H     -2.231088   -1.764619   -0.888691
  H     -3.538206   -0.953387   -0.005517
  H     -2.234939   -1.767871    0.880073
  H     -0.017101    2.126050   -0.002364
  H      2.461270    2.094921   -0.003591
  H      3.654674   -0.067186   -0.001156
  H      2.379583   -2.174856    0.003090
  H     -0.063417   -2.145447    0.004122

 Total Charge           Charge          ....    0
 Multiplicity           Mult            ....    1
 Number of Electrons    NEL             ....   64
 Basis Dimension        Dim             ....  216

ORBITAL ENERGIES
----------------

  NO   OCC          E(Eh)            E(eV)
   0   2.0000     -18.936535      -515.2893
   1   2.0000     -10.121368      -275.4164
   2   2.0000     -10.053508      -273.5699
   3   2.0000     -10.051627      -273.5187
   4   2.0000     -10.051599      -273.5179
   5   2.0000     -10.049024      -273.4478
   6   2.0000     -10.046863      -273.3890
   7   2.0000     -10.045509      -273.3522
   8   2.0000     -10.035033      -273.0671
   9   2.0000      -1.008082       -27.4313
  10   2.0000      -0.841245       -22.8914
  11   2.0000      -0.750656       -20.4264
  12   2.0000      -0.730221       -19.8703
  13   2.0000      -0.704464       -19.1694
  14   2.0000      -0.606346       -16.4995
  15   2.0000      -0.585534       -15.9332
  16   2.0000      -0.529366       -14.4048
  17   2.0000      -0.486506       -13.2385
  18   2.0000      -0.442855       -12.0507
  19   2.0000      -0.432230       -11.7616
  20   2.0000      -0.422815       -11.5054
  21   2.0000      -0.421749       -11.4764
  22   2.0000      -0.402598       -10.9552
  23   2.0000      -0.386649       -10.5212
  24   2.0000      -0.363539        -9.8924
  25   2.0000      -0.362609        -9.8671
  26   2.0000      -0.333867        -9.0850
  27   2.0000      -0.333750        -9.0818
  28   2.0000      -0.320941        -8.7332
  29   2.0000      -0.253164        -6.8889
  30   2.0000      -0.248697        -6.7674
  31   2.0000      -0.219358        -5.9690
  32   0.0000      -0.088230        -2.4009
  33   0.0000      -0.043768        -1.1910
  34   0.0000       0.007488         0.2038
  35   0.0000       0.072683         1.9778
  36   0.0000       0.100455         2.7335

MULLIKEN ATOMIC CHARGES
-----------------------
   0 C :   -0.566401
   1 C :    0.293362
   2 O :   -0.349747
   3 C :    0.121288
   4 C :   -0.180414
   5 C :   -0.157638
   6 C :   -0.116947
   7 C :   -0.167324
   8 C :   -0.176748
   9 H :    0.169974
  10 H :    0.182507
  11 H :    0.169654
  12 H :    0.185565
  13 H :    0.148893
  14 H :    0.149519
  15 H :    0.148142
  16 H :    0.146316
Sum of atomic charges:   -0.0000000

LOEWDIN ATOMIC CHARGES
----------------------
   0 C :   -0.385444
   1 C :    0.239074
   2 O :   -0.467661
   3 C :   -0.080593
   4 C :   -0.099323
   5 C :   -0.158616
   6 C :   -0.143456
   7 C :   -0.162325
   8 C :   -0.137444
   9 H :    0.173075
  10 H :    0.176316
  11 H :    0.173103
  12 H :    0.191965
  13 H :    0.169847
  14 H :    0.169111
  15 H :    0.168950
  16 H :    0.173423

  Mayer bond orders larger than 0.100000
B(  0-C ,  1-C ) :   0.8870 B(  0-C ,  9-H ) :   0.9601 B(  0-C , 10-H ) :   0.9793
B(  0-C , 11-H ) :   0.9593 B(  1-C ,  2-O ) :   1.9206 B(  1-C ,  3-C ) :   0.9063
B(  2-O ,  3-C ) :  -0.1187 B(  2-O ,  4-C ) :   0.1029 B(  3-C ,  4-C ) :   1.3966
B(  3-C ,  8-C ) :   1.3879 B(  4-C ,  5-C ) :   1.3922 B(  4-C , 12-H ) :   0.9630
B(  5-C ,  6-C ) :   1.3847 B(  5-C , 13-H ) :   0.9564 B(  6-C ,  7-C ) :   1.4115
B(  6-C , 14-H ) :   0.9469 B(  7-C ,  8-C ) :   1.4242 B(  7-C , 15-H ) :   0.9472
B(  8-C , 16-H ) :   0.9294

Dispersion correction           -0.005632612
FINAL SINGLE POINT ENERGY      -384.798458293838

DIPOLE MOMENT
-------------

Method             : SCF
Type of density    : Electron Density
Multiplicity       :   1
Irrep              :   0
Energy             :  -384.7979702048911008 Eh
Relativity type    :
Basis              : AO
                                X                 Y                 Z
Electronic contribution:      0.449792956       3.414403328       0.010327675
Nuclear contribution   :      0.352081174      -4.347170498      -0.013118978
                        -----------------------------------------
Total Dipole Moment    :      0.801874130      -0.932767170      -0.002791302
                        -----------------------------------------
Magnitude (a.u.)       :      1.230066870
Magnitude (Debye)      :      3.126581511

Rotational constants in cm-1:             0.124115             0.041164             0.031092
Rotational constants in MHz :          3720.882087          1234.066818           932.105474

                             ****ORCA TERMINATED NORMALLY****
TOTAL RUN TIME: 0 days 0 hours 0 minutes 31 seconds 370 msec
