                         Program Version 6.0.1  -  RELEASE   -
|  1> ! r2scan-3c def2/J RI DEFGRID2 scfconv6 printgap
|  2> %output
|  3>     printlevel normal
|  4> end
|  5> * xyz 0 1
|  6> C -2.0998823033 1.3111686623 0.0624378257
|  7> C -1.4284287465 -0.0377556538 -0.1917181819
|  8> C -2.4315313522 -1.1630704548 0.0611083045
|  9> C -0.1797755223 -0.2191918633 0.6914890835
| 10> C 1.1851673633 -0.0211948622 0.0051221573
| 11> C 1.4198379505 -1.1056152773 -1.0494849239
| 12> C 1.2930414445 1.3595928237 -0.6439685449
| 13> C 2.2727509066 -0.1435141976 1.0788191331
| 14> H -1.4074877898 2.1310943539 -0.1067725104
| 15> H -2.9531714252 1.4427451975 -0.6003384619
| 16> H -2.4558668228 1.3677804713 1.0894967941
| 17> H -1.1403435143 -0.0810779248 -1.2458288983
| 18> H -1.993492987 -2.1299519135 -0.1770246399
| 19> H -2.73856771 -1.1704628362 1.1051913784
| 20> H -3.3190273858 -1.030002573 -0.5544211982
| 21> H -0.2436150689 0.4731209692 1.5339668327
| 22> H -0.1870747921 -1.2286424637 1.108898909
| 23> H 2.4051237861 -0.9897809386 -1.4961322289
| 24> H 0.6818438053 -1.05131425 -1.8455592954
| 25> H 1.3631753576 -2.094123137 -0.5986998972
| 26> H 1.1226450935 2.1418167197 0.0926028437
| 27> H 0.5702935264 1.474837686 -1.4471939272
| 28> H 2.2875706127 1.4991107095 -1.0632807707
| 29> H 3.2604196287 -0.0355457168 0.6357382286
| 30> H 2.2227393339 -1.1139650975 1.5680275157
| 31> H 2.1532718457 0.6277026084 1.8368188643
| 32> *
| 33>
| 34>                          ****END OF INPUT****

CARTESIAN COORDINATES (ANGSTROEM)
---------------------------------
  C     -2.099882    1.311169    0.062438
  C     -1.428429   -0.037756   -0.191718
  C     -2.431531   -1.163070    0.061108
  C     -0.179776   -0.219192    0.691489
  C      1.185167   -0.021195    0.005122
  C      1.419838   -1.105615   -1.049485
  C      1.293041    1.359593   -0.643969
  C      2.272751   -0.143514    1.078819
  H     -1.407488    2.131094   -0.106773
  H     -2.953171    1.442745   -0.600338
  H     -2.455867    1.367780    1.089497
  H     -1.140344   -0.081078   -1.245829
  H     -1.993493   -2.129952   -0.177025
  H     -2.738568   -1.170463    1.105191
  H     -3.319027   -1.030003   -0.554421
  H     -0.243615    0.473121    1.533967
  H     -0.187075   -1.228642    1.108899
  H      2.405124   -0.989781   -1.496132
  H      0.681844   -1.051314   -1.845559
  H      1.363175   -2.094123   -0.598700
  H      1.122645    2.141817    0.092603
  H      0.570294    1.474838   -1.447194
  H      2.287571    1.499111   -1.063281
  H      3.260420   -0.035546    0.635738
  H      2.222739   -1.113965    1.568028
  H      2.153272    0.627703    1.836819

 Total Charge           Charge          ....    0
 Multiplicity           Mult            ....    1
 Number of Electrons    NEL             ....   66
 Basis Dimension        Dim             ....  242

ORBITAL ENERGIES
----------------

  NO   OCC          E(Eh)            E(eV)
   0   2.0000     -10.039402      -273.1860
   1   2.0000     -10.029459      -272.9155
   2   2.0000     -10.016438      -272.5611
   3   2.0000     -10.012483      -272.4535
   4   2.0000     -10.012404      -272.4514
   5   2.0000     -10.012123      -272.4437
   6   2.0000     -10.011810      -272.4352
   7   2.0000     -10.011639      -272.4305
   8   2.0000      -0.796169       -21.6649
   9   2.0000      -0.751817       -20.4580
  10   2.0000      -0.653100       -17.7718
  11   2.0000      -0.649494       -17.6736
  12   2.0000      -0.643715       -17.5164
  13   2.0000      -0.640082       -17.4175
  14   2.0000      -0.533174       -14.5084
  15   2.0000      -0.496372       -13.5070
  16   2.0000      -0.437471       -11.9042
  17   2.0000      -0.422734       -11.5032
  18   2.0000      -0.411450       -11.1961
  19   2.0000      -0.395300       -10.7567
  20   2.0000      -0.388250       -10.5648
  21   2.0000      -0.383262       -10.4291
  22   2.0000      -0.353840        -9.6285
  23   2.0000      -0.351683        -9.5698
  24   2.0000      -0.347777        -9.4635
  25   2.0000      -0.330697        -8.9987
  26   2.0000      -0.324271        -8.8239
  27   2.0000      -0.317226        -8.6322
  28   2.0000      -0.303855        -8.2683
  29   2.0000      -0.295684        -8.0460
  30   2.0000      -0.281671        -7.6647
  31   2.0000      -0.275440        -7.4951
  32   2.0000      -0.268318        -7.3013
  33   0.0000       0.073839         2.0093
  34   0.0000       0.097453         2.6518
  35   0.0000       0.107211         2.9174
  36   0.0000       0.115570         3.1448
  37   0.0000       0.125841         3.4243

MULLIKEN ATOMIC CHARGES
-----------------------
   0 C :   -0.523038
   1 C :    0.027037
   2 C :   -0.506017
   3 C :   -0.365802
   4 C :    0.132672
   5 C :   -0.504476
   6 C :   -0.523628
   7 C :   -0.490904
   8 H :    0.154085
   9 H :    0.146045
  10 H :    0.152467
  11 H :    0.146793
  12 H :    0.147977
  13 H :    0.151713
  14 H :    0.143591
  15 H :    0.159295
  16 H :    0.162659
  17 H :    0.153082
  18 H :    0.150976
  19 H :    0.154560
  20 H :    0.160310
  21 H :    0.160356
  22 H :    0.151943
  23 H :    0.154052
  24 H :    0.151629
  25 H :    0.152623
Sum of atomic charges:    0.0000000

LOEWDIN ATOMIC CHARGES
----------------------
   0 C :   -0.417674
   1 C :   -0.247273
   2 C :   -0.416830
   3 C :   -0.287824
   4 C :   -0.209345
   5 C :   -0.407827
   6 C :   -0.408306
   7 C :   -0.409187
   8 H :    0.154224
   9 H :    0.151661
  10 H :    0.152720
  11 H :    0.154722
  12 H :    0.151981
  13 H :    0.153866
  14 H :    0.151302
  15 H :    0.165169
  16 H :    0.164343
  17 H :    0.156577
  18 H :    0.153929
  19 H :    0.156822
  20 H :    0.156891
  21 H :    0.156375
  22 H :    0.156548
  23 H :    0.154976
  24 H :    0.156347
  25 H :    0.155812

  Mayer bond orders larger than 0.100000
B(  0-C ,  1-C ) :   0.9024 B(  0-C ,  8-H ) :   0.9697 B(  0-C ,  9-H ) :   0.9785
B(  0-C , 10-H ) :   0.9907 B(  1-C ,  2-C ) :   0.8885 B(  1-C ,  3-C ) :   0.8072
B(  1-C , 11-H ) :   0.9647 B(  2-C , 12-H ) :   0.9809 B(  2-C , 13-H ) :   0.9866
B(  2-C , 14-H ) :   0.9770 B(  3-C ,  4-C ) :   0.8784 B(  3-C , 15-H ) :   0.9819
B(  3-C , 16-H ) :   0.9966 B(  4-C ,  5-C ) :   0.9426 B(  4-C ,  6-C ) :   0.8940
B(  4-C ,  7-C ) :   0.9397 B(  5-C , 17-H ) :   0.9757 B(  5-C , 18-H ) :   0.9685
B(  5-C , 19-H ) :   0.9780 B(  6-C , 20-H ) :   0.9789 B(  6-C , 21-H ) :   0.9698
B(  6-C , 22-H ) :   0.9717 B(  7-C , 23-H ) :   0.9788 B(  7-C , 24-H ) :   0.9759
B(  7-C , 25-H ) :   0.9778

Dispersion correction           -0.008000362
FINAL SINGLE POINT ENERGY      -315.587822926349

DIPOLE MOMENT
-------------

Method             : SCF
Type of density    : Electron Density
Multiplicity       :   1
Irrep              :   0
Energy             :  -315.5926458306684026 Eh
Relativity type    :
Basis              : AO
                                X                 Y                 Z
Electronic contribution:      0.368165720      -0.222652138       0.128896057
Nuclear contribution   :     -0.348587564       0.218912385      -0.154337403
                        -----------------------------------------
Total Dipole Moment    :      0.019578156      -0.003739754      -0.025441346
                        -----------------------------------------
Magnitude (a.u.)       :      0.032319531
Magnitude (Debye)      :      0.082149719

Rotational constants in cm-1:             0.098237             0.041034             0.036835
Rotational constants in MHz :          2945.056254          1230.174409          1104.275549

                             ****ORCA TERMINATED NORMALLY****
TOTAL RUN TIME: 0 days 0 hours 0 minutes 27 seconds 517 msec
