                         Program Version 6.0.1  -  RELEASE   -
|  1> ! r2scan-3c def2/J RI DEFGRID2 scfconv6 printgap
|  2> %output
|  3>     printlevel normal
|  4> end
|  5> * xyz 0 1
|  6> C -2.7582885477 -0.7650205352 0.0005527305
|  7> O -1.7977469188 0.2580513114 -0.0179339904
|  8> C -0.467369526 -0.1014391356 0.0005758783
|  9> C 0.0048073019 -1.4001224269 0.0085923222
| 10> C 1.3715452731 -1.6496982337 0.0083315054
| 11> C 2.2671627221 -0.6002345581 -0.0054529946
| 12> C 1.8028876805 0.7043101373 -0.0151217403
| 13> C 0.4414295323 0.9763774428 -0.00680574
| 14> N -0.0391626737 2.2704816552 0.0630751373
| 15> H -2.6773161072 -1.3767295802 0.9050659645
| 16> H -2.6789738924 -1.4099475024 -0.8814975273
| 17> H -3.7252276016 -0.2632480367 -0.0074496713
| 18> H -0.6795958112 -2.2339857303 0.0125961812
| 19> H 1.723217629 -2.6700758975 0.0155791646
| 20> H 3.3298302513 -0.7905072536 -0.0111291148
| 21> H 2.4983922333 1.5311666165 -0.0263623235
| 22> H 0.5735832716 2.9880114753 -0.2892191775
| 23> H -1.0069948793 2.3704694578 -0.1982882957
| 24> *
| 25>
| 26>                          ****END OF INPUT****

CARTESIAN COORDINATES (ANGSTROEM)
---------------------------------
  C     -2.758289   -0.765021    0.000553
  O     -1.797747    0.258051   -0.017934
  C     -0.467370   -0.101439    0.000576
  C      0.004807   -1.400122    0.008592
  C      1.371545   -1.649698    0.008332
  C      2.267163   -0.600235   -0.005453
  C      1.802888    0.704310   -0.015122
  C      0.441430    0.976377   -0.006806
  N     -0.039163    2.270482    0.063075
  H     -2.677316   -1.376730    0.905066
  H     -2.678974   -1.409948   -0.881498
  H     -3.725228   -0.263248   -0.007450
  H     -0.679596   -2.233986    0.012596
  H      1.723218   -2.670076    0.015579
  H      3.329830   -0.790507   -0.011129
  H      2.498392    1.531167   -0.026362
  H      0.573583    2.988011   -0.289219
  H     -1.006995    2.370469   -0.198288

 Total Charge           Charge          ....    0
 Multiplicity           Mult            ....    1
 Number of Electrons    NEL             ....   66
 Basis Dimension        Dim             ....  226

ORBITAL ENERGIES
----------------

  NO   OCC          E(Eh)            E(eV)
   0   2.0000     -18.985492      -516.6215
   1   2.0000     -14.160979      -385.3398
   2   2.0000     -10.086240      -274.4606
   3   2.0000     -10.084169      -274.4042
   4   2.0000     -10.066739      -273.9299
   5   2.0000     -10.026015      -272.8217
   6   2.0000     -10.021032      -272.6861
   7   2.0000     -10.019547      -272.6457
   8   2.0000     -10.017467      -272.5891
   9   2.0000      -1.032355       -28.0918
  10   2.0000      -0.883080       -24.0298
  11   2.0000      -0.801413       -21.8076
  12   2.0000      -0.717939       -19.5361
  13   2.0000      -0.697496       -18.9798
  14   2.0000      -0.658170       -17.9097
  15   2.0000      -0.574967       -15.6456
  16   2.0000      -0.559482       -15.2243
  17   2.0000      -0.504748       -13.7349
  18   2.0000      -0.483214       -13.1489
  19   2.0000      -0.466676       -12.6989
  20   2.0000      -0.437342       -11.9007
  21   2.0000      -0.425638       -11.5822
  22   2.0000      -0.414180       -11.2704
  23   2.0000      -0.397469       -10.8157
  24   2.0000      -0.379387       -10.3236
  25   2.0000      -0.361005        -9.8235
  26   2.0000      -0.339517        -9.2387
  27   2.0000      -0.316412        -8.6100
  28   2.0000      -0.299111        -8.1392
  29   2.0000      -0.290438        -7.9032
  30   2.0000      -0.282837        -7.6964
  31   2.0000      -0.211547        -5.7565
  32   2.0000      -0.171626        -4.6702
  33   0.0000      -0.014878        -0.4049
  34   0.0000      -0.001899        -0.0517
  35   0.0000       0.054170         1.4740
  36   0.0000       0.089322         2.4306
  37   0.0000       0.098714         2.6862

MULLIKEN ATOMIC CHARGES
-----------------------
   0 C :   -0.332727
   1 O :   -0.201360
   2 C :    0.104067
   3 C :   -0.239295
   4 C :   -0.209159
   5 C :   -0.146042
   6 C :   -0.380864
   7 C :    0.370277
   8 N :   -0.515730
   9 H :    0.153685
  10 H :    0.151645
  11 H :    0.150669
  12 H :    0.145067
  13 H :    0.144116
  14 H :    0.144811
  15 H :    0.139332
  16 H :    0.253576
  17 H :    0.267932
Sum of atomic charges:   -0.0000000

LOEWDIN ATOMIC CHARGES
----------------------
   0 C :   -0.053344
   1 O :   -0.699868
   2 C :    0.193636
   3 C :   -0.167082
   4 C :   -0.193023
   5 C :   -0.175836
   6 C :   -0.162260
   7 C :    0.148663
   8 N :   -0.588076
   9 H :    0.165262
  10 H :    0.163922
  11 H :    0.178457
  12 H :    0.174234
  13 H :    0.165307
  14 H :    0.165901
  15 H :    0.168865
  16 H :    0.252621
  17 H :    0.262624

  Mayer bond orders larger than 0.100000
B(  0-C ,  1-O ) :   0.8649 B(  0-C ,  9-H ) :   0.9620 B(  0-C , 10-H ) :   0.9617
B(  0-C , 11-H ) :   0.9683 B(  1-O ,  2-C ) :   1.0757 B(  2-C ,  3-C ) :   1.3427
B(  2-C ,  7-C ) :   1.4807 B(  3-C ,  4-C ) :   1.3556 B(  3-C , 12-H ) :   0.9288
B(  4-C ,  5-C ) :   1.4576 B(  4-C , 13-H ) :   0.9520 B(  5-C ,  6-C ) :   1.3809
B(  5-C , 14-H ) :   0.9427 B(  6-C ,  7-C ) :   1.2837 B(  6-C , 15-H ) :   0.9641
B(  7-C ,  8-N ) :   0.9468 B(  8-N , 16-H ) :   0.9231 B(  8-N , 17-H ) :   0.9063

Dispersion correction           -0.005825259
FINAL SINGLE POINT ENERGY      -402.030103914738

DIPOLE MOMENT
-------------

Method             : SCF
Type of density    : Electron Density
Multiplicity       :   1
Irrep              :   0
Energy             :  -402.0346258539907467 Eh
Relativity type    :
Basis              : AO
                                X                 Y                 Z
Electronic contribution:      1.985516214       1.850710404       0.136522548
Nuclear contribution   :     -2.506513444      -1.723881014      -0.450902294
                        -----------------------------------------
Total Dipole Moment    :     -0.520997230       0.126829390      -0.314379747
                        -----------------------------------------
Magnitude (a.u.)       :      0.621577375
Magnitude (Debye)      :      1.579924128

Rotational constants in cm-1:             0.086871             0.052034             0.032770
Rotational constants in MHz :          2604.328844          1559.930380           982.409751

                             ****ORCA TERMINATED NORMALLY****
TOTAL RUN TIME: 0 days 0 hours 0 minutes 21 seconds 800 msec
