                         Program Version 6.0.1  -  RELEASE   -
|  1> ! pbe def2-sv(p) def2/J RI DEFGRID1 loosescf d4 GCP(DFT/SV(P)) printgap
|  2> %output
|  3>     printlevel normal
|  4> end
|  5> * xyz 0 1
|  6> C 3.7479862702 -0.2261127022 -0.0658573516
|  7> C 2.2884341339 -0.1687945882 0.3754675486
|  8> H 2.2538295152 0.0314317156 1.4527396678
|  9> C 1.5675644296 -1.483204642 0.0988294496
| 10> C 0.1190280458 -1.3964594897 0.5620997208
| 11> C -0.6785128601 -0.2826230664 -0.1308695664
| 12> H -0.7256051634 -0.4778171917 -1.2068168748
| 13> C 0.0644613796 1.0536835655 0.0448484444
| 14> H -0.0033611831 1.3600046579 1.1036855845
| 15> C 1.5422085446 0.9404768936 -0.3554664054
| 16> O -0.5413917618 2.0343266222 -0.7780266229
| 17> C -2.1210278656 -0.2768987553 0.4281282439
| 18> C -2.9318696586 0.9620423401 0.0538154097
| 19> C -2.8887576305 -1.5088444475 -0.0581854127
| 20> H 3.8139013165 -0.4224401266 -1.1339639405
| 21> H 4.2504407379 0.7161907277 0.1414525565
| 22> H 4.274024083 -1.0188239712 0.461186407
| 23> H 1.6013095849 -1.6963030112 -0.9718946854
| 24> H 2.0679909296 -2.3025545546 0.6198083601
| 25> H -0.3640167685 -2.3557794849 0.3795941693
| 26> H 0.1039423696 -1.2165332786 1.640585827
| 27> H 1.5832579891 0.7524893338 -1.4317528038
| 28> H 2.0289128882 1.903161065 -0.1664585456
| 29> H -0.0003319841 2.830833599 -0.7511346706
| 30> H -2.0543878101 -0.3196865552 1.522371662
| 31> H -3.959044625 0.8427990287 0.3944279643
| 32> H -2.9341111717 1.1033354532 -1.022904687
| 33> H -2.5246433223 1.8575126219 0.5104548577
| 34> H -3.9033654098 -1.4918558441 0.3338807059
| 35> H -2.4253075387 -2.4364820949 0.2652910225
| 36> H -2.9445702392 -1.5099956038 -1.144662836
| 37> *
| 38>
| 39>                          ****END OF INPUT****

CARTESIAN COORDINATES (ANGSTROEM)
---------------------------------
  C      3.747986   -0.226113   -0.065857
  C      2.288434   -0.168795    0.375468
  H      2.253830    0.031432    1.452740
  C      1.567564   -1.483205    0.098829
  C      0.119028   -1.396459    0.562100
  C     -0.678513   -0.282623   -0.130870
  H     -0.725605   -0.477817   -1.206817
  C      0.064461    1.053684    0.044848
  H     -0.003361    1.360005    1.103686
  C      1.542209    0.940477   -0.355466
  O     -0.541392    2.034327   -0.778027
  C     -2.121028   -0.276899    0.428128
  C     -2.931870    0.962042    0.053815
  C     -2.888758   -1.508844   -0.058185
  H      3.813901   -0.422440   -1.133964
  H      4.250441    0.716191    0.141453
  H      4.274024   -1.018824    0.461186
  H      1.601310   -1.696303   -0.971895
  H      2.067991   -2.302555    0.619808
  H     -0.364017   -2.355779    0.379594
  H      0.103942   -1.216533    1.640586
  H      1.583258    0.752489   -1.431753
  H      2.028913    1.903161   -0.166459
  H     -0.000332    2.830834   -0.751135
  H     -2.054388   -0.319687    1.522372
  H     -3.959045    0.842799    0.394428
  H     -2.934111    1.103335   -1.022905
  H     -2.524643    1.857513    0.510455
  H     -3.903365   -1.491856    0.333881
  H     -2.425308   -2.436482    0.265291
  H     -2.944570   -1.509996   -1.144663

 Total Charge           Charge          ....    0
 Multiplicity           Mult            ....    1
 Number of Electrons    NEL             ....   88
 Basis Dimension        Dim             ....  194

ORBITAL ENERGIES
----------------

  NO   OCC          E(Eh)            E(eV)
   0   2.0000     -18.736993      -509.8595
   1   2.0000      -9.933417      -270.3020
   2   2.0000      -9.893786      -269.2236
   3   2.0000      -9.887096      -269.0416
   4   2.0000      -9.885252      -268.9914
   5   2.0000      -9.881903      -268.9003
   6   2.0000      -9.880170      -268.8531
   7   2.0000      -9.879988      -268.8481
   8   2.0000      -9.873367      -268.6680
   9   2.0000      -9.864675      -268.4315
  10   2.0000      -9.852469      -268.0993
  11   2.0000      -0.918790       -25.0016
  12   2.0000      -0.758407       -20.6373
  13   2.0000      -0.719372       -19.5751
  14   2.0000      -0.667757       -18.1706
  15   2.0000      -0.654485       -17.8095
  16   2.0000      -0.604030       -16.4365
  17   2.0000      -0.596862       -16.2414
  18   2.0000      -0.547514       -14.8986
  19   2.0000      -0.526319       -14.3219
  20   2.0000      -0.500657       -13.6236
  21   2.0000      -0.490748       -13.3539
  22   2.0000      -0.453043       -12.3279
  23   2.0000      -0.426851       -11.6152
  24   2.0000      -0.412190       -11.2163
  25   2.0000      -0.393049       -10.6954
  26   2.0000      -0.388659       -10.5760
  27   2.0000      -0.382930       -10.4200
  28   2.0000      -0.361988        -9.8502
  29   2.0000      -0.345967        -9.4142
  30   2.0000      -0.343217        -9.3394
  31   2.0000      -0.339085        -9.2270
  32   2.0000      -0.332585        -9.0501
  33   2.0000      -0.320334        -8.7167
  34   2.0000      -0.315652        -8.5893
  35   2.0000      -0.301355        -8.2003
  36   2.0000      -0.295777        -8.0485
  37   2.0000      -0.292547        -7.9606
  38   2.0000      -0.282757        -7.6942
  39   2.0000      -0.273873        -7.4525
  40   2.0000      -0.270538        -7.3617
  41   2.0000      -0.259934        -7.0732
  42   2.0000      -0.243965        -6.6386
  43   2.0000      -0.207788        -5.6542
  44   0.0000       0.028440         0.7739
  45   0.0000       0.039438         1.0732
  46   0.0000       0.043667         1.1882
  47   0.0000       0.048784         1.3275
  48   0.0000       0.075705         2.0600

MULLIKEN ATOMIC CHARGES
-----------------------
   0 C :   -0.196465
   1 C :   -0.203453
   2 H :    0.062018
   3 C :   -0.083940
   4 C :   -0.125091
   5 C :   -0.115167
   6 H :    0.053199
   7 C :    0.074113
   8 H :    0.043392
   9 C :   -0.125130
  10 O :   -0.407709
  11 C :   -0.160848
  12 C :   -0.185850
  13 C :   -0.249851
  14 H :    0.090369
  15 H :    0.094411
  16 H :    0.096125
  17 H :    0.065593
  18 H :    0.076335
  19 H :    0.088441
  20 H :    0.066361
  21 H :    0.071176
  22 H :    0.064763
  23 H :    0.292904
  24 H :    0.056728
  25 H :    0.081132
  26 H :    0.090933
  27 H :    0.096176
  28 H :    0.095722
  29 H :    0.102064
  30 H :    0.091552
Sum of atomic charges:   -0.0000000

LOEWDIN ATOMIC CHARGES
----------------------
   0 C :   -0.326436
   1 C :   -0.154551
   2 H :    0.113180
   3 C :   -0.215398
   4 C :   -0.214765
   5 C :   -0.137020
   6 H :    0.118044
   7 C :   -0.044681
   8 H :    0.093591
   9 C :   -0.229285
  10 O :   -0.315250
  11 C :   -0.144914
  12 C :   -0.331801
  13 C :   -0.329868
  14 H :    0.117095
  15 H :    0.116288
  16 H :    0.117510
  17 H :    0.114463
  18 H :    0.115518
  19 H :    0.118954
  20 H :    0.114599
  21 H :    0.117791
  22 H :    0.108241
  23 H :    0.280405
  24 H :    0.109965
  25 H :    0.108382
  26 H :    0.118581
  27 H :    0.114759
  28 H :    0.117014
  29 H :    0.112660
  30 H :    0.116929

  Mayer bond orders larger than 0.100000
B(  0-C ,  1-C ) :   1.1097 B(  0-C , 14-H ) :   0.9460 B(  0-C , 15-H ) :   0.9490
B(  0-C , 16-H ) :   0.9478 B(  1-C ,  2-H ) :   0.8922 B(  1-C ,  3-C ) :   1.0941
B(  1-C ,  9-C ) :   1.0752 B(  3-C ,  4-C ) :   1.1416 B(  3-C , 17-H ) :   0.9027
B(  3-C , 18-H ) :   0.9109 B(  4-C ,  5-C ) :   1.0901 B(  4-C , 19-H ) :   0.9064
B(  4-C , 20-H ) :   0.8981 B(  5-C ,  6-H ) :   0.8657 B(  5-C ,  7-C ) :   1.0404
B(  5-C , 11-C ) :   1.0478 B(  7-C ,  8-H ) :   0.8862 B(  7-C ,  9-C ) :   1.0966
B(  7-C , 10-O ) :   1.0435 B(  9-C , 21-H ) :   0.8909 B(  9-C , 22-H ) :   0.9059
B( 10-O , 23-H ) :   0.8482 B( 11-C , 12-C ) :   1.1394 B( 11-C , 13-C ) :   1.1122
B( 11-C , 24-H ) :   0.8903 B( 12-C , 25-H ) :   0.9420 B( 12-C , 26-H ) :   0.9426
B( 12-C , 27-H ) :   0.9325 B( 13-C , 28-H ) :   0.9473 B( 13-C , 29-H ) :   0.9420
B( 13-C , 30-H ) :   0.9489

Dispersion correction           -0.031314384
FINAL SINGLE POINT ENERGY      -467.195144228711

DIPOLE MOMENT
-------------

Method             : SCF
Type of density    : Electron Density
Multiplicity       :   1
Irrep              :   0
Energy             :  -467.3082489891374962 Eh
Relativity type    :
Basis              : AO
                                X                 Y                 Z
Electronic contribution:      0.437277298       3.706245075      -0.674965625
Nuclear contribution   :      0.122244620      -3.582230654       0.922764436
                        -----------------------------------------
Total Dipole Moment    :      0.559521918       0.124014422       0.247798811
                        -----------------------------------------
Magnitude (a.u.)       :      0.624378575
Magnitude (Debye)      :      1.587044213

Rotational constants in cm-1:             0.063315             0.023337             0.018091
Rotational constants in MHz :          1898.141482           699.626163           542.349581

                             ****ORCA TERMINATED NORMALLY****
TOTAL RUN TIME: 0 days 0 hours 0 minutes 11 seconds 905 msec
