                         Program Version 6.0.1  -  RELEASE   -
|  1> ! pbe def2-sv(p) def2/J RI DEFGRID1 loosescf d4 GCP(DFT/SV(P)) printgap
|  2> %output
|  3>     printlevel normal
|  4> end
|  5> * xyz 0 1
|  6> C -1.5417283834 0.9136258078 0.2597287208
|  7> C -1.3235201837 -0.5008435782 -0.2611378609
|  8> C 0.0821220482 -1.0141165278 -0.3874342287
|  9> C 1.2645539954 -0.4805683363 -0.1174549073
| 10> C 1.6120362057 0.8678248738 0.4345645974
| 11> H -2.599528769 1.1629475132 0.1904546728
| 12> H -0.9836737147 1.6359435075 -0.3285709071
| 13> H -1.2486671594 0.9974282081 1.30265382
| 14> H -1.8717259464 -1.2015599878 0.3789880031
| 15> H -1.7750023284 -0.5782274396 -1.2572425144
| 16> H 0.0894673672 -2.0203132086 -0.795167467
| 17> H 2.1317857958 -1.0909327244 -0.3420907979
| 18> H 1.6295419404 1.6106550584 -0.3638908972
| 19> H 2.6049647348 0.8374432949 0.8785452539
| 20> H 0.9090447604 1.1977498026 1.1911608131
| 21> *
| 22>
| 23>                          ****END OF INPUT****

CARTESIAN COORDINATES (ANGSTROEM)
---------------------------------
  C     -1.541728    0.913626    0.259729
  C     -1.323520   -0.500844   -0.261138
  C      0.082122   -1.014117   -0.387434
  C      1.264554   -0.480568   -0.117455
  C      1.612036    0.867825    0.434565
  H     -2.599529    1.162948    0.190455
  H     -0.983674    1.635944   -0.328571
  H     -1.248667    0.997428    1.302654
  H     -1.871726   -1.201560    0.378988
  H     -1.775002   -0.578227   -1.257243
  H      0.089467   -2.020313   -0.795167
  H      2.131786   -1.090933   -0.342091
  H      1.629542    1.610655   -0.363891
  H      2.604965    0.837443    0.878545
  H      0.909045    1.197750    1.191161

 Total Charge           Charge          ....    0
 Multiplicity           Mult            ....    1
 Number of Electrons    NEL             ....   40
 Basis Dimension        Dim             ....   90

ORBITAL ENERGIES
----------------

  NO   OCC          E(Eh)            E(eV)
   0   2.0000      -9.888316      -269.0748
   1   2.0000      -9.879681      -268.8398
   2   2.0000      -9.879044      -268.8225
   3   2.0000      -9.874305      -268.6935
   4   2.0000      -9.873859      -268.6814
   5   2.0000      -0.719955       -19.5910
   6   2.0000      -0.669406       -18.2155
   7   2.0000      -0.613678       -16.6990
   8   2.0000      -0.549490       -14.9524
   9   2.0000      -0.458579       -12.4786
  10   2.0000      -0.419237       -11.4080
  11   2.0000      -0.402139       -10.9428
  12   2.0000      -0.371282       -10.1031
  13   2.0000      -0.361031        -9.8242
  14   2.0000      -0.343552        -9.3485
  15   2.0000      -0.335139        -9.1196
  16   2.0000      -0.312310        -8.4984
  17   2.0000      -0.293603        -7.9893
  18   2.0000      -0.273130        -7.4323
  19   2.0000      -0.206733        -5.6255
  20   0.0000      -0.003053        -0.0831
  21   0.0000       0.037016         1.0073
  22   0.0000       0.063150         1.7184
  23   0.0000       0.072445         1.9713
  24   0.0000       0.090062         2.4507

MULLIKEN ATOMIC CHARGES
-----------------------
   0 C :   -0.284952
   1 C :   -0.140034
   2 C :   -0.135378
   3 C :   -0.177229
   4 C :   -0.227798
   5 H :    0.098220
   6 H :    0.110949
   7 H :    0.115205
   8 H :    0.094757
   9 H :    0.093414
  10 H :    0.061314
  11 H :    0.063735
  12 H :    0.117698
  13 H :    0.098806
  14 H :    0.111293
Sum of atomic charges:    0.0000000

LOEWDIN ATOMIC CHARGES
----------------------
   0 C :   -0.341875
   1 C :   -0.232110
   2 C :   -0.151675
   3 C :   -0.161948
   4 C :   -0.343350
   5 H :    0.120002
   6 H :    0.120627
   7 H :    0.119246
   8 H :    0.126269
   9 H :    0.126488
  10 H :    0.118525
  11 H :    0.119041
  12 H :    0.130747
  13 H :    0.123694
  14 H :    0.126319

  Mayer bond orders larger than 0.100000
B(  0-C ,  1-C ) :   1.1661 B(  0-C ,  5-H ) :   0.9435 B(  0-C ,  6-H ) :   0.9505
B(  0-C ,  7-H ) :   0.9468 B(  1-C ,  2-C ) :   1.0883 B(  1-C ,  8-H ) :   0.9089
B(  1-C ,  9-H ) :   0.9089 B(  2-C ,  3-C ) :   2.0392 B(  2-C , 10-H ) :   0.9145
B(  3-C ,  4-C ) :   1.1097 B(  3-C , 11-H ) :   0.9177 B(  4-C , 12-H ) :   0.9334
B(  4-C , 13-H ) :   0.9396 B(  4-C , 14-H ) :   0.9386

Dispersion correction           -0.010236442
FINAL SINGLE POINT ENERGY      -196.025183720792

DIPOLE MOMENT
-------------

Method             : SCF
Type of density    : Electron Density
Multiplicity       :   1
Irrep              :   0
Energy             :  -196.0731140046189864 Eh
Relativity type    :
Basis              : AO
                                X                 Y                 Z
Electronic contribution:      0.946583297      -2.308066699      -0.797815240
Nuclear contribution   :     -1.044919726       2.393379651       0.801979273
                        -----------------------------------------
Total Dipole Moment    :     -0.098336429       0.085312952       0.004164034
                        -----------------------------------------
Magnitude (a.u.)       :      0.130252417
Magnitude (Debye)      :      0.331075333

Rotational constants in cm-1:             0.254545             0.123707             0.087299
Rotational constants in MHz :          7631.068517          3708.643031          2617.161221

                             ****ORCA TERMINATED NORMALLY****
TOTAL RUN TIME: 0 days 0 hours 0 minutes 8 seconds 196 msec
