                         Program Version 6.0.1  -  RELEASE   -
|  1> ! pbe def2-sv(p) def2/J RI DEFGRID1 loosescf d4 GCP(DFT/SV(P)) printgap
|  2> %output
|  3>     printlevel normal
|  4> end
|  5> * xyz 0 1
|  6> C -2.3181772944 -0.9242623213 -0.5216280036
|  7> C -1.0167498344 -0.5723859252 0.2160091985
|  8> H -1.0824658026 -0.9216377817 1.2613788735
|  9> C -0.7575032453 0.9583460883 0.2467832277
| 10> H -1.5821983411 1.4729980665 -0.2582851607
| 11> C 0.5618130609 1.2618487012 -0.4924699083
| 12> H 0.7971797196 2.3259377192 -0.3690060094
| 13> C 1.6964816934 0.4138796125 0.130706587
| 14> H 2.593475891 0.505899281 -0.498054056
| 15> C 1.2838408886 -1.0839131514 0.1695967451
| 16> H 1.2501055038 -1.3966617979 1.2256200426
| 17> O 0.0254937045 -1.2706477152 -0.4426435047
| 18> O 2.1915844539 -1.9104223967 -0.456074389
| 19> O 1.9731530034 0.8093344962 1.4587417657
| 20> O 0.4693614146 1.0426248613 -1.8727780496
| 21> O -0.7415645107 1.4555276012 1.5581250822
| 22> O -3.4127005004 -0.178714007 -0.0727748517
| 23> H -2.4953051876 -2.0042454039 -0.423060427
| 24> H -2.2079809937 -0.688787356 -1.5830740039
| 25> H 2.0968999751 -1.8130290594 -1.4121194705
| 26> H 2.4114150153 1.6682011905 1.4511079162
| 27> H 0.1599184842 0.1353277669 -2.0064473768
| 28> H 0.087912824 1.1774540589 1.9793937809
| 29> H -3.4927410269 -0.2689986108 0.8839136647
| 30> *
| 31>
| 32>                          ****END OF INPUT****

CARTESIAN COORDINATES (ANGSTROEM)
---------------------------------
  C     -2.318177   -0.924262   -0.521628
  C     -1.016750   -0.572386    0.216009
  H     -1.082466   -0.921638    1.261379
  C     -0.757503    0.958346    0.246783
  H     -1.582198    1.472998   -0.258285
  C      0.561813    1.261849   -0.492470
  H      0.797180    2.325938   -0.369006
  C      1.696482    0.413880    0.130707
  H      2.593476    0.505899   -0.498054
  C      1.283841   -1.083913    0.169597
  H      1.250106   -1.396662    1.225620
  O      0.025494   -1.270648   -0.442644
  O      2.191584   -1.910422   -0.456074
  O      1.973153    0.809334    1.458742
  O      0.469361    1.042625   -1.872778
  O     -0.741565    1.455528    1.558125
  O     -3.412701   -0.178714   -0.072775
  H     -2.495305   -2.004245   -0.423060
  H     -2.207981   -0.688787   -1.583074
  H      2.096900   -1.813029   -1.412119
  H      2.411415    1.668201    1.451108
  H      0.159918    0.135328   -2.006447
  H      0.087913    1.177454    1.979394
  H     -3.492741   -0.268999    0.883914

 Total Charge           Charge          ....    0
 Multiplicity           Mult            ....    1
 Number of Electrons    NEL             ....   96
 Basis Dimension        Dim             ....  192

ORBITAL ENERGIES
----------------

  NO   OCC          E(Eh)            E(eV)
   0   2.0000     -18.792763      -511.3771
   1   2.0000     -18.786292      -511.2010
   2   2.0000     -18.768372      -510.7134
   3   2.0000     -18.758281      -510.4388
   4   2.0000     -18.755502      -510.3632
   5   2.0000     -18.741347      -509.9780
   6   2.0000      -9.999595      -272.1028
   7   2.0000      -9.951879      -270.8044
   8   2.0000      -9.951538      -270.7951
   9   2.0000      -9.946163      -270.6488
  10   2.0000      -9.941939      -270.5339
  11   2.0000      -9.937980      -270.4262
  12   2.0000      -1.001838       -27.2614
  13   2.0000      -0.960100       -26.1257
  14   2.0000      -0.943336       -25.6695
  15   2.0000      -0.936247       -25.4766
  16   2.0000      -0.926274       -25.2052
  17   2.0000      -0.919215       -25.0131
  18   2.0000      -0.701050       -19.0765
  19   2.0000      -0.694839       -18.9075
  20   2.0000      -0.626193       -17.0396
  21   2.0000      -0.594740       -16.1837
  22   2.0000      -0.577783       -15.7223
  23   2.0000      -0.543165       -14.7803
  24   2.0000      -0.505489       -13.7551
  25   2.0000      -0.502404       -13.6711
  26   2.0000      -0.490641       -13.3510
  27   2.0000      -0.465429       -12.6650
  28   2.0000      -0.456417       -12.4197
  29   2.0000      -0.448607       -12.2072
  30   2.0000      -0.410636       -11.1740
  31   2.0000      -0.403813       -10.9883
  32   2.0000      -0.395634       -10.7658
  33   2.0000      -0.381351       -10.3771
  34   2.0000      -0.357128        -9.7179
  35   2.0000      -0.350020        -9.5245
  36   2.0000      -0.342356        -9.3160
  37   2.0000      -0.327149        -8.9022
  38   2.0000      -0.321077        -8.7369
  39   2.0000      -0.313928        -8.5424
  40   2.0000      -0.288471        -7.8497
  41   2.0000      -0.279781        -7.6132
  42   2.0000      -0.263733        -7.1765
  43   2.0000      -0.258013        -7.0209
  44   2.0000      -0.248879        -6.7723
  45   2.0000      -0.231464        -6.2984
  46   2.0000      -0.213562        -5.8113
  47   2.0000      -0.201659        -5.4874
  48   0.0000       0.000455         0.0124
  49   0.0000       0.016507         0.4492
  50   0.0000       0.025156         0.6845
  51   0.0000       0.034108         0.9281
  52   0.0000       0.053315         1.4508

MULLIKEN ATOMIC CHARGES
-----------------------
   0 C :    0.086277
   1 C :   -0.043579
   2 H :    0.056967
   3 C :    0.060052
   4 H :    0.090357
   5 C :    0.021212
   6 H :    0.069963
   7 C :   -0.000043
   8 H :    0.073973
   9 C :    0.207935
  10 H :    0.070135
  11 O :   -0.309951
  12 O :   -0.376578
  13 O :   -0.414828
  14 O :   -0.420402
  15 O :   -0.432483
  16 O :   -0.419821
  17 H :    0.087816
  18 H :    0.080380
  19 H :    0.299824
  20 H :    0.315147
  21 H :    0.301355
  22 H :    0.290833
  23 H :    0.305459
Sum of atomic charges:    0.0000000

LOEWDIN ATOMIC CHARGES
----------------------
   0 C :   -0.124195
   1 C :   -0.084003
   2 H :    0.102590
   3 C :   -0.082629
   4 H :    0.122471
   5 C :   -0.085978
   6 H :    0.112832
   7 C :   -0.099885
   8 H :    0.109479
   9 C :    0.008910
  10 H :    0.106001
  11 O :   -0.153964
  12 O :   -0.285092
  13 O :   -0.304801
  14 O :   -0.314303
  15 O :   -0.325723
  16 O :   -0.318890
  17 H :    0.102041
  18 H :    0.112620
  19 H :    0.285202
  20 H :    0.295232
  21 H :    0.268776
  22 H :    0.264037
  23 H :    0.289271

  Mayer bond orders larger than 0.100000
B(  0-C ,  1-C ) :   1.0418 B(  0-C , 16-O ) :   1.0749 B(  0-C , 17-H ) :   0.9147
B(  0-C , 18-H ) :   0.9122 B(  1-C ,  2-H ) :   0.8740 B(  1-C ,  3-C ) :   0.9514
B(  1-C , 11-O ) :   0.9781 B(  3-C ,  4-H ) :   0.8910 B(  3-C ,  5-C ) :   0.9849
B(  3-C , 15-O ) :   1.0539 B(  5-C ,  6-H ) :   0.8947 B(  5-C ,  7-C ) :   0.9653
B(  5-C , 14-O ) :   1.0444 B(  7-C ,  8-H ) :   0.8966 B(  7-C ,  9-C ) :   0.9663
B(  7-C , 13-O ) :   1.0176 B(  9-C , 10-H ) :   0.8802 B(  9-C , 11-O ) :   1.0163
B(  9-C , 12-O ) :   1.1451 B( 12-O , 19-H ) :   0.8427 B( 13-O , 20-H ) :   0.8383
B( 13-O , 22-H ) :   0.1159 B( 14-O , 21-H ) :   0.8237 B( 15-O , 22-H ) :   0.8083
B( 16-O , 23-H ) :   0.8464

Dispersion correction           -0.025045249
FINAL SINGLE POINT ENERGY      -685.688712033700

DIPOLE MOMENT
-------------

Method             : SCF
Type of density    : Electron Density
Multiplicity       :   1
Irrep              :   0
Energy             :  -685.8217239180382876 Eh
Relativity type    :
Basis              : AO
                                X                 Y                 Z
Electronic contribution:      1.935008607      -0.319556759      -0.034902482
Nuclear contribution   :     -1.365792180       0.179783658       0.238382656
                        -----------------------------------------
Total Dipole Moment    :      0.569216427      -0.139773101       0.203480175
                        -----------------------------------------
Magnitude (a.u.)       :      0.620441812
Magnitude (Debye)      :      1.577037757

Rotational constants in cm-1:             0.043011             0.025435             0.021523
Rotational constants in MHz :          1289.439076           762.522967           645.235412

                             ****ORCA TERMINATED NORMALLY****
TOTAL RUN TIME: 0 days 0 hours 0 minutes 8 seconds 196 msec
