                         Program Version 6.0.1  -  RELEASE   -
|  1> ! pbe def2-sv(p) def2/J RI DEFGRID1 loosescf d4 GCP(DFT/SV(P)) printgap
|  2> %output
|  3>     printlevel normal
|  4> end
|  5> * xyz 0 1
|  6> C -2.4017136744 0.0448816046 0.005249985
|  7> C -0.9430812798 0.4806786555 -0.0673025447
|  8> C -0.0013536488 -0.6721834945 0.1373055364
|  9> C 1.3204864452 -0.6083038611 0.1008829262
| 10> C 2.136036913 0.6181654358 -0.1493940968
| 11> H -3.0633044933 0.8952759373 -0.146043908
| 12> H -2.62169651 -0.3912680485 0.9774933982
| 13> H -2.6165884977 -0.6967521995 -0.7613499558
| 14> H -0.752352365 0.9411109217 -1.0413291264
| 15> H -0.7565235481 1.2441864258 0.6942152817
| 16> H -0.4746373753 -1.6255618921 0.3304101654
| 17> H 1.8980383995 -1.5095735375 0.263649689
| 18> H 2.7641536838 0.474959813 -1.0287563264
| 19> H 2.7963700562 0.8051561364 0.6975058869
| 20> H 1.5112204941 1.4922355618 -0.3044733788
| 21> *
| 22>
| 23>                          ****END OF INPUT****

CARTESIAN COORDINATES (ANGSTROEM)
---------------------------------
  C     -2.401714    0.044882    0.005250
  C     -0.943081    0.480679   -0.067303
  C     -0.001354   -0.672183    0.137306
  C      1.320486   -0.608304    0.100883
  C      2.136037    0.618165   -0.149394
  H     -3.063304    0.895276   -0.146044
  H     -2.621697   -0.391268    0.977493
  H     -2.616588   -0.696752   -0.761350
  H     -0.752352    0.941111   -1.041329
  H     -0.756524    1.244186    0.694215
  H     -0.474637   -1.625562    0.330410
  H      1.898038   -1.509574    0.263650
  H      2.764154    0.474960   -1.028756
  H      2.796370    0.805156    0.697506
  H      1.511220    1.492236   -0.304473

 Total Charge           Charge          ....    0
 Multiplicity           Mult            ....    1
 Number of Electrons    NEL             ....   40
 Basis Dimension        Dim             ....   90

ORBITAL ENERGIES
----------------

  NO   OCC          E(Eh)            E(eV)
   0   2.0000      -9.885006      -268.9847
   1   2.0000      -9.879264      -268.8284
   2   2.0000      -9.877150      -268.7709
   3   2.0000      -9.876873      -268.7634
   4   2.0000      -9.873172      -268.6627
   5   2.0000      -0.722305       -19.6549
   6   2.0000      -0.673373       -18.3234
   7   2.0000      -0.605176       -16.4677
   8   2.0000      -0.545475       -14.8431
   9   2.0000      -0.467643       -12.7252
  10   2.0000      -0.418328       -11.3833
  11   2.0000      -0.400142       -10.8884
  12   2.0000      -0.380653       -10.3581
  13   2.0000      -0.364552        -9.9200
  14   2.0000      -0.333274        -9.0688
  15   2.0000      -0.324123        -8.8198
  16   2.0000      -0.308446        -8.3932
  17   2.0000      -0.305467        -8.3122
  18   2.0000      -0.279416        -7.6033
  19   2.0000      -0.207597        -5.6490
  20   0.0000      -0.006694        -0.1821
  21   0.0000       0.046288         1.2596
  22   0.0000       0.063369         1.7244
  23   0.0000       0.067962         1.8493
  24   0.0000       0.099850         2.7171

MULLIKEN ATOMIC CHARGES
-----------------------
   0 C :   -0.282357
   1 C :   -0.152949
   2 C :   -0.147181
   3 C :   -0.151525
   4 C :   -0.234346
   5 H :    0.100826
   6 H :    0.102199
   7 H :    0.102374
   8 H :    0.104260
   9 H :    0.104576
  10 H :    0.060505
  11 H :    0.063187
  12 H :    0.111534
  13 H :    0.111476
  14 H :    0.107422
Sum of atomic charges:   -0.0000000

LOEWDIN ATOMIC CHARGES
----------------------
   0 C :   -0.339049
   1 C :   -0.236883
   2 C :   -0.156925
   3 C :   -0.152143
   4 C :   -0.337824
   5 H :    0.118434
   6 H :    0.118158
   7 H :    0.118272
   8 H :    0.125010
   9 H :    0.125340
  10 H :    0.117869
  11 H :    0.117103
  12 H :    0.129950
  13 H :    0.130029
  14 H :    0.122660

  Mayer bond orders larger than 0.100000
B(  0-C ,  1-C ) :   1.1511 B(  0-C ,  5-H ) :   0.9530 B(  0-C ,  6-H ) :   0.9558
B(  0-C ,  7-H ) :   0.9564 B(  1-C ,  2-C ) :   1.0589 B(  1-C ,  8-H ) :   0.9121
B(  1-C ,  9-H ) :   0.9119 B(  2-C ,  3-C ) :   1.9931 B(  2-C , 10-H ) :   0.9378
B(  3-C ,  4-C ) :   1.1214 B(  3-C , 11-H ) :   0.9301 B(  4-C , 12-H ) :   0.9364
B(  4-C , 13-H ) :   0.9363 B(  4-C , 14-H ) :   0.9385

Dispersion correction           -0.009670379
FINAL SINGLE POINT ENERGY      -196.029149503627

DIPOLE MOMENT
-------------

Method             : SCF
Type of density    : Electron Density
Multiplicity       :   1
Irrep              :   0
Energy             :  -196.0773780149283709 Eh
Relativity type    :
Basis              : AO
                                X                 Y                 Z
Electronic contribution:      1.289669335      -1.410383604       0.277060930
Nuclear contribution   :     -1.233984755       1.528989150      -0.298972178
                        -----------------------------------------
Total Dipole Moment    :      0.055684579       0.118605546      -0.021911249
                        -----------------------------------------
Magnitude (a.u.)       :      0.132846342
Magnitude (Debye)      :      0.337668567

Rotational constants in cm-1:             0.483696             0.081580             0.072634
Rotational constants in MHz :         14500.840629          2445.694918          2177.498154

                             ****ORCA TERMINATED NORMALLY****
TOTAL RUN TIME: 0 days 0 hours 0 minutes 56 seconds 975 msec
