                         Program Version 6.0.1  -  RELEASE   -
|  1> ! pbe def2-sv(p) def2/J RI DEFGRID1 loosescf d4 GCP(DFT/SV(P)) printgap
|  2> %output
|  3>     printlevel normal
|  4> end
|  5> * xyz 0 1
|  6> C -2.9452056841 0.7288865809 0.6813552922
|  7> O -1.7940164932 0.7330737522 -0.1494048016
|  8> C -1.0216616727 -0.3633176576 -0.087622004
|  9> O -1.2847047465 -1.3031365024 0.6159677209
| 10> C 0.1508508746 -0.2969102016 -1.0510217607
| 11> C 1.2060635769 -1.3309161733 -0.6552584108
| 12> C 1.759234821 -1.0419772222 0.7466616479
| 13> C 1.7118957108 0.4544497603 1.0690948824
| 14> C 1.9535291646 1.2713671616 -0.1941811935
| 15> C 0.7786365058 1.102760435 -1.1646219932
| 16> H -3.4538742564 1.6725846338 0.5017023807
| 17> H -2.6562918893 0.6421914154 1.7309995589
| 18> H -3.5935080594 -0.1121438815 0.4270106613
| 19> H -0.276815184 -0.57018733 -2.0237872855
| 20> H 0.7679712262 -2.328871867 -0.6772893861
| 21> H 2.0077888917 -1.2975817625 -1.3945777752
| 22> H 1.1756412909 -1.587527905 1.4881541337
| 23> H 2.7885270903 -1.4010840909 0.8034510314
| 24> H 0.7339800322 0.7177301602 1.4782447977
| 25> H 2.458962813 0.6940099361 1.8277699772
| 26> H 2.0761089609 2.3274767045 0.0516931254
| 27> H 2.8805524616 0.9325720755 -0.6607733583
| 28> H 0.0141415898 1.8517400943 -0.9593149695
| 29> H 1.1270643286 1.2597486285 -2.1868861919
| 30> *
| 31>
| 32>                          ****END OF INPUT****

CARTESIAN COORDINATES (ANGSTROEM)
---------------------------------
  C     -2.945206    0.728887    0.681355
  O     -1.794016    0.733074   -0.149405
  C     -1.021662   -0.363318   -0.087622
  O     -1.284705   -1.303137    0.615968
  C      0.150851   -0.296910   -1.051022
  C      1.206064   -1.330916   -0.655258
  C      1.759235   -1.041977    0.746662
  C      1.711896    0.454450    1.069095
  C      1.953529    1.271367   -0.194181
  C      0.778637    1.102760   -1.164622
  H     -3.453874    1.672585    0.501702
  H     -2.656292    0.642191    1.731000
  H     -3.593508   -0.112144    0.427011
  H     -0.276815   -0.570187   -2.023787
  H      0.767971   -2.328872   -0.677289
  H      2.007789   -1.297582   -1.394578
  H      1.175641   -1.587528    1.488154
  H      2.788527   -1.401084    0.803451
  H      0.733980    0.717730    1.478245
  H      2.458963    0.694010    1.827770
  H      2.076109    2.327477    0.051693
  H      2.880552    0.932572   -0.660773
  H      0.014142    1.851740   -0.959315
  H      1.127064    1.259749   -2.186886

 Total Charge           Charge          ....    0
 Multiplicity           Mult            ....    1
 Number of Electrons    NEL             ....   78
 Basis Dimension        Dim             ....  168

ORBITAL ENERGIES
----------------

  NO   OCC          E(Eh)            E(eV)
   0   2.0000     -18.797296      -511.5004
   1   2.0000     -18.737638      -509.8771
   2   2.0000     -10.004197      -272.2280
   3   2.0000      -9.939927      -270.4792
   4   2.0000      -9.904499      -269.5151
   5   2.0000      -9.884094      -268.9599
   6   2.0000      -9.882037      -268.9039
   7   2.0000      -9.881647      -268.8933
   8   2.0000      -9.880337      -268.8576
   9   2.0000      -9.876016      -268.7400
  10   2.0000      -1.006403       -27.3856
  11   2.0000      -0.915811       -24.9205
  12   2.0000      -0.760169       -20.6853
  13   2.0000      -0.687474       -18.7071
  14   2.0000      -0.662699       -18.0330
  15   2.0000      -0.648093       -17.6355
  16   2.0000      -0.565491       -15.3878
  17   2.0000      -0.542413       -14.7598
  18   2.0000      -0.507616       -13.8129
  19   2.0000      -0.477663       -12.9979
  20   2.0000      -0.460529       -12.5316
  21   2.0000      -0.441615       -12.0170
  22   2.0000      -0.422742       -11.5034
  23   2.0000      -0.417822       -11.3695
  24   2.0000      -0.397343       -10.8123
  25   2.0000      -0.383273       -10.4294
  26   2.0000      -0.363942        -9.9034
  27   2.0000      -0.356507        -9.7011
  28   2.0000      -0.335048        -9.1171
  29   2.0000      -0.329601        -8.9689
  30   2.0000      -0.327090        -8.9006
  31   2.0000      -0.320786        -8.7290
  32   2.0000      -0.309358        -8.4181
  33   2.0000      -0.301920        -8.2157
  34   2.0000      -0.271846        -7.3973
  35   2.0000      -0.262663        -7.1474
  36   2.0000      -0.259829        -7.0703
  37   2.0000      -0.256756        -6.9867
  38   2.0000      -0.217699        -5.9239
  39   0.0000      -0.022222        -0.6047
  40   0.0000       0.029806         0.8111
  41   0.0000       0.045013         1.2249
  42   0.0000       0.069938         1.9031
  43   0.0000       0.073155         1.9907

MULLIKEN ATOMIC CHARGES
-----------------------
   0 C :   -0.108632
   1 O :   -0.245908
   2 C :    0.139832
   3 O :   -0.188663
   4 C :   -0.225909
   5 C :   -0.078601
   6 C :   -0.170321
   7 C :   -0.166928
   8 C :   -0.151739
   9 C :   -0.117962
  10 H :    0.119420
  11 H :    0.116452
  12 H :    0.116768
  13 H :    0.102085
  14 H :    0.093652
  15 H :    0.073931
  16 H :    0.099076
  17 H :    0.078717
  18 H :    0.088806
  19 H :    0.086490
  20 H :    0.084724
  21 H :    0.076084
  22 H :    0.101032
  23 H :    0.077596
Sum of atomic charges:   -0.0000000

LOEWDIN ATOMIC CHARGES
----------------------
   0 C :   -0.206575
   1 O :   -0.075531
   2 C :    0.041974
   3 O :   -0.151557
   4 C :   -0.168374
   5 C :   -0.214678
   6 C :   -0.231831
   7 C :   -0.231274
   8 C :   -0.226028
   9 C :   -0.220586
  10 H :    0.118947
  11 H :    0.117436
  12 H :    0.117777
  13 H :    0.143779
  14 H :    0.125586
  15 H :    0.116910
  16 H :    0.123421
  17 H :    0.115649
  18 H :    0.115399
  19 H :    0.118494
  20 H :    0.118006
  21 H :    0.113848
  22 H :    0.121341
  23 H :    0.117866

  Mayer bond orders larger than 0.100000
B(  0-C ,  1-O ) :   0.9503 B(  0-C , 10-H ) :   0.9586 B(  0-C , 11-H ) :   0.9508
B(  0-C , 12-H ) :   0.9517 B(  1-O ,  2-C ) :   1.1921 B(  2-C ,  3-O ) :   2.0649
B(  2-C ,  4-C ) :   0.9462 B(  4-C ,  5-C ) :   1.1472 B(  4-C ,  9-C ) :   1.0760
B(  4-C , 13-H ) :   0.8617 B(  5-C ,  6-C ) :   1.1404 B(  5-C , 14-H ) :   0.9081
B(  5-C , 15-H ) :   0.9035 B(  6-C ,  7-C ) :   1.1515 B(  6-C , 16-H ) :   0.9123
B(  6-C , 17-H ) :   0.9185 B(  7-C ,  8-C ) :   1.1801 B(  7-C , 18-H ) :   0.9021
B(  7-C , 19-H ) :   0.9196 B(  8-C ,  9-C ) :   1.1438 B(  8-C , 20-H ) :   0.9205
B(  8-C , 21-H ) :   0.9081 B(  9-C , 22-H ) :   0.9091 B(  9-C , 23-H ) :   0.9117

Dispersion correction           -0.024050058
FINAL SINGLE POINT ENERGY      -462.696779001597

DIPOLE MOMENT
-------------

Method             : SCF
Type of density    : Electron Density
Multiplicity       :   1
Irrep              :   0
Energy             :  -462.7850084237030615 Eh
Relativity type    :
Basis              : AO
                                X                 Y                 Z
Electronic contribution:     -5.753293047      -2.049337607      -0.606930725
Nuclear contribution   :      5.630499061       2.619032306       0.388185452
                        -----------------------------------------
Total Dipole Moment    :     -0.122793987       0.569694699      -0.218745273
                        -----------------------------------------
Magnitude (a.u.)       :      0.622478841
Magnitude (Debye)      :      1.582215473

Rotational constants in cm-1:             0.072386             0.034218             0.030381
Rotational constants in MHz :          2170.079132          1025.814973           910.788029

                             ****ORCA TERMINATED NORMALLY****
TOTAL RUN TIME: 0 days 0 hours 0 minutes 8 seconds 522 msec
