                         Program Version 6.0.1  -  RELEASE   -
|  1> ! r2scan-3c def2/J RI DEFGRID2 scfconv6 printgap
|  2> %output
|  3>     printlevel normal
|  4> end
|  5> * xyz 0 1
|  6> C -1.8092320243 -1.3582740859 -1.7627e-06
|  7> C -0.4715593425 -1.7062276689 -5.993e-07
|  8> C 0.5075197599 -0.726162804 6.9926e-06
|  9> C 0.1352912186 0.6161655255 1.15866e-05
| 10> C -1.201785905 0.9690285075 4.0261e-06
| 11> C -2.1832330473 -0.0181582024 -1.18e-06
| 12> O -3.4782692266 0.3758484967 1.13e-07
| 13> Cl 1.3346884692 1.8494346238 -5.1258e-06
| 14> Cl 2.1727849299 -1.172927601 -1.315e-06
| 15> H -2.564437289 -2.131527422 6.73e-07
| 16> H -0.1798295641 -2.7441889609 3.846e-07
| 17> H -1.4973866299 2.0050302544 7.153e-07
| 18> H -4.0617383915 -0.3930793869 -4.1827e-06
| 19> *
| 20>
| 21>                          ****END OF INPUT****

CARTESIAN COORDINATES (ANGSTROEM)
---------------------------------
  C     -1.809232   -1.358274   -0.000002
  C     -0.471559   -1.706228   -0.000001
  C      0.507520   -0.726163    0.000007
  C      0.135291    0.616166    0.000012
  C     -1.201786    0.969029    0.000004
  C     -2.183233   -0.018158   -0.000001
  O     -3.478269    0.375848    0.000000
  Cl     1.334688    1.849435   -0.000005
  Cl     2.172785   -1.172928   -0.000001
  H     -2.564437   -2.131527    0.000001
  H     -0.179830   -2.744189    0.000000
  H     -1.497387    2.005030    0.000001
  H     -4.061738   -0.393079   -0.000004

 Total Charge           Charge          ....    0
 Multiplicity           Mult            ....    1
 Number of Electrons    NEL             ....   82
 Basis Dimension        Dim             ....  212

ORBITAL ENERGIES
----------------

  NO   OCC          E(Eh)            E(eV)
   0   2.0000    -101.227572     -2754.5423
   1   2.0000    -101.223876     -2754.4417
   2   2.0000     -19.004390      -517.1358
   3   2.0000     -10.119796      -275.3736
   4   2.0000     -10.116475      -275.2833
   5   2.0000     -10.107451      -275.0377
   6   2.0000     -10.063673      -273.8465
   7   2.0000     -10.057235      -273.6713
   8   2.0000     -10.055802      -273.6323
   9   2.0000      -9.383563      -255.3397
  10   2.0000      -9.379810      -255.2376
  11   2.0000      -7.129971      -194.0164
  12   2.0000      -7.126235      -193.9147
  13   2.0000      -7.119864      -193.7413
  14   2.0000      -7.119087      -193.7202
  15   2.0000      -7.115996      -193.6361
  16   2.0000      -7.115439      -193.6209
  17   2.0000      -1.051666       -28.6173
  18   2.0000      -0.890196       -24.2235
  19   2.0000      -0.828740       -22.5512
  20   2.0000      -0.811747       -22.0888
  21   2.0000      -0.731934       -19.9169
  22   2.0000      -0.702634       -19.1196
  23   2.0000      -0.611810       -16.6482
  24   2.0000      -0.597795       -16.2668
  25   2.0000      -0.530170       -14.4267
  26   2.0000      -0.487555       -13.2670
  27   2.0000      -0.471144       -12.8205
  28   2.0000      -0.437061       -11.8930
  29   2.0000      -0.420955       -11.4548
  30   2.0000      -0.413230       -11.2446
  31   2.0000      -0.395537       -10.7631
  32   2.0000      -0.374901       -10.2016
  33   2.0000      -0.374168       -10.1816
  34   2.0000      -0.339800        -9.2464
  35   2.0000      -0.326526        -8.8852
  36   2.0000      -0.301963        -8.2168
  37   2.0000      -0.294764        -8.0209
  38   2.0000      -0.280579        -7.6350
  39   2.0000      -0.245872        -6.6905
  40   2.0000      -0.215256        -5.8574
  41   0.0000      -0.057216        -1.5569
  42   0.0000      -0.038602        -1.0504
  43   0.0000      -0.015345        -0.4176
  44   0.0000       0.032707         0.8900
  45   0.0000       0.059274         1.6129

MULLIKEN ATOMIC CHARGES
-----------------------
   0 C :   -0.317831
   1 C :   -0.174005
   2 C :    0.081099
   3 C :    0.164263
   4 C :   -0.376179
   5 C :    0.456565
   6 O :   -0.406643
   7 Cl:   -0.105862
   8 Cl:   -0.118657
   9 H :    0.142350
  10 H :    0.165230
  11 H :    0.173973
  12 H :    0.315696
Sum of atomic charges:   -0.0000000

LOEWDIN ATOMIC CHARGES
----------------------
   0 C :   -0.166281
   1 C :   -0.151569
   2 C :   -0.205708
   3 C :   -0.174145
   4 C :   -0.143683
   5 C :    0.186195
   6 O :   -0.482245
   7 Cl:    0.159868
   8 Cl:    0.144372
   9 H :    0.173347
  10 H :    0.181814
  11 H :    0.192923
  12 H :    0.285113

  Mayer bond orders larger than 0.100000
B(  0-C ,  1-C ) :   1.3956 B(  0-C ,  5-C ) :   1.3125 B(  0-C ,  9-H ) :   0.9348
B(  1-C ,  2-C ) :   1.3670 B(  1-C , 10-H ) :   0.9350 B(  2-C ,  3-C ) :   1.2866
B(  2-C ,  8-Cl) :   1.0364 B(  3-C ,  4-C ) :   1.3259 B(  3-C ,  7-Cl) :   1.0320
B(  4-C ,  5-C ) :   1.4019 B(  4-C ,  6-O ) :   0.1163 B(  4-C , 11-H ) :   0.9407
B(  5-C ,  6-O ) :   0.9112 B(  6-O , 12-H ) :   0.8823

Dispersion correction           -0.005283835
FINAL SINGLE POINT ENERGY     -1226.558286327983

DIPOLE MOMENT
-------------

Method             : SCF
Type of density    : Electron Density
Multiplicity       :   1
Irrep              :   0
Energy             : -1226.5592969623658064 Eh
Relativity type    :
Basis              : AO
                                X                 Y                 Z
Electronic contribution:     11.380362010       3.255585197      -0.000009555
Nuclear contribution   :    -12.549248236      -3.964438896       0.000006386
                        -----------------------------------------
Total Dipole Moment    :     -1.168886226      -0.708853700      -0.000003169
                        -----------------------------------------
Magnitude (a.u.)       :      1.367029106
Magnitude (Debye)      :      3.474711848

Rotational constants in cm-1:             0.062914             0.029597             0.020128
Rotational constants in MHz :          1886.112462           887.297360           603.424202

                             ****ORCA TERMINATED NORMALLY****
TOTAL RUN TIME: 0 days 0 hours 0 minutes 26 seconds 86 msec
