                         Program Version 6.0.1  -  RELEASE   -
|  1> ! pbe def2-sv(p) def2/J RI DEFGRID1 loosescf d4 GCP(DFT/SV(P)) printgap
|  2> %output
|  3>     printlevel normal
|  4> end
|  5> * xyz 0 1
|  6> C -2.2536617562 -1.0140032381 0.6970337708
|  7> C -0.8242404822 -0.4337379393 0.8032294056
|  8> H -0.6806609553 -0.0843017105 1.8393848392
|  9> C -0.6301062788 0.753312683 -0.1551238771
| 10> H -0.7836188379 0.3995026279 -1.1815895015
| 11> C 0.802332902 1.3120725863 -0.0489379263
| 12> H 0.8533553025 2.0452634456 0.7664347362
| 13> C 1.8212521777 0.1840235788 0.2699015217
| 14> H 2.7465239453 0.4067460698 -0.2714020707
| 15> C 1.2473667456 -1.1566704738 -0.1993347216
| 16> H 1.9573831122 -1.9722637645 0.0176016072
| 17> O 0.1088024062 -1.4861686246 0.5489546717
| 18> O 0.99643823 -1.0778052013 -1.5715963794
| 19> O 2.1518375549 0.1166152404 1.6313946616
| 20> O 1.1630903523 2.0103441804 -1.2066037675
| 21> O -1.6240354123 1.7268328534 0.0537624451
| 22> O -2.7845897035 -0.9928922011 -0.5961146901
| 23> H -2.9028507161 -0.4686387246 1.3938693234
| 24> H -2.2094771095 -2.0628468584 0.9976783019
| 25> H 0.4952686059 -1.8595648585 -1.8370619944
| 26> H 1.5420527064 -0.4875855752 2.0731541754
| 27> H 1.1772506713 1.3866960671 -1.9441390617
| 28> H -1.3788472851 2.2861039556 0.7995705735
| 29> H -2.9413918288 -0.071998989 -0.8415034201
| 30> *
| 31>
| 32>                          ****END OF INPUT****

CARTESIAN COORDINATES (ANGSTROEM)
---------------------------------
  C     -2.253662   -1.014003    0.697034
  C     -0.824240   -0.433738    0.803229
  H     -0.680661   -0.084302    1.839385
  C     -0.630106    0.753313   -0.155124
  H     -0.783619    0.399503   -1.181590
  C      0.802333    1.312073   -0.048938
  H      0.853355    2.045263    0.766435
  C      1.821252    0.184024    0.269902
  H      2.746524    0.406746   -0.271402
  C      1.247367   -1.156670   -0.199335
  H      1.957383   -1.972264    0.017602
  O      0.108802   -1.486169    0.548955
  O      0.996438   -1.077805   -1.571596
  O      2.151838    0.116615    1.631395
  O      1.163090    2.010344   -1.206604
  O     -1.624035    1.726833    0.053762
  O     -2.784590   -0.992892   -0.596115
  H     -2.902851   -0.468639    1.393869
  H     -2.209477   -2.062847    0.997678
  H      0.495269   -1.859565   -1.837062
  H      1.542053   -0.487586    2.073154
  H      1.177251    1.386696   -1.944139
  H     -1.378847    2.286104    0.799571
  H     -2.941392   -0.071999   -0.841503

 Total Charge           Charge          ....    0
 Multiplicity           Mult            ....    1
 Number of Electrons    NEL             ....   96
 Basis Dimension        Dim             ....  192

ORBITAL ENERGIES
----------------

  NO   OCC          E(Eh)            E(eV)
   0   2.0000     -18.786432      -511.2048
   1   2.0000     -18.780002      -511.0298
   2   2.0000     -18.766002      -510.6489
   3   2.0000     -18.759970      -510.4847
   4   2.0000     -18.751673      -510.2590
   5   2.0000     -18.746157      -510.1089
   6   2.0000      -9.998125      -272.0628
   7   2.0000      -9.952493      -270.8211
   8   2.0000      -9.947379      -270.6819
   9   2.0000      -9.946512      -270.6583
  10   2.0000      -9.944963      -270.6162
  11   2.0000      -9.935757      -270.3657
  12   2.0000      -0.998555       -27.1721
  13   2.0000      -0.949872       -25.8473
  14   2.0000      -0.939959       -25.5776
  15   2.0000      -0.934125       -25.4188
  16   2.0000      -0.924215       -25.1492
  17   2.0000      -0.920907       -25.0592
  18   2.0000      -0.707845       -19.2615
  19   2.0000      -0.695135       -18.9156
  20   2.0000      -0.627072       -17.0635
  21   2.0000      -0.598716       -16.2919
  22   2.0000      -0.572697       -15.5839
  23   2.0000      -0.539446       -14.6791
  24   2.0000      -0.513651       -13.9772
  25   2.0000      -0.501692       -13.6517
  26   2.0000      -0.470041       -12.7905
  27   2.0000      -0.460974       -12.5437
  28   2.0000      -0.448504       -12.2044
  29   2.0000      -0.440964       -11.9992
  30   2.0000      -0.424332       -11.5467
  31   2.0000      -0.404041       -10.9945
  32   2.0000      -0.388139       -10.5618
  33   2.0000      -0.379299       -10.3212
  34   2.0000      -0.373486       -10.1631
  35   2.0000      -0.358917        -9.7666
  36   2.0000      -0.347250        -9.4492
  37   2.0000      -0.323946        -8.8150
  38   2.0000      -0.303655        -8.2629
  39   2.0000      -0.294392        -8.0108
  40   2.0000      -0.288011        -7.8372
  41   2.0000      -0.282729        -7.6934
  42   2.0000      -0.265037        -7.2120
  43   2.0000      -0.254200        -6.9171
  44   2.0000      -0.243354        -6.6220
  45   2.0000      -0.229070        -6.2333
  46   2.0000      -0.221049        -6.0151
  47   2.0000      -0.203809        -5.5459
  48   0.0000       0.010967         0.2984
  49   0.0000       0.015957         0.4342
  50   0.0000       0.026790         0.7290
  51   0.0000       0.043858         1.1934
  52   0.0000       0.065889         1.7929

MULLIKEN ATOMIC CHARGES
-----------------------
   0 C :    0.081683
   1 C :   -0.002196
   2 H :    0.038452
   3 C :    0.043089
   4 H :    0.052636
   5 C :    0.090796
   6 H :    0.053909
   7 C :    0.031280
   8 H :    0.085213
   9 C :    0.126824
  10 H :    0.077917
  11 O :   -0.311467
  12 O :   -0.396136
  13 O :   -0.411929
  14 O :   -0.417319
  15 O :   -0.413685
  16 O :   -0.433635
  17 H :    0.072530
  18 H :    0.091682
  19 H :    0.313041
  20 H :    0.307404
  21 H :    0.303674
  22 H :    0.303070
  23 H :    0.313164
Sum of atomic charges:   -0.0000000

LOEWDIN ATOMIC CHARGES
----------------------
   0 C :   -0.125905
   1 C :   -0.083845
   2 H :    0.095113
   3 C :   -0.097198
   4 H :    0.113476
   5 C :   -0.073780
   6 H :    0.114165
   7 C :   -0.084455
   8 H :    0.123321
   9 C :   -0.013906
  10 H :    0.101311
  11 O :   -0.147433
  12 O :   -0.311822
  13 O :   -0.307826
  14 O :   -0.309126
  15 O :   -0.312583
  16 O :   -0.328621
  17 H :    0.099717
  18 H :    0.119529
  19 H :    0.292422
  20 H :    0.282112
  21 H :    0.282323
  22 H :    0.286916
  23 H :    0.286095

  Mayer bond orders larger than 0.100000
B(  0-C ,  1-C ) :   0.9978 B(  0-C , 16-O ) :   1.1094 B(  0-C , 17-H ) :   0.9164
B(  0-C , 18-H ) :   0.9216 B(  1-C ,  2-H ) :   0.8728 B(  1-C ,  3-C ) :   1.0157
B(  1-C , 11-O ) :   0.9504 B(  3-C ,  4-H ) :   0.8141 B(  3-C ,  5-C ) :   1.0454
B(  3-C , 15-O ) :   1.0198 B(  5-C ,  6-H ) :   0.8606 B(  5-C ,  7-C ) :   0.9526
B(  5-C , 14-O ) :   1.0516 B(  7-C ,  8-H ) :   0.8813 B(  7-C ,  9-C ) :   1.0539
B(  7-C , 13-O ) :   1.0619 B(  9-C , 10-H ) :   0.8978 B(  9-C , 11-O ) :   1.0571
B(  9-C , 12-O ) :   1.1075 B( 12-O , 19-H ) :   0.8329 B( 13-O , 20-H ) :   0.8352
B( 14-O , 21-H ) :   0.8426 B( 15-O , 22-H ) :   0.8458 B( 16-O , 23-H ) :   0.8327

Dispersion correction           -0.025340190
FINAL SINGLE POINT ENERGY      -685.689680207160

DIPOLE MOMENT
-------------

Method             : SCF
Type of density    : Electron Density
Multiplicity       :   1
Irrep              :   0
Energy             :  -685.8223041803529441 Eh
Relativity type    :
Basis              : AO
                                X                 Y                 Z
Electronic contribution:      1.779837270       0.042062898      -1.342931816
Nuclear contribution   :     -1.993452114      -0.448632576       1.683070388
                        -----------------------------------------
Total Dipole Moment    :     -0.213614844      -0.406569677       0.340138572
                        -----------------------------------------
Magnitude (a.u.)       :      0.571510675
Magnitude (Debye)      :      1.452664691

Rotational constants in cm-1:             0.041512             0.027267             0.023106
Rotational constants in MHz :          1244.484972           817.450628           692.714901

                             ****ORCA TERMINATED NORMALLY****
TOTAL RUN TIME: 0 days 0 hours 0 minutes 9 seconds 601 msec
