                         Program Version 6.0.1  -  RELEASE   -
|  1> ! pbe def2-sv(p) def2/J RI DEFGRID1 loosescf d4 GCP(DFT/SV(P)) printgap
|  2> %output
|  3>     printlevel normal
|  4> end
|  5> * xyz 0 1
|  6> C -1.8544703235 0.0926691839 1.1203626531
|  7> O -1.2528147171 0.0520542141 -0.1550866388
|  8> S 0.3558297026 0.0824134324 -0.1984538602
|  9> O 0.8369702641 0.8150710992 0.933081269
| 10> O 0.7202050046 0.5013456816 -1.5079814445
| 11> C 0.7871598163 -1.6634219669 0.0082138537
| 12> H -2.0584788942 -0.9209831417 1.477222165
| 13> H -2.7906122712 0.6422064826 1.0275084351
| 14> H -1.1878625011 0.6046838743 1.8170509129
| 15> H 1.457966067 -1.7392284583 0.8527579279
| 16> H -0.12004249 -2.2251928207 0.1805782882
| 17> H 1.2681143535 -1.9876172992 -0.9038335039
| 18> *
| 19>
| 20>                          ****END OF INPUT****

CARTESIAN COORDINATES (ANGSTROEM)
---------------------------------
  C     -1.854470    0.092669    1.120363
  O     -1.252815    0.052054   -0.155087
  S      0.355830    0.082413   -0.198454
  O      0.836970    0.815071    0.933081
  O      0.720205    0.501346   -1.507981
  C      0.787160   -1.663422    0.008214
  H     -2.058479   -0.920983    1.477222
  H     -2.790612    0.642206    1.027508
  H     -1.187863    0.604684    1.817051
  H      1.457966   -1.739228    0.852758
  H     -0.120042   -2.225193    0.180578
  H      1.268114   -1.987617   -0.903834

 Total Charge           Charge          ....    0
 Multiplicity           Mult            ....    1
 Number of Electrons    NEL             ....   58
 Basis Dimension        Dim             ....  100

ORBITAL ENERGIES
----------------

  NO   OCC          E(Eh)            E(eV)
   0   2.0000     -88.254801     -2401.5352
   1   2.0000     -18.807001      -511.7645
   2   2.0000     -18.749548      -510.2011
   3   2.0000     -18.746717      -510.1241
   4   2.0000      -9.951952      -270.8064
   5   2.0000      -9.926325      -270.1090
   6   2.0000      -7.869102      -214.1291
   7   2.0000      -5.897540      -160.4802
   8   2.0000      -5.894417      -160.3952
   9   2.0000      -5.893283      -160.3644
  10   2.0000      -1.062051       -28.8999
  11   2.0000      -0.956868       -26.0377
  12   2.0000      -0.922594       -25.1051
  13   2.0000      -0.709974       -19.3194
  14   2.0000      -0.662848       -18.0370
  15   2.0000      -0.545282       -14.8379
  16   2.0000      -0.492101       -13.3907
  17   2.0000      -0.450943       -12.2708
  18   2.0000      -0.444166       -12.0864
  19   2.0000      -0.422727       -11.5030
  20   2.0000      -0.413010       -11.2386
  21   2.0000      -0.402006       -10.9391
  22   2.0000      -0.380187       -10.3454
  23   2.0000      -0.334987        -9.1155
  24   2.0000      -0.306815        -8.3488
  25   2.0000      -0.276826        -7.5328
  26   2.0000      -0.273920        -7.4537
  27   2.0000      -0.272684        -7.4201
  28   2.0000      -0.259115        -7.0509
  29   0.0000       0.016696         0.4543
  30   0.0000       0.022773         0.6197
  31   0.0000       0.044695         1.2162
  32   0.0000       0.051020         1.3883
  33   0.0000       0.074031         2.0145

MULLIKEN ATOMIC CHARGES
-----------------------
   0 C :   -0.144912
   1 O :   -0.389838
   2 S :    0.778757
   3 O :   -0.397620
   4 O :   -0.376392
   5 C :   -0.341672
   6 H :    0.109555
   7 H :    0.136007
   8 H :    0.143460
   9 H :    0.162426
  10 H :    0.154028
  11 H :    0.166199
Sum of atomic charges:   -0.0000000

LOEWDIN ATOMIC CHARGES
----------------------
   0 C :   -0.238210
   1 O :   -0.287812
   2 S :    1.109408
   3 O :   -0.454557
   4 O :   -0.439457
   5 C :   -0.479734
   6 H :    0.105624
   7 H :    0.127379
   8 H :    0.119457
   9 H :    0.146453
  10 H :    0.142186
  11 H :    0.149262

  Mayer bond orders larger than 0.100000
B(  0-C ,  1-O ) :   0.9391 B(  0-C ,  6-H ) :   0.9482 B(  0-C ,  7-H ) :   0.9556
B(  0-C ,  8-H ) :   0.9291 B(  1-O ,  2-S ) :   0.9459 B(  2-S ,  3-O ) :   1.7519
B(  2-S ,  4-O ) :   1.8347 B(  2-S ,  5-C ) :   0.9050 B(  5-C ,  9-H ) :   0.9341
B(  5-C , 10-H ) :   0.9362 B(  5-C , 11-H ) :   0.9347

Dispersion correction           -0.010174805
FINAL SINGLE POINT ENERGY      -702.671894160091

DIPOLE MOMENT
-------------

Method             : SCF
Type of density    : Electron Density
Multiplicity       :   1
Irrep              :   0
Energy             :  -702.7222257735531912 Eh
Relativity type    :
Basis              : AO
                                X                 Y                 Z
Electronic contribution:      2.623777436       3.997131998      -3.419193541
Nuclear contribution   :     -3.224580134      -5.260393951       4.171001203
                        -----------------------------------------
Total Dipole Moment    :     -0.600802698      -1.263261952       0.751807661
                        -----------------------------------------
Magnitude (a.u.)       :      1.588083563
Magnitude (Debye)      :      4.036587623

Rotational constants in cm-1:             0.147262             0.088885             0.084450
Rotational constants in MHz :          4414.789394          2664.695070          2531.747362

                             ****ORCA TERMINATED NORMALLY****
TOTAL RUN TIME: 0 days 0 hours 0 minutes 4 seconds 25 msec
