                         Program Version 6.0.1  -  RELEASE   -
|  1> ! r2scan-3c def2/J RI DEFGRID2 scfconv6 printgap
|  2> %output
|  3>     printlevel normal
|  4> end
|  5> * xyz 0 1
|  6> C -2.0267997325 -0.5962829052 -0.6639148924
|  7> C -1.203062859 -0.0643846051 0.5369153028
|  8> H -1.853927 0.0174150097 1.4163003428
|  9> C -0.6257728824 1.332906962 0.2686926325
| 10> H -1.3643297121 1.8997529837 -0.3194897728
| 11> C 0.698027219 1.2897721721 -0.5365982213
| 12> H 1.1578671533 2.2877812209 -0.4729859632
| 13> C 1.6580718487 0.2686187564 0.1013655441
| 14> H 2.5436328999 0.1560616118 -0.531968957
| 15> C 0.9416556473 -1.0940120848 0.1912485915
| 16> H 1.5712961236 -1.7977163482 0.7606749516
| 17> O -0.2279599548 -1.0081024034 0.9552641544
| 18> O 0.7170754495 -1.5739123569 -1.1061614123
| 19> O 2.1056955302 0.6803950343 1.3600422208
| 20> O 0.4727318292 1.0347280206 -1.8948312783
| 21> O -0.4329997106 1.9363204952 1.5319047904
| 22> O -2.0197218554 -2.0040529103 -0.7085937407
| 23> H -1.6036363538 -0.2627395069 -1.6128846767
| 24> H -3.0524161926 -0.2131022777 -0.5865171168
| 25> H -0.0766319247 -2.1394647478 -1.089531999
| 26> H 1.3295928095 0.7921084926 1.9318053977
| 27> H 0.557293423 0.0753276619 -2.0342021691
| 28> H -0.0585576537 2.8168387127 1.4101538455
| 29> H -2.2616687608 -2.3409612886 0.1629794243
| 30> *
| 31>
| 32>                          ****END OF INPUT****

CARTESIAN COORDINATES (ANGSTROEM)
---------------------------------
  C     -2.026800   -0.596283   -0.663915
  C     -1.203063   -0.064385    0.536915
  H     -1.853927    0.017415    1.416300
  C     -0.625773    1.332907    0.268693
  H     -1.364330    1.899753   -0.319490
  C      0.698027    1.289772   -0.536598
  H      1.157867    2.287781   -0.472986
  C      1.658072    0.268619    0.101366
  H      2.543633    0.156062   -0.531969
  C      0.941656   -1.094012    0.191249
  H      1.571296   -1.797716    0.760675
  O     -0.227960   -1.008102    0.955264
  O      0.717075   -1.573912   -1.106161
  O      2.105696    0.680395    1.360042
  O      0.472732    1.034728   -1.894831
  O     -0.433000    1.936320    1.531905
  O     -2.019722   -2.004053   -0.708594
  H     -1.603636   -0.262740   -1.612885
  H     -3.052416   -0.213102   -0.586517
  H     -0.076632   -2.139465   -1.089532
  H      1.329593    0.792108    1.931805
  H      0.557293    0.075328   -2.034202
  H     -0.058558    2.816839    1.410154
  H     -2.261669   -2.340961    0.162979

 Total Charge           Charge          ....    0
 Multiplicity           Mult            ....    1
 Number of Electrons    NEL             ....   96
 Basis Dimension        Dim             ....  318

ORBITAL ENERGIES
----------------

  NO   OCC          E(Eh)            E(eV)
   0   2.0000     -18.979790      -516.4663
   1   2.0000     -18.979593      -516.4610
   2   2.0000     -18.976431      -516.3749
   3   2.0000     -18.969813      -516.1949
   4   2.0000     -18.951449      -515.6951
   5   2.0000     -18.949101      -515.6312
   6   2.0000     -10.139178      -275.9011
   7   2.0000     -10.104221      -274.9498
   8   2.0000     -10.102090      -274.8919
   9   2.0000     -10.095117      -274.7021
  10   2.0000     -10.093641      -274.6619
  11   2.0000     -10.089758      -274.5563
  12   2.0000      -1.061857       -28.8946
  13   2.0000      -1.018899       -27.7257
  14   2.0000      -1.014066       -27.5941
  15   2.0000      -0.996488       -27.1158
  16   2.0000      -0.991780       -26.9877
  17   2.0000      -0.981971       -26.7208
  18   2.0000      -0.760106       -20.6835
  19   2.0000      -0.732800       -19.9405
  20   2.0000      -0.669611       -18.2210
  21   2.0000      -0.626307       -17.0427
  22   2.0000      -0.622245       -16.9322
  23   2.0000      -0.554336       -15.0843
  24   2.0000      -0.533061       -14.5053
  25   2.0000      -0.513275       -13.9669
  26   2.0000      -0.499910       -13.6032
  27   2.0000      -0.483324       -13.1519
  28   2.0000      -0.465002       -12.6533
  29   2.0000      -0.454558       -12.3692
  30   2.0000      -0.442114       -12.0305
  31   2.0000      -0.430377       -11.7112
  32   2.0000      -0.425243       -11.5715
  33   2.0000      -0.404569       -11.0089
  34   2.0000      -0.386572       -10.5191
  35   2.0000      -0.383807       -10.4439
  36   2.0000      -0.370230       -10.0745
  37   2.0000      -0.354614        -9.6495
  38   2.0000      -0.344025        -9.3614
  39   2.0000      -0.328094        -8.9279
  40   2.0000      -0.306498        -8.3402
  41   2.0000      -0.297826        -8.1043
  42   2.0000      -0.280168        -7.6238
  43   2.0000      -0.275006        -7.4833
  44   2.0000      -0.267467        -7.2781
  45   2.0000      -0.260313        -7.0835
  46   2.0000      -0.235416        -6.4060
  47   2.0000      -0.221789        -6.0352
  48   0.0000       0.028521         0.7761
  49   0.0000       0.037242         1.0134
  50   0.0000       0.059433         1.6172
  51   0.0000       0.073194         1.9917
  52   0.0000       0.078413         2.1337

MULLIKEN ATOMIC CHARGES
-----------------------
   0 C :   -0.213223
   1 C :   -0.021585
   2 H :    0.162075
   3 C :   -0.057306
   4 H :    0.157983
   5 C :   -0.074406
   6 H :    0.163009
   7 C :   -0.060826
   8 H :    0.170081
   9 C :    0.013088
  10 H :    0.144399
  11 O :   -0.238110
  12 O :   -0.430843
  13 O :   -0.407039
  14 O :   -0.404628
  15 O :   -0.426196
  16 O :   -0.433567
  17 H :    0.185483
  18 H :    0.142934
  19 H :    0.339879
  20 H :    0.338685
  21 H :    0.336916
  22 H :    0.300371
  23 H :    0.312827
Sum of atomic charges:    0.0000000

LOEWDIN ATOMIC CHARGES
----------------------
   0 C :    0.022560
   1 C :    0.109738
   2 H :    0.205334
   3 C :    0.108728
   4 H :    0.185967
   5 C :    0.105333
   6 H :    0.190027
   7 C :    0.121135
   8 H :    0.202208
   9 C :    0.296023
  10 H :    0.203596
  11 O :   -0.657654
  12 O :   -0.539521
  13 O :   -0.556090
  14 O :   -0.583111
  15 O :   -0.593673
  16 O :   -0.598718
  17 H :    0.197029
  18 H :    0.168658
  19 H :    0.294670
  20 H :    0.285009
  21 H :    0.284485
  22 H :    0.273909
  23 H :    0.274359

  Mayer bond orders larger than 0.100000
B(  0-C ,  1-C ) :   0.8731 B(  0-C , 16-O ) :   0.9534 B(  0-C , 17-H ) :   0.9647
B(  0-C , 18-H ) :   0.9612 B(  1-C ,  2-H ) :   0.9321 B(  1-C ,  3-C ) :   0.9482
B(  1-C , 11-O ) :   0.9862 B(  3-C ,  4-H ) :   0.9604 B(  3-C ,  5-C ) :   0.8305
B(  3-C , 15-O ) :   0.9017 B(  5-C ,  6-H ) :   1.0023 B(  5-C ,  7-C ) :   0.8429
B(  5-C , 14-O ) :   0.9874 B(  7-C ,  8-H ) :   0.9714 B(  7-C ,  9-C ) :   0.9200
B(  7-C , 13-O ) :   1.0106 B(  9-C , 10-H ) :   0.9479 B(  9-C , 11-O ) :   0.9760
B(  9-C , 12-O ) :   0.9074 B( 12-O , 19-H ) :   0.8269 B( 13-O , 20-H ) :   0.8329
B( 14-O , 21-H ) :   0.8197 B( 15-O , 22-H ) :   0.8954 B( 16-O , 23-H ) :   0.8842

Dispersion correction           -0.008853065
FINAL SINGLE POINT ENERGY      -687.074833993611

DIPOLE MOMENT
-------------

Method             : SCF
Type of density    : Electron Density
Multiplicity       :   1
Irrep              :   0
Energy             :  -687.0881767558383899 Eh
Relativity type    :
Basis              : AO
                                X                 Y                 Z
Electronic contribution:      1.951364881      -1.069716799       1.255395879
Nuclear contribution   :     -2.909994162       1.197614522      -0.903920795
                        -----------------------------------------
Total Dipole Moment    :     -0.958629281       0.127897724       0.351475085
                        -----------------------------------------
Magnitude (a.u.)       :      1.029010525
Magnitude (Debye)      :      2.615536895

Rotational constants in cm-1:             0.043019             0.029453             0.026337
Rotational constants in MHz :          1289.677517           882.963928           789.557196

                             ****ORCA TERMINATED NORMALLY****
TOTAL RUN TIME: 0 days 0 hours 0 minutes 39 seconds 954 msec
