                         Program Version 6.0.1  -  RELEASE   -
|  1> ! r2scan-3c def2/J RI DEFGRID2 scfconv6 printgap
|  2> %output
|  3>     printlevel normal
|  4> end
|  5> * xyz 0 1
|  6> C -2.1947289262 0.1583988039 0.636575556
|  7> C -1.3958894678 -0.2973926937 -0.576008941
|  8> O -0.1046638655 -0.7792833933 -0.1995854851
|  9> C 0.8635875787 0.1287014964 -0.0325472528
| 10> O 0.712870181 1.3109359772 -0.1891221499
| 11> C 2.1600316831 -0.5385274366 0.3466248474
| 12> H -3.1902577338 0.4605593187 0.3244908202
| 13> H -2.2779143734 -0.6505582293 1.358476951
| 14> H -1.701337703 1.0047174934 1.1081142523
| 15> H -1.2727700517 0.531701701 -1.2805978546
| 16> H -1.8797841767 -1.1408858198 -1.0728299013
| 17> H 2.810258856 0.1786801526 0.8380106603
| 18> H 2.6466080138 -0.8922766563 -0.5603786079
| 19> H 1.9673803735 -1.391181311 0.9904754971
| 20> *
| 21>
| 22>                          ****END OF INPUT****

CARTESIAN COORDINATES (ANGSTROEM)
---------------------------------
  C     -2.194729    0.158399    0.636576
  C     -1.395889   -0.297393   -0.576009
  O     -0.104664   -0.779283   -0.199585
  C      0.863588    0.128701   -0.032547
  O      0.712870    1.310936   -0.189122
  C      2.160032   -0.538527    0.346625
  H     -3.190258    0.460559    0.324491
  H     -2.277914   -0.650558    1.358477
  H     -1.701338    1.004717    1.108114
  H     -1.272770    0.531702   -1.280598
  H     -1.879784   -1.140886   -1.072830
  H      2.810259    0.178680    0.838011
  H      2.646608   -0.892277   -0.560379
  H      1.967380   -1.391181    0.990475

 Total Charge           Charge          ....    0
 Multiplicity           Mult            ....    1
 Number of Electrons    NEL             ....   48
 Basis Dimension        Dim             ....  164

ORBITAL ENERGIES
----------------

  NO   OCC          E(Eh)            E(eV)
   0   2.0000     -18.996019      -516.9079
   1   2.0000     -18.931549      -515.1536
   2   2.0000     -10.156100      -276.3615
   3   2.0000     -10.089857      -274.5590
   4   2.0000     -10.039203      -273.1806
   5   2.0000     -10.027376      -272.8588
   6   2.0000      -1.072592       -29.1867
   7   2.0000      -0.982750       -26.7420
   8   2.0000      -0.752319       -20.4716
   9   2.0000      -0.704454       -19.1692
  10   2.0000      -0.620405       -16.8821
  11   2.0000      -0.523956       -14.2576
  12   2.0000      -0.470655       -12.8072
  13   2.0000      -0.451628       -12.2894
  14   2.0000      -0.441345       -12.0096
  15   2.0000      -0.403829       -10.9887
  16   2.0000      -0.395789       -10.7700
  17   2.0000      -0.377521       -10.2729
  18   2.0000      -0.366594        -9.9755
  19   2.0000      -0.343830        -9.3561
  20   2.0000      -0.335545        -9.1307
  21   2.0000      -0.307783        -8.3752
  22   2.0000      -0.272838        -7.4243
  23   2.0000      -0.239836        -6.5263
  24   0.0000      -0.013556        -0.3689
  25   0.0000       0.078079         2.1246
  26   0.0000       0.094955         2.5839
  27   0.0000       0.123694         3.3659
  28   0.0000       0.125990         3.4284

MULLIKEN ATOMIC CHARGES
-----------------------
   0 C :   -0.469909
   1 C :   -0.132618
   2 O :   -0.177395
   3 C :    0.430403
   4 O :   -0.424984
   5 C :   -0.519048
   6 H :    0.146049
   7 H :    0.150241
   8 H :    0.173783
   9 H :    0.163042
  10 H :    0.146947
  11 H :    0.173688
  12 H :    0.172091
  13 H :    0.167710
Sum of atomic charges:    0.0000000

LOEWDIN ATOMIC CHARGES
----------------------
   0 C :   -0.391409
   1 C :    0.024506
   2 O :   -0.599771
   3 C :    0.353187
   4 O :   -0.424102
   5 C :   -0.337838
   6 H :    0.158913
   7 H :    0.156439
   8 H :    0.165943
   9 H :    0.186760
  10 H :    0.177197
  11 H :    0.174154
  12 H :    0.180653
  13 H :    0.175368

  Mayer bond orders larger than 0.100000
B(  0-C ,  1-C ) :   0.9349 B(  0-C ,  6-H ) :   0.9652 B(  0-C ,  7-H ) :   0.9734
B(  0-C ,  8-H ) :   0.9717 B(  1-C ,  2-O ) :   0.8350 B(  1-C ,  9-H ) :   0.9675
B(  1-C , 10-H ) :   0.9604 B(  2-O ,  3-C ) :   1.0444 B(  3-C ,  4-O ) :   1.8461
B(  3-C ,  5-C ) :   0.9538 B(  5-C , 11-H ) :   0.9819 B(  5-C , 12-H ) :   0.9377
B(  5-C , 13-H ) :   0.9699

Dispersion correction           -0.002990382
FINAL SINGLE POINT ENERGY      -307.638135470770

DIPOLE MOMENT
-------------

Method             : SCF
Type of density    : Electron Density
Multiplicity       :   1
Irrep              :   0
Energy             :  -307.6443022575347186 Eh
Relativity type    :
Basis              : AO
                                X                 Y                 Z
Electronic contribution:      2.497480606       1.067484437      -1.534049674
Nuclear contribution   :     -2.709622843      -1.773928122       1.594528910
                        -----------------------------------------
Total Dipole Moment    :     -0.212142238      -0.706443685       0.060479236
                        -----------------------------------------
Magnitude (a.u.)       :      0.740084284
Magnitude (Debye)      :      1.881144753

Rotational constants in cm-1:             0.248475             0.077817             0.068698
Rotational constants in MHz :          7449.098725          2332.881148          2059.513421

                             ****ORCA TERMINATED NORMALLY****
TOTAL RUN TIME: 0 days 0 hours 0 minutes 27 seconds 69 msec
