                         Program Version 6.0.1  -  RELEASE   -
|  1> ! pbe def2-sv(p) def2/J RI DEFGRID1 loosescf d4 GCP(DFT/SV(P)) printgap
|  2> %output
|  3>     printlevel normal
|  4> end
|  5> * xyz 0 1
|  6> C -2.3653728818 0.1123584797 0.1438568072
|  7> C -0.9220339048 0.4188271455 -0.237792567
|  8> C 0.0025334346 -0.717383117 0.0828452677
|  9> C 1.3222082435 -0.6179499664 0.1368544991
| 10> C 2.0793381643 0.649924861 -0.1108256337
| 11> H -3.0121509862 0.953495762 -0.096393813
| 12> H -2.4419058212 -0.0854006051 1.211000619
| 13> H -2.7261331291 -0.7617564966 -0.3942627286
| 14> H -0.8682705759 0.632257908 -1.3111352599
| 15> H -0.5880757854 1.3199355915 0.2835392185
| 16> H -0.4713565368 -1.6714824909 0.268638721
| 17> H 1.9133838312 -1.4906958369 0.3769518676
| 18> H 1.7732378731 1.1034155584 -1.0528842297
| 19> H 3.1492330088 0.4644207373 -0.144618948
| 20> H 1.8816620194 1.3736584827 0.6811460965
| 21> *
| 22>
| 23>                          ****END OF INPUT****

CARTESIAN COORDINATES (ANGSTROEM)
---------------------------------
  C     -2.365373    0.112358    0.143857
  C     -0.922034    0.418827   -0.237793
  C      0.002533   -0.717383    0.082845
  C      1.322208   -0.617950    0.136854
  C      2.079338    0.649925   -0.110826
  H     -3.012151    0.953496   -0.096394
  H     -2.441906   -0.085401    1.211001
  H     -2.726133   -0.761756   -0.394263
  H     -0.868271    0.632258   -1.311135
  H     -0.588076    1.319936    0.283539
  H     -0.471357   -1.671482    0.268639
  H      1.913384   -1.490696    0.376952
  H      1.773238    1.103416   -1.052884
  H      3.149233    0.464421   -0.144619
  H      1.881662    1.373658    0.681146

 Total Charge           Charge          ....    0
 Multiplicity           Mult            ....    1
 Number of Electrons    NEL             ....   40
 Basis Dimension        Dim             ....   90

ORBITAL ENERGIES
----------------

  NO   OCC          E(Eh)            E(eV)
   0   2.0000      -9.885533      -268.9990
   1   2.0000      -9.878702      -268.8132
   2   2.0000      -9.876866      -268.7632
   3   2.0000      -9.876179      -268.7445
   4   2.0000      -9.873731      -268.6779
   5   2.0000      -0.723623       -19.6908
   6   2.0000      -0.672640       -18.3035
   7   2.0000      -0.604183       -16.4407
   8   2.0000      -0.545817       -14.8524
   9   2.0000      -0.468008       -12.7352
  10   2.0000      -0.420053       -11.4302
  11   2.0000      -0.399107       -10.8603
  12   2.0000      -0.380936       -10.3658
  13   2.0000      -0.363650        -9.8954
  14   2.0000      -0.334088        -9.0910
  15   2.0000      -0.325024        -8.8443
  16   2.0000      -0.310036        -8.4365
  17   2.0000      -0.302726        -8.2376
  18   2.0000      -0.280142        -7.6230
  19   2.0000      -0.207525        -5.6471
  20   0.0000      -0.009405        -0.2559
  21   0.0000       0.043907         1.1948
  22   0.0000       0.062338         1.6963
  23   0.0000       0.066469         1.8087
  24   0.0000       0.086361         2.3500

MULLIKEN ATOMIC CHARGES
-----------------------
   0 C :   -0.285552
   1 C :   -0.138698
   2 C :   -0.145604
   3 C :   -0.163381
   4 C :   -0.234556
   5 H :    0.100975
   6 H :    0.104721
   7 H :    0.103318
   8 H :    0.103541
   9 H :    0.094761
  10 H :    0.059369
  11 H :    0.065032
  12 H :    0.114393
  13 H :    0.103300
  14 H :    0.118383
Sum of atomic charges:   -0.0000000

LOEWDIN ATOMIC CHARGES
----------------------
   0 C :   -0.338425
   1 C :   -0.234091
   2 C :   -0.153007
   3 C :   -0.156056
   4 C :   -0.340971
   5 H :    0.118514
   6 H :    0.118989
   7 H :    0.118011
   8 H :    0.126629
   9 H :    0.122336
  10 H :    0.117494
  11 H :    0.117741
  12 H :    0.127988
  13 H :    0.124055
  14 H :    0.130791

  Mayer bond orders larger than 0.100000
B(  0-C ,  1-C ) :   1.1453 B(  0-C ,  5-H ) :   0.9528 B(  0-C ,  6-H ) :   0.9594
B(  0-C ,  7-H ) :   0.9548 B(  1-C ,  2-C ) :   1.0767 B(  1-C ,  8-H ) :   0.9071
B(  1-C ,  9-H ) :   0.9087 B(  2-C ,  3-C ) :   1.9864 B(  2-C , 10-H ) :   0.9422
B(  3-C ,  4-C ) :   1.1181 B(  3-C , 11-H ) :   0.9368 B(  4-C , 12-H ) :   0.9359
B(  4-C , 13-H ) :   0.9477 B(  4-C , 14-H ) :   0.9329

Dispersion correction           -0.009758647
FINAL SINGLE POINT ENERGY      -196.028312663133

DIPOLE MOMENT
-------------

Method             : SCF
Type of density    : Electron Density
Multiplicity       :   1
Irrep              :   0
Energy             :  -196.0764805093556902 Eh
Relativity type    :
Basis              : AO
                                X                 Y                 Z
Electronic contribution:      1.311775632      -1.595204792       0.130718136
Nuclear contribution   :     -1.304399470       1.724201639      -0.167010336
                        -----------------------------------------
Total Dipole Moment    :      0.007376162       0.128996847      -0.036292201
                        -----------------------------------------
Magnitude (a.u.)       :      0.134207742
Magnitude (Debye)      :      0.341128971

Rotational constants in cm-1:             0.458352             0.084164             0.074562
Rotational constants in MHz :         13741.036523          2523.171079          2235.317223

                             ****ORCA TERMINATED NORMALLY****
TOTAL RUN TIME: 0 days 0 hours 0 minutes 19 seconds 582 msec
