                         Program Version 6.0.1  -  RELEASE   -
|  1> ! r2scan-3c def2/J RI DEFGRID2 scfconv6 printgap
|  2> %output
|  3>     printlevel normal
|  4> end
|  5> * xyz 0 1
|  6> C -2.5306814032 0.8715419312 0.8810979568
|  7> C -1.4505620965 0.3638679874 -0.0778270474
|  8> C -1.9734587849 -0.8750257204 -0.8011552287
|  9> C -0.1671933614 0.1104833257 0.7273982535
| 10> C 1.1755825826 -0.0676498611 -0.0132975704
| 11> C 1.3205756896 -1.4587658066 -0.6353400562
| 12> C 1.3653950168 0.9981449147 -1.0943338334
| 13> C 2.2878016556 0.0944587132 1.0328825851
| 14> H -2.7405079794 0.125330867 1.6448442636
| 15> H -2.2133436279 1.787447021 1.3750529324
| 16> H -3.4533943657 1.0785550314 0.3432508881
| 17> H -1.2649450223 1.1496205609 -0.8156099357
| 18> H -2.969738808 -0.683207062 -1.1955445851
| 19> H -1.3367847693 -1.1517898598 -1.6354306827
| 20> H -2.0345506932 -1.7188353191 -0.1172677782
| 21> H -0.0440380977 0.9686540939 1.393947515
| 22> H -0.3271697959 -0.7651480554 1.3620068089
| 23> H 1.1110864973 -2.2324713195 0.0997970765
| 24> H 2.3379282611 -1.5990620853 -0.9962097875
| 25> H 0.6497662335 -1.5935673091 -1.4773345911
| 26> H 0.6776373815 0.8452109278 -1.9219633749
| 27> H 2.3787055193 0.9531346602 -1.4880282405
| 28> H 1.2023674836 1.9927369868 -0.6850466537
| 29> H 3.2647911331 -0.0614621808 0.5804097656
| 30> H 2.1649226144 -0.6292021549 1.8359361903
| 31> H 2.2700395056 1.0924702985 1.4657045387
| 32> *
| 33>
| 34>                          ****END OF INPUT****

CARTESIAN COORDINATES (ANGSTROEM)
---------------------------------
  C     -2.530681    0.871542    0.881098
  C     -1.450562    0.363868   -0.077827
  C     -1.973459   -0.875026   -0.801155
  C     -0.167193    0.110483    0.727398
  C      1.175583   -0.067650   -0.013298
  C      1.320576   -1.458766   -0.635340
  C      1.365395    0.998145   -1.094334
  C      2.287802    0.094459    1.032883
  H     -2.740508    0.125331    1.644844
  H     -2.213344    1.787447    1.375053
  H     -3.453394    1.078555    0.343251
  H     -1.264945    1.149621   -0.815610
  H     -2.969739   -0.683207   -1.195545
  H     -1.336785   -1.151790   -1.635431
  H     -2.034551   -1.718835   -0.117268
  H     -0.044038    0.968654    1.393948
  H     -0.327170   -0.765148    1.362007
  H      1.111086   -2.232471    0.099797
  H      2.337928   -1.599062   -0.996210
  H      0.649766   -1.593567   -1.477335
  H      0.677637    0.845211   -1.921963
  H      2.378706    0.953135   -1.488028
  H      1.202367    1.992737   -0.685047
  H      3.264791   -0.061462    0.580410
  H      2.164923   -0.629202    1.835936
  H      2.270040    1.092470    1.465705

 Total Charge           Charge          ....    0
 Multiplicity           Mult            ....    1
 Number of Electrons    NEL             ....   66
 Basis Dimension        Dim             ....  242

ORBITAL ENERGIES
----------------

  NO   OCC          E(Eh)            E(eV)
   0   2.0000     -10.039329      -273.1840
   1   2.0000     -10.029926      -272.9282
   2   2.0000     -10.017585      -272.5924
   3   2.0000     -10.012499      -272.4540
   4   2.0000     -10.012314      -272.4489
   5   2.0000     -10.012010      -272.4407
   6   2.0000     -10.011436      -272.4250
   7   2.0000     -10.010553      -272.4010
   8   2.0000      -0.795225       -21.6392
   9   2.0000      -0.752576       -20.4786
  10   2.0000      -0.653841       -17.7919
  11   2.0000      -0.650150       -17.6915
  12   2.0000      -0.642739       -17.4898
  13   2.0000      -0.639236       -17.3945
  14   2.0000      -0.533775       -14.5247
  15   2.0000      -0.494231       -13.4487
  16   2.0000      -0.439216       -11.9517
  17   2.0000      -0.421779       -11.4772
  18   2.0000      -0.416043       -11.3211
  19   2.0000      -0.399869       -10.8810
  20   2.0000      -0.384074       -10.4512
  21   2.0000      -0.372185       -10.1277
  22   2.0000      -0.357920        -9.7395
  23   2.0000      -0.353934        -9.6310
  24   2.0000      -0.346243        -9.4217
  25   2.0000      -0.331094        -9.0095
  26   2.0000      -0.326511        -8.8848
  27   2.0000      -0.316556        -8.6139
  28   2.0000      -0.299302        -8.1444
  29   2.0000      -0.296479        -8.0676
  30   2.0000      -0.283072        -7.7028
  31   2.0000      -0.276600        -7.5267
  32   2.0000      -0.267036        -7.2664
  33   0.0000       0.072669         1.9774
  34   0.0000       0.100726         2.7409
  35   0.0000       0.113295         3.0829
  36   0.0000       0.120923         3.2905
  37   0.0000       0.124752         3.3947

MULLIKEN ATOMIC CHARGES
-----------------------
   0 C :   -0.486389
   1 C :   -0.008899
   2 C :   -0.510092
   3 C :   -0.348574
   4 C :    0.172723
   5 C :   -0.515773
   6 C :   -0.521166
   7 C :   -0.492655
   8 H :    0.146633
   9 H :    0.145015
  10 H :    0.146274
  11 H :    0.153233
  12 H :    0.141662
  13 H :    0.139648
  14 H :    0.157315
  15 H :    0.144838
  16 H :    0.156622
  17 H :    0.156805
  18 H :    0.150320
  19 H :    0.145363
  20 H :    0.157746
  21 H :    0.152149
  22 H :    0.157743
  23 H :    0.153752
  24 H :    0.152782
  25 H :    0.152929
Sum of atomic charges:   -0.0000000

LOEWDIN ATOMIC CHARGES
----------------------
   0 C :   -0.417902
   1 C :   -0.242135
   2 C :   -0.415404
   3 C :   -0.290137
   4 C :   -0.209191
   5 C :   -0.406132
   6 C :   -0.408870
   7 C :   -0.410607
   8 H :    0.154433
   9 H :    0.151396
  10 H :    0.151081
  11 H :    0.157828
  12 H :    0.152377
  13 H :    0.149502
  14 H :    0.154518
  15 H :    0.164463
  16 H :    0.163236
  17 H :    0.156904
  18 H :    0.155583
  19 H :    0.153209
  20 H :    0.154765
  21 H :    0.157157
  22 H :    0.157682
  23 H :    0.153957
  24 H :    0.157392
  25 H :    0.154896

  Mayer bond orders larger than 0.100000
B(  0-C ,  1-C ) :   0.9068 B(  0-C ,  8-H ) :   0.9842 B(  0-C ,  9-H ) :   0.9784
B(  0-C , 10-H ) :   0.9777 B(  1-C ,  2-C ) :   0.8908 B(  1-C ,  3-C ) :   0.8937
B(  1-C , 11-H ) :   0.9601 B(  2-C , 12-H ) :   0.9740 B(  2-C , 13-H ) :   0.9684
B(  2-C , 14-H ) :   0.9894 B(  3-C ,  4-C ) :   0.8716 B(  3-C , 15-H ) :   0.9876
B(  3-C , 16-H ) :   0.9869 B(  4-C ,  5-C ) :   0.9384 B(  4-C ,  6-C ) :   0.8995
B(  4-C ,  7-C ) :   0.9343 B(  5-C , 17-H ) :   0.9783 B(  5-C , 18-H ) :   0.9771
B(  5-C , 19-H ) :   0.9667 B(  6-C , 20-H ) :   0.9751 B(  6-C , 21-H ) :   0.9720
B(  6-C , 22-H ) :   0.9766 B(  7-C , 23-H ) :   0.9798 B(  7-C , 24-H ) :   0.9759
B(  7-C , 25-H ) :   0.9775

Dispersion correction           -0.008006149
FINAL SINGLE POINT ENERGY      -315.586350350431

DIPOLE MOMENT
-------------

Method             : SCF
Type of density    : Electron Density
Multiplicity       :   1
Irrep              :   0
Energy             :  -315.5912797122528559 Eh
Relativity type    :
Basis              : AO
                                X                 Y                 Z
Electronic contribution:      0.310388779       0.444485521       0.200599019
Nuclear contribution   :     -0.306993252      -0.414278010      -0.217170956
                        -----------------------------------------
Total Dipole Moment    :      0.003395527       0.030207511      -0.016571937
                        -----------------------------------------
Magnitude (a.u.)       :      0.034621560
Magnitude (Debye)      :      0.088001013

Rotational constants in cm-1:             0.099433             0.040730             0.036864
Rotational constants in MHz :          2980.927983          1221.057636          1105.145874

                             ****ORCA TERMINATED NORMALLY****
TOTAL RUN TIME: 0 days 0 hours 0 minutes 27 seconds 447 msec
