                         Program Version 6.0.1  -  RELEASE   -
|  1> ! r2scan-3c def2/J RI DEFGRID2 scfconv6 printgap
|  2> %output
|  3>     printlevel normal
|  4> end
|  5> * xyz 0 1
|  6> C -2.8179858151 1.3675991441 0.1970432063
|  7> C -2.3705158331 -0.0392678665 -0.1836913853
|  8> C -0.8893702914 -0.2890380457 -0.0682573767
|  9> C -0.4362553531 -1.5951321347 0.1023424494
| 10> C 0.9144970283 -1.86818014 0.191008385
| 11> C 1.842609304 -0.8444942576 0.1142984337
| 12> C 1.4030292976 0.4605303602 -0.0560969577
| 13> C 0.0418732181 0.732323909 -0.1485492154
| 14> O 2.268086404 1.5108313667 -0.1392123769
| 15> H -3.9045807705 1.4171302539 0.2136369065
| 16> H -2.4602028833 2.1025112979 -0.5192428779
| 17> H -2.4457011231 1.6319524935 1.184142795
| 18> H -2.6733709488 -0.2433524288 -1.2162254059
| 19> H -2.8902026055 -0.7629971811 0.4495328987
| 20> H -1.1515318372 -2.4022871661 0.1657797798
| 21> H 1.2528631541 -2.8852924665 0.3239435382
| 22> H 2.9016031428 -1.055623815 0.1867529417
| 23> H -0.253988797 1.7593480194 -0.2826823885
| 24> H 3.1747039246 1.1910122775 -0.0606387247
| 25> *
| 26>
| 27>                          ****END OF INPUT****

CARTESIAN COORDINATES (ANGSTROEM)
---------------------------------
  C     -2.817986    1.367599    0.197043
  C     -2.370516   -0.039268   -0.183691
  C     -0.889370   -0.289038   -0.068257
  C     -0.436255   -1.595132    0.102342
  C      0.914497   -1.868180    0.191008
  C      1.842609   -0.844494    0.114298
  C      1.403029    0.460530   -0.056097
  C      0.041873    0.732324   -0.148549
  O      2.268086    1.510831   -0.139212
  H     -3.904581    1.417130    0.213637
  H     -2.460203    2.102511   -0.519243
  H     -2.445701    1.631952    1.184143
  H     -2.673371   -0.243352   -1.216225
  H     -2.890203   -0.762997    0.449533
  H     -1.151532   -2.402287    0.165780
  H      1.252863   -2.885292    0.323944
  H      2.901603   -1.055624    0.186753
  H     -0.253989    1.759348   -0.282682
  H      3.174704    1.191012   -0.060639

 Total Charge           Charge          ....    0
 Multiplicity           Mult            ....    1
 Number of Electrons    NEL             ....   66
 Basis Dimension        Dim             ....  226

ORBITAL ENERGIES
----------------

  NO   OCC          E(Eh)            E(eV)
   0   2.0000     -18.983215      -516.5596
   1   2.0000     -10.093760      -274.6652
   2   2.0000     -10.041207      -273.2351
   3   2.0000     -10.034051      -273.0404
   4   2.0000     -10.033968      -273.0381
   5   2.0000     -10.030035      -272.9311
   6   2.0000     -10.024014      -272.7673
   7   2.0000     -10.021339      -272.6945
   8   2.0000     -10.020440      -272.6700
   9   2.0000      -1.027731       -27.9660
  10   2.0000      -0.824172       -22.4269
  11   2.0000      -0.754999       -20.5446
  12   2.0000      -0.709558       -19.3081
  13   2.0000      -0.691649       -18.8207
  14   2.0000      -0.609806       -16.5937
  15   2.0000      -0.579014       -15.7558
  16   2.0000      -0.558686       -15.2026
  17   2.0000      -0.495161       -13.4740
  18   2.0000      -0.466059       -12.6821
  19   2.0000      -0.442318       -12.0361
  20   2.0000      -0.421464       -11.4686
  21   2.0000      -0.401222       -10.9178
  22   2.0000      -0.396888       -10.7999
  23   2.0000      -0.378492       -10.2993
  24   2.0000      -0.365215        -9.9380
  25   2.0000      -0.346402        -9.4261
  26   2.0000      -0.336384        -9.1535
  27   2.0000      -0.326201        -8.8764
  28   2.0000      -0.313790        -8.5387
  29   2.0000      -0.300114        -8.1665
  30   2.0000      -0.296782        -8.0758
  31   2.0000      -0.228543        -6.2190
  32   2.0000      -0.201961        -5.4956
  33   0.0000      -0.027667        -0.7529
  34   0.0000      -0.014408        -0.3921
  35   0.0000       0.059886         1.6296
  36   0.0000       0.084160         2.2901
  37   0.0000       0.101014         2.7487

MULLIKEN ATOMIC CHARGES
-----------------------
   0 C :   -0.477320
   1 C :   -0.309754
   2 C :    0.222422
   3 C :   -0.257083
   4 C :   -0.133557
   5 C :   -0.343647
   6 C :    0.408594
   7 C :   -0.355886
   8 O :   -0.414309
   9 H :    0.149343
  10 H :    0.142677
  11 H :    0.165856
  12 H :    0.165416
  13 H :    0.149513
  14 H :    0.145580
  15 H :    0.144868
  16 H :    0.136210
  17 H :    0.152800
  18 H :    0.308278
Sum of atomic charges:    0.0000000

LOEWDIN ATOMIC CHARGES
----------------------
   0 C :   -0.417615
   1 C :   -0.285087
   2 C :   -0.077842
   3 C :   -0.189589
   4 C :   -0.149144
   5 C :   -0.183764
   6 C :    0.185645
   7 C :   -0.143067
   8 O :   -0.496864
   9 H :    0.152607
  10 H :    0.150384
  11 H :    0.156607
  12 H :    0.168155
  13 H :    0.162477
  14 H :    0.168140
  15 H :    0.167574
  16 H :    0.167502
  17 H :    0.183072
  18 H :    0.280811

  Mayer bond orders larger than 0.100000
B(  0-C ,  1-C ) :   0.8787 B(  0-C ,  9-H ) :   0.9721 B(  0-C , 10-H ) :   0.9627
B(  0-C , 11-H ) :   0.9924 B(  1-C ,  2-C ) :   0.8162 B(  1-C , 12-H ) :   0.9559
B(  1-C , 13-H ) :   1.0141 B(  2-C ,  3-C ) :   1.3593 B(  2-C ,  7-C ) :   1.4196
B(  3-C ,  4-C ) :   1.4677 B(  3-C , 14-H ) :   0.9529 B(  4-C ,  5-C ) :   1.4125
B(  4-C , 15-H ) :   0.9421 B(  5-C ,  6-C ) :   1.3501 B(  5-C , 16-H ) :   0.9371
B(  6-C ,  7-C ) :   1.4954 B(  6-C ,  8-O ) :   0.8977 B(  7-C ,  8-O ) :   0.1171
B(  7-C , 17-H ) :   0.9337 B(  8-O , 18-H ) :   0.8858

Dispersion correction           -0.006078629
FINAL SINGLE POINT ENERGY      -386.000586160800

DIPOLE MOMENT
-------------

Method             : SCF
Type of density    : Electron Density
Multiplicity       :   1
Irrep              :   0
Energy             :  -386.0013446302256170 Eh
Relativity type    :
Basis              : AO
                                X                 Y                 Z
Electronic contribution:      8.084034979      -0.997890869      -0.386025834
Nuclear contribution   :     -7.894296009       0.728269972       0.415421442
                        -----------------------------------------
Total Dipole Moment    :      0.189738970      -0.269620897       0.029395608
                        -----------------------------------------
Magnitude (a.u.)       :      0.330999104
Magnitude (Debye)      :      0.841332860

Rotational constants in cm-1:             0.091940             0.041740             0.029240
Rotational constants in MHz :          2756.289362          1251.337528           876.585952

                             ****ORCA TERMINATED NORMALLY****
TOTAL RUN TIME: 0 days 0 hours 0 minutes 23 seconds 322 msec
