                         Program Version 6.0.1  -  RELEASE   -
|  1> ! r2scan-3c def2/J RI DEFGRID2 scfconv6 printgap
|  2> %output
|  3>     printlevel normal
|  4> end
|  5> * xyz 0 1
|  6> C -2.035310627 -0.5926757557 -0.6662812902
|  7> C -1.2207354706 -0.0695743513 0.5442886129
|  8> H -1.8802741863 -0.0134430234 1.4197521261
|  9> C -0.637916119 1.335661264 0.3129913843
| 10> H -1.3833143302 1.9447135179 -0.2090553613
| 11> C 0.657977498 1.3004024982 -0.5376410068
| 12> H 1.0951784125 2.3086265629 -0.482732055
| 13> C 1.6410042323 0.2815937971 0.0669707073
| 14> H 2.4839103562 0.1437406371 -0.626240189
| 15> C 0.9343091232 -1.0794845908 0.2028020126
| 16> H 1.5798795592 -1.7599606699 0.7816341735
| 17> O -0.2336820539 -1.0111172877 0.957353277
| 18> O 0.7242113072 -1.5811336798 -1.0902104149
| 19> O 2.09069003 0.6575406394 1.3478822993
| 20> O 0.4240316225 1.0355277784 -1.8928579067
| 21> O -0.3951815673 1.9736543548 1.5392433592
| 22> O -2.0027787208 -2.0010287694 -0.7402584327
| 23> H -1.6238325216 -0.2316634944 -1.6099143874
| 24> H -3.0675129514 -0.2313052211 -0.578751441
| 25> H -0.0963799378 -2.1101445848 -1.0795248497
| 26> H 2.5998324531 1.4732954911 1.2723330879
| 27> H 0.496363024 0.0740222488 -2.0254111125
| 28> H 0.2781580474 1.4558890615 2.0090425137
| 29> H -2.2490103706 -2.358913887 0.1217421035
| 30> *
| 31>
| 32>                          ****END OF INPUT****

CARTESIAN COORDINATES (ANGSTROEM)
---------------------------------
  C     -2.035311   -0.592676   -0.666281
  C     -1.220735   -0.069574    0.544289
  H     -1.880274   -0.013443    1.419752
  C     -0.637916    1.335661    0.312991
  H     -1.383314    1.944714   -0.209055
  C      0.657977    1.300402   -0.537641
  H      1.095178    2.308627   -0.482732
  C      1.641004    0.281594    0.066971
  H      2.483910    0.143741   -0.626240
  C      0.934309   -1.079485    0.202802
  H      1.579880   -1.759961    0.781634
  O     -0.233682   -1.011117    0.957353
  O      0.724211   -1.581134   -1.090210
  O      2.090690    0.657541    1.347882
  O      0.424032    1.035528   -1.892858
  O     -0.395182    1.973654    1.539243
  O     -2.002779   -2.001029   -0.740258
  H     -1.623833   -0.231663   -1.609914
  H     -3.067513   -0.231305   -0.578751
  H     -0.096380   -2.110145   -1.079525
  H      2.599832    1.473295    1.272333
  H      0.496363    0.074022   -2.025411
  H      0.278158    1.455889    2.009043
  H     -2.249010   -2.358914    0.121742

 Total Charge           Charge          ....    0
 Multiplicity           Mult            ....    1
 Number of Electrons    NEL             ....   96
 Basis Dimension        Dim             ....  318

ORBITAL ENERGIES
----------------

  NO   OCC          E(Eh)            E(eV)
   0   2.0000     -18.980927      -516.4973
   1   2.0000     -18.979175      -516.4496
   2   2.0000     -18.978869      -516.4413
   3   2.0000     -18.970004      -516.2000
   4   2.0000     -18.949147      -515.6325
   5   2.0000     -18.947485      -515.5873
   6   2.0000     -10.145191      -276.0647
   7   2.0000     -10.100870      -274.8586
   8   2.0000     -10.097326      -274.7622
   9   2.0000     -10.092383      -274.6277
  10   2.0000     -10.091944      -274.6158
  11   2.0000     -10.090236      -274.5693
  12   2.0000      -1.062754       -28.9190
  13   2.0000      -1.021282       -27.7905
  14   2.0000      -1.011761       -27.5314
  15   2.0000      -0.995837       -27.0981
  16   2.0000      -0.993964       -27.0471
  17   2.0000      -0.978946       -26.6385
  18   2.0000      -0.751430       -20.4475
  19   2.0000      -0.741349       -20.1731
  20   2.0000      -0.668927       -18.2024
  21   2.0000      -0.625363       -17.0170
  22   2.0000      -0.616833       -16.7849
  23   2.0000      -0.557576       -15.1724
  24   2.0000      -0.527906       -14.3650
  25   2.0000      -0.519819       -14.1450
  26   2.0000      -0.500077       -13.6078
  27   2.0000      -0.478993       -13.0341
  28   2.0000      -0.467708       -12.7270
  29   2.0000      -0.453895       -12.3511
  30   2.0000      -0.444208       -12.0875
  31   2.0000      -0.429005       -11.6738
  32   2.0000      -0.413123       -11.2416
  33   2.0000      -0.402529       -10.9534
  34   2.0000      -0.394830       -10.7439
  35   2.0000      -0.379488       -10.3264
  36   2.0000      -0.366163        -9.9638
  37   2.0000      -0.358901        -9.7662
  38   2.0000      -0.346709        -9.4344
  39   2.0000      -0.329405        -8.9636
  40   2.0000      -0.310416        -8.4468
  41   2.0000      -0.293476        -7.9859
  42   2.0000      -0.280345        -7.6286
  43   2.0000      -0.272631        -7.4187
  44   2.0000      -0.267797        -7.2871
  45   2.0000      -0.254776        -6.9328
  46   2.0000      -0.240502        -6.5444
  47   2.0000      -0.218413        -5.9433
  48   0.0000       0.028815         0.7841
  49   0.0000       0.030963         0.8426
  50   0.0000       0.067125         1.8266
  51   0.0000       0.078363         2.1324
  52   0.0000       0.081866         2.2277

MULLIKEN ATOMIC CHARGES
-----------------------
   0 C :   -0.218225
   1 C :   -0.001746
   2 H :    0.165076
   3 C :   -0.073332
   4 H :    0.164899
   5 C :   -0.062641
   6 H :    0.168974
   7 C :   -0.051591
   8 H :    0.158654
   9 C :   -0.021581
  10 H :    0.142119
  11 O :   -0.225993
  12 O :   -0.437036
  13 O :   -0.425784
  14 O :   -0.407095
  15 O :   -0.411865
  16 O :   -0.437265
  17 H :    0.185602
  18 H :    0.142982
  19 H :    0.348183
  20 H :    0.308062
  21 H :    0.337326
  22 H :    0.338949
  23 H :    0.313330
Sum of atomic charges:   -0.0000000

LOEWDIN ATOMIC CHARGES
----------------------
   0 C :    0.022621
   1 C :    0.101695
   2 H :    0.201751
   3 C :    0.105031
   4 H :    0.199204
   5 C :    0.104885
   6 H :    0.192738
   7 C :    0.124894
   8 H :    0.190216
   9 C :    0.302645
  10 H :    0.204796
  11 O :   -0.651539
  12 O :   -0.539589
  13 O :   -0.574690
  14 O :   -0.584424
  15 O :   -0.577393
  16 O :   -0.602017
  17 H :    0.196772
  18 H :    0.169246
  19 H :    0.296231
  20 H :    0.276421
  21 H :    0.283416
  22 H :    0.282781
  23 H :    0.274308

  Mayer bond orders larger than 0.100000
B(  0-C ,  1-C ) :   0.8756 B(  0-C , 16-O ) :   0.9467 B(  0-C , 17-H ) :   0.9664
B(  0-C , 18-H ) :   0.9613 B(  1-C ,  2-H ) :   0.9391 B(  1-C ,  3-C ) :   0.9155
B(  1-C , 11-O ) :   0.9583 B(  3-C ,  4-H ) :   0.9723 B(  3-C ,  5-C ) :   0.8031
B(  3-C , 15-O ) :   0.9723 B(  5-C ,  6-H ) :   1.0025 B(  5-C ,  7-C ) :   0.8648
B(  5-C , 14-O ) :   0.9800 B(  7-C ,  8-H ) :   0.9617 B(  7-C ,  9-C ) :   0.9749
B(  7-C , 13-O ) :   0.9474 B(  9-C , 10-H ) :   0.9387 B(  9-C , 11-O ) :   1.0044
B(  9-C , 12-O ) :   0.9091 B( 12-O , 19-H ) :   0.8180 B( 13-O , 20-H ) :   0.8947
B( 14-O , 21-H ) :   0.8191 B( 15-O , 22-H ) :   0.8314 B( 16-O , 23-H ) :   0.8844

Dispersion correction           -0.008850905
FINAL SINGLE POINT ENERGY      -687.073796217488

DIPOLE MOMENT
-------------

Method             : SCF
Type of density    : Electron Density
Multiplicity       :   1
Irrep              :   0
Energy             :  -687.0873096707450713 Eh
Relativity type    :
Basis              : AO
                                X                 Y                 Z
Electronic contribution:      1.636974608      -0.908972960       1.278853494
Nuclear contribution   :     -1.648752191       0.638167265      -0.943060139
                        -----------------------------------------
Total Dipole Moment    :     -0.011777584      -0.270805695       0.335793354
                        -----------------------------------------
Magnitude (a.u.)       :      0.431545609
Magnitude (Debye)      :      1.096901767

Rotational constants in cm-1:             0.043351             0.029353             0.026314
Rotational constants in MHz :          1299.625699           879.971288           788.871730

                             ****ORCA TERMINATED NORMALLY****
TOTAL RUN TIME: 0 days 0 hours 0 minutes 40 seconds 335 msec
