                         Program Version 6.0.1  -  RELEASE   -
|  1> ! pbe def2-sv(p) def2/J RI DEFGRID1 loosescf d4 GCP(DFT/SV(P)) printgap
|  2> %output
|  3>     printlevel normal
|  4> end
|  5> * xyz 0 1
|  6> C -2.8069004037 -0.150499144 -0.5664834162
|  7> C -1.4601307029 -0.0332308915 0.1060019365
|  8> O -1.3068430877 -0.287207038 1.2739582739
|  9> C -0.3416636479 0.4069057096 -0.824287187
| 10> C 0.5073314127 -0.8161088733 -1.2152656732
| 11> C 1.3465351512 -1.3205833463 -0.0469718896
| 12> C 2.2586082279 -0.2114330435 0.4657361859
| 13> C 1.4168103959 0.9711049669 0.9313456243
| 14> C 0.5507805539 1.4947436954 -0.2097967531
| 15> H -3.5334360776 -0.5852516954 0.1150566354
| 16> H -3.1435982769 0.8408367205 -0.865046359
| 17> H -2.7259713118 -0.7630639959 -1.4616635337
| 18> H -0.7998397496 0.8090795286 -1.7346853313
| 19> H -0.1441080492 -1.6135472845 -1.5821845063
| 20> H 1.1698101868 -0.522166412 -2.0336906297
| 21> H 0.6897761756 -1.6457451315 0.7612860804
| 22> H 1.9386816041 -2.1798107135 -0.3696415673
| 23> H 2.8675607453 -0.58238794 1.2920524788
| 24> H 2.9336330039 0.1070606908 -0.3336529355
| 25> H 0.7756718958 0.6541001183 1.7536187221
| 26> H 2.0620877366 1.7750186515 1.2922982812
| 27> H -0.0759638798 2.3153518488 0.1477156572
| 28> H 1.1963998058 1.8872033751 -1.0006682766
| 29> *
| 30>
| 31>                          ****END OF INPUT****

CARTESIAN COORDINATES (ANGSTROEM)
---------------------------------
  C     -2.806900   -0.150499   -0.566483
  C     -1.460131   -0.033231    0.106002
  O     -1.306843   -0.287207    1.273958
  C     -0.341664    0.406906   -0.824287
  C      0.507331   -0.816109   -1.215266
  C      1.346535   -1.320583   -0.046972
  C      2.258608   -0.211433    0.465736
  C      1.416810    0.971105    0.931346
  C      0.550781    1.494744   -0.209797
  H     -3.533436   -0.585252    0.115057
  H     -3.143598    0.840837   -0.865046
  H     -2.725971   -0.763064   -1.461664
  H     -0.799840    0.809080   -1.734685
  H     -0.144108   -1.613547   -1.582185
  H      1.169810   -0.522166   -2.033691
  H      0.689776   -1.645745    0.761286
  H      1.938682   -2.179811   -0.369642
  H      2.867561   -0.582388    1.292052
  H      2.933633    0.107061   -0.333653
  H      0.775672    0.654100    1.753619
  H      2.062088    1.775019    1.292298
  H     -0.075964    2.315352    0.147716
  H      1.196400    1.887203   -1.000668

 Total Charge           Charge          ....    0
 Multiplicity           Mult            ....    1
 Number of Electrons    NEL             ....   70
 Basis Dimension        Dim             ....  154

ORBITAL ENERGIES
----------------

  NO   OCC          E(Eh)            E(eV)
   0   2.0000     -18.740884      -509.9654
   1   2.0000      -9.973815      -271.4013
   2   2.0000      -9.900305      -269.4010
   3   2.0000      -9.893414      -269.2135
   4   2.0000      -9.886807      -269.0337
   5   2.0000      -9.886710      -269.0310
   6   2.0000      -9.877352      -268.7764
   7   2.0000      -9.876358      -268.7494
   8   2.0000      -9.871522      -268.6178
   9   2.0000      -0.944017       -25.6880
  10   2.0000      -0.757974       -20.6255
  11   2.0000      -0.692019       -18.8308
  12   2.0000      -0.666163       -18.1272
  13   2.0000      -0.653799       -17.7908
  14   2.0000      -0.556847       -15.1526
  15   2.0000      -0.540953       -14.7201
  16   2.0000      -0.506502       -13.7826
  17   2.0000      -0.453981       -12.3535
  18   2.0000      -0.435624       -11.8539
  19   2.0000      -0.414999       -11.2927
  20   2.0000      -0.411748       -11.2042
  21   2.0000      -0.393719       -10.7136
  22   2.0000      -0.380824       -10.3627
  23   2.0000      -0.374701       -10.1961
  24   2.0000      -0.358200        -9.7471
  25   2.0000      -0.339900        -9.2492
  26   2.0000      -0.334166        -9.0931
  27   2.0000      -0.329144        -8.9565
  28   2.0000      -0.316426        -8.6104
  29   2.0000      -0.313232        -8.5235
  30   2.0000      -0.299284        -8.1439
  31   2.0000      -0.282224        -7.6797
  32   2.0000      -0.259745        -7.0680
  33   2.0000      -0.258883        -7.0446
  34   2.0000      -0.192129        -5.2281
  35   0.0000      -0.049121        -1.3367
  36   0.0000       0.023386         0.6364
  37   0.0000       0.052626         1.4320
  38   0.0000       0.065056         1.7703
  39   0.0000       0.071338         1.9412

MULLIKEN ATOMIC CHARGES
-----------------------
   0 C :   -0.256052
   1 C :    0.015403
   2 O :   -0.157174
   3 C :   -0.164591
   4 C :   -0.131904
   5 C :   -0.153904
   6 C :   -0.158492
   7 C :   -0.152958
   8 C :   -0.119736
   9 H :    0.115126
  10 H :    0.127747
  11 H :    0.123002
  12 H :    0.064680
  13 H :    0.083807
  14 H :    0.083618
  15 H :    0.099977
  16 H :    0.083567
  17 H :    0.084939
  18 H :    0.067298
  19 H :    0.105388
  20 H :    0.079330
  21 H :    0.084636
  22 H :    0.076294
Sum of atomic charges:   -0.0000000

LOEWDIN ATOMIC CHARGES
----------------------
   0 C :   -0.362560
   1 C :    0.052762
   2 O :   -0.118232
   3 C :   -0.169891
   4 C :   -0.204919
   5 C :   -0.232163
   6 C :   -0.224164
   7 C :   -0.235740
   8 C :   -0.207511
   9 H :    0.131014
  10 H :    0.143658
  11 H :    0.138475
  12 H :    0.119329
  13 H :    0.114656
  14 H :    0.118322
  15 H :    0.123464
  16 H :    0.116020
  17 H :    0.116790
  18 H :    0.108590
  19 H :    0.125213
  20 H :    0.114035
  21 H :    0.117020
  22 H :    0.115831

  Mayer bond orders larger than 0.100000
B(  0-C ,  1-C ) :   1.0845 B(  0-C ,  9-H ) :   0.9356 B(  0-C , 10-H ) :   0.9231
B(  0-C , 11-H ) :   0.9254 B(  1-C ,  2-O ) :   2.1575 B(  1-C ,  3-C ) :   0.9080
B(  3-C ,  4-C ) :   1.0656 B(  3-C ,  8-C ) :   1.0728 B(  3-C , 12-H ) :   0.8859
B(  4-C ,  5-C ) :   1.1343 B(  4-C , 13-H ) :   0.9160 B(  4-C , 14-H ) :   0.9105
B(  5-C ,  6-C ) :   1.1332 B(  5-C , 15-H ) :   0.9031 B(  5-C , 16-H ) :   0.9170
B(  6-C ,  7-C ) :   1.1341 B(  6-C , 17-H ) :   0.9191 B(  6-C , 18-H ) :   0.9181
B(  7-C ,  8-C ) :   1.1327 B(  7-C , 19-H ) :   0.8995 B(  7-C , 20-H ) :   0.9155
B(  8-C , 21-H ) :   0.9210 B(  8-C , 22-H ) :   0.9128

Dispersion correction           -0.022793537
FINAL SINGLE POINT ENERGY      -387.607960943537

DIPOLE MOMENT
-------------

Method             : SCF
Type of density    : Electron Density
Multiplicity       :   1
Irrep              :   0
Energy             :  -387.6858811132124742 Eh
Relativity type    :
Basis              : AO
                                X                 Y                 Z
Electronic contribution:     -3.092718632      -0.299009928       2.886767677
Nuclear contribution   :      2.992791382       0.461706626      -3.751787688
                        -----------------------------------------
Total Dipole Moment    :     -0.099927250       0.162696698      -0.865020011
                        -----------------------------------------
Magnitude (a.u.)       :      0.885841572
Magnitude (Debye)      :      2.251630335

Rotational constants in cm-1:             0.091242             0.041693             0.039149
Rotational constants in MHz :          2735.380605          1249.918164          1173.662831

                             ****ORCA TERMINATED NORMALLY****
TOTAL RUN TIME: 0 days 0 hours 0 minutes 11 seconds 700 msec
