                         Program Version 6.0.1  -  RELEASE   -
|  1> ! r2scan-3c def2/J RI DEFGRID2 scfconv6 printgap
|  2> %output
|  3>     printlevel normal
|  4> end
|  5> * xyz 0 1
|  6> C -3.3899698837 -0.5239879942 -0.1130385778
|  7> C -1.9087559255 -0.4177604725 -0.4569456473
|  8> H -1.7835683016 -0.464515863 -1.5453800951
|  9> C -1.0967049041 -1.5588180824 0.1729629234
| 10> C 0.3853536838 -1.4335351191 -0.1611647194
| 11> C 0.9319594973 -0.1006577026 0.3532008223
| 12> H 0.7534641445 -0.0508531523 1.43321327
| 13> C 0.1470690891 1.0531869822 -0.298797468
| 14> C -1.3240364706 0.9031519083 0.0101500118
| 15> O -1.959858524 1.743408621 0.5937745225
| 16> C 2.4147751831 0.0658864399 0.1208867944
| 17> C 3.2165072695 0.4460354248 1.1033800638
| 18> C 2.935684224 -0.2070271253 -1.2578767543
| 19> H -3.5292544438 -0.4649100186 0.9635912654
| 20> H -3.9411744118 0.2947447089 -0.5682925207
| 21> H -3.7984312078 -1.4665416054 -0.4698580993
| 22> H -1.2333950236 -1.5345549913 1.2567087919
| 23> H -1.4825818738 -2.514295608 -0.1893041746
| 24> H 0.9377205164 -2.2552035698 0.3000449145
| 25> H 0.5175904377 -1.4999021789 -1.2427108839
| 26> H 0.5029936291 2.0133207443 0.0782197739
| 27> H 0.2838796007 1.0265512427 -1.381555302
| 28> H 4.2739247942 0.5850395726 0.954009303
| 29> H 2.8504846314 0.6351581421 2.0983850117
| 30> H 2.8964524506 -1.2742525388 -1.4737404588
| 31> H 2.3439523603 0.3105850598 -2.0103990666
| 32> H 3.968363983 0.1196219033 -1.3454317916
| 33> *
| 34>
| 35>                          ****END OF INPUT****

CARTESIAN COORDINATES (ANGSTROEM)
---------------------------------
  C     -3.389970   -0.523988   -0.113039
  C     -1.908756   -0.417760   -0.456946
  H     -1.783568   -0.464516   -1.545380
  C     -1.096705   -1.558818    0.172963
  C      0.385354   -1.433535   -0.161165
  C      0.931959   -0.100658    0.353201
  H      0.753464   -0.050853    1.433213
  C      0.147069    1.053187   -0.298797
  C     -1.324036    0.903152    0.010150
  O     -1.959859    1.743409    0.593775
  C      2.414775    0.065886    0.120887
  C      3.216507    0.446035    1.103380
  C      2.935684   -0.207027   -1.257877
  H     -3.529254   -0.464910    0.963591
  H     -3.941174    0.294745   -0.568293
  H     -3.798431   -1.466542   -0.469858
  H     -1.233395   -1.534555    1.256709
  H     -1.482582   -2.514296   -0.189304
  H      0.937721   -2.255204    0.300045
  H      0.517590   -1.499902   -1.242711
  H      0.502994    2.013321    0.078220
  H      0.283880    1.026551   -1.381555
  H      4.273925    0.585040    0.954009
  H      2.850485    0.635158    2.098385
  H      2.896452   -1.274253   -1.473740
  H      2.343952    0.310585   -2.010399
  H      3.968364    0.119622   -1.345432

 Total Charge           Charge          ....    0
 Multiplicity           Mult            ....    1
 Number of Electrons    NEL             ....   84
 Basis Dimension        Dim             ....  294

ORBITAL ENERGIES
----------------

  NO   OCC          E(Eh)            E(eV)
   0   2.0000     -18.938394      -515.3399
   1   2.0000     -10.112691      -275.1803
   2   2.0000     -10.052339      -273.5380
   3   2.0000     -10.046604      -273.3820
   4   2.0000     -10.045048      -273.3397
   5   2.0000     -10.041842      -273.2524
   6   2.0000     -10.038774      -273.1689
   7   2.0000     -10.037493      -273.1341
   8   2.0000     -10.032144      -272.9885
   9   2.0000     -10.017682      -272.5950
  10   2.0000     -10.017662      -272.5945
  11   2.0000      -1.008755       -27.4496
  12   2.0000      -0.823484       -22.4081
  13   2.0000      -0.778836       -21.1932
  14   2.0000      -0.729923       -19.8622
  15   2.0000      -0.706201       -19.2167
  16   2.0000      -0.663002       -18.0412
  17   2.0000      -0.643675       -17.5153
  18   2.0000      -0.581451       -15.8221
  19   2.0000      -0.569414       -15.4945
  20   2.0000      -0.512358       -13.9420
  21   2.0000      -0.490089       -13.3360
  22   2.0000      -0.454608       -12.3705
  23   2.0000      -0.444981       -12.1086
  24   2.0000      -0.428159       -11.6508
  25   2.0000      -0.416118       -11.3231
  26   2.0000      -0.413752       -11.2588
  27   2.0000      -0.406047       -11.0491
  28   2.0000      -0.388555       -10.5731
  29   2.0000      -0.382238       -10.4012
  30   2.0000      -0.371588       -10.1114
  31   2.0000      -0.354736        -9.6528
  32   2.0000      -0.346768        -9.4360
  33   2.0000      -0.344576        -9.3764
  34   2.0000      -0.334081        -9.0908
  35   2.0000      -0.325595        -8.8599
  36   2.0000      -0.317360        -8.6358
  37   2.0000      -0.306938        -8.3522
  38   2.0000      -0.297547        -8.0967
  39   2.0000      -0.289874        -7.8879
  40   2.0000      -0.233503        -6.3539
  41   2.0000      -0.208042        -5.6611
  42   0.0000      -0.046631        -1.2689
  43   0.0000      -0.011461        -0.3119
  44   0.0000       0.075361         2.0507
  45   0.0000       0.081497         2.2177
  46   0.0000       0.090879         2.4729

MULLIKEN ATOMIC CHARGES
-----------------------
   0 C :   -0.509501
   1 C :   -0.001493
   2 H :    0.160942
   3 C :   -0.333847
   4 C :   -0.369032
   5 C :   -0.010210
   6 H :    0.167778
   7 C :   -0.369409
   8 C :    0.182648
   9 O :   -0.333170
  10 C :    0.088224
  11 C :   -0.366121
  12 C :   -0.536022
  13 H :    0.162772
  14 H :    0.161380
  15 H :    0.142839
  16 H :    0.166229
  17 H :    0.152626
  18 H :    0.163659
  19 H :    0.160822
  20 H :    0.177150
  21 H :    0.175043
  22 H :    0.138842
  23 H :    0.143871
  24 H :    0.168998
  25 H :    0.161099
  26 H :    0.153880
Sum of atomic charges:    0.0000000

LOEWDIN ATOMIC CHARGES
----------------------
   0 C :   -0.395095
   1 C :   -0.208268
   2 H :    0.174874
   3 C :   -0.273119
   4 C :   -0.282567
   5 C :   -0.189487
   6 H :    0.172979
   7 C :   -0.247667
   8 C :    0.230711
   9 O :   -0.446742
  10 C :   -0.122880
  11 C :   -0.313490
  12 C :   -0.393755
  13 H :    0.164556
  14 H :    0.164787
  15 H :    0.151890
  16 H :    0.164347
  17 H :    0.161696
  18 H :    0.166224
  19 H :    0.161684
  20 H :    0.183291
  21 H :    0.174318
  22 H :    0.156730
  23 H :    0.159038
  24 H :    0.164740
  25 H :    0.159078
  26 H :    0.162126

  Mayer bond orders larger than 0.100000
B(  0-C ,  1-C ) :   0.8873 B(  0-C , 13-H ) :   0.9889 B(  0-C , 14-H ) :   0.9713
B(  0-C , 15-H ) :   0.9773 B(  1-C ,  2-H ) :   0.9244 B(  1-C ,  3-C ) :   0.8664
B(  1-C ,  8-C ) :   0.8828 B(  1-C ,  9-O ) :  -0.1110 B(  3-C ,  4-C ) :   0.8871
B(  3-C , 16-H ) :   1.0017 B(  3-C , 17-H ) :   0.9447 B(  4-C ,  5-C ) :   0.8925
B(  4-C , 18-H ) :   0.9490 B(  4-C , 19-H ) :   0.9926 B(  5-C ,  6-H ) :   0.9865
B(  5-C ,  7-C ) :   0.9035 B(  5-C , 10-C ) :   0.8728 B(  7-C ,  8-C ) :   0.9057
B(  7-C , 20-H ) :   0.9411 B(  7-C , 21-H ) :   0.9949 B(  8-C ,  9-O ) :   2.0080
B( 10-C , 11-C ) :   1.8767 B( 10-C , 12-C ) :   0.8631 B( 11-C , 22-H ) :   0.9688
B( 11-C , 23-H ) :   0.9881 B( 12-C , 24-H ) :   0.9673 B( 12-C , 25-H ) :   0.9801
B( 12-C , 26-H ) :   0.9771

Dispersion correction           -0.009574653
FINAL SINGLE POINT ENERGY      -465.783333598042

DIPOLE MOMENT
-------------

Method             : SCF
Type of density    : Electron Density
Multiplicity       :   1
Irrep              :   0
Energy             :  -465.7847484947409384 Eh
Relativity type    :
Basis              : AO
                                X                 Y                 Z
Electronic contribution:     -2.737758115       5.164190792       2.294611344
Nuclear contribution   :      3.311205836      -6.109764244      -2.939383480
                        -----------------------------------------
Total Dipole Moment    :      0.573447721      -0.945573452      -0.644772136
                        -----------------------------------------
Magnitude (a.u.)       :      1.280110366
Magnitude (Debye)      :      3.253781968

Rotational constants in cm-1:             0.073132             0.022177             0.019489
Rotational constants in MHz :          2192.431236           664.844863           584.272310

                             ****ORCA TERMINATED NORMALLY****
TOTAL RUN TIME: 0 days 0 hours 0 minutes 47 seconds 87 msec
