                         Program Version 6.0.1  -  RELEASE   -
|  1> ! pbe def2-sv(p) def2/J RI DEFGRID1 loosescf d4 GCP(DFT/SV(P)) printgap
|  2> %output
|  3>     printlevel normal
|  4> end
|  5> * xyz 0 1
|  6> C -2.9784307934 0.604925813 0.7687236467
|  7> C -2.2722870639 0.3444674295 -0.5633741695
|  8> C -0.8520685027 -0.0861022077 -0.329465418
|  9> C -0.5392187496 -1.4252874096 -0.1404679074
| 10> C 0.7651528161 -1.8101140967 0.1177896537
| 11> C 1.7738085768 -0.8699596131 0.1931644577
| 12> C 1.4710543852 0.474596981 0.006863715
| 13> C 0.1619497144 0.8579731449 -0.251690423
| 14> O 2.4848380408 1.3813843998 0.0847339692
| 15> H -2.9783596302 -0.2959979436 1.3778755287
| 16> H -4.0082552645 0.9118745123 0.6009288687
| 17> H -2.4672672385 1.3899610171 1.3216154727
| 18> H -2.2913586254 1.255316726 -1.1653366873
| 19> H -2.8087385691 -0.4350205865 -1.1077300185
| 20> H -1.3202899331 -2.1689587817 -0.198979992
| 21> H 0.9995827086 -2.8545194852 0.2610037526
| 22> H 2.7952823698 -1.151563586 0.391979295
| 23> H -0.0685282328 1.906612054 -0.3970936254
| 24> H 2.1387331815 2.2694440412 -0.0643521956
| 25> *
| 26>
| 27>                          ****END OF INPUT****

CARTESIAN COORDINATES (ANGSTROEM)
---------------------------------
  C     -2.978431    0.604926    0.768724
  C     -2.272287    0.344467   -0.563374
  C     -0.852069   -0.086102   -0.329465
  C     -0.539219   -1.425287   -0.140468
  C      0.765153   -1.810114    0.117790
  C      1.773809   -0.869960    0.193164
  C      1.471054    0.474597    0.006864
  C      0.161950    0.857973   -0.251690
  O      2.484838    1.381384    0.084734
  H     -2.978360   -0.295998    1.377876
  H     -4.008255    0.911875    0.600929
  H     -2.467267    1.389961    1.321615
  H     -2.291359    1.255317   -1.165337
  H     -2.808739   -0.435021   -1.107730
  H     -1.320290   -2.168959   -0.198980
  H      0.999583   -2.854519    0.261004
  H      2.795282   -1.151564    0.391979
  H     -0.068528    1.906612   -0.397094
  H      2.138733    2.269444   -0.064352

 Total Charge           Charge          ....    0
 Multiplicity           Mult            ....    1
 Number of Electrons    NEL             ....   66
 Basis Dimension        Dim             ....  146

ORBITAL ENERGIES
----------------

  NO   OCC          E(Eh)            E(eV)
   0   2.0000     -18.778071      -510.9773
   1   2.0000      -9.948522      -270.7130
   2   2.0000      -9.899953      -269.3914
   3   2.0000      -9.891508      -269.1616
   4   2.0000      -9.889180      -269.0983
   5   2.0000      -9.886964      -269.0380
   6   2.0000      -9.881100      -268.8784
   7   2.0000      -9.880314      -268.8570
   8   2.0000      -9.879075      -268.8233
   9   2.0000      -0.960960       -26.1491
  10   2.0000      -0.773750       -21.0548
  11   2.0000      -0.709599       -19.3092
  12   2.0000      -0.661444       -17.9988
  13   2.0000      -0.648455       -17.6454
  14   2.0000      -0.571297       -15.5458
  15   2.0000      -0.555627       -15.1194
  16   2.0000      -0.516137       -14.0448
  17   2.0000      -0.484389       -13.1809
  18   2.0000      -0.446458       -12.1488
  19   2.0000      -0.421319       -11.4647
  20   2.0000      -0.394919       -10.7463
  21   2.0000      -0.383609       -10.4385
  22   2.0000      -0.377711       -10.2780
  23   2.0000      -0.362956        -9.8765
  24   2.0000      -0.345076        -9.3900
  25   2.0000      -0.334493        -9.1020
  26   2.0000      -0.323005        -8.7894
  27   2.0000      -0.317343        -8.6353
  28   2.0000      -0.297048        -8.0831
  29   2.0000      -0.286652        -7.8002
  30   2.0000      -0.283435        -7.7127
  31   2.0000      -0.220305        -5.9948
  32   2.0000      -0.191763        -5.2181
  33   0.0000      -0.030698        -0.8353
  34   0.0000      -0.015748        -0.4285
  35   0.0000       0.025126         0.6837
  36   0.0000       0.043564         1.1854
  37   0.0000       0.063614         1.7310

MULLIKEN ATOMIC CHARGES
-----------------------
   0 C :   -0.268437
   1 C :   -0.135308
   2 C :    0.075376
   3 C :   -0.117099
   4 C :   -0.048017
   5 C :   -0.127431
   6 C :    0.256438
   7 C :   -0.236081
   8 O :   -0.335498
   9 H :    0.103901
  10 H :    0.105363
  11 H :    0.099610
  12 H :    0.084771
  13 H :    0.088986
  14 H :    0.032156
  15 H :    0.051125
  16 H :    0.043262
  17 H :    0.012470
  18 H :    0.314414
Sum of atomic charges:    0.0000000

LOEWDIN ATOMIC CHARGES
----------------------
   0 C :   -0.332575
   1 C :   -0.215635
   2 C :   -0.029665
   3 C :   -0.150335
   4 C :   -0.112152
   5 C :   -0.155182
   6 C :    0.025125
   7 C :   -0.177820
   8 O :   -0.236991
   9 H :    0.120721
  10 H :    0.118234
  11 H :    0.118657
  12 H :    0.119811
  13 H :    0.122652
  14 H :    0.119348
  15 H :    0.124136
  16 H :    0.129602
  17 H :    0.115979
  18 H :    0.296091

  Mayer bond orders larger than 0.100000
B(  0-C ,  1-C ) :   1.1472 B(  0-C ,  9-H ) :   0.9547 B(  0-C , 10-H ) :   0.9486
B(  0-C , 11-H ) :   0.9549 B(  1-C ,  2-C ) :   1.0569 B(  1-C , 12-H ) :   0.9122
B(  1-C , 13-H ) :   0.9112 B(  2-C ,  3-C ) :   1.3978 B(  2-C ,  7-C ) :   1.3766
B(  3-C ,  4-C ) :   1.3492 B(  3-C , 14-H ) :   0.9635 B(  4-C ,  5-C ) :   1.3717
B(  4-C , 15-H ) :   0.9638 B(  5-C ,  6-C ) :   1.3669 B(  5-C , 16-H ) :   0.9657
B(  6-C ,  7-C ) :   1.2941 B(  6-C ,  8-O ) :   1.1797 B(  7-C , 17-H ) :   0.9485
B(  8-O , 18-H ) :   0.8446

Dispersion correction           -0.018723708
FINAL SINGLE POINT ENERGY      -385.236370065782

DIPOLE MOMENT
-------------

Method             : SCF
Type of density    : Electron Density
Multiplicity       :   1
Irrep              :   0
Energy             :  -385.2956491239870047 Eh
Relativity type    :
Basis              : AO
                                X                 Y                 Z
Electronic contribution:      8.952935385      -0.309064559      -1.042632089
Nuclear contribution   :     -9.353492222       0.796476559       0.958103801
                        -----------------------------------------
Total Dipole Moment    :     -0.400556837       0.487412001      -0.084528288
                        -----------------------------------------
Magnitude (a.u.)       :      0.636522796
Magnitude (Debye)      :      1.617912370

Rotational constants in cm-1:             0.099391             0.039067             0.030151
Rotational constants in MHz :          2979.681667          1171.209470           903.900624

                             ****ORCA TERMINATED NORMALLY****
TOTAL RUN TIME: 0 days 0 hours 0 minutes 7 seconds 791 msec
