                         Program Version 6.0.1  -  RELEASE   -
|  1> ! pbe def2-sv(p) def2/J RI DEFGRID1 loosescf d4 GCP(DFT/SV(P)) printgap
|  2> %output
|  3>     printlevel normal
|  4> end
|  5> * xyz 0 1
|  6> C -2.4618898018 -0.8474129103 -0.0419548469
|  7> C -1.0912221385 -0.5469771054 0.57700524
|  8> H -1.0834241933 -0.8735833761 1.6305188007
|  9> C -0.7544432329 0.9677091889 0.5480310615
| 10> H -1.6399680492 1.5119834767 0.202050204
| 11> C 0.3949307218 1.2300600541 -0.4389156374
| 12> H 0.694722209 2.2847612366 -0.3388853029
| 13> C 1.6151546217 0.36598882 -0.0608374216
| 14> H 2.3044989895 0.3232386951 -0.918058172
| 15> C 1.1694585692 -1.0853140592 0.2448639641
| 16> H 1.255149673 -1.2498476151 1.3454841338
| 17> O -0.1479472065 -1.3226082031 -0.1479573206
| 18> O 1.9953211968 -1.9636375895 -0.4424382471
| 19> O 2.2409295396 0.9651289886 1.0508624587
| 20> O -0.0603554149 0.9553261962 -1.7377624572
| 21> O -0.4500317845 1.4635657396 1.8224290365
| 22> O -2.7038042619 -0.1366301875 -1.2216372447
| 23> H -3.2491814704 -0.5680537577 0.6627213519
| 24> H -2.5119490221 -1.9313057921 -0.2245038798
| 25> H 1.4771912346 -2.7506803625 -0.6501010561
| 26> H 3.0482487328 0.480250021 1.2564104241
| 27> H 0.6487947818 1.1184135549 -2.3695233983
| 28> H 0.4965551187 1.3434026227 1.9887722261
| 29> H -1.873940296 -0.0734530667 -1.7155172818
| 30> *
| 31>
| 32>                          ****END OF INPUT****

CARTESIAN COORDINATES (ANGSTROEM)
---------------------------------
  C     -2.461890   -0.847413   -0.041955
  C     -1.091222   -0.546977    0.577005
  H     -1.083424   -0.873583    1.630519
  C     -0.754443    0.967709    0.548031
  H     -1.639968    1.511983    0.202050
  C      0.394931    1.230060   -0.438916
  H      0.694722    2.284761   -0.338885
  C      1.615155    0.365989   -0.060837
  H      2.304499    0.323239   -0.918058
  C      1.169459   -1.085314    0.244864
  H      1.255150   -1.249848    1.345484
  O     -0.147947   -1.322608   -0.147957
  O      1.995321   -1.963638   -0.442438
  O      2.240930    0.965129    1.050862
  O     -0.060355    0.955326   -1.737762
  O     -0.450032    1.463566    1.822429
  O     -2.703804   -0.136630   -1.221637
  H     -3.249181   -0.568054    0.662721
  H     -2.511949   -1.931306   -0.224504
  H      1.477191   -2.750680   -0.650101
  H      3.048249    0.480250    1.256410
  H      0.648795    1.118414   -2.369523
  H      0.496555    1.343403    1.988772
  H     -1.873940   -0.073453   -1.715517

 Total Charge           Charge          ....    0
 Multiplicity           Mult            ....    1
 Number of Electrons    NEL             ....   96
 Basis Dimension        Dim             ....  192

ORBITAL ENERGIES
----------------

  NO   OCC          E(Eh)            E(eV)
   0   2.0000     -18.785662      -511.1839
   1   2.0000     -18.776749      -510.9413
   2   2.0000     -18.776612      -510.9376
   3   2.0000     -18.766594      -510.6650
   4   2.0000     -18.739388      -509.9247
   5   2.0000     -18.729494      -509.6554
   6   2.0000      -9.995599      -271.9941
   7   2.0000      -9.956554      -270.9316
   8   2.0000      -9.956227      -270.9227
   9   2.0000      -9.940658      -270.4991
  10   2.0000      -9.939235      -270.4603
  11   2.0000      -9.924394      -270.0565
  12   2.0000      -0.996049       -27.1039
  13   2.0000      -0.961738       -26.1702
  14   2.0000      -0.951847       -25.9011
  15   2.0000      -0.928872       -25.2759
  16   2.0000      -0.917488       -24.9661
  17   2.0000      -0.907390       -24.6913
  18   2.0000      -0.703808       -19.1516
  19   2.0000      -0.691704       -18.8222
  20   2.0000      -0.623576       -16.9684
  21   2.0000      -0.595902       -16.2153
  22   2.0000      -0.564526       -15.3615
  23   2.0000      -0.531471       -14.4621
  24   2.0000      -0.511610       -13.9216
  25   2.0000      -0.492803       -13.4098
  26   2.0000      -0.477033       -12.9807
  27   2.0000      -0.468493       -12.7483
  28   2.0000      -0.459751       -12.5105
  29   2.0000      -0.438047       -11.9199
  30   2.0000      -0.421453       -11.4683
  31   2.0000      -0.398972       -10.8566
  32   2.0000      -0.389623       -10.6022
  33   2.0000      -0.371182       -10.1004
  34   2.0000      -0.359628        -9.7860
  35   2.0000      -0.351159        -9.5555
  36   2.0000      -0.342890        -9.3305
  37   2.0000      -0.324873        -8.8402
  38   2.0000      -0.320089        -8.7101
  39   2.0000      -0.312581        -8.5057
  40   2.0000      -0.274565        -7.4713
  41   2.0000      -0.264081        -7.1860
  42   2.0000      -0.259840        -7.0706
  43   2.0000      -0.252039        -6.8583
  44   2.0000      -0.248916        -6.7734
  45   2.0000      -0.221631        -6.0309
  46   2.0000      -0.208197        -5.6653
  47   2.0000      -0.199839        -5.4379
  48   0.0000       0.001079         0.0294
  49   0.0000       0.014312         0.3895
  50   0.0000       0.034778         0.9464
  51   0.0000       0.049810         1.3554
  52   0.0000       0.063512         1.7282

MULLIKEN ATOMIC CHARGES
-----------------------
   0 C :    0.092041
   1 C :   -0.013639
   2 H :    0.062165
   3 C :    0.017627
   4 H :    0.097127
   5 C :    0.038628
   6 H :    0.089009
   7 C :   -0.001431
   8 H :    0.065359
   9 C :    0.215002
  10 H :    0.029499
  11 O :   -0.302690
  12 O :   -0.394506
  13 O :   -0.418086
  14 O :   -0.409114
  15 O :   -0.421131
  16 O :   -0.444087
  17 H :    0.088325
  18 H :    0.072427
  19 H :    0.306100
  20 H :    0.318317
  21 H :    0.308822
  22 H :    0.300226
  23 H :    0.304009
Sum of atomic charges:   -0.0000000

LOEWDIN ATOMIC CHARGES
----------------------
   0 C :   -0.119813
   1 C :   -0.079979
   2 H :    0.108184
   3 C :   -0.069540
   4 H :    0.124836
   5 C :   -0.070217
   6 H :    0.111706
   7 C :   -0.093609
   8 H :    0.106769
   9 C :    0.000394
  10 H :    0.073282
  11 O :   -0.150092
  12 O :   -0.310255
  13 O :   -0.306796
  14 O :   -0.300748
  15 O :   -0.318007
  16 O :   -0.338907
  17 H :    0.114641
  18 H :    0.098575
  19 H :    0.289246
  20 H :    0.297461
  21 H :    0.290704
  22 H :    0.270352
  23 H :    0.271813

  Mayer bond orders larger than 0.100000
B(  0-C ,  1-C ) :   1.0532 B(  0-C , 16-O ) :   1.0920 B(  0-C , 17-H ) :   0.9208
B(  0-C , 18-H ) :   0.9093 B(  1-C ,  2-H ) :   0.8766 B(  1-C ,  3-C ) :   0.9507
B(  1-C , 11-O ) :   0.9734 B(  3-C ,  4-H ) :   0.8909 B(  3-C ,  5-C ) :   1.0273
B(  3-C , 15-O ) :   1.0807 B(  5-C ,  6-H ) :   0.8994 B(  5-C ,  7-C ) :   0.9864
B(  5-C , 14-O ) :   1.0312 B(  7-C ,  8-H ) :   0.8861 B(  7-C ,  9-C ) :   0.9545
B(  7-C , 13-O ) :   1.0290 B(  9-C , 10-H ) :   0.8807 B(  9-C , 11-O ) :   1.0781
B(  9-C , 12-O ) :   1.1486 B( 12-O , 19-H ) :   0.8381 B( 13-O , 20-H ) :   0.8403
B( 14-O , 21-H ) :   0.8383 B( 15-O , 22-H ) :   0.8134 B( 16-O , 23-H ) :   0.8110

Dispersion correction           -0.025400855
FINAL SINGLE POINT ENERGY      -685.689487443459

DIPOLE MOMENT
-------------

Method             : SCF
Type of density    : Electron Density
Multiplicity       :   1
Irrep              :   0
Energy             :  -685.8227322273802429 Eh
Relativity type    :
Basis              : AO
                                X                 Y                 Z
Electronic contribution:      1.952885308      -0.129195979      -0.979461581
Nuclear contribution   :     -0.393561736      -0.361653245       0.805593066
                        -----------------------------------------
Total Dipole Moment    :      1.559323572      -0.490849223      -0.173868515
                        -----------------------------------------
Magnitude (a.u.)       :      1.643974824
Magnitude (Debye)      :      4.178651919

Rotational constants in cm-1:             0.041811             0.027684             0.023395
Rotational constants in MHz :          1253.472149           829.957694           701.371366

                             ****ORCA TERMINATED NORMALLY****
TOTAL RUN TIME: 0 days 0 hours 0 minutes 10 seconds 738 msec
