                         Program Version 6.0.1  -  RELEASE   -
|  1> ! pbe def2-sv(p) def2/J RI DEFGRID1 loosescf d4 GCP(DFT/SV(P)) printgap
|  2> %output
|  3>     printlevel normal
|  4> end
|  5> * xyz 0 1
|  6> C -2.5570671739 -0.8195184194 1.0417390765
|  7> C -2.0213761667 -0.3714750677 -0.322742414
|  8> H -2.883037928 -0.2628851871 -0.9923682549
|  9> C -1.0379266968 -1.3693506759 -0.9292346665
| 10> C 0.2609972735 -1.4795824195 -0.1269299396
| 11> C 0.773442834 -0.1112312798 0.3662831224
| 12> H 0.5110156911 0.0060550073 1.4226938365
| 13> C 0.0962061127 1.0443652616 -0.3870408742
| 14> C -1.3961405384 1.0050960129 -0.1791955991
| 15> O -2.0467559078 1.9832786214 0.0932610345
| 16> C 2.2740935125 0.002710853 0.2562553588
| 17> C 3.0236766814 0.2377128247 1.3218943547
| 18> C 2.8906890973 -0.1533590378 -1.1067991419
| 19> H -3.2528163011 -0.0766235023 1.4238254034
| 20> H -3.0760997858 -1.770706207 0.9464395049
| 21> H -1.7492277359 -0.934508323 1.7594401411
| 22> H -1.5086497538 -2.3529087533 -0.9889955199
| 23> H -0.8119695523 -1.0585432276 -1.9520632286
| 24> H 0.106588084 -2.1302010179 0.7347093565
| 25> H 1.0145227345 -1.9594700572 -0.7526360126
| 26> H 0.4845034651 2.0034216049 -0.0396708575
| 27> H 0.2916565144 0.9687065026 -1.4587227349
| 28> H 4.0947178544 0.3281769564 1.2515789355
| 29> H 2.6018862996 0.3484054206 2.3061712617
| 30> H 2.1381555073 -0.2105717717 -1.8878434775
| 31> H 3.5476646735 0.6870182811 -1.3221289163
| 32> H 3.493922558 -1.0598410184 -1.1470743844
| 33> *
| 34>
| 35>                          ****END OF INPUT****

CARTESIAN COORDINATES (ANGSTROEM)
---------------------------------
  C     -2.557067   -0.819518    1.041739
  C     -2.021376   -0.371475   -0.322742
  H     -2.883038   -0.262885   -0.992368
  C     -1.037927   -1.369351   -0.929235
  C      0.260997   -1.479582   -0.126930
  C      0.773443   -0.111231    0.366283
  H      0.511016    0.006055    1.422694
  C      0.096206    1.044365   -0.387041
  C     -1.396141    1.005096   -0.179196
  O     -2.046756    1.983279    0.093261
  C      2.274094    0.002711    0.256255
  C      3.023677    0.237713    1.321894
  C      2.890689   -0.153359   -1.106799
  H     -3.252816   -0.076624    1.423825
  H     -3.076100   -1.770706    0.946440
  H     -1.749228   -0.934508    1.759440
  H     -1.508650   -2.352909   -0.988996
  H     -0.811970   -1.058543   -1.952063
  H      0.106588   -2.130201    0.734709
  H      1.014523   -1.959470   -0.752636
  H      0.484503    2.003422   -0.039671
  H      0.291657    0.968707   -1.458723
  H      4.094718    0.328177    1.251579
  H      2.601886    0.348405    2.306171
  H      2.138156   -0.210572   -1.887843
  H      3.547665    0.687018   -1.322129
  H      3.493923   -1.059841   -1.147074

 Total Charge           Charge          ....    0
 Multiplicity           Mult            ....    1
 Number of Electrons    NEL             ....   84
 Basis Dimension        Dim             ....  186

ORBITAL ENERGIES
----------------

  NO   OCC          E(Eh)            E(eV)
   0   2.0000     -18.738372      -509.8970
   1   2.0000      -9.968816      -271.2653
   2   2.0000      -9.908313      -269.6189
   3   2.0000      -9.904133      -269.5052
   4   2.0000      -9.901522      -269.4341
   5   2.0000      -9.894299      -269.2376
   6   2.0000      -9.893653      -269.2200
   7   2.0000      -9.893344      -269.2116
   8   2.0000      -9.888099      -269.0688
   9   2.0000      -9.885608      -269.0011
  10   2.0000      -9.874603      -268.7016
  11   2.0000      -0.938420       -25.5357
  12   2.0000      -0.773551       -21.0494
  13   2.0000      -0.730234       -19.8707
  14   2.0000      -0.682273       -18.5656
  15   2.0000      -0.659794       -17.9539
  16   2.0000      -0.622737       -16.9455
  17   2.0000      -0.610482       -16.6121
  18   2.0000      -0.552984       -15.0475
  19   2.0000      -0.532465       -14.4891
  20   2.0000      -0.477340       -12.9891
  21   2.0000      -0.457549       -12.4506
  22   2.0000      -0.445269       -12.1164
  23   2.0000      -0.425626       -11.5819
  24   2.0000      -0.412242       -11.2177
  25   2.0000      -0.403568       -10.9817
  26   2.0000      -0.392235       -10.6733
  27   2.0000      -0.379758       -10.3337
  28   2.0000      -0.369895       -10.0654
  29   2.0000      -0.361696        -9.8422
  30   2.0000      -0.355322        -9.6688
  31   2.0000      -0.346687        -9.4338
  32   2.0000      -0.339419        -9.2360
  33   2.0000      -0.333470        -9.0742
  34   2.0000      -0.320855        -8.7309
  35   2.0000      -0.314167        -8.5489
  36   2.0000      -0.307255        -8.3608
  37   2.0000      -0.291899        -7.9430
  38   2.0000      -0.278079        -7.5669
  39   2.0000      -0.276990        -7.5373
  40   2.0000      -0.220583        -6.0024
  41   2.0000      -0.190449        -5.1824
  42   0.0000      -0.050523        -1.3748
  43   0.0000      -0.018633        -0.5070
  44   0.0000       0.021886         0.5955
  45   0.0000       0.035697         0.9714
  46   0.0000       0.054293         1.4774

MULLIKEN ATOMIC CHARGES
-----------------------
   0 C :   -0.255374
   1 C :   -0.179997
   2 H :    0.091246
   3 C :   -0.087591
   4 C :   -0.130447
   5 C :   -0.189265
   6 H :    0.066860
   7 C :   -0.065751
   8 C :    0.014808
   9 O :   -0.154074
  10 C :   -0.023874
  11 C :   -0.227589
  12 C :   -0.243591
  13 H :    0.120005
  14 H :    0.105863
  15 H :    0.108610
  16 H :    0.086187
  17 H :    0.074737
  18 H :    0.090490
  19 H :    0.090800
  20 H :    0.092329
  21 H :    0.099652
  22 H :    0.079907
  23 H :    0.087324
  24 H :    0.106956
  25 H :    0.120284
  26 H :    0.121495
Sum of atomic charges:   -0.0000000

LOEWDIN ATOMIC CHARGES
----------------------
   0 C :   -0.319740
   1 C :   -0.175864
   2 H :    0.137378
   3 C :   -0.219874
   4 C :   -0.217548
   5 C :   -0.127158
   6 H :    0.122099
   7 C :   -0.233652
   8 C :    0.051232
   9 O :   -0.122156
  10 C :   -0.049928
  11 C :   -0.264567
  12 C :   -0.330001
  13 H :    0.128750
  14 H :    0.121686
  15 H :    0.118670
  16 H :    0.121579
  17 H :    0.116011
  18 H :    0.122593
  19 H :    0.123596
  20 H :    0.133854
  21 H :    0.138008
  22 H :    0.116417
  23 H :    0.118145
  24 H :    0.118785
  25 H :    0.135728
  26 H :    0.135958

  Mayer bond orders larger than 0.100000
B(  0-C ,  1-C ) :   1.0948 B(  0-C , 13-H ) :   0.9426 B(  0-C , 14-H ) :   0.9477
B(  0-C , 15-H ) :   0.9449 B(  1-C ,  2-H ) :   0.8713 B(  1-C ,  3-C ) :   1.1014
B(  1-C ,  8-C ) :   0.9187 B(  3-C ,  4-C ) :   1.1527 B(  3-C , 16-H ) :   0.9102
B(  3-C , 17-H ) :   0.8931 B(  4-C ,  5-C ) :   1.0530 B(  4-C , 18-H ) :   0.9130
B(  4-C , 19-H ) :   0.9049 B(  5-C ,  6-H ) :   0.8772 B(  5-C ,  7-C ) :   1.1047
B(  5-C , 10-C ) :   1.0285 B(  7-C ,  8-C ) :   1.0657 B(  7-C , 20-H ) :   0.8958
B(  7-C , 21-H ) :   0.8492 B(  8-C ,  9-O ) :   2.1968 B( 10-C , 11-C ) :   2.0392
B( 10-C , 12-C ) :   1.0918 B( 11-C , 22-H ) :   0.9149 B( 11-C , 23-H ) :   0.9078
B( 12-C , 24-H ) :   0.9334 B( 12-C , 25-H ) :   0.9367 B( 12-C , 26-H ) :   0.9310

Dispersion correction           -0.028834636
FINAL SINGLE POINT ENERGY      -464.822038524333

DIPOLE MOMENT
-------------

Method             : SCF
Type of density    : Electron Density
Multiplicity       :   1
Irrep              :   0
Energy             :  -464.9074597988351343 Eh
Relativity type    :
Basis              : AO
                                X                 Y                 Z
Electronic contribution:     -4.169315202       6.056035249       0.298785704
Nuclear contribution   :      4.663139037      -6.982893075      -0.652186037
                        -----------------------------------------
Total Dipole Moment    :      0.493823835      -0.926857826      -0.353400333
                        -----------------------------------------
Magnitude (a.u.)       :      1.108070036
Magnitude (Debye)      :      2.816490202

Rotational constants in cm-1:             0.062630             0.024212             0.021706
Rotational constants in MHz :          1877.613253           725.860585           650.728801

                             ****ORCA TERMINATED NORMALLY****
TOTAL RUN TIME: 0 days 0 hours 0 minutes 26 seconds 907 msec
