                         Program Version 6.0.1  -  RELEASE   -
|  1> ! r2scan-3c def2/J RI DEFGRID2 scfconv6 printgap
|  2> %output
|  3>     printlevel normal
|  4> end
|  5> * xyz 0 1
|  6> C 1.7226989626 1.4764049916 0.4423258215
|  7> C 0.4436386022 0.77837457 0.920395092
|  8> H 0.2490611107 1.141053211 1.9331138626
|  9> C 0.443342899 -0.7777232164 0.921005452
| 10> H 0.2486724456 -1.1394572667 1.9340020364
| 11> C 1.721862366 -1.4770311202 0.4434480353
| 12> O 2.7695177534 -1.2830190578 1.3480466684
| 13> S 3.8055725145 -0.0007502303 1.0418882977
| 14> O 4.7309005183 -0.0006764046 2.114131129
| 15> O 2.770136166 1.2822393248 1.3472122902
| 16> C -0.7778677991 -1.1168487743 0.0259078878
| 17> C -0.4425785458 -0.6708162051 -1.3845538287
| 18> C -0.442089991 0.6700306438 -1.3852064166
| 19> C -0.7772498573 1.1174094333 0.0249347465
| 20> C -1.7696178644 0.0006737554 0.4250824904
| 21> Cl -3.2453449094 0.0007205009 -0.54717997
| 22> Cl -2.2180252065 0.001643918 2.1248012606
| 23> Cl -1.3573393151 2.7625101629 0.1724573673
| 24> Cl -0.0759339296 1.7383469115 -2.643058152
| 25> Cl -0.0776739692 -1.7404882384 -2.6418209544
| 26> Cl -1.3586579345 -2.7615343157 0.1748733796
| 27> H 1.5292569065 2.553246614 0.392961106
| 28> H 2.0094604395 1.1323161275 -0.5597967876
| 29> H 1.5273804268 -2.5536758017 0.3950850688
| 30> H 2.0089435185 -1.1343266462 -0.5589413504
| 31> *
| 32>
| 33>                          ****END OF INPUT****

CARTESIAN COORDINATES (ANGSTROEM)
---------------------------------
  C      1.722699    1.476405    0.442326
  C      0.443639    0.778375    0.920395
  H      0.249061    1.141053    1.933114
  C      0.443343   -0.777723    0.921005
  H      0.248672   -1.139457    1.934002
  C      1.721862   -1.477031    0.443448
  O      2.769518   -1.283019    1.348047
  S      3.805573   -0.000750    1.041888
  O      4.730901   -0.000676    2.114131
  O      2.770136    1.282239    1.347212
  C     -0.777868   -1.116849    0.025908
  C     -0.442579   -0.670816   -1.384554
  C     -0.442090    0.670031   -1.385206
  C     -0.777250    1.117409    0.024935
  C     -1.769618    0.000674    0.425082
  Cl    -3.245345    0.000721   -0.547180
  Cl    -2.218025    0.001644    2.124801
  Cl    -1.357339    2.762510    0.172457
  Cl    -0.075934    1.738347   -2.643058
  Cl    -0.077674   -1.740488   -2.641821
  Cl    -1.358658   -2.761534    0.174873
  H      1.529257    2.553247    0.392961
  H      2.009460    1.132316   -0.559797
  H      1.527380   -2.553676    0.395085
  H      2.008944   -1.134327   -0.558941

 Total Charge           Charge          ....    0
 Multiplicity           Mult            ....    1
 Number of Electrons    NEL             ....  202
 Basis Dimension        Dim             ....  462

ORBITAL ENERGIES
----------------

  NO   OCC          E(Eh)            E(eV)
   0   2.0000    -101.266068     -2755.5898
   1   2.0000    -101.266048     -2755.5893
   2   2.0000    -101.250969     -2755.1789
   3   2.0000    -101.245920     -2755.0415
   4   2.0000    -101.245918     -2755.0415
   5   2.0000    -101.242511     -2754.9488
   6   2.0000     -88.749898     -2415.0075
   7   2.0000     -19.009726      -517.2809
   8   2.0000     -19.009720      -517.2808
   9   2.0000     -18.975303      -516.3442
  10   2.0000     -10.206993      -277.7464
  11   2.0000     -10.170238      -276.7462
  12   2.0000     -10.170230      -276.7460
  13   2.0000     -10.145142      -276.0634
  14   2.0000     -10.144459      -276.0448
  15   2.0000     -10.124101      -275.4908
  16   2.0000     -10.124086      -275.4904
  17   2.0000     -10.095169      -274.7035
  18   2.0000     -10.095068      -274.7008
  19   2.0000      -9.421423      -256.3700
  20   2.0000      -9.421401      -256.3693
  21   2.0000      -9.407062      -255.9792
  22   2.0000      -9.401792      -255.8358
  23   2.0000      -9.401789      -255.8357
  24   2.0000      -9.398494      -255.7460
  25   2.0000      -8.025540      -218.3860
  26   2.0000      -7.167979      -195.0506
  27   2.0000      -7.167957      -195.0500
  28   2.0000      -7.157812      -194.7740
  29   2.0000      -7.157790      -194.7734
  30   2.0000      -7.156838      -194.7475
  31   2.0000      -7.156816      -194.7469
  32   2.0000      -7.153834      -194.6657
  33   2.0000      -7.148467      -194.5197
  34   2.0000      -7.148464      -194.5196
  35   2.0000      -7.145472      -194.4382
  36   2.0000      -7.142842      -194.3666
  37   2.0000      -7.142751      -194.3641
  38   2.0000      -7.137700      -194.2267
  39   2.0000      -7.137698      -194.2266
  40   2.0000      -7.137473      -194.2205
  41   2.0000      -7.137470      -194.2204
  42   2.0000      -7.134184      -194.1310
  43   2.0000      -7.134071      -194.1279
  44   2.0000      -5.972855      -162.5297
  45   2.0000      -5.971920      -162.5042
  46   2.0000      -5.962996      -162.2614
  47   2.0000      -1.109175       -30.1822
  48   2.0000      -1.030253       -28.0346
  49   2.0000      -1.025573       -27.9073
  50   2.0000      -0.978798       -26.6344
  51   2.0000      -0.900699       -24.5093
  52   2.0000      -0.887445       -24.1486
  53   2.0000      -0.859167       -23.3791
  54   2.0000      -0.851587       -23.1728
  55   2.0000      -0.825581       -22.4652
  56   2.0000      -0.818666       -22.2770
  57   2.0000      -0.779722       -21.2173
  58   2.0000      -0.740824       -20.1589
  59   2.0000      -0.714713       -19.4483
  60   2.0000      -0.675290       -18.3756
  61   2.0000      -0.673381       -18.3236
  62   2.0000      -0.612727       -16.6731
  63   2.0000      -0.590182       -16.0597
  64   2.0000      -0.572636       -15.5822
  65   2.0000      -0.546955       -14.8834
  66   2.0000      -0.525759       -14.3066
  67   2.0000      -0.523998       -14.2587
  68   2.0000      -0.519804       -14.1446
  69   2.0000      -0.502908       -13.6848
  70   2.0000      -0.490052       -13.3350
  71   2.0000      -0.468278       -12.7425
  72   2.0000      -0.457728       -12.4554
  73   2.0000      -0.456577       -12.4241
  74   2.0000      -0.447716       -12.1830
  75   2.0000      -0.438266       -11.9258
  76   2.0000      -0.430835       -11.7236
  77   2.0000      -0.427872       -11.6430
  78   2.0000      -0.419097       -11.4042
  79   2.0000      -0.411308       -11.1923
  80   2.0000      -0.397265       -10.8101
  81   2.0000      -0.379824       -10.3355
  82   2.0000      -0.379365       -10.3230
  83   2.0000      -0.353996        -9.6327
  84   2.0000      -0.353419        -9.6170
  85   2.0000      -0.344630        -9.3779
  86   2.0000      -0.336949        -9.1688
  87   2.0000      -0.331876        -9.0308
  88   2.0000      -0.322987        -8.7889
  89   2.0000      -0.322234        -8.7684
  90   2.0000      -0.319329        -8.6894
  91   2.0000      -0.317920        -8.6511
  92   2.0000      -0.311960        -8.4889
  93   2.0000      -0.308941        -8.4067
  94   2.0000      -0.306829        -8.3492
  95   2.0000      -0.303020        -8.2456
  96   2.0000      -0.299620        -8.1531
  97   2.0000      -0.297971        -8.1082
  98   2.0000      -0.271322        -7.3831
  99   2.0000      -0.261932        -7.1275
 100   2.0000      -0.250120        -6.8061
 101   0.0000      -0.081944        -2.2298
 102   0.0000      -0.074201        -2.0191
 103   0.0000      -0.034889        -0.9494
 104   0.0000      -0.034299        -0.9333
 105   0.0000      -0.022436        -0.6105

MULLIKEN ATOMIC CHARGES
-----------------------
   0 C :   -0.304119
   1 C :   -0.139598
   2 H :    0.223866
   3 C :   -0.139532
   4 H :    0.223860
   5 C :   -0.304331
   6 O :   -0.230903
   7 S :    0.614862
   8 O :   -0.439001
   9 O :   -0.230916
  10 C :    0.321362
  11 C :   -0.206718
  12 C :   -0.206614
  13 C :    0.321234
  14 C :    0.096896
  15 Cl:   -0.064007
  16 Cl:   -0.059022
  17 Cl:   -0.077541
  18 Cl:   -0.018763
  19 Cl:   -0.018864
  20 Cl:   -0.077525
  21 H :    0.185853
  22 H :    0.171797
  23 H :    0.185863
  24 H :    0.171862
Sum of atomic charges:   -0.0000000

LOEWDIN ATOMIC CHARGES
----------------------
   0 C :    0.015607
   1 C :   -0.177394
   2 H :    0.196744
   3 C :   -0.177371
   4 H :    0.196743
   5 C :    0.015583
   6 O :   -0.663948
   7 S :    1.054829
   8 O :   -0.467599
   9 O :   -0.663955
  10 C :   -0.232030
  11 C :   -0.243249
  12 C :   -0.243300
  13 C :   -0.232009
  14 C :   -0.293232
  15 Cl:    0.174959
  16 Cl:    0.181537
  17 Cl:    0.173055
  18 Cl:    0.225687
  19 Cl:    0.225566
  20 Cl:    0.173079
  21 H :    0.199946
  22 H :    0.180403
  23 H :    0.199954
  24 H :    0.180394

  Mayer bond orders larger than 0.100000
B(  0-C ,  1-C ) :   0.8383 B(  0-C ,  9-O ) :   0.9239 B(  0-C , 21-H ) :   0.9541
B(  0-C , 22-H ) :   0.9774 B(  1-C ,  2-H ) :   0.9449 B(  1-C ,  3-C ) :   0.9434
B(  1-C , 13-C ) :   0.8813 B(  3-C ,  4-H ) :   0.9449 B(  3-C ,  5-C ) :   0.8382
B(  3-C , 10-C ) :   0.8813 B(  5-C ,  6-O ) :   0.9240 B(  5-C , 23-H ) :   0.9541
B(  5-C , 24-H ) :   0.9775 B(  6-O ,  7-S ) :   0.7632 B(  7-S ,  8-O ) :   1.7034
B(  7-S ,  9-O ) :   0.7632 B( 10-C , 11-C ) :   0.7954 B( 10-C , 14-C ) :   0.8442
B( 10-C , 20-Cl) :   1.0690 B( 11-C , 12-C ) :   1.3679 B( 11-C , 19-Cl) :   1.2358
B( 12-C , 13-C ) :   0.7955 B( 12-C , 18-Cl) :   1.2358 B( 13-C , 14-C ) :   0.8442
B( 13-C , 17-Cl) :   1.0690 B( 14-C , 15-Cl) :   1.0560 B( 14-C , 16-Cl) :   1.0346

Dispersion correction           -0.018487322
FINAL SINGLE POINT ENERGY     -3731.287445029366

DIPOLE MOMENT
-------------

Method             : SCF
Type of density    : Electron Density
Multiplicity       :   1
Irrep              :   0
Energy             : -3731.2981524160177287 Eh
Relativity type    :
Basis              : AO
                                X                 Y                 Z
Electronic contribution:    -18.706437369       0.002388338      -8.755253609
Nuclear contribution   :     18.330886155      -0.002400636       7.868464978
                        -----------------------------------------
Total Dipole Moment    :     -0.375551214      -0.000012298      -0.886788631
                        -----------------------------------------
Magnitude (a.u.)       :      0.963033120
Magnitude (Debye)      :      2.447835660

Rotational constants in cm-1:             0.009658             0.006006             0.005754
Rotational constants in MHz :           289.528321           180.054773           172.508336

                             ****ORCA TERMINATED NORMALLY****
TOTAL RUN TIME: 0 days 0 hours 1 minutes 10 seconds 322 msec
