                         Program Version 6.0.1  -  RELEASE   -
|  1> ! pbe def2-sv(p) def2/J RI DEFGRID1 loosescf d4 GCP(DFT/SV(P)) printgap
|  2> %output
|  3>     printlevel normal
|  4> end
|  5> * xyz 0 1
|  6> C -1.1837990206 -0.1524114602 -0.5996967414
|  7> C 0.3380755387 -0.3348885214 -0.6832302875
|  8> Cl 0.7919746489 -1.9372686671 -0.0422516709
|  9> Cl 1.2646897568 0.9071482713 0.1827021499
| 10> Cl -1.6975368517 1.2330943625 0.392980134
| 11> H -1.5903263433 0.01403034 -1.5972093162
| 12> H -1.6441062247 -1.036260765 -0.1581665945
| 13> H 0.6804446423 -0.3103184013 -1.71965036
| 14> *
| 15>
| 16>                          ****END OF INPUT****

CARTESIAN COORDINATES (ANGSTROEM)
---------------------------------
  C     -1.183799   -0.152411   -0.599697
  C      0.338076   -0.334889   -0.683230
  Cl     0.791975   -1.937269   -0.042252
  Cl     1.264690    0.907148    0.182702
  Cl    -1.697537    1.233094    0.392980
  H     -1.590326    0.014030   -1.597209
  H     -1.644106   -1.036261   -0.158167
  H      0.680445   -0.310318   -1.719650

 Total Charge           Charge          ....    0
 Multiplicity           Mult            ....    1
 Number of Electrons    NEL             ....   66
 Basis Dimension        Dim             ....   88

ORBITAL ENERGIES
----------------

  NO   OCC          E(Eh)            E(eV)
   0   2.0000    -100.645095     -2738.6923
   1   2.0000    -100.642890     -2738.6323
   2   2.0000    -100.634740     -2738.4105
   3   2.0000     -10.017661      -272.5944
   4   2.0000      -9.966978      -271.2153
   5   2.0000      -9.181488      -249.8410
   6   2.0000      -9.179059      -249.7749
   7   2.0000      -9.170427      -249.5400
   8   2.0000      -7.013242      -190.8400
   9   2.0000      -7.011071      -190.7810
  10   2.0000      -7.002552      -190.5491
  11   2.0000      -7.001153      -190.5111
  12   2.0000      -7.000739      -190.4998
  13   2.0000      -6.998632      -190.4425
  14   2.0000      -6.998149      -190.4293
  15   2.0000      -6.989908      -190.2051
  16   2.0000      -6.989607      -190.1969
  17   2.0000      -0.844098       -22.9691
  18   2.0000      -0.780291       -21.2328
  19   2.0000      -0.750392       -20.4192
  20   2.0000      -0.654281       -17.8039
  21   2.0000      -0.552887       -15.0448
  22   2.0000      -0.467060       -12.7093
  23   2.0000      -0.438315       -11.9272
  24   2.0000      -0.421535       -11.4706
  25   2.0000      -0.387317       -10.5394
  26   2.0000      -0.371512       -10.1094
  27   2.0000      -0.293580        -7.9887
  28   2.0000      -0.288006        -7.8370
  29   2.0000      -0.267336        -7.2746
  30   2.0000      -0.265627        -7.2281
  31   2.0000      -0.254383        -6.9221
  32   2.0000      -0.248873        -6.7722
  33   0.0000      -0.040999        -1.1156
  34   0.0000      -0.024718        -0.6726
  35   0.0000       0.021388         0.5820
  36   0.0000       0.033678         0.9164
  37   0.0000       0.090461         2.4616

MULLIKEN ATOMIC CHARGES
-----------------------
   0 C :   -0.120250
   1 C :   -0.108439
   2 Cl:   -0.085985
   3 Cl:   -0.056645
   4 Cl:   -0.114965
   5 H :    0.150029
   6 H :    0.161318
   7 H :    0.174938
Sum of atomic charges:   -0.0000000

LOEWDIN ATOMIC CHARGES
----------------------
   0 C :   -0.319681
   1 C :   -0.292656
   2 Cl:    0.068831
   3 Cl:    0.082257
   4 Cl:    0.056945
   5 H :    0.136207
   6 H :    0.134371
   7 H :    0.133727

  Mayer bond orders larger than 0.100000
B(  0-C ,  1-C ) :   0.9703 B(  0-C ,  4-Cl) :   1.0943 B(  0-C ,  5-H ) :   0.9206
B(  0-C ,  6-H ) :   0.9241 B(  1-C ,  2-Cl) :   1.0416 B(  1-C ,  3-Cl) :   1.1073
B(  1-C ,  7-H ) :   0.9119

Dispersion correction           -0.008769526
FINAL SINGLE POINT ENERGY     -1457.408781654727

DIPOLE MOMENT
-------------

Method             : SCF
Type of density    : Electron Density
Multiplicity       :   1
Irrep              :   0
Energy             : -1457.4303509450624006 Eh
Relativity type    :
Basis              : AO
                                X                 Y                 Z
Electronic contribution:      2.617978034       1.251065968       3.238617960
Nuclear contribution   :     -2.878117237      -1.522600263      -3.976165392
                        -----------------------------------------
Total Dipole Moment    :     -0.260139203      -0.271534295      -0.737547432
                        -----------------------------------------
Magnitude (a.u.)       :      0.827876496
Magnitude (Debye)      :      2.104294823

Rotational constants in cm-1:             0.115992             0.052944             0.039323
Rotational constants in MHz :          3477.338975          1587.223558          1178.870787

                             ****ORCA TERMINATED NORMALLY****
TOTAL RUN TIME: 0 days 0 hours 0 minutes 10 seconds 320 msec
