                         Program Version 6.0.1  -  RELEASE   -
|  1> ! pbe def2-sv(p) def2/J RI DEFGRID1 loosescf d4 GCP(DFT/SV(P)) printgap
|  2> %output
|  3>     printlevel normal
|  4> end
|  5> * xyz 0 1
|  6> C -2.3979086836 0.6561017606 -0.4085265225
|  7> C -1.7590784769 -0.3455471123 0.546634881
|  8> C -0.4397104412 -0.9629689651 0.0711713564
|  9> C 0.8136992592 -0.0658889777 -0.0182623807
| 10> C 0.843252213 0.7373700866 -1.3213627802
| 11> C 0.912248865 0.8858899657 1.1750050808
| 12> C 2.0397992091 -0.9892425102 -0.0090651001
| 13> H -1.8608979191 1.6005269298 -0.4154097676
| 14> H -2.419010232 0.2604028738 -1.4215072548
| 15> H -3.4218188659 0.8605760806 -0.1006874801
| 16> H -1.6209330545 0.1206734244 1.5229716287
| 17> H -2.4601901924 -1.1738306876 0.6847154966
| 18> H -0.6038795222 -1.4195010456 -0.9082356436
| 19> H -0.2100402431 -1.7739469229 0.7681404723
| 20> H 0.7801167281 0.0726052096 -2.180347611
| 21> H 0.0226569803 1.4444836387 -1.3756039745
| 22> H 1.7745402064 1.2963134644 -1.3930248379
| 23> H 1.868627522 1.404771236 1.1587062102
| 24> H 0.8396713392 0.3358389892 2.1108665829
| 25> H 0.1242450671 1.6336051989 1.1481989642
| 26> H 1.9775605413 -1.7148819881 -0.8173808417
| 27> H 2.9534877222 -0.4129062476 -0.1379023916
| 28> H 2.1092634098 -1.5303089106 0.9323254739
| 29> *
| 30>
| 31>                          ****END OF INPUT****

CARTESIAN COORDINATES (ANGSTROEM)
---------------------------------
  C     -2.397909    0.656102   -0.408527
  C     -1.759078   -0.345547    0.546635
  C     -0.439710   -0.962969    0.071171
  C      0.813699   -0.065889   -0.018262
  C      0.843252    0.737370   -1.321363
  C      0.912249    0.885890    1.175005
  C      2.039799   -0.989243   -0.009065
  H     -1.860898    1.600527   -0.415410
  H     -2.419010    0.260403   -1.421507
  H     -3.421819    0.860576   -0.100687
  H     -1.620933    0.120673    1.522972
  H     -2.460190   -1.173831    0.684715
  H     -0.603880   -1.419501   -0.908236
  H     -0.210040   -1.773947    0.768140
  H      0.780117    0.072605   -2.180348
  H      0.022657    1.444484   -1.375604
  H      1.774540    1.296313   -1.393025
  H      1.868628    1.404771    1.158706
  H      0.839671    0.335839    2.110867
  H      0.124245    1.633605    1.148199
  H      1.977561   -1.714882   -0.817381
  H      2.953488   -0.412906   -0.137902
  H      2.109263   -1.530309    0.932325

 Total Charge           Charge          ....    0
 Multiplicity           Mult            ....    1
 Number of Electrons    NEL             ....   58
 Basis Dimension        Dim             ....  130

ORBITAL ENERGIES
----------------

  NO   OCC          E(Eh)            E(eV)
   0   2.0000      -9.900978      -269.4193
   1   2.0000      -9.879238      -268.8277
   2   2.0000      -9.876282      -268.7473
   3   2.0000      -9.869732      -268.5691
   4   2.0000      -9.868522      -268.5361
   5   2.0000      -9.866952      -268.4934
   6   2.0000      -9.866257      -268.4745
   7   2.0000      -0.744134       -20.2489
   8   2.0000      -0.686007       -18.6672
   9   2.0000      -0.611411       -16.6373
  10   2.0000      -0.609656       -16.5896
  11   2.0000      -0.600678       -16.3453
  12   2.0000      -0.523380       -14.2419
  13   2.0000      -0.462868       -12.5953
  14   2.0000      -0.418987       -11.4012
  15   2.0000      -0.405836       -11.0434
  16   2.0000      -0.395340       -10.7577
  17   2.0000      -0.376696       -10.2504
  18   2.0000      -0.366822        -9.9817
  19   2.0000      -0.349061        -9.4984
  20   2.0000      -0.336487        -9.1563
  21   2.0000      -0.330738        -8.9998
  22   2.0000      -0.317103        -8.6288
  23   2.0000      -0.309214        -8.4141
  24   2.0000      -0.296238        -8.0611
  25   2.0000      -0.292855        -7.9690
  26   2.0000      -0.272257        -7.4085
  27   2.0000      -0.266181        -7.2432
  28   2.0000      -0.258884        -7.0446
  29   0.0000       0.027976         0.7613
  30   0.0000       0.062507         1.7009
  31   0.0000       0.068910         1.8751
  32   0.0000       0.071336         1.9411
  33   0.0000       0.084474         2.2986

MULLIKEN ATOMIC CHARGES
-----------------------
   0 C :   -0.288664
   1 C :   -0.166885
   2 C :   -0.110312
   3 C :   -0.252245
   4 C :   -0.213752
   5 C :   -0.221441
   6 C :   -0.211921
   7 H :    0.117184
   8 H :    0.096495
   9 H :    0.098782
  10 H :    0.085756
  11 H :    0.080821
  12 H :    0.071157
  13 H :    0.071467
  14 H :    0.089947
  15 H :    0.097425
  16 H :    0.089855
  17 H :    0.092305
  18 H :    0.095207
  19 H :    0.102608
  20 H :    0.092502
  21 H :    0.090973
  22 H :    0.092737
Sum of atomic charges:    0.0000000

LOEWDIN ATOMIC CHARGES
----------------------
   0 C :   -0.344158
   1 C :   -0.234364
   2 C :   -0.208778
   3 C :   -0.106662
   4 C :   -0.318352
   5 C :   -0.317565
   6 C :   -0.315786
   7 H :    0.114606
   8 H :    0.116618
   9 H :    0.118699
  10 H :    0.114869
  11 H :    0.117065
  12 H :    0.112505
  13 H :    0.114715
  14 H :    0.114950
  15 H :    0.115444
  16 H :    0.114872
  17 H :    0.117017
  18 H :    0.116225
  19 H :    0.115832
  20 H :    0.115161
  21 H :    0.113464
  22 H :    0.113626

  Mayer bond orders larger than 0.100000
B(  0-C ,  1-C ) :   1.1651 B(  0-C ,  7-H ) :   0.9393 B(  0-C ,  8-H ) :   0.9518
B(  0-C ,  9-H ) :   0.9475 B(  1-C ,  2-C ) :   1.1483 B(  1-C , 10-H ) :   0.9116
B(  1-C , 11-H ) :   0.9215 B(  2-C ,  3-C ) :   1.0394 B(  2-C , 12-H ) :   0.9150
B(  2-C , 13-H ) :   0.9113 B(  3-C ,  4-C ) :   1.0800 B(  3-C ,  5-C ) :   1.0842
B(  3-C ,  6-C ) :   1.0740 B(  4-C , 14-H ) :   0.9460 B(  4-C , 15-H ) :   0.9381
B(  4-C , 16-H ) :   0.9464 B(  5-C , 17-H ) :   0.9457 B(  5-C , 18-H ) :   0.9460
B(  5-C , 19-H ) :   0.9366 B(  6-C , 20-H ) :   0.9493 B(  6-C , 21-H ) :   0.9471
B(  6-C , 22-H ) :   0.9453

Dispersion correction           -0.019744175
FINAL SINGLE POINT ENERGY      -275.659189221222

DIPOLE MOMENT
-------------

Method             : SCF
Type of density    : Electron Density
Multiplicity       :   1
Irrep              :   0
Energy             :  -275.7360793622547703 Eh
Relativity type    :
Basis              : AO
                                X                 Y                 Z
Electronic contribution:      0.095837580      -0.946307591       0.428309810
Nuclear contribution   :     -0.137534948       0.942309276      -0.397944603
                        -----------------------------------------
Total Dipole Moment    :     -0.041697368      -0.003998315       0.030365207
                        -----------------------------------------
Magnitude (a.u.)       :      0.051736861
Magnitude (Debye)      :      0.131504650

Rotational constants in cm-1:             0.125303             0.055619             0.053186
Rotational constants in MHz :          3756.482715          1667.420395          1594.464013

                             ****ORCA TERMINATED NORMALLY****
TOTAL RUN TIME: 0 days 0 hours 0 minutes 14 seconds 522 msec
