                         Program Version 6.0.1  -  RELEASE   -
|  1> ! pbe def2-sv(p) def2/J RI DEFGRID1 loosescf d4 GCP(DFT/SV(P)) printgap
|  2> %output
|  3>     printlevel normal
|  4> end
|  5> * xyz 0 1
|  6> C -1.8060544969 -1.018537907 -0.6899557322
|  7> C -1.0370483299 -0.4479790948 0.5208693224
|  8> H -1.6952555646 -0.5270473489 1.3981194365
|  9> C -0.6954553137 1.0427823394 0.352753224
| 10> H -1.5358378719 1.5363872445 -0.1458015759
| 11> C 0.5781995734 1.2464565138 -0.49579668
| 12> H 0.8547141799 2.3101697305 -0.4047788549
| 13> C 1.7239830096 0.3771293233 0.0634559402
| 14> H 2.5816705663 0.4131298672 -0.6298520299
| 15> C 1.2595655342 -1.0946288465 0.1395142956
| 16> H 2.0010819818 -1.6751288895 0.7005893702
| 17> O 0.0880099311 -1.231277779 0.891730694
| 18> O 1.1913259752 -1.6565393828 -1.1282178466
| 19> O 2.1101352485 0.7774435604 1.3549362518
| 20> O 0.3098766801 0.9206983856 -1.8439361567
| 21> O -0.5405974683 1.672606972 1.5962610573
| 22> O -3.1605974525 -0.6486796889 -0.6657532212
| 23> H -1.6879663926 -2.1107073213 -0.6874842666
| 24> H -1.4227127735 -0.6141961 -1.6278020091
| 25> H 0.6409107291 -1.0914809625 -1.6928788984
| 26> H 2.4169616552 1.6921489074 1.3306522567
| 27> H 1.0209008082 1.2538276297 -2.4032226735
| 28> H 0.1525628169 1.1967904038 2.0804707398
| 29> H -3.5740611346 -1.0067306555 0.1283292842
| 30> *
| 31>
| 32>                          ****END OF INPUT****

CARTESIAN COORDINATES (ANGSTROEM)
---------------------------------
  C     -1.806054   -1.018538   -0.689956
  C     -1.037048   -0.447979    0.520869
  H     -1.695256   -0.527047    1.398119
  C     -0.695455    1.042782    0.352753
  H     -1.535838    1.536387   -0.145802
  C      0.578200    1.246457   -0.495797
  H      0.854714    2.310170   -0.404779
  C      1.723983    0.377129    0.063456
  H      2.581671    0.413130   -0.629852
  C      1.259566   -1.094629    0.139514
  H      2.001082   -1.675129    0.700589
  O      0.088010   -1.231278    0.891731
  O      1.191326   -1.656539   -1.128218
  O      2.110135    0.777444    1.354936
  O      0.309877    0.920698   -1.843936
  O     -0.540597    1.672607    1.596261
  O     -3.160597   -0.648680   -0.665753
  H     -1.687966   -2.110707   -0.687484
  H     -1.422713   -0.614196   -1.627802
  H      0.640911   -1.091481   -1.692879
  H      2.416962    1.692149    1.330652
  H      1.020901    1.253828   -2.403223
  H      0.152563    1.196790    2.080471
  H     -3.574061   -1.006731    0.128329

 Total Charge           Charge          ....    0
 Multiplicity           Mult            ....    1
 Number of Electrons    NEL             ....   96
 Basis Dimension        Dim             ....  192

ORBITAL ENERGIES
----------------

  NO   OCC          E(Eh)            E(eV)
   0   2.0000     -18.791155      -511.3333
   1   2.0000     -18.780359      -511.0395
   2   2.0000     -18.763544      -510.5820
   3   2.0000     -18.752045      -510.2691
   4   2.0000     -18.747232      -510.1381
   5   2.0000     -18.744520      -510.0643
   6   2.0000      -9.984560      -271.6937
   7   2.0000      -9.961279      -271.0602
   8   2.0000      -9.955912      -270.9141
   9   2.0000      -9.944801      -270.6118
  10   2.0000      -9.941117      -270.5116
  11   2.0000      -9.926196      -270.1055
  12   2.0000      -0.985109       -26.8062
  13   2.0000      -0.960742       -26.1431
  14   2.0000      -0.952414       -25.9165
  15   2.0000      -0.928850       -25.2753
  16   2.0000      -0.923409       -25.1272
  17   2.0000      -0.906148       -24.6575
  18   2.0000      -0.706186       -19.2163
  19   2.0000      -0.695059       -18.9135
  20   2.0000      -0.619795       -16.8655
  21   2.0000      -0.591798       -16.1037
  22   2.0000      -0.580064       -15.7843
  23   2.0000      -0.530238       -14.4285
  24   2.0000      -0.515514       -14.0278
  25   2.0000      -0.489826       -13.3289
  26   2.0000      -0.481822       -13.1110
  27   2.0000      -0.461982       -12.5712
  28   2.0000      -0.456051       -12.4098
  29   2.0000      -0.430383       -11.7113
  30   2.0000      -0.420931       -11.4541
  31   2.0000      -0.404907       -11.0181
  32   2.0000      -0.389156       -10.5895
  33   2.0000      -0.376935       -10.2569
  34   2.0000      -0.366224        -9.9655
  35   2.0000      -0.356534        -9.7018
  36   2.0000      -0.337559        -9.1855
  37   2.0000      -0.314284        -8.5521
  38   2.0000      -0.307607        -8.3704
  39   2.0000      -0.301509        -8.2045
  40   2.0000      -0.294294        -8.0081
  41   2.0000      -0.270991        -7.3740
  42   2.0000      -0.265376        -7.2213
  43   2.0000      -0.256150        -6.9702
  44   2.0000      -0.236338        -6.4311
  45   2.0000      -0.223319        -6.0768
  46   2.0000      -0.218198        -5.9375
  47   2.0000      -0.200790        -5.4638
  48   0.0000      -0.005810        -0.1581
  49   0.0000       0.004966         0.1351
  50   0.0000       0.029220         0.7951
  51   0.0000       0.057655         1.5689
  52   0.0000       0.071114         1.9351

MULLIKEN ATOMIC CHARGES
-----------------------
   0 C :    0.012006
   1 C :   -0.004720
   2 H :    0.066125
   3 C :    0.101918
   4 H :    0.086481
   5 C :   -0.015090
   6 H :    0.070315
   7 C :   -0.015049
   8 H :    0.068483
   9 C :    0.224527
  10 H :    0.077776
  11 O :   -0.298347
  12 O :   -0.407406
  13 O :   -0.404190
  14 O :   -0.405235
  15 O :   -0.431157
  16 O :   -0.431118
  17 H :    0.089635
  18 H :    0.098312
  19 H :    0.302257
  20 H :    0.307513
  21 H :    0.313710
  22 H :    0.297556
  23 H :    0.295697
Sum of atomic charges:    0.0000000

LOEWDIN ATOMIC CHARGES
----------------------
   0 C :   -0.150760
   1 C :   -0.081232
   2 H :    0.114393
   3 C :   -0.063206
   4 H :    0.124844
   5 C :   -0.084245
   6 H :    0.101803
   7 C :   -0.102118
   8 H :    0.100786
   9 C :    0.001618
  10 H :    0.114669
  11 O :   -0.135854
  12 O :   -0.307682
  13 O :   -0.301083
  14 O :   -0.303018
  15 O :   -0.318071
  16 O :   -0.330148
  17 H :    0.102067
  18 H :    0.113166
  19 H :    0.266981
  20 H :    0.289177
  21 H :    0.295259
  22 H :    0.270340
  23 H :    0.282315

  Mayer bond orders larger than 0.100000
B(  0-C ,  1-C ) :   1.0153 B(  0-C , 16-O ) :   1.0479 B(  0-C , 17-H ) :   0.9109
B(  0-C , 18-H ) :   0.9005 B(  1-C ,  2-H ) :   0.8966 B(  1-C ,  3-C ) :   1.0026
B(  1-C , 11-O ) :   1.0068 B(  3-C ,  4-H ) :   0.8841 B(  3-C ,  5-C ) :   0.9818
B(  3-C , 15-O ) :   1.0479 B(  5-C ,  6-H ) :   0.9037 B(  5-C ,  7-C ) :   0.9679
B(  5-C , 14-O ) :   1.0252 B(  7-C ,  8-H ) :   0.8981 B(  7-C ,  9-C ) :   0.9845
B(  7-C , 13-O ) :   1.0425 B(  9-C , 10-H ) :   0.9040 B(  9-C , 11-O ) :   1.0592
B(  9-C , 12-O ) :   1.1313 B( 12-O , 19-H ) :   0.7979 B( 13-O , 20-H ) :   0.8371
B( 14-O , 21-H ) :   0.8363 B( 15-O , 22-H ) :   0.8166 B( 16-O , 23-H ) :   0.8517

Dispersion correction           -0.026007446
FINAL SINGLE POINT ENERGY      -685.692804205740

DIPOLE MOMENT
-------------

Method             : SCF
Type of density    : Electron Density
Multiplicity       :   1
Irrep              :   0
Energy             :  -685.8261315990188223 Eh
Relativity type    :
Basis              : AO
                                X                 Y                 Z
Electronic contribution:      1.083955420      -0.427759196       1.505391113
Nuclear contribution   :     -0.231784466       1.289557239      -1.829827423
                        -----------------------------------------
Total Dipole Moment    :      0.852170954       0.861798043      -0.324436310
                        -----------------------------------------
Magnitude (a.u.)       :      1.254651394
Magnitude (Debye)      :      3.189070405

Rotational constants in cm-1:             0.041486             0.028164             0.024405
Rotational constants in MHz :          1243.717892           844.327767           731.652202

                             ****ORCA TERMINATED NORMALLY****
TOTAL RUN TIME: 0 days 0 hours 0 minutes 11 seconds 926 msec
