                         Program Version 6.0.1  -  RELEASE   -
|  1> ! pbe def2-sv(p) def2/J RI DEFGRID1 loosescf d4 GCP(DFT/SV(P)) printgap
|  2> %output
|  3>     printlevel normal
|  4> end
|  5> * xyz 0 1
|  6> C -3.4979539435 -0.3807498585 -0.4905056731
|  7> O -2.1163203926 -0.2266216892 -0.78767759
|  8> C -1.3091493051 0.1481297928 0.213866092
|  9> O -1.6897099769 0.3647935273 1.3339739424
| 10> C 0.1286898675 0.2075197231 -0.2551475296
| 11> C 0.7635825544 -1.1704507344 -0.0242517482
| 12> C 2.1648888387 -1.2187642625 -0.643236093
| 13> C 2.8701881538 0.1401345341 -0.5518746934
| 14> C 2.3861098723 0.9060525397 0.6741673657
| 15> C 0.9107048335 1.2832424028 0.5114009109
| 16> H -4.0257821852 0.5488910108 -0.7113805639
| 17> H -3.6285853859 -0.6270201914 0.5647720548
| 18> H -3.8731546617 -1.1820536484 -1.1237533226
| 19> H 0.1205340629 0.4073914608 -1.3296163236
| 20> H 0.8131536262 -1.350095236 1.0507098692
| 21> H 0.1372164837 -1.9488520533 -0.4637232287
| 22> H 2.7511669671 -1.9781485251 -0.1229678988
| 23> H 2.0947044405 -1.5195491496 -1.6899965069
| 24> H 3.9504698214 -0.00598233 -0.5060484111
| 25> H 2.6575247977 0.7340204656 -1.442882174
| 26> H 2.5236595307 0.2840073842 1.5597360599
| 27> H 2.9795818893 1.8108576181 0.813483057
| 28> H 0.4512689151 1.4134692072 1.4929748806
| 29> H 0.8276683915 2.2312975341 -0.0232610979
| 30> *
| 31>
| 32>                          ****END OF INPUT****

CARTESIAN COORDINATES (ANGSTROEM)
---------------------------------
  C     -3.497954   -0.380750   -0.490506
  O     -2.116320   -0.226622   -0.787678
  C     -1.309149    0.148130    0.213866
  O     -1.689710    0.364794    1.333974
  C      0.128690    0.207520   -0.255148
  C      0.763583   -1.170451   -0.024252
  C      2.164889   -1.218764   -0.643236
  C      2.870188    0.140135   -0.551875
  C      2.386110    0.906053    0.674167
  C      0.910705    1.283242    0.511401
  H     -4.025782    0.548891   -0.711381
  H     -3.628585   -0.627020    0.564772
  H     -3.873155   -1.182054   -1.123753
  H      0.120534    0.407391   -1.329616
  H      0.813154   -1.350095    1.050710
  H      0.137216   -1.948852   -0.463723
  H      2.751167   -1.978149   -0.122968
  H      2.094704   -1.519549   -1.689997
  H      3.950470   -0.005982   -0.506048
  H      2.657525    0.734020   -1.442882
  H      2.523660    0.284007    1.559736
  H      2.979582    1.810858    0.813483
  H      0.451269    1.413469    1.492975
  H      0.827668    2.231298   -0.023261

 Total Charge           Charge          ....    0
 Multiplicity           Mult            ....    1
 Number of Electrons    NEL             ....   78
 Basis Dimension        Dim             ....  168

ORBITAL ENERGIES
----------------

  NO   OCC          E(Eh)            E(eV)
   0   2.0000     -18.795359      -511.4477
   1   2.0000     -18.736731      -509.8524
   2   2.0000     -10.002198      -272.1737
   3   2.0000      -9.936914      -270.3972
   4   2.0000      -9.901631      -269.4371
   5   2.0000      -9.890869      -269.1442
   6   2.0000      -9.885682      -269.0031
   7   2.0000      -9.882936      -268.9284
   8   2.0000      -9.881863      -268.8992
   9   2.0000      -9.881111      -268.8787
  10   2.0000      -1.003455       -27.3054
  11   2.0000      -0.914923       -24.8963
  12   2.0000      -0.761835       -20.7306
  13   2.0000      -0.691812       -18.8252
  14   2.0000      -0.665711       -18.1149
  15   2.0000      -0.648352       -17.6426
  16   2.0000      -0.563728       -15.3398
  17   2.0000      -0.548014       -14.9122
  18   2.0000      -0.506874       -13.7927
  19   2.0000      -0.471703       -12.8357
  20   2.0000      -0.460246       -12.5239
  21   2.0000      -0.441853       -12.0234
  22   2.0000      -0.431104       -11.7309
  23   2.0000      -0.409629       -11.1466
  24   2.0000      -0.400909       -10.9093
  25   2.0000      -0.391550       -10.6546
  26   2.0000      -0.364648        -9.9226
  27   2.0000      -0.358297        -9.7498
  28   2.0000      -0.342755        -9.3268
  29   2.0000      -0.332098        -9.0369
  30   2.0000      -0.326031        -8.8718
  31   2.0000      -0.317299        -8.6341
  32   2.0000      -0.311436        -8.4746
  33   2.0000      -0.300195        -8.1687
  34   2.0000      -0.269399        -7.3307
  35   2.0000      -0.264783        -7.2051
  36   2.0000      -0.263187        -7.1617
  37   2.0000      -0.255193        -6.9442
  38   2.0000      -0.221699        -6.0327
  39   0.0000      -0.017220        -0.4686
  40   0.0000       0.029662         0.8071
  41   0.0000       0.048190         1.3113
  42   0.0000       0.058437         1.5902
  43   0.0000       0.072142         1.9631

MULLIKEN ATOMIC CHARGES
-----------------------
   0 C :   -0.124494
   1 O :   -0.245799
   2 C :    0.154774
   3 O :   -0.189162
   4 C :   -0.194616
   5 C :   -0.138359
   6 C :   -0.129629
   7 C :   -0.160220
   8 C :   -0.152926
   9 C :   -0.112254
  10 H :    0.117625
  11 H :    0.127305
  12 H :    0.119667
  13 H :    0.076561
  14 H :    0.085383
  15 H :    0.092175
  16 H :    0.083383
  17 H :    0.082208
  18 H :    0.086119
  19 H :    0.076790
  20 H :    0.078257
  21 H :    0.085298
  22 H :    0.100787
  23 H :    0.081125
Sum of atomic charges:    0.0000000

LOEWDIN ATOMIC CHARGES
----------------------
   0 C :   -0.211353
   1 O :   -0.078151
   2 C :    0.048319
   3 O :   -0.153021
   4 C :   -0.165292
   5 C :   -0.210471
   6 C :   -0.227038
   7 C :   -0.230658
   8 C :   -0.227666
   9 C :   -0.218586
  10 H :    0.117689
  11 H :    0.121318
  12 H :    0.118991
  13 H :    0.126561
  14 H :    0.121575
  15 H :    0.120278
  16 H :    0.118748
  17 H :    0.117254
  18 H :    0.118074
  19 H :    0.113987
  20 H :    0.115810
  21 H :    0.118928
  22 H :    0.126491
  23 H :    0.118212

  Mayer bond orders larger than 0.100000
B(  0-C ,  1-O ) :   0.9464 B(  0-C , 10-H ) :   0.9594 B(  0-C , 11-H ) :   0.9351
B(  0-C , 12-H ) :   0.9605 B(  1-O ,  2-C ) :   1.2017 B(  2-C ,  3-O ) :   2.0812
B(  2-C ,  4-C ) :   0.9381 B(  4-C ,  5-C ) :   1.1397 B(  4-C ,  9-C ) :   1.0895
B(  4-C , 13-H ) :   0.8731 B(  5-C ,  6-C ) :   1.1522 B(  5-C , 14-H ) :   0.8957
B(  5-C , 15-H ) :   0.9179 B(  6-C ,  7-C ) :   1.1386 B(  6-C , 16-H ) :   0.9176
B(  6-C , 17-H ) :   0.9199 B(  7-C ,  8-C ) :   1.1832 B(  7-C , 18-H ) :   0.9224
B(  7-C , 19-H ) :   0.9116 B(  8-C ,  9-C ) :   1.1565 B(  8-C , 20-H ) :   0.9063
B(  8-C , 21-H ) :   0.9196 B(  9-C , 22-H ) :   0.8966 B(  9-C , 23-H ) :   0.9169

Dispersion correction           -0.022606814
FINAL SINGLE POINT ENERGY      -462.698099303560

DIPOLE MOMENT
-------------

Method             : SCF
Type of density    : Electron Density
Multiplicity       :   1
Irrep              :   0
Energy             :  -462.7862418246469360 Eh
Relativity type    :
Basis              : AO
                                X                 Y                 Z
Electronic contribution:     -7.258766407       0.872330234       1.204452679
Nuclear contribution   :      7.241973183      -1.106645894      -1.804395857
                        -----------------------------------------
Total Dipole Moment    :     -0.016793224      -0.234315660      -0.599943178
                        -----------------------------------------
Magnitude (a.u.)       :      0.644296250
Magnitude (Debye)      :      1.637670920

Rotational constants in cm-1:             0.099289             0.025353             0.022452
Rotational constants in MHz :          2976.595628           760.062620           673.082743

                             ****ORCA TERMINATED NORMALLY****
TOTAL RUN TIME: 0 days 0 hours 0 minutes 8 seconds 389 msec
