                         Program Version 6.0.0  -   RELEASE  -
|  1> ! r2SCAN-3c DEF2-TZVP FREQ
|  2> * xyzfile 0 1 censo.xyz
|  3>
|  4>                          ****END OF INPUT****

CARTESIAN COORDINATES (ANGSTROEM)
---------------------------------
  C      1.108825   -1.859126   -0.004021
  C      2.112750   -0.900981    0.020244
  C      1.803124    0.472454    0.041000
  C      0.455253    0.853963    0.029021
  C     -0.520319   -0.134263    0.006054
  C     -0.233638   -1.496172   -0.009468
  N     -1.924666    0.284715   -0.006534
  O     -2.796180   -0.585488   -0.011804
  O     -2.178876    1.489448   -0.010637
  N      2.802134    1.419313    0.129389
  H      1.377198   -2.910094   -0.021656
  H      3.154659   -1.207531    0.023162
  H      0.179896    1.901559    0.038662
  H     -1.022028   -2.235897   -0.028888
  H      3.711901    1.120148   -0.191846
  H      2.553123    2.347437   -0.181920

 Total Charge           Charge          ....    0
 Multiplicity           Mult            ....    1
 Number of Electrons    NEL             ....   72
 Basis Dimension        Dim             ....  346

ORBITAL ENERGIES
----------------

  NO   OCC          E(Eh)            E(eV)
   0   2.0000     -18.977171      -516.3951
   1   2.0000     -18.976711      -516.3826
   2   2.0000     -14.386616      -391.4797
   3   2.0000     -14.193355      -386.2208
   4   2.0000     -10.104280      -274.9514
   5   2.0000     -10.100737      -274.8550
   6   2.0000     -10.060663      -273.7646
   7   2.0000     -10.059515      -273.7333
   8   2.0000     -10.058372      -273.7022
   9   2.0000     -10.054045      -273.5845
  10   2.0000      -1.182467       -32.1766
  11   2.0000      -1.007418       -27.4132
  12   2.0000      -0.916373       -24.9358
  13   2.0000      -0.844056       -22.9679
  14   2.0000      -0.768551       -20.9133
  15   2.0000      -0.726183       -19.7604
  16   2.0000      -0.671494       -18.2723
  17   2.0000      -0.600468       -16.3396
  18   2.0000      -0.572694       -15.5838
  19   2.0000      -0.527764       -14.3612
  20   2.0000      -0.509250       -13.8574
  21   2.0000      -0.497030       -13.5249
  22   2.0000      -0.477787       -13.0013
  23   2.0000      -0.471073       -12.8185
  24   2.0000      -0.463468       -12.6116
  25   2.0000      -0.422329       -11.4922
  26   2.0000      -0.419683       -11.4202
  27   2.0000      -0.385638       -10.4937
  28   2.0000      -0.363185        -9.8828
  29   2.0000      -0.347511        -9.4563
  30   2.0000      -0.316611        -8.6154
  31   2.0000      -0.283905        -7.7254
  32   2.0000      -0.273875        -7.4525
  33   2.0000      -0.263887        -7.1807
  34   2.0000      -0.250737        -6.8229
  35   2.0000      -0.214048        -5.8245
  36   0.0000      -0.118173        -3.2157
  37   0.0000      -0.046113        -1.2548
  38   0.0000      -0.022952        -0.6246
  39   0.0000       0.025825         0.7027
  40   0.0000       0.051621         1.4047

MULLIKEN ATOMIC CHARGES
-----------------------
   0 C :   -0.015911
   1 C :   -0.264424
   2 C :    0.376800
   3 C :   -0.305740
   4 C :    0.071225
   5 C :   -0.240143
   6 N :    0.526782
   7 O :   -0.345845
   8 O :   -0.349971
   9 N :   -0.430959
  10 H :    0.120776
  11 H :    0.103197
  12 H :    0.133727
  13 H :    0.144937
  14 H :    0.236060
  15 H :    0.239488
Sum of atomic charges:    0.0000000

LOEWDIN ATOMIC CHARGES
----------------------
   0 C :   -0.129199
   1 C :   -0.112576
   2 C :   -0.242166
   3 C :   -0.086284
   4 C :   -0.164114
   5 C :   -0.113863
   6 N :   -0.019140
   7 O :   -0.026204
   8 O :   -0.030074
   9 N :   -0.022325
  10 H :    0.149204
  11 H :    0.145140
  12 H :    0.156640
  13 H :    0.156444
  14 H :    0.168689
  15 H :    0.169828

  Mayer bond orders larger than 0.100000
B(  0-C ,  1-C ) :   1.4357 B(  0-C ,  5-C ) :   1.3821 B(  0-C , 10-H ) :   0.9648
B(  1-C ,  2-C ) :   1.2969 B(  1-C , 11-H ) :   0.9700 B(  2-C ,  3-C ) :   1.3109
B(  2-C ,  9-N ) :   1.0998 B(  3-C ,  4-C ) :   1.4496 B(  3-C , 12-H ) :   0.9343
B(  4-C ,  5-C ) :   1.3653 B(  4-C ,  6-N ) :   0.9739 B(  5-C , 13-H ) :   0.9517
B(  6-N ,  7-O ) :   1.5228 B(  6-N ,  8-O ) :   1.5225 B(  7-O ,  8-O ) :   0.2165
B(  9-N , 14-H ) :   0.9161 B(  9-N , 15-H ) :   0.9153

Dispersion correction           -0.005531169
FINAL SINGLE POINT ENERGY      -492.058790467213

DIPOLE MOMENT
-------------

Method             : SCF
Type of density    : Electron Density
Multiplicity       :   1
Irrep              :   0
Energy             :  -492.0652470591434167 Eh
Relativity type    :
Basis              : AO
                                X                 Y                 Z
Electronic contribution:     -6.957792781       0.851716474       0.092670158
Nuclear contribution   :      9.291373865      -0.922741341      -0.421467039
                        -----------------------------------------
Total Dipole Moment    :      2.333581084      -0.071024867      -0.328796881
                        -----------------------------------------
Magnitude (a.u.)       :      2.357700701
Magnitude (Debye)      :      5.992798926

VIBRATIONAL FREQUENCIES
-----------------------

Scaling factor for frequencies =  1.000000000  (already applied!)

     0:       0.00 cm**-1
     1:       0.00 cm**-1
     2:       0.00 cm**-1
     3:       0.00 cm**-1
     4:       0.00 cm**-1
     5:       0.00 cm**-1
     6:      80.33 cm**-1
     7:     169.17 cm**-1
     8:     224.44 cm**-1
     9:     228.90 cm**-1
    10:     383.50 cm**-1
    11:     404.03 cm**-1
    12:     418.03 cm**-1
    13:     440.55 cm**-1
    14:     522.49 cm**-1
    15:     542.80 cm**-1
    16:     563.98 cm**-1
    17:     596.16 cm**-1
    18:     686.79 cm**-1
    19:     694.23 cm**-1
    20:     758.74 cm**-1
    21:     803.74 cm**-1
    22:     837.77 cm**-1
    23:     874.64 cm**-1
    24:     900.62 cm**-1
    25:     950.68 cm**-1
    26:     963.62 cm**-1
    27:    1016.32 cm**-1
    28:    1089.25 cm**-1
    29:    1109.43 cm**-1
    30:    1137.77 cm**-1
    31:    1192.56 cm**-1
    32:    1299.13 cm**-1
    33:    1339.79 cm**-1
    34:    1345.93 cm**-1
    35:    1378.26 cm**-1
    36:    1486.47 cm**-1
    37:    1509.16 cm**-1
    38:    1538.99 cm**-1
    39:    1610.56 cm**-1
    40:    1648.95 cm**-1
    41:    1670.24 cm**-1
    42:    3159.41 cm**-1
    43:    3180.83 cm**-1
    44:    3203.06 cm**-1
    45:    3227.57 cm**-1
    46:    3533.79 cm**-1
    47:    3643.17 cm**-1

IR SPECTRUM
-----------

 Mode   freq       eps      Int      T**2         TX        TY        TZ
       cm**-1   L/(mol*cm) km/mol    a.u.
----------------------------------------------------------------------------
  6:     80.33   0.000014    0.07  0.000053  ( 0.001713  0.005158  0.004853)
  7:    169.17   0.000081    0.41  0.000149  ( 0.010312 -0.002077 -0.006176)
  8:    224.44   0.000834    4.21  0.001159  (-0.011927 -0.011659 -0.029679)
  9:    228.90   0.000172    0.87  0.000234  ( 0.014144  0.005728 -0.001243)
 10:    383.50   0.000359    1.81  0.000292  ( 0.014098 -0.009591 -0.001088)
 11:    404.03   0.002596   13.12  0.002005  (-0.031862  0.031396 -0.002000)
 12:    418.03   0.000120    0.61  0.000090  (-0.007884  0.005022 -0.001489)
 13:    440.55   0.000911    4.60  0.000645  (-0.004426  0.014535  0.020355)
 14:    522.49   0.001484    7.50  0.000887  (-0.017623 -0.011006 -0.021327)
 15:    542.80   0.017988   90.90  0.010341  (-0.050652 -0.042249 -0.077400)
 16:    563.98   0.000190    0.96  0.000105  ( 0.004017  0.009420  0.000142)
 17:    596.16   0.047052  237.78  0.024630  ( 0.100052  0.084822  0.086165)
 18:    686.79   0.003135   15.84  0.001424  (-0.005174 -0.005768  0.036935)
 19:    694.23   0.000944    4.77  0.000424  ( 0.020435 -0.000963  0.002400)
 20:    758.74   0.009687   48.95  0.003984  (-0.007531 -0.004094 -0.062536)
 21:    803.74   0.000813    4.11  0.000316  ( 0.002318 -0.001179  0.017575)
 22:    837.77   0.005775   29.18  0.002151  ( 0.046020 -0.005214 -0.002454)
 23:    874.64   0.003594   18.16  0.001282  (-0.002091 -0.005503 -0.035322)
 24:    900.62   0.001242    6.28  0.000430  ( 0.000969 -0.000963 -0.020702)
 25:    950.68   0.000882    4.46  0.000289  (-0.008465  0.014358 -0.003413)
 26:    963.62   0.000033    0.16  0.000011  (-0.000338 -0.000671 -0.003163)
 27:   1016.32   0.000892    4.51  0.000274  (-0.013736 -0.008737  0.002999)
 28:   1089.25   0.002442   12.34  0.000700  ( 0.018887 -0.018514  0.000446)
 29:   1109.43   0.002299   11.62  0.000647  (-0.024362  0.007195 -0.001172)
 30:   1137.77   0.002306   11.66  0.000633  ( 0.020216 -0.014962 -0.000210)
 31:   1192.56   0.000135    0.68  0.000035  ( 0.005436  0.002401 -0.000172)
 32:   1299.13   0.004832   24.42  0.001161  ( 0.027339  0.020323  0.000475)
 33:   1339.79   0.063721  322.02  0.014842  (-0.120431  0.018365 -0.000895)
 34:   1345.93   0.007697   38.90  0.001785  ( 0.024031 -0.034735 -0.000824)
 35:   1378.26   0.006516   32.93  0.001475  ( 0.009009 -0.037336 -0.000362)
 36:   1486.47   0.003014   15.23  0.000633  (-0.002316 -0.025034  0.000855)
 37:   1509.16   0.004998   25.26  0.001033  (-0.015811  0.027960 -0.001323)
 38:   1538.99   0.060776  307.13  0.012324  ( 0.051551  0.098303  0.001591)
 39:   1610.56   0.001098    5.55  0.000213  ( 0.010204  0.010368  0.001104)
 40:   1648.95   0.003403   17.20  0.000644  (-0.017326 -0.016360 -0.008732)
 41:   1670.24   0.029250  147.82  0.005465  (-0.053602 -0.048779  0.014577)
 42:   3159.41   0.001861    9.40  0.000184  ( 0.012728  0.004667  0.000130)
 43:   3180.83   0.001916    9.69  0.000188  (-0.007478  0.011493  0.000103)
 44:   3203.06   0.000885    4.47  0.000086  ( 0.009087 -0.001919 -0.000010)
 45:   3227.57   0.000769    3.88  0.000074  (-0.008222 -0.002587 -0.000143)
 46:   3533.79   0.006261   31.64  0.000553  ( 0.016846  0.015088 -0.006438)
 47:   3643.17   0.004290   21.68  0.000367  ( 0.012861 -0.014215  0.000042)

--------------------------
THERMOCHEMISTRY AT 298.15K
--------------------------

Temperature         ...   298.15 K
Pressure            ...     1.00 atm
Total Mass          ...   138.13 AMU
Quasi RRHO          ...     True
Cut-Off Frequency   ...     1.00 cm^-1

Throughout the following assumptions are being made:
  (1) The electronic state is orbitally nondegenerate
  (2) There are no thermally accessible electronically excited states
  (3) Hindered rotations indicated by low frequency modes are not
      treated as such but are treated as vibrations and this may
      cause some error
  (4) All equations used are the standard statistical mechanics
      equations for an ideal gas
  (5) All vibrations are strictly harmonic

freq.      80.33  E(vib)   ...       0.49
freq.     169.17  E(vib)   ...       0.38
freq.     224.44  E(vib)   ...       0.33
freq.     228.90  E(vib)   ...       0.32
freq.     383.50  E(vib)   ...       0.20
freq.     404.03  E(vib)   ...       0.19
freq.     418.03  E(vib)   ...       0.18
freq.     440.55  E(vib)   ...       0.17
freq.     522.49  E(vib)   ...       0.13
freq.     542.80  E(vib)   ...       0.12
freq.     563.98  E(vib)   ...       0.11
freq.     596.16  E(vib)   ...       0.10
freq.     686.79  E(vib)   ...       0.07
freq.     694.23  E(vib)   ...       0.07
freq.     758.74  E(vib)   ...       0.06
freq.     803.74  E(vib)   ...       0.05
freq.     837.77  E(vib)   ...       0.04
freq.     874.64  E(vib)   ...       0.04
freq.     900.62  E(vib)   ...       0.03
freq.     950.68  E(vib)   ...       0.03
freq.     963.62  E(vib)   ...       0.03
freq.    1016.32  E(vib)   ...       0.02
freq.    1089.25  E(vib)   ...       0.02
freq.    1109.43  E(vib)   ...       0.02
freq.    1137.77  E(vib)   ...       0.01
freq.    1192.56  E(vib)   ...       0.01
freq.    1299.13  E(vib)   ...       0.01
freq.    1339.79  E(vib)   ...       0.01
freq.    1345.93  E(vib)   ...       0.01
freq.    1378.26  E(vib)   ...       0.01
freq.    1486.47  E(vib)   ...       0.00
freq.    1509.16  E(vib)   ...       0.00
freq.    1538.99  E(vib)   ...       0.00
freq.    1610.56  E(vib)   ...       0.00
freq.    1648.95  E(vib)   ...       0.00
freq.    1670.24  E(vib)   ...       0.00
freq.    3159.41  E(vib)   ...       0.00
freq.    3180.83  E(vib)   ...       0.00
freq.    3203.06  E(vib)   ...       0.00
freq.    3227.57  E(vib)   ...       0.00
freq.    3533.79  E(vib)   ...       0.00
freq.    3643.17  E(vib)   ...       0.00

------------
INNER ENERGY
------------

The inner energy is: U= E(el) + E(ZPE) + E(vib) + E(rot) + E(trans)
    E(el)   - is the total energy from the electronic structure calculation
              = E(kin-el) + E(nuc-el) + E(el-el) + E(nuc-nuc)
    E(ZPE)  - the the zero temperature vibrational energy from the frequency calculation
    E(vib)  - the the finite temperature correction to E(ZPE) due to population
              of excited vibrational states
    E(rot)  - is the rotational thermal energy
    E(trans)- is the translational thermal energy

Summary of contributions to the inner energy U:
Electronic energy                ...   -492.05879047 Eh
Zero point energy                ...      0.11929830 Eh      74.86 kcal/mol
Thermal vibrational correction   ...      0.00521856 Eh       3.27 kcal/mol
Thermal rotational correction    ...      0.00141627 Eh       0.89 kcal/mol
Thermal translational correction ...      0.00141627 Eh       0.89 kcal/mol
-----------------------------------------------------------------------
Total thermal energy                   -491.93144107 Eh

Summary of corrections to the electronic energy:
(perhaps to be used in another calculation)
Total thermal correction                  0.00805110 Eh       5.05 kcal/mol
Non-thermal (ZPE) correction              0.11929830 Eh      74.86 kcal/mol
-----------------------------------------------------------------------
Total correction                          0.12734940 Eh      79.91 kcal/mol

--------
ENTHALPY
--------

The enthalpy is H = U + kB*T
                kB is Boltzmann's constant
Total thermal energy              ...   -491.93144107 Eh
Thermal Enthalpy correction       ...      0.00094421 Eh       0.59 kcal/mol
-----------------------------------------------------------------------
Total Enthalpy                    ...   -491.93049686 Eh

Note: Only C1 symmetry has been detected, increase convergence thresholds
      if your molecule has a higher symmetry. Symmetry factor of 1.0 is
      used for the rotational entropy correction.

Note: Rotational entropy computed according to Herzberg
Infrared and Raman Spectra, Chapter V,1, Van Nostrand Reinhold, 1945
Point Group:  C1, Symmetry Number:   1
Rotational constants in cm-1:     0.090690     0.033021     0.024221

Vibrational entropy computed according to the QRRHO of S. Grimme
Chem.Eur.J. 2012 18 9955 using a reference frequency of 100.0 cm-1

-------
ENTROPY
-------

The entropy contributions are T*S = T*(S(el)+S(vib)+S(rot)+S(trans))
     S(el)   - electronic entropy
     S(vib)  - vibrational entropy
     S(rot)  - rotational entropy
     S(trans)- translational entropy
The entropies will be listed as multiplied by the temperature to get
units of energy

Electronic entropy                ...      0.00000000 Eh      0.00 kcal/mol
Vibrational entropy               ...      0.00838156 Eh      5.26 kcal/mol
Rotational entropy                ...      0.01401052 Eh      8.79 kcal/mol
Translational entropy             ...      0.01932869 Eh     12.13 kcal/mol
-----------------------------------------------------------------------
Final entropy term                ...      0.04172077 Eh     26.18 kcal/mol

In case the symmetry of your molecule has not been determined correctly
or in case you have a reason to use a different symmetry number we print
out the resulting rotational entropy values for sn=1,12:

 non-linear molecules -----------------------------------
|  sn= 1 | S(rot)=       0.01401052 Eh      8.79 kcal/mol|
|  sn= 2 | S(rot)=       0.01335606 Eh      8.38 kcal/mol|
|  sn= 3 | S(rot)=       0.01297323 Eh      8.14 kcal/mol|
|  sn= 4 | S(rot)=       0.01270161 Eh      7.97 kcal/mol|
|  sn= 5 | S(rot)=       0.01249092 Eh      7.84 kcal/mol|
|  sn= 6 | S(rot)=       0.01231878 Eh      7.73 kcal/mol|
|  sn= 7 | S(rot)=       0.01217323 Eh      7.64 kcal/mol|
|  sn= 8 | S(rot)=       0.01204715 Eh      7.56 kcal/mol|
|  sn= 9 | S(rot)=       0.01193594 Eh      7.49 kcal/mol|
|  sn=10 | S(rot)=       0.01183646 Eh      7.43 kcal/mol|
|  sn=11 | S(rot)=       0.01174647 Eh      7.37 kcal/mol|
|  sn=12 | S(rot)=       0.01166432 Eh      7.32 kcal/mol|
 linear molecules ---------------------------------------
|  Dinfh | S(rot)=       0.00883866 Eh      5.55 kcal/mol|
|  Cinfv | S(rot)=       0.00949312 Eh      5.96 kcal/mol|
 --------------------------------------------------------

                             ****ORCA TERMINATED NORMALLY****
TOTAL RUN TIME: 0 days 0 hours 14 minutes 12 seconds 386 msec
