                         Program Version 6.0.0  -   RELEASE  -
|  1> ! r2SCAN-3c DEF2-TZVP FREQ
|  2> * xyzfile 0 1 vacuum_censo.xyz
|  3>
|  4>                          ****END OF INPUT****

CARTESIAN COORDINATES (ANGSTROEM)
---------------------------------
  C      1.113129   -1.859757    0.010168
  C      2.116706   -0.900768   -0.005353
  C      1.802388    0.468128   -0.019479
  C      0.455444    0.847361   -0.017279
  C     -0.519363   -0.137768   -0.002649
  C     -0.228872   -1.495605    0.011009
  N     -1.937866    0.286569    0.002860
  O     -2.791455   -0.591439   -0.004241
  O     -2.171892    1.489295    0.014486
  N      2.803919    1.425160   -0.098074
  H      1.382452   -2.910664    0.022502
  H      3.158465   -1.208964   -0.012436
  H      0.160659    1.889848   -0.031708
  H     -1.026829   -2.225091    0.023073
  H      3.708255    1.138973    0.241828
  H      2.549543    2.349150    0.213216

 Total Charge           Charge          ....    0
 Multiplicity           Mult            ....    1
 Number of Electrons    NEL             ....   72
 Basis Dimension        Dim             ....  346

ORBITAL ENERGIES
----------------

  NO   OCC          E(Eh)            E(eV)
   0   2.0000     -18.979945      -516.4705
   1   2.0000     -18.979610      -516.4614
   2   2.0000     -14.388722      -391.5370
   3   2.0000     -14.191212      -386.1625
   4   2.0000     -10.103543      -274.9314
   5   2.0000     -10.098581      -274.7964
   6   2.0000     -10.060047      -273.7478
   7   2.0000     -10.058007      -273.6923
   8   2.0000     -10.057249      -273.6717
   9   2.0000     -10.052731      -273.5487
  10   2.0000      -1.188106       -32.3300
  11   2.0000      -1.015756       -27.6401
  12   2.0000      -0.913269       -24.8513
  13   2.0000      -0.842740       -22.9321
  14   2.0000      -0.765984       -20.8435
  15   2.0000      -0.725432       -19.7400
  16   2.0000      -0.669344       -18.2138
  17   2.0000      -0.599971       -16.3260
  18   2.0000      -0.571907       -15.5624
  19   2.0000      -0.529632       -14.4120
  20   2.0000      -0.507092       -13.7987
  21   2.0000      -0.500375       -13.6159
  22   2.0000      -0.477945       -13.0056
  23   2.0000      -0.473092       -12.8735
  24   2.0000      -0.462411       -12.5828
  25   2.0000      -0.423138       -11.5142
  26   2.0000      -0.418126       -11.3778
  27   2.0000      -0.384548       -10.4641
  28   2.0000      -0.362624        -9.8675
  29   2.0000      -0.346811        -9.4372
  30   2.0000      -0.315124        -8.5750
  31   2.0000      -0.287825        -7.8321
  32   2.0000      -0.273578        -7.4444
  33   2.0000      -0.263315        -7.1652
  34   2.0000      -0.255811        -6.9610
  35   2.0000      -0.213619        -5.8129
  36   0.0000      -0.116081        -3.1587
  37   0.0000      -0.045625        -1.2415
  38   0.0000      -0.022975        -0.6252
  39   0.0000       0.027671         0.7530
  40   0.0000       0.051223         1.3938

MULLIKEN ATOMIC CHARGES
-----------------------
   0 C :   -0.017520
   1 C :   -0.265355
   2 C :    0.376580
   3 C :   -0.303762
   4 C :    0.062925
   5 C :   -0.238925
   6 N :    0.533579
   7 O :   -0.342559
   8 O :   -0.347410
   9 N :   -0.433758
  10 H :    0.120281
  11 H :    0.103976
  12 H :    0.134849
  13 H :    0.144446
  14 H :    0.234800
  15 H :    0.237855
Sum of atomic charges:    0.0000000

LOEWDIN ATOMIC CHARGES
----------------------
   0 C :   -0.128535
   1 C :   -0.113374
   2 C :   -0.237583
   3 C :   -0.088821
   4 C :   -0.161152
   5 C :   -0.116536
   6 N :   -0.027295
   7 O :   -0.018178
   8 O :   -0.023462
   9 N :   -0.026721
  10 H :    0.149094
  11 H :    0.145650
  12 H :    0.157006
  13 H :    0.156218
  14 H :    0.166214
  15 H :    0.167476

  Mayer bond orders larger than 0.100000
B(  0-C ,  1-C ) :   1.4337 B(  0-C ,  5-C ) :   1.3819 B(  0-C , 10-H ) :   0.9657
B(  1-C ,  2-C ) :   1.3048 B(  1-C , 11-H ) :   0.9710 B(  2-C ,  3-C ) :   1.3144
B(  2-C ,  9-N ) :   1.0891 B(  3-C ,  4-C ) :   1.4560 B(  3-C , 12-H ) :   0.9318
B(  4-C ,  5-C ) :   1.3721 B(  4-C ,  6-N ) :   0.9638 B(  5-C , 13-H ) :   0.9504
B(  6-N ,  7-O ) :   1.5316 B(  6-N ,  8-O ) :   1.5295 B(  7-O ,  8-O ) :   0.2193
B(  9-N , 14-H ) :   0.9176 B(  9-N , 15-H ) :   0.9174

Dispersion correction           -0.005529922
FINAL SINGLE POINT ENERGY      -492.059314575811

DIPOLE MOMENT
-------------

Method             : SCF
Type of density    : Electron Density
Multiplicity       :   1
Irrep              :   0
Energy             :  -492.0657169503921295 Eh
Relativity type    :
Basis              : AO
                                X                 Y                 Z
Electronic contribution:     -7.028572403       0.834415757      -0.122656365
Nuclear contribution   :      9.263817843      -0.900354754       0.468635371
                        -----------------------------------------
Total Dipole Moment    :      2.235245440      -0.065938998       0.345979007
                        -----------------------------------------
Magnitude (a.u.)       :      2.262823812
Magnitude (Debye)      :      5.751641038

VIBRATIONAL FREQUENCIES
-----------------------

Scaling factor for frequencies =  1.000000000  (already applied!)

     0:       0.00 cm**-1
     1:       0.00 cm**-1
     2:       0.00 cm**-1
     3:       0.00 cm**-1
     4:       0.00 cm**-1
     5:       0.00 cm**-1
     6:      69.53 cm**-1
     7:     163.61 cm**-1
     8:     225.91 cm**-1
     9:     227.06 cm**-1
    10:     349.30 cm**-1
    11:     378.78 cm**-1
    12:     414.04 cm**-1
    13:     436.40 cm**-1
    14:     519.93 cm**-1
    15:     537.06 cm**-1
    16:     563.97 cm**-1
    17:     586.23 cm**-1
    18:     688.09 cm**-1
    19:     691.87 cm**-1
    20:     755.23 cm**-1
    21:     803.42 cm**-1
    22:     834.22 cm**-1
    23:     876.55 cm**-1
    24:     901.79 cm**-1
    25:     943.40 cm**-1
    26:     963.79 cm**-1
    27:    1018.64 cm**-1
    28:    1083.54 cm**-1
    29:    1104.58 cm**-1
    30:    1133.25 cm**-1
    31:    1192.44 cm**-1
    32:    1293.90 cm**-1
    33:    1335.79 cm**-1
    34:    1351.38 cm**-1
    35:    1383.91 cm**-1
    36:    1491.88 cm**-1
    37:    1515.09 cm**-1
    38:    1569.22 cm**-1
    39:    1616.84 cm**-1
    40:    1653.64 cm**-1
    41:    1666.92 cm**-1
    42:    3157.01 cm**-1
    43:    3179.64 cm**-1
    44:    3200.67 cm**-1
    45:    3226.95 cm**-1
    46:    3564.56 cm**-1
    47:    3670.73 cm**-1

IR SPECTRUM
-----------

 Mode   freq       eps      Int      T**2         TX        TY        TZ
       cm**-1   L/(mol*cm) km/mol    a.u.
----------------------------------------------------------------------------
  6:     69.53   0.000012    0.06  0.000052  (-0.001065 -0.005864  0.004049)
  7:    163.61   0.000119    0.60  0.000227  ( 0.012842 -0.003952  0.006831)
  8:    225.91   0.000850    4.29  0.001174  ( 0.011981  0.012714 -0.029469)
  9:    227.06   0.000168    0.85  0.000230  (-0.013946 -0.005976 -0.000504)
 10:    349.30   0.003225   16.30  0.002881  ( 0.041068 -0.034530 -0.001576)
 11:    378.78   0.000230    1.16  0.000190  ( 0.010635 -0.008612  0.001617)
 12:    414.04   0.000019    0.10  0.000014  (-0.001334  0.003550 -0.000151)
 13:    436.40   0.000637    3.22  0.000455  (-0.000935 -0.009276  0.019192)
 14:    519.93   0.003418   17.27  0.002052  ( 0.027384  0.019726 -0.030211)
 15:    537.06   0.023560  119.06  0.013690  ( 0.061693  0.052358 -0.084511)
 16:    563.97   0.000315    1.59  0.000174  (-0.006976 -0.011071  0.001711)
 17:    586.23   0.039753  200.90  0.021161  (-0.094599 -0.080307  0.075915)
 18:    688.09   0.003107   15.70  0.001409  ( 0.003417  0.005634  0.036953)
 19:    691.87   0.000763    3.86  0.000344  (-0.018513  0.000406 -0.001192)
 20:    755.23   0.009275   46.87  0.003833  ( 0.007469  0.004655 -0.061280)
 21:    803.42   0.001235    6.24  0.000480  (-0.002512  0.000598  0.021749)
 22:    834.22   0.006725   33.99  0.002516  (-0.049661  0.005840 -0.003932)
 23:    876.55   0.003429   17.33  0.001221  ( 0.002001  0.005367 -0.034466)
 24:    901.79   0.001222    6.18  0.000423  (-0.000478  0.000832 -0.020544)
 25:    943.40   0.001567    7.92  0.000518  ( 0.013664 -0.017634 -0.004546)
 26:    963.79   0.000039    0.20  0.000013  ( 0.000046  0.000893 -0.003429)
 27:   1018.64   0.000664    3.36  0.000203  ( 0.010484  0.009194  0.003004)
 28:   1083.54   0.002606   13.17  0.000751  (-0.021178  0.017378  0.000411)
 29:   1104.58   0.003112   15.73  0.000879  ( 0.029132 -0.005466 -0.000857)
 30:   1133.25   0.002698   13.63  0.000743  ( 0.022145 -0.015885  0.000257)
 31:   1192.44   0.000155    0.78  0.000041  (-0.005800 -0.002618 -0.000150)
 32:   1293.90   0.009719   49.11  0.002344  ( 0.043115  0.022023  0.000021)
 33:   1335.79   0.016815   84.97  0.003928  ( 0.061800  0.010437 -0.000268)
 34:   1351.38   0.048804  246.63  0.011270  (-0.098611  0.039314 -0.000322)
 35:   1383.91   0.005786   29.24  0.001305  (-0.009813  0.034762 -0.000375)
 36:   1491.88   0.000048    0.24  0.000010  ( 0.000907  0.002934  0.000734)
 37:   1515.09   0.005599   28.30  0.001153  ( 0.033451  0.005701 -0.001354)
 38:   1569.22   0.067106  339.13  0.013345  (-0.044935 -0.106423 -0.000336)
 39:   1616.84   0.003137   15.85  0.000606  (-0.016918 -0.017809  0.001461)
 40:   1653.64   0.000768    3.88  0.000145  ( 0.003649 -0.000330 -0.011464)
 41:   1666.92   0.025748  130.12  0.004820  ( 0.050991  0.045089  0.013687)
 42:   3157.01   0.001814    9.17  0.000179  (-0.012654 -0.004384  0.000029)
 43:   3179.64   0.001867    9.44  0.000183  ( 0.007077 -0.011539  0.000099)
 44:   3200.67   0.000973    4.92  0.000095  (-0.009591  0.001687 -0.000087)
 45:   3226.95   0.000722    3.65  0.000070  ( 0.008146  0.001846 -0.000054)
 46:   3564.56   0.006153   31.10  0.000539  (-0.016454 -0.014997 -0.006564)
 47:   3670.73   0.004042   20.43  0.000344  (-0.012620  0.013576 -0.000223)

--------------------------
THERMOCHEMISTRY AT 298.15K
--------------------------

Temperature         ...   298.15 K
Pressure            ...     1.00 atm
Total Mass          ...   138.13 AMU
Quasi RRHO          ...     True
Cut-Off Frequency   ...     1.00 cm^-1

Throughout the following assumptions are being made:
  (1) The electronic state is orbitally nondegenerate
  (2) There are no thermally accessible electronically excited states
  (3) Hindered rotations indicated by low frequency modes are not
      treated as such but are treated as vibrations and this may
      cause some error
  (4) All equations used are the standard statistical mechanics
      equations for an ideal gas
  (5) All vibrations are strictly harmonic

freq.      69.53  E(vib)   ...       0.50
freq.     163.61  E(vib)   ...       0.39
freq.     225.91  E(vib)   ...       0.33
freq.     227.06  E(vib)   ...       0.33
freq.     349.30  E(vib)   ...       0.23
freq.     378.78  E(vib)   ...       0.21
freq.     414.04  E(vib)   ...       0.19
freq.     436.40  E(vib)   ...       0.17
freq.     519.93  E(vib)   ...       0.13
freq.     537.06  E(vib)   ...       0.12
freq.     563.97  E(vib)   ...       0.11
freq.     586.23  E(vib)   ...       0.11
freq.     688.09  E(vib)   ...       0.07
freq.     691.87  E(vib)   ...       0.07
freq.     755.23  E(vib)   ...       0.06
freq.     803.42  E(vib)   ...       0.05
freq.     834.22  E(vib)   ...       0.04
freq.     876.55  E(vib)   ...       0.04
freq.     901.79  E(vib)   ...       0.03
freq.     943.40  E(vib)   ...       0.03
freq.     963.79  E(vib)   ...       0.03
freq.    1018.64  E(vib)   ...       0.02
freq.    1083.54  E(vib)   ...       0.02
freq.    1104.58  E(vib)   ...       0.02
freq.    1133.25  E(vib)   ...       0.01
freq.    1192.44  E(vib)   ...       0.01
freq.    1293.90  E(vib)   ...       0.01
freq.    1335.79  E(vib)   ...       0.01
freq.    1351.38  E(vib)   ...       0.01
freq.    1383.91  E(vib)   ...       0.00
freq.    1491.88  E(vib)   ...       0.00
freq.    1515.09  E(vib)   ...       0.00
freq.    1569.22  E(vib)   ...       0.00
freq.    1616.84  E(vib)   ...       0.00
freq.    1653.64  E(vib)   ...       0.00
freq.    1666.92  E(vib)   ...       0.00
freq.    3157.01  E(vib)   ...       0.00
freq.    3179.64  E(vib)   ...       0.00
freq.    3200.67  E(vib)   ...       0.00
freq.    3226.95  E(vib)   ...       0.00
freq.    3564.56  E(vib)   ...       0.00
freq.    3670.73  E(vib)   ...       0.00

------------
INNER ENERGY
------------

The inner energy is: U= E(el) + E(ZPE) + E(vib) + E(rot) + E(trans)
    E(el)   - is the total energy from the electronic structure calculation
              = E(kin-el) + E(nuc-el) + E(el-el) + E(nuc-nuc)
    E(ZPE)  - the the zero temperature vibrational energy from the frequency calculation
    E(vib)  - the the finite temperature correction to E(ZPE) due to population
              of excited vibrational states
    E(rot)  - is the rotational thermal energy
    E(trans)- is the translational thermal energy

Summary of contributions to the inner energy U:
Electronic energy                ...   -492.05931458 Eh
Zero point energy                ...      0.11924097 Eh      74.82 kcal/mol
Thermal vibrational correction   ...      0.00533357 Eh       3.35 kcal/mol
Thermal rotational correction    ...      0.00141627 Eh       0.89 kcal/mol
Thermal translational correction ...      0.00141627 Eh       0.89 kcal/mol
-----------------------------------------------------------------------
Total thermal energy                   -491.93190749 Eh

Summary of corrections to the electronic energy:
(perhaps to be used in another calculation)
Total thermal correction                  0.00816611 Eh       5.12 kcal/mol
Non-thermal (ZPE) correction              0.11924097 Eh      74.82 kcal/mol
-----------------------------------------------------------------------
Total correction                          0.12740709 Eh      79.95 kcal/mol

--------
ENTHALPY
--------

The enthalpy is H = U + kB*T
                kB is Boltzmann's constant
Total thermal energy              ...   -491.93190749 Eh
Thermal Enthalpy correction       ...      0.00094421 Eh       0.59 kcal/mol
-----------------------------------------------------------------------
Total Enthalpy                    ...   -491.93096328 Eh

Note: Only C1 symmetry has been detected, increase convergence thresholds
      if your molecule has a higher symmetry. Symmetry factor of 1.0 is
      used for the rotational entropy correction.

Note: Rotational entropy computed according to Herzberg
Infrared and Raman Spectra, Chapter V,1, Van Nostrand Reinhold, 1945
Point Group:  C1, Symmetry Number:   1
Rotational constants in cm-1:     0.090622     0.033012     0.024212

Vibrational entropy computed according to the QRRHO of S. Grimme
Chem.Eur.J. 2012 18 9955 using a reference frequency of 100.0 cm-1

-------
ENTROPY
-------

The entropy contributions are T*S = T*(S(el)+S(vib)+S(rot)+S(trans))
     S(el)   - electronic entropy
     S(vib)  - vibrational entropy
     S(rot)  - rotational entropy
     S(trans)- translational entropy
The entropies will be listed as multiplied by the temperature to get
units of energy

Electronic entropy                ...      0.00000000 Eh      0.00 kcal/mol
Vibrational entropy               ...      0.00860008 Eh      5.40 kcal/mol
Rotational entropy                ...      0.01401118 Eh      8.79 kcal/mol
Translational entropy             ...      0.01932869 Eh     12.13 kcal/mol
-----------------------------------------------------------------------
Final entropy term                ...      0.04193995 Eh     26.32 kcal/mol

In case the symmetry of your molecule has not been determined correctly
or in case you have a reason to use a different symmetry number we print
out the resulting rotational entropy values for sn=1,12:

 non-linear molecules -----------------------------------
|  sn= 1 | S(rot)=       0.01401118 Eh      8.79 kcal/mol|
|  sn= 2 | S(rot)=       0.01335672 Eh      8.38 kcal/mol|
|  sn= 3 | S(rot)=       0.01297389 Eh      8.14 kcal/mol|
|  sn= 4 | S(rot)=       0.01270227 Eh      7.97 kcal/mol|
|  sn= 5 | S(rot)=       0.01249158 Eh      7.84 kcal/mol|
|  sn= 6 | S(rot)=       0.01231943 Eh      7.73 kcal/mol|
|  sn= 7 | S(rot)=       0.01217389 Eh      7.64 kcal/mol|
|  sn= 8 | S(rot)=       0.01204781 Eh      7.56 kcal/mol|
|  sn= 9 | S(rot)=       0.01193660 Eh      7.49 kcal/mol|
|  sn=10 | S(rot)=       0.01183712 Eh      7.43 kcal/mol|
|  sn=11 | S(rot)=       0.01174713 Eh      7.37 kcal/mol|
|  sn=12 | S(rot)=       0.01166498 Eh      7.32 kcal/mol|
 linear molecules ---------------------------------------
|  Dinfh | S(rot)=       0.00883901 Eh      5.55 kcal/mol|
|  Cinfv | S(rot)=       0.00949347 Eh      5.96 kcal/mol|
 --------------------------------------------------------

                             ****ORCA TERMINATED NORMALLY****
TOTAL RUN TIME: 0 days 0 hours 14 minutes 15 seconds 174 msec
