                         Program Version 6.0.1  -  RELEASE   -
|  1> ! pbe def2-sv(p) def2/J RI DEFGRID1 loosescf d4 GCP(DFT/SV(P)) printgap
|  2> %output
|  3>     printlevel normal
|  4> end
|  5> * xyz 0 1
|  6> C -2.8639701755 -0.6899362977 0.4052831759
|  7> C -1.7416113853 -0.3719222937 -0.588817608
|  8> H -2.2002029515 -0.2324343929 -1.574348789
|  9> C -0.7038280115 -1.4951057377 -0.6746466996
| 10> C 0.1721450735 -1.5892713196 0.5696071151
| 11> C 0.8524747787 -0.2676352343 0.9585015479
| 12> H 1.2233358628 -0.3928476567 1.9829769821
| 13> C -0.1670615093 0.8834076738 0.9864172195
| 14> C -1.0932030868 0.9424896106 -0.2014860372
| 15> O -1.3521153374 1.9759153263 -0.7706518465
| 16> C 2.0649710062 0.0619160853 0.1158889049
| 17> C 3.277067834 -0.0290626685 0.6436683702
| 18> C 1.8823090899 0.4890242453 -1.3092442095
| 19> H -3.566020747 0.1395307822 0.4556490103
| 20> H -3.402688231 -1.576978218 0.0789208731
| 21> H -2.4734624309 -0.8723795049 1.4025682609
| 22> H -1.2234109308 -2.4461610273 -0.817613284
| 23> H -0.0823440928 -1.3306461528 -1.5542786088
| 24> H -0.439956893 -1.9190988584 1.4120309223
| 25> H 0.9416837526 -2.3481200642 0.4116924461
| 26> H -0.8068266303 0.7569781661 1.8643779784
| 27> H 0.3472207412 1.8416030042 1.0858741469
| 28> H 4.1621069371 0.1984761346 0.073723132
| 29> H 3.4395861801 -0.3400879902 1.6621051958
| 30> H 1.8049335147 -0.3818199863 -1.960503136
| 31> H 0.987058052 1.0902814229 -1.4367788255
| 32> H 2.7405589875 1.0694029433 -1.6398749109
| 33> *
| 34>
| 35>                          ****END OF INPUT****

CARTESIAN COORDINATES (ANGSTROEM)
---------------------------------
  C     -2.863970   -0.689936    0.405283
  C     -1.741611   -0.371922   -0.588818
  H     -2.200203   -0.232434   -1.574349
  C     -0.703828   -1.495106   -0.674647
  C      0.172145   -1.589271    0.569607
  C      0.852475   -0.267635    0.958502
  H      1.223336   -0.392848    1.982977
  C     -0.167062    0.883408    0.986417
  C     -1.093203    0.942490   -0.201486
  O     -1.352115    1.975915   -0.770652
  C      2.064971    0.061916    0.115889
  C      3.277068   -0.029063    0.643668
  C      1.882309    0.489024   -1.309244
  H     -3.566021    0.139531    0.455649
  H     -3.402688   -1.576978    0.078921
  H     -2.473462   -0.872380    1.402568
  H     -1.223411   -2.446161   -0.817613
  H     -0.082344   -1.330646   -1.554279
  H     -0.439957   -1.919099    1.412031
  H      0.941684   -2.348120    0.411692
  H     -0.806827    0.756978    1.864378
  H      0.347221    1.841603    1.085874
  H      4.162107    0.198476    0.073723
  H      3.439586   -0.340088    1.662105
  H      1.804934   -0.381820   -1.960503
  H      0.987058    1.090281   -1.436779
  H      2.740559    1.069403   -1.639875

 Total Charge           Charge          ....    0
 Multiplicity           Mult            ....    1
 Number of Electrons    NEL             ....   84
 Basis Dimension        Dim             ....  186

ORBITAL ENERGIES
----------------

  NO   OCC          E(Eh)            E(eV)
   0   2.0000     -18.738492      -509.9003
   1   2.0000      -9.970283      -271.3052
   2   2.0000      -9.908049      -269.6117
   3   2.0000      -9.902207      -269.4528
   4   2.0000      -9.901499      -269.4335
   5   2.0000      -9.894695      -269.2483
   6   2.0000      -9.894643      -269.2469
   7   2.0000      -9.894605      -269.2459
   8   2.0000      -9.891147      -269.1518
   9   2.0000      -9.882395      -268.9136
  10   2.0000      -9.874713      -268.7046
  11   2.0000      -0.938565       -25.5396
  12   2.0000      -0.772391       -21.0178
  13   2.0000      -0.728849       -19.8330
  14   2.0000      -0.683117       -18.5886
  15   2.0000      -0.665595       -18.1118
  16   2.0000      -0.623187       -16.9578
  17   2.0000      -0.603212       -16.4142
  18   2.0000      -0.556839       -15.1524
  19   2.0000      -0.536427       -14.5969
  20   2.0000      -0.482358       -13.1256
  21   2.0000      -0.452220       -12.3055
  22   2.0000      -0.437200       -11.8968
  23   2.0000      -0.424102       -11.5404
  24   2.0000      -0.416821       -11.3423
  25   2.0000      -0.398244       -10.8368
  26   2.0000      -0.395678       -10.7669
  27   2.0000      -0.379388       -10.3237
  28   2.0000      -0.368987       -10.0406
  29   2.0000      -0.360948        -9.8219
  30   2.0000      -0.359626        -9.7859
  31   2.0000      -0.351749        -9.5716
  32   2.0000      -0.347421        -9.4538
  33   2.0000      -0.327397        -8.9089
  34   2.0000      -0.321579        -8.7506
  35   2.0000      -0.313227        -8.5233
  36   2.0000      -0.304299        -8.2804
  37   2.0000      -0.290679        -7.9098
  38   2.0000      -0.282652        -7.6913
  39   2.0000      -0.274500        -7.4695
  40   2.0000      -0.219628        -5.9764
  41   2.0000      -0.190003        -5.1703
  42   0.0000      -0.053646        -1.4598
  43   0.0000      -0.014807        -0.4029
  44   0.0000       0.021504         0.5851
  45   0.0000       0.043715         1.1895
  46   0.0000       0.059640         1.6229

MULLIKEN ATOMIC CHARGES
-----------------------
   0 C :   -0.273462
   1 C :   -0.121313
   2 H :    0.069048
   3 C :   -0.121156
   4 C :   -0.131174
   5 C :   -0.112640
   6 H :    0.055912
   7 C :   -0.090703
   8 C :   -0.014604
   9 O :   -0.154557
  10 C :   -0.060348
  11 C :   -0.235319
  12 C :   -0.243963
  13 H :    0.118735
  14 H :    0.110323
  15 H :    0.109812
  16 H :    0.083709
  17 H :    0.091737
  18 H :    0.087137
  19 H :    0.092197
  20 H :    0.109875
  21 H :    0.095564
  22 H :    0.082901
  23 H :    0.086179
  24 H :    0.127151
  25 H :    0.134947
  26 H :    0.104011
Sum of atomic charges:    0.0000000

LOEWDIN ATOMIC CHARGES
----------------------
   0 C :   -0.322405
   1 C :   -0.169213
   2 H :    0.127008
   3 C :   -0.217223
   4 C :   -0.214455
   5 C :   -0.125160
   6 H :    0.123681
   7 C :   -0.234093
   8 C :    0.044414
   9 O :   -0.124692
  10 C :   -0.048689
  11 C :   -0.263246
  12 C :   -0.332755
  13 H :    0.127491
  14 H :    0.125182
  15 H :    0.116144
  16 H :    0.120307
  17 H :    0.119741
  18 H :    0.117559
  19 H :    0.125227
  20 H :    0.143971
  21 H :    0.132971
  22 H :    0.116478
  23 H :    0.116121
  24 H :    0.132392
  25 H :    0.132652
  26 H :    0.130590

  Mayer bond orders larger than 0.100000
B(  0-C ,  1-C ) :   1.0861 B(  0-C , 13-H ) :   0.9461 B(  0-C , 14-H ) :   0.9435
B(  0-C , 15-H ) :   0.9413 B(  1-C ,  2-H ) :   0.8697 B(  1-C ,  3-C ) :   1.0659
B(  1-C ,  8-C ) :   0.9618 B(  3-C ,  4-C ) :   1.1239 B(  3-C , 16-H ) :   0.9083
B(  3-C , 17-H ) :   0.9024 B(  4-C ,  5-C ) :   1.0688 B(  4-C , 18-H ) :   0.9112
B(  4-C , 19-H ) :   0.9101 B(  5-C ,  6-H ) :   0.8659 B(  5-C ,  7-C ) :   1.0399
B(  5-C , 10-C ) :   1.0309 B(  7-C ,  8-C ) :   1.0233 B(  7-C , 20-H ) :   0.8810
B(  7-C , 21-H ) :   0.8921 B(  8-C ,  9-O ) :   2.1706 B( 10-C , 11-C ) :   2.0273
B( 10-C , 12-C ) :   1.1200 B( 11-C , 22-H ) :   0.9117 B( 11-C , 23-H ) :   0.9095
B( 12-C , 24-H ) :   0.9139 B( 12-C , 25-H ) :   0.9119 B( 12-C , 26-H ) :   0.9273

Dispersion correction           -0.030041115
FINAL SINGLE POINT ENERGY      -464.824627334742

DIPOLE MOMENT
-------------

Method             : SCF
Type of density    : Electron Density
Multiplicity       :   1
Irrep              :   0
Energy             :  -464.9097726544936222 Eh
Relativity type    :
Basis              : AO
                                X                 Y                 Z
Electronic contribution:     -1.291854309       5.353983856      -0.950618267
Nuclear contribution   :      1.341765248      -6.297977543       1.345650156
                        -----------------------------------------
Total Dipole Moment    :      0.049910939      -0.943993686       0.395031889
                        -----------------------------------------
Magnitude (a.u.)       :      1.024531783
Magnitude (Debye)      :      2.604152837

Rotational constants in cm-1:             0.060172             0.028414             0.024520
Rotational constants in MHz :          1803.915980           851.840249           735.090581

                             ****ORCA TERMINATED NORMALLY****
TOTAL RUN TIME: 0 days 0 hours 0 minutes 26 seconds 922 msec
