                         Program Version 6.0.1  -  RELEASE   -
|  1> ! pbe def2-sv(p) def2/J RI DEFGRID1 loosescf d4 GCP(DFT/SV(P)) printgap
|  2> %output
|  3>     printlevel normal
|  4> end
|  5> * xyz 0 1
|  6> C -2.6156015031 0.7440244882 -1.2931482462
|  7> C -2.3577085765 0.0559049651 0.0460578485
|  8> H -3.3364601289 -0.182309653 0.4774274709
|  9> C -1.61954556 0.9628348003 1.0337479155
| 10> C -0.219087229 1.3502106079 0.5505832526
| 11> C 0.5026423857 0.1937840165 -0.1768211252
| 12> H 0.2814888143 0.2579487245 -1.2472520931
| 13> C -0.1152854481 -1.0971318153 0.3192027556
| 14> O 0.4588740835 -1.9180704832 0.988626881
| 15> C -1.5630988836 -1.2567271305 -0.0935748774
| 16> C 2.0287970995 0.2313251557 -0.0018438327
| 17> C 2.684671299 -0.866344566 -0.839437398
| 18> C 2.6020668526 1.5879007146 -0.4085839392
| 19> H -1.6919409809 0.9905372552 -1.8076312566
| 20> H -3.2052857766 0.0978681102 -1.9402024688
| 21> H -3.1735165144 1.6648979191 -1.136098369
| 22> H -2.2019259279 1.8677751337 1.2177070684
| 23> H -1.5352136213 0.4250453598 1.981557129
| 24> H -0.2809606843 2.2117351359 -0.1152109013
| 25> H 0.3719283711 1.6438433351 1.4196159382
| 26> H -1.5725979714 -1.5998782317 -1.1308550441
| 27> H -2.0018756097 -2.0474658641 0.5175426283
| 28> H 2.2561268892 0.0447444856 1.0526964322
| 29> H 3.7641654167 -0.8422245585 -0.7105576172
| 30> H 2.4633987744 -0.7236056515 -1.8961838417
| 31> H 2.3285168607 -1.8463724502 -0.5364798674
| 32> H 2.2318091424 2.389522685 0.2243458888
| 33> H 2.3415638442 1.8144114296 -1.4410478975
| 34> H 3.6865241126 1.5700467836 -0.3288405748
| 35> *
| 36>
| 37>                          ****END OF INPUT****

CARTESIAN COORDINATES (ANGSTROEM)
---------------------------------
  C     -2.615602    0.744024   -1.293148
  C     -2.357709    0.055905    0.046058
  H     -3.336460   -0.182310    0.477427
  C     -1.619546    0.962835    1.033748
  C     -0.219087    1.350211    0.550583
  C      0.502642    0.193784   -0.176821
  H      0.281489    0.257949   -1.247252
  C     -0.115285   -1.097132    0.319203
  O      0.458874   -1.918070    0.988627
  C     -1.563099   -1.256727   -0.093575
  C      2.028797    0.231325   -0.001844
  C      2.684671   -0.866345   -0.839437
  C      2.602067    1.587901   -0.408584
  H     -1.691941    0.990537   -1.807631
  H     -3.205286    0.097868   -1.940202
  H     -3.173517    1.664898   -1.136098
  H     -2.201926    1.867775    1.217707
  H     -1.535214    0.425045    1.981557
  H     -0.280961    2.211735   -0.115211
  H      0.371928    1.643843    1.419616
  H     -1.572598   -1.599878   -1.130855
  H     -2.001876   -2.047466    0.517543
  H      2.256127    0.044744    1.052696
  H      3.764165   -0.842225   -0.710558
  H      2.463399   -0.723606   -1.896184
  H      2.328517   -1.846372   -0.536480
  H      2.231809    2.389523    0.224346
  H      2.341564    1.814411   -1.441048
  H      3.686524    1.570047   -0.328841

 Total Charge           Charge          ....    0
 Multiplicity           Mult            ....    1
 Number of Electrons    NEL             ....   86
 Basis Dimension        Dim             ....  190

ORBITAL ENERGIES
----------------

  NO   OCC          E(Eh)            E(eV)
   0   2.0000     -18.735250      -509.8121
   1   2.0000      -9.968656      -271.2609
   2   2.0000      -9.906930      -269.5813
   3   2.0000      -9.898818      -269.3605
   4   2.0000      -9.896251      -269.2907
   5   2.0000      -9.891925      -269.1730
   6   2.0000      -9.890798      -269.1423
   7   2.0000      -9.888335      -269.0753
   8   2.0000      -9.882463      -268.9155
   9   2.0000      -9.871855      -268.6268
  10   2.0000      -9.863376      -268.3961
  11   2.0000      -0.938905       -25.5489
  12   2.0000      -0.768773       -20.9194
  13   2.0000      -0.727469       -19.7954
  14   2.0000      -0.674625       -18.3575
  15   2.0000      -0.654268       -17.8035
  16   2.0000      -0.619516       -16.8579
  17   2.0000      -0.606812       -16.5122
  18   2.0000      -0.553383       -15.0583
  19   2.0000      -0.521993       -14.2041
  20   2.0000      -0.498747       -13.5716
  21   2.0000      -0.462470       -12.5844
  22   2.0000      -0.435429       -11.8486
  23   2.0000      -0.424276       -11.5451
  24   2.0000      -0.422837       -11.5060
  25   2.0000      -0.392930       -10.6922
  26   2.0000      -0.385342       -10.4857
  27   2.0000      -0.375116       -10.2074
  28   2.0000      -0.368717       -10.0333
  29   2.0000      -0.362799        -9.8723
  30   2.0000      -0.349764        -9.5176
  31   2.0000      -0.342232        -9.3126
  32   2.0000      -0.337432        -9.1820
  33   2.0000      -0.330321        -8.9885
  34   2.0000      -0.320878        -8.7315
  35   2.0000      -0.315319        -8.5803
  36   2.0000      -0.301896        -8.2150
  37   2.0000      -0.293810        -7.9950
  38   2.0000      -0.285857        -7.7786
  39   2.0000      -0.280642        -7.6367
  40   2.0000      -0.272410        -7.4127
  41   2.0000      -0.267621        -7.2823
  42   2.0000      -0.189041        -5.1441
  43   0.0000      -0.048435        -1.3180
  44   0.0000       0.027127         0.7382
  45   0.0000       0.037339         1.0160
  46   0.0000       0.051908         1.4125
  47   0.0000       0.063676         1.7327

MULLIKEN ATOMIC CHARGES
-----------------------
   0 C :   -0.265692
   1 C :   -0.191791
   2 H :    0.078365
   3 C :   -0.088480
   4 C :   -0.143595
   5 C :   -0.149732
   6 H :    0.075489
   7 C :   -0.035081
   8 O :   -0.148614
   9 C :   -0.047010
  10 C :   -0.137492
  11 C :   -0.254739
  12 C :   -0.229395
  13 H :    0.109504
  14 H :    0.106113
  15 H :    0.101501
  16 H :    0.085194
  17 H :    0.090534
  18 H :    0.094220
  19 H :    0.096947
  20 H :    0.102921
  21 H :    0.086959
  22 H :    0.073451
  23 H :    0.096494
  24 H :    0.083593
  25 H :    0.120462
  26 H :    0.103249
  27 H :    0.086434
  28 H :    0.100189
Sum of atomic charges:    0.0000000

LOEWDIN ATOMIC CHARGES
----------------------
   0 C :   -0.333860
   1 C :   -0.148484
   2 H :    0.121734
   3 C :   -0.221261
   4 C :   -0.209912
   5 C :   -0.163763
   6 H :    0.127525
   7 C :    0.051932
   8 O :   -0.116278
   9 C :   -0.237879
  10 C :   -0.145401
  11 C :   -0.334612
  12 C :   -0.329042
  13 H :    0.116296
  14 H :    0.120949
  15 H :    0.120253
  16 H :    0.119230
  17 H :    0.122232
  18 H :    0.120874
  19 H :    0.126478
  20 H :    0.139742
  21 H :    0.130386
  22 H :    0.120018
  23 H :    0.117734
  24 H :    0.111402
  25 H :    0.123675
  26 H :    0.115881
  27 H :    0.114703
  28 H :    0.119446

  Mayer bond orders larger than 0.100000
B(  0-C ,  1-C ) :   1.0954 B(  0-C , 13-H ) :   0.9419 B(  0-C , 14-H ) :   0.9471
B(  0-C , 15-H ) :   0.9467 B(  1-C ,  2-H ) :   0.8995 B(  1-C ,  3-C ) :   1.1478
B(  1-C ,  9-C ) :   1.0329 B(  3-C ,  4-C ) :   1.1517 B(  3-C , 16-H ) :   0.9149
B(  3-C , 17-H ) :   0.8912 B(  4-C ,  5-C ) :   1.0731 B(  4-C , 18-H ) :   0.9046
B(  4-C , 19-H ) :   0.9030 B(  5-C ,  6-H ) :   0.8429 B(  5-C ,  7-C ) :   0.9592
B(  5-C , 10-C ) :   1.0511 B(  7-C ,  8-O ) :   2.1849 B(  7-C ,  9-C ) :   1.0530
B(  9-C , 20-H ) :   0.8822 B(  9-C , 21-H ) :   0.8887 B( 10-C , 11-C ) :   1.1152
B( 10-C , 12-C ) :   1.1189 B( 10-C , 22-H ) :   0.8835 B( 11-C , 23-H ) :   0.9502
B( 11-C , 24-H ) :   0.9462 B( 11-C , 25-H ) :   0.9404 B( 12-C , 26-H ) :   0.9392
B( 12-C , 27-H ) :   0.9463 B( 12-C , 28-H ) :   0.9509

Dispersion correction           -0.030510434
FINAL SINGLE POINT ENERGY      -466.027574208634

DIPOLE MOMENT
-------------

Method             : SCF
Type of density    : Electron Density
Multiplicity       :   1
Irrep              :   0
Energy             :  -466.1239309596912790 Eh
Relativity type    :
Basis              : AO
                                X                 Y                 Z
Electronic contribution:     -1.260485996      -6.504112960       4.618122353
Nuclear contribution   :      0.687675438       7.229684806      -5.050929361
                        -----------------------------------------
Total Dipole Moment    :     -0.572810558       0.725571846      -0.432807008
                        -----------------------------------------
Magnitude (a.u.)       :      1.020729320
Magnitude (Debye)      :      2.594487745

Rotational constants in cm-1:             0.055954             0.026928             0.022377
Rotational constants in MHz :          1677.445585           807.276777           670.833728

                             ****ORCA TERMINATED NORMALLY****
TOTAL RUN TIME: 0 days 0 hours 0 minutes 18 seconds 284 msec
