                         Program Version 6.0.1  -  RELEASE   -
|  1> ! pbe def2-sv(p) def2/J RI DEFGRID1 loosescf d4 GCP(DFT/SV(P)) printgap
|  2> %output
|  3>     printlevel normal
|  4> end
|  5> * xyz 0 1
|  6> C -1.5754096495 0.0782700082 -0.5380323398
|  7> C -0.6689464329 -0.4571229629 0.5628155392
|  8> C 0.6553517315 0.2986438184 0.6192849912
|  9> O 1.3882784185 0.0210721772 -0.5558932606
| 10> H -1.0620171421 0.0213719575 -1.4938458859
| 11> H -2.4902733042 -0.5061407144 -0.5961780185
| 12> H -1.8386682233 1.1164416175 -0.3455708564
| 13> H -0.4509865783 -1.5095260975 0.37668616
| 14> H -1.161138812 -0.3711662303 1.5333691951
| 15> H 0.4620138027 1.3781884064 0.7045984777
| 16> H 1.2245239046 -0.0202696736 1.5055535663
| 17> H 2.2149584264 0.5124418844 -0.5356339723
| 18> *
| 19>
| 20>                          ****END OF INPUT****

CARTESIAN COORDINATES (ANGSTROEM)
---------------------------------
  C     -1.575410    0.078270   -0.538032
  C     -0.668946   -0.457123    0.562816
  C      0.655352    0.298644    0.619285
  O      1.388278    0.021072   -0.555893
  H     -1.062017    0.021372   -1.493846
  H     -2.490273   -0.506141   -0.596178
  H     -1.838668    1.116442   -0.345571
  H     -0.450987   -1.509526    0.376686
  H     -1.161139   -0.371166    1.533369
  H      0.462014    1.378188    0.704598
  H      1.224524   -0.020270    1.505554
  H      2.214958    0.512442   -0.535634

 Total Charge           Charge          ....    0
 Multiplicity           Mult            ....    1
 Number of Electrons    NEL             ....   34
 Basis Dimension        Dim             ....   72

ORBITAL ENERGIES
----------------

  NO   OCC          E(Eh)            E(eV)
   0   2.0000     -18.738124      -509.8903
   1   2.0000      -9.926324      -270.1090
   2   2.0000      -9.880319      -268.8572
   3   2.0000      -9.865903      -268.4649
   4   2.0000      -0.915785       -24.9198
   5   2.0000      -0.695100       -18.9146
   6   2.0000      -0.598232       -16.2787
   7   2.0000      -0.514024       -13.9873
   8   2.0000      -0.465603       -12.6697
   9   2.0000      -0.408898       -11.1267
  10   2.0000      -0.374641       -10.1945
  11   2.0000      -0.366934        -9.9848
  12   2.0000      -0.317885        -8.6501
  13   2.0000      -0.302581        -8.2337
  14   2.0000      -0.294175        -8.0049
  15   2.0000      -0.268182        -7.2976
  16   2.0000      -0.209916        -5.7121
  17   0.0000       0.028770         0.7829
  18   0.0000       0.062420         1.6985
  19   0.0000       0.086673         2.3585
  20   0.0000       0.088995         2.4217
  21   0.0000       0.114928         3.1273

MULLIKEN ATOMIC CHARGES
-----------------------
   0 C :   -0.286673
   1 C :   -0.189369
   2 C :   -0.005722
   3 O :   -0.437820
   4 H :    0.115419
   5 H :    0.101701
   6 H :    0.091050
   7 H :    0.094306
   8 H :    0.085780
   9 H :    0.063812
  10 H :    0.070919
  11 H :    0.296597
Sum of atomic charges:    0.0000000

LOEWDIN ATOMIC CHARGES
----------------------
   0 C :   -0.343771
   1 C :   -0.246706
   2 C :   -0.121755
   3 O :   -0.349853
   4 H :    0.123553
   5 H :    0.117517
   6 H :    0.113959
   7 H :    0.121748
   8 H :    0.117989
   9 H :    0.090998
  10 H :    0.092030
  11 H :    0.284290

  Mayer bond orders larger than 0.100000
B(  0-C ,  1-C ) :   1.1517 B(  0-C ,  4-H ) :   0.9517 B(  0-C ,  5-H ) :   0.9555
B(  0-C ,  6-H ) :   0.9561 B(  1-C ,  2-C ) :   1.1197 B(  1-C ,  7-H ) :   0.9220
B(  1-C ,  8-H ) :   0.9264 B(  2-C ,  3-O ) :   1.0749 B(  2-C ,  9-H ) :   0.9213
B(  2-C , 10-H ) :   0.9261 B(  3-O , 11-H ) :   0.8547

Dispersion correction           -0.006409305
FINAL SINGLE POINT ENERGY      -193.874474370939

DIPOLE MOMENT
-------------

Method             : SCF
Type of density    : Electron Density
Multiplicity       :   1
Irrep              :   0
Energy             :  -193.9239735416167889 Eh
Relativity type    :
Basis              : AO
                                X                 Y                 Z
Electronic contribution:      3.171132863      -0.226076805      -0.702920643
Nuclear contribution   :     -2.889196681       0.583232536       1.069681213
                        -----------------------------------------
Total Dipole Moment    :      0.281936182       0.357155730       0.366760570
                        -----------------------------------------
Magnitude (a.u.)       :      0.584432667
Magnitude (Debye)      :      1.485509784

Rotational constants in cm-1:             0.491274             0.169073             0.144974
Rotational constants in MHz :         14728.010559          5068.682846          4346.224074

                             ****ORCA TERMINATED NORMALLY****
TOTAL RUN TIME: 0 days 0 hours 0 minutes 6 seconds 549 msec
