                         Program Version 6.0.0  -   RELEASE  -
|  1> ! r2SCAN-3c DEF2-TZVP FREQ
|  2> * xyzfile 0 1 censo.xyz
|  3>
|  4>                          ****END OF INPUT****

CARTESIAN COORDINATES (ANGSTROEM)
---------------------------------
  C      2.118899    0.018428    0.000182
  N      0.660811   -0.005965    0.000435
  C     -0.135410   -1.128871    0.000087
  C     -1.426465   -0.667990   -0.000200
  N     -1.446161    0.712862   -0.000110
  C     -0.169377    1.068917    0.000265
  H      2.505615   -0.478780   -0.893071
  H      2.451655    1.057247    0.004857
  H      2.505718   -0.486811    0.888844
  H      0.285505   -2.123230    0.000121
  H     -2.336832   -1.250754   -0.000388
  H      0.209431    2.082415    0.000428

 Total Charge           Charge          ....    0
 Multiplicity           Mult            ....    1
 Number of Electrons    NEL             ....   44
 Basis Dimension        Dim             ....  222

ORBITAL ENERGIES
----------------

  NO   OCC          E(Eh)            E(eV)
   0   2.0000     -14.225023      -387.0826
   1   2.0000     -14.136461      -384.6727
   2   2.0000     -10.090119      -274.5661
   3   2.0000     -10.078872      -274.2600
   4   2.0000     -10.055155      -273.6147
   5   2.0000     -10.041371      -273.2396
   6   2.0000      -0.981556       -26.7095
   7   2.0000      -0.847528       -23.0624
   8   2.0000      -0.717557       -19.5257
   9   2.0000      -0.686107       -18.6699
  10   2.0000      -0.564065       -15.3490
  11   2.0000      -0.543512       -14.7897
  12   2.0000      -0.502722       -13.6798
  13   2.0000      -0.448397       -12.2015
  14   2.0000      -0.422499       -11.4968
  15   2.0000      -0.397551       -10.8179
  16   2.0000      -0.386064       -10.5053
  17   2.0000      -0.370630       -10.0854
  18   2.0000      -0.367715       -10.0060
  19   2.0000      -0.246921        -6.7190
  20   2.0000      -0.235400        -6.4056
  21   2.0000      -0.209707        -5.7064
  22   0.0000      -0.005421        -0.1475
  23   0.0000       0.030075         0.8184
  24   0.0000       0.044037         1.1983
  25   0.0000       0.078851         2.1456
  26   0.0000       0.085636         2.3303

MULLIKEN ATOMIC CHARGES
-----------------------
   0 C :   -0.259455
   1 N :   -0.009804
   2 C :   -0.122587
   3 C :   -0.089947
   4 N :   -0.324533
   5 C :    0.024197
   6 H :    0.133393
   7 H :    0.127155
   8 H :    0.133356
   9 H :    0.131930
  10 H :    0.118649
  11 H :    0.137646
Sum of atomic charges:   -0.0000000

LOEWDIN ATOMIC CHARGES
----------------------
   0 C :   -0.257486
   1 N :    0.213528
   2 C :   -0.233927
   3 C :   -0.256883
   4 N :    0.072174
   5 C :   -0.297359
   6 H :    0.121494
   7 H :    0.125934
   8 H :    0.121534
   9 H :    0.132875
  10 H :    0.128979
  11 H :    0.129137

  Mayer bond orders larger than 0.100000
B(  0-C ,  1-N ) :   0.9116 B(  0-C ,  6-H ) :   0.9648 B(  0-C ,  7-H ) :   0.9698
B(  0-C ,  8-H ) :   0.9649 B(  1-N ,  2-C ) :   1.1282 B(  1-N ,  5-C ) :   1.2189
B(  2-C ,  3-C ) :   1.5932 B(  2-C ,  9-H ) :   0.9596 B(  3-C ,  4-N ) :   1.3385
B(  3-C , 10-H ) :   0.9790 B(  4-N ,  5-C ) :   1.6181 B(  5-C , 11-H ) :   0.9585

Dispersion correction           -0.003058977
FINAL SINGLE POINT ENERGY      -265.472549003389

DIPOLE MOMENT
-------------

Method             : SCF
Type of density    : Electron Density
Multiplicity       :   1
Irrep              :   0
Energy             :  -265.4811142442547407 Eh
Relativity type    :
Basis              : AO
                                X                 Y                 Z
Electronic contribution:     -3.730217264       0.699154650       0.000109406
Nuclear contribution   :      5.315846464      -1.133514099       0.000101627
                        -----------------------------------------
Total Dipole Moment    :      1.585629199      -0.434359449       0.000211033
                        -----------------------------------------
Magnitude (a.u.)       :      1.644046269
Magnitude (Debye)      :      4.178833517

VIBRATIONAL FREQUENCIES
-----------------------

Scaling factor for frequencies =  1.000000000  (already applied!)

     0:       0.00 cm**-1
     1:       0.00 cm**-1
     2:       0.00 cm**-1
     3:       0.00 cm**-1
     4:       0.00 cm**-1
     5:       0.00 cm**-1
     6:      60.08 cm**-1
     7:     216.66 cm**-1
     8:     353.05 cm**-1
     9:     627.30 cm**-1
    10:     671.75 cm**-1
    11:     681.06 cm**-1
    12:     711.86 cm**-1
    13:     789.42 cm**-1
    14:     847.46 cm**-1
    15:     916.71 cm**-1
    16:    1043.34 cm**-1
    17:    1075.30 cm**-1
    18:    1087.47 cm**-1
    19:    1121.78 cm**-1
    20:    1139.81 cm**-1
    21:    1243.10 cm**-1
    22:    1292.95 cm**-1
    23:    1348.73 cm**-1
    24:    1388.33 cm**-1
    25:    1433.09 cm**-1
    26:    1475.21 cm**-1
    27:    1500.73 cm**-1
    28:    1514.79 cm**-1
    29:    1538.65 cm**-1
    30:    3026.49 cm**-1
    31:    3100.34 cm**-1
    32:    3132.09 cm**-1
    33:    3226.29 cm**-1
    34:    3227.99 cm**-1
    35:    3251.09 cm**-1

IR SPECTRUM
-----------

 Mode   freq       eps      Int      T**2         TX        TY        TZ
       cm**-1   L/(mol*cm) km/mol    a.u.
----------------------------------------------------------------------------
  6:     60.08   0.000015    0.08  0.000080  (-0.000393  0.000048 -0.008929)
  7:    216.66   0.000151    0.76  0.000217  ( 0.000132  0.000024  0.014744)
  8:    353.05   0.000109    0.55  0.000096  (-0.009746 -0.001075  0.000013)
  9:    627.30   0.001098    5.55  0.000546  ( 0.000030 -0.000039  0.023374)
 10:    671.75   0.000931    4.70  0.000432  (-0.020785 -0.000613  0.000067)
 11:    681.06   0.002794   14.12  0.001280  ( 0.000042 -0.000082 -0.035782)
 12:    711.86   0.006070   30.68  0.002661  (-0.000026  0.000053  0.051585)
 13:    789.42   0.006780   34.26  0.002680  ( 0.000017 -0.000017  0.051771)
 14:    847.46   0.000684    3.46  0.000252  (-0.000027  0.000024 -0.015876)
 15:    916.71   0.002183   11.03  0.000743  ( 0.022425 -0.015505 -0.000001)
 16:   1043.34   0.001096    5.54  0.000328  ( 0.013141 -0.012453  0.000003)
 17:   1075.30   0.002008   10.15  0.000583  ( 0.023306 -0.006300  0.000004)
 18:   1087.47   0.003410   17.23  0.000978  (-0.031218  0.001969 -0.000003)
 19:   1121.78   0.003073   15.53  0.000855  (-0.007312  0.028311 -0.000006)
 20:   1139.81   0.000005    0.03  0.000001  ( 0.000167 -0.000070  0.001177)
 21:   1243.10   0.004751   24.01  0.001193  ( 0.034494 -0.001721 -0.000010)
 22:   1292.95   0.003401   17.19  0.000821  ( 0.028304  0.004454 -0.000006)
 23:   1348.73   0.000223    1.13  0.000052  (-0.000178  0.007187  0.000001)
 24:   1388.33   0.000402    2.03  0.000090  ( 0.009335  0.001764 -0.000007)
 25:   1433.09   0.002770   14.00  0.000603  (-0.023549  0.006974  0.000065)
 26:   1475.21   0.001898    9.59  0.000402  ( 0.000196 -0.000041  0.020037)
 27:   1500.73   0.001316    6.65  0.000274  ( 0.007251 -0.014872 -0.000036)
 28:   1514.79   0.007883   39.84  0.001624  ( 0.039901  0.005649  0.000028)
 29:   1538.65   0.002069   10.46  0.000420  (-0.015778  0.013064  0.000008)
 30:   3026.49   0.008754   44.24  0.000903  ( 0.029855 -0.003362 -0.000077)
 31:   3100.34   0.003079   15.56  0.000310  ( 0.000018 -0.000021  0.017604)
 32:   3132.09   0.001690    8.54  0.000168  (-0.000820  0.012950  0.000005)
 33:   3226.29   0.000925    4.67  0.000089  ( 0.006454  0.006914  0.000003)
 34:   3227.99   0.000083    0.42  0.000008  (-0.002299 -0.001651 -0.000001)
 35:   3251.09   0.000468    2.37  0.000045  (-0.002197 -0.006333 -0.000001)

--------------------------
THERMOCHEMISTRY AT 298.15K
--------------------------

Temperature         ...   298.15 K
Pressure            ...     1.00 atm
Total Mass          ...    82.11 AMU
Quasi RRHO          ...     True
Cut-Off Frequency   ...     1.00 cm^-1

Throughout the following assumptions are being made:
  (1) The electronic state is orbitally nondegenerate
  (2) There are no thermally accessible electronically excited states
  (3) Hindered rotations indicated by low frequency modes are not
      treated as such but are treated as vibrations and this may
      cause some error
  (4) All equations used are the standard statistical mechanics
      equations for an ideal gas
  (5) All vibrations are strictly harmonic

freq.      60.08  E(vib)   ...       0.51
freq.     216.66  E(vib)   ...       0.34
freq.     353.05  E(vib)   ...       0.22
freq.     627.30  E(vib)   ...       0.09
freq.     671.75  E(vib)   ...       0.08
freq.     681.06  E(vib)   ...       0.08
freq.     711.86  E(vib)   ...       0.07
freq.     789.42  E(vib)   ...       0.05
freq.     847.46  E(vib)   ...       0.04
freq.     916.71  E(vib)   ...       0.03
freq.    1043.34  E(vib)   ...       0.02
freq.    1075.30  E(vib)   ...       0.02
freq.    1087.47  E(vib)   ...       0.02
freq.    1121.78  E(vib)   ...       0.01
freq.    1139.81  E(vib)   ...       0.01
freq.    1243.10  E(vib)   ...       0.01
freq.    1292.95  E(vib)   ...       0.01
freq.    1348.73  E(vib)   ...       0.01
freq.    1388.33  E(vib)   ...       0.00
freq.    1433.09  E(vib)   ...       0.00
freq.    1475.21  E(vib)   ...       0.00
freq.    1500.73  E(vib)   ...       0.00
freq.    1514.79  E(vib)   ...       0.00
freq.    1538.65  E(vib)   ...       0.00
freq.    3026.49  E(vib)   ...       0.00
freq.    3100.34  E(vib)   ...       0.00
freq.    3132.09  E(vib)   ...       0.00
freq.    3226.29  E(vib)   ...       0.00
freq.    3227.99  E(vib)   ...       0.00
freq.    3251.09  E(vib)   ...       0.00

------------
INNER ENERGY
------------

The inner energy is: U= E(el) + E(ZPE) + E(vib) + E(rot) + E(trans)
    E(el)   - is the total energy from the electronic structure calculation
              = E(kin-el) + E(nuc-el) + E(el-el) + E(nuc-nuc)
    E(ZPE)  - the the zero temperature vibrational energy from the frequency calculation
    E(vib)  - the the finite temperature correction to E(ZPE) due to population
              of excited vibrational states
    E(rot)  - is the rotational thermal energy
    E(trans)- is the translational thermal energy

Summary of contributions to the inner energy U:
Electronic energy                ...   -265.47254900 Eh
Zero point energy                ...      0.09805902 Eh      61.53 kcal/mol
Thermal vibrational correction   ...      0.00260084 Eh       1.63 kcal/mol
Thermal rotational correction    ...      0.00141627 Eh       0.89 kcal/mol
Thermal translational correction ...      0.00141627 Eh       0.89 kcal/mol
-----------------------------------------------------------------------
Total thermal energy                   -265.36905660 Eh

Summary of corrections to the electronic energy:
(perhaps to be used in another calculation)
Total thermal correction                  0.00543339 Eh       3.41 kcal/mol
Non-thermal (ZPE) correction              0.09805902 Eh      61.53 kcal/mol
-----------------------------------------------------------------------
Total correction                          0.10349241 Eh      64.94 kcal/mol

--------
ENTHALPY
--------

The enthalpy is H = U + kB*T
                kB is Boltzmann's constant
Total thermal energy              ...   -265.36905660 Eh
Thermal Enthalpy correction       ...      0.00094421 Eh       0.59 kcal/mol
-----------------------------------------------------------------------
Total Enthalpy                    ...   -265.36811239 Eh

Note: Only C1 symmetry has been detected, increase convergence thresholds
      if your molecule has a higher symmetry. Symmetry factor of 1.0 is
      used for the rotational entropy correction.

Note: Rotational entropy computed according to Herzberg
Infrared and Raman Spectra, Chapter V,1, Van Nostrand Reinhold, 1945
Point Group:  C1, Symmetry Number:   1
Rotational constants in cm-1:     0.305389     0.120169     0.087671

Vibrational entropy computed according to the QRRHO of S. Grimme
Chem.Eur.J. 2012 18 9955 using a reference frequency of 100.0 cm-1

-------
ENTROPY
-------

The entropy contributions are T*S = T*(S(el)+S(vib)+S(rot)+S(trans))
     S(el)   - electronic entropy
     S(vib)  - vibrational entropy
     S(rot)  - rotational entropy
     S(trans)- translational entropy
The entropies will be listed as multiplied by the temperature to get
units of energy

Electronic entropy                ...      0.00000000 Eh      0.00 kcal/mol
Vibrational entropy               ...      0.00428064 Eh      2.69 kcal/mol
Rotational entropy                ...      0.01222023 Eh      7.67 kcal/mol
Translational entropy             ...      0.01859201 Eh     11.67 kcal/mol
-----------------------------------------------------------------------
Final entropy term                ...      0.03509288 Eh     22.02 kcal/mol

In case the symmetry of your molecule has not been determined correctly
or in case you have a reason to use a different symmetry number we print
out the resulting rotational entropy values for sn=1,12:

 non-linear molecules -----------------------------------
|  sn= 1 | S(rot)=       0.01222023 Eh      7.67 kcal/mol|
|  sn= 2 | S(rot)=       0.01156577 Eh      7.26 kcal/mol|
|  sn= 3 | S(rot)=       0.01118294 Eh      7.02 kcal/mol|
|  sn= 4 | S(rot)=       0.01091131 Eh      6.85 kcal/mol|
|  sn= 5 | S(rot)=       0.01070063 Eh      6.71 kcal/mol|
|  sn= 6 | S(rot)=       0.01052848 Eh      6.61 kcal/mol|
|  sn= 7 | S(rot)=       0.01038294 Eh      6.52 kcal/mol|
|  sn= 8 | S(rot)=       0.01025686 Eh      6.44 kcal/mol|
|  sn= 9 | S(rot)=       0.01014565 Eh      6.37 kcal/mol|
|  sn=10 | S(rot)=       0.01004617 Eh      6.30 kcal/mol|
|  sn=11 | S(rot)=       0.00995618 Eh      6.25 kcal/mol|
|  sn=12 | S(rot)=       0.00987403 Eh      6.20 kcal/mol|
 linear molecules ---------------------------------------
|  Dinfh | S(rot)=       0.00762410 Eh      4.78 kcal/mol|
|  Cinfv | S(rot)=       0.00827855 Eh      5.19 kcal/mol|
 --------------------------------------------------------

-------------------
GIBBS FREE ENERGY
-------------------

The Gibbs free energy is G = H - T*S

Total enthalpy                    ...   -265.36811239 Eh
Total entropy correction          ...     -0.03509288 Eh    -22.02 kcal/mol
-----------------------------------------------------------------------
Final Gibbs free energy         ...   -265.40320527 Eh

For completeness - the Gibbs free energy minus the electronic energy

                             ****ORCA TERMINATED NORMALLY****
TOTAL RUN TIME: 0 days 0 hours 5 minutes 46 seconds 636 msec
