                         Program Version 6.0.0  -   RELEASE  -
|  1> ! r2SCAN-3c DEF2-TZVP FREQ
|  2> * xyzfile 0 1 vacuum_censo.xyz
|  3>
|  4>                          ****END OF INPUT****

CARTESIAN COORDINATES (ANGSTROEM)
---------------------------------
  C      2.118125    0.016487    0.000119
  N      0.665961   -0.009129   -0.000167
  C     -0.133533   -1.131290   -0.000010
  C     -1.424068   -0.664353    0.000106
  N     -1.441335    0.709886    0.000033
  C     -0.174721    1.068003   -0.000083
  H      2.514132   -0.477765    0.892998
  H      2.514415   -0.481166   -0.890727
  H      2.452856    1.055899   -0.001840
  H      0.283886   -2.126612   -0.000027
  H     -2.337010   -1.242694    0.000177
  H      0.201826    2.083122   -0.000168

 Total Charge           Charge          ....    0
 Multiplicity           Mult            ....    1
 Number of Electrons    NEL             ....   44
 Basis Dimension        Dim             ....  222

ORBITAL ENERGIES
----------------

  NO   OCC          E(Eh)            E(eV)
   0   2.0000     -14.224646      -387.0723
   1   2.0000     -14.136079      -384.6623
   2   2.0000     -10.089631      -274.5528
   3   2.0000     -10.078813      -274.2585
   4   2.0000     -10.055529      -273.6249
   5   2.0000     -10.041046      -273.2308
   6   2.0000      -0.981385       -26.7048
   7   2.0000      -0.850565       -23.1450
   8   2.0000      -0.717677       -19.5290
   9   2.0000      -0.684957       -18.6386
  10   2.0000      -0.563582       -15.3358
  11   2.0000      -0.544647       -14.8206
  12   2.0000      -0.503101       -13.6901
  13   2.0000      -0.447786       -12.1849
  14   2.0000      -0.422101       -11.4860
  15   2.0000      -0.398955       -10.8561
  16   2.0000      -0.384457       -10.4616
  17   2.0000      -0.370703       -10.0873
  18   2.0000      -0.367730       -10.0064
  19   2.0000      -0.248114        -6.7515
  20   2.0000      -0.235977        -6.4213
  21   2.0000      -0.209331        -5.6962
  22   0.0000      -0.006360        -0.1731
  23   0.0000       0.031405         0.8546
  24   0.0000       0.044376         1.2075
  25   0.0000       0.079456         2.1621
  26   0.0000       0.086403         2.3511

MULLIKEN ATOMIC CHARGES
-----------------------
   0 C :   -0.260103
   1 N :   -0.012403
   2 C :   -0.122907
   3 C :   -0.088521
   4 N :   -0.320092
   5 C :    0.024277
   6 H :    0.132765
   7 H :    0.132753
   8 H :    0.126790
   9 H :    0.132292
  10 H :    0.118121
  11 H :    0.137028
Sum of atomic charges:    0.0000000

LOEWDIN ATOMIC CHARGES
----------------------
   0 C :   -0.262387
   1 N :    0.212840
   2 C :   -0.231474
   3 C :   -0.259505
   4 N :    0.077738
   5 C :   -0.297578
   6 H :    0.121621
   7 H :    0.121637
   8 H :    0.126289
   9 H :    0.132734
  10 H :    0.128914
  11 H :    0.129170

  Mayer bond orders larger than 0.100000
B(  0-C ,  1-N ) :   0.9150 B(  0-C ,  6-H ) :   0.9643 B(  0-C ,  7-H ) :   0.9644
B(  0-C ,  8-H ) :   0.9699 B(  1-N ,  2-C ) :   1.1294 B(  1-N ,  5-C ) :   1.2107
B(  2-C ,  3-C ) :   1.5925 B(  2-C ,  9-H ) :   0.9599 B(  3-C ,  4-N ) :   1.3372
B(  3-C , 10-H ) :   0.9790 B(  4-N ,  5-C ) :   1.6275 B(  5-C , 11-H ) :   0.9580

Dispersion correction           -0.003057872
FINAL SINGLE POINT ENERGY      -265.472756750449

DIPOLE MOMENT
-------------

Method             : SCF
Type of density    : Electron Density
Multiplicity       :   1
Irrep              :   0
Energy             :  -265.4813287626976717 Eh
Relativity type    :
Basis              : AO
                                X                 Y                 Z
Electronic contribution:     -3.753097854       0.691011257      -0.000378830
Nuclear contribution   :      5.315655162      -1.116996594       0.000378155
                        -----------------------------------------
Total Dipole Moment    :      1.562557308      -0.425985337      -0.000000675
                        -----------------------------------------
Magnitude (a.u.)       :      1.619582924
Magnitude (Debye)      :      4.116652637

VIBRATIONAL FREQUENCIES
-----------------------

Scaling factor for frequencies =  1.000000000  (already applied!)

     0:       0.00 cm**-1
     1:       0.00 cm**-1
     2:       0.00 cm**-1
     3:       0.00 cm**-1
     4:       0.00 cm**-1
     5:       0.00 cm**-1
     6:      99.81 cm**-1
     7:     214.39 cm**-1
     8:     350.73 cm**-1
     9:     628.49 cm**-1
    10:     675.07 cm**-1
    11:     678.09 cm**-1
    12:     710.79 cm**-1
    13:     791.81 cm**-1
    14:     846.75 cm**-1
    15:     915.81 cm**-1
    16:    1043.85 cm**-1
    17:    1069.11 cm**-1
    18:    1088.72 cm**-1
    19:    1136.96 cm**-1
    20:    1143.60 cm**-1
    21:    1257.25 cm**-1
    22:    1298.66 cm**-1
    23:    1368.58 cm**-1
    24:    1376.16 cm**-1
    25:    1440.53 cm**-1
    26:    1477.88 cm**-1
    27:    1501.77 cm**-1
    28:    1523.36 cm**-1
    29:    1533.17 cm**-1
    30:    3013.69 cm**-1
    31:    3083.35 cm**-1
    32:    3117.70 cm**-1
    33:    3220.62 cm**-1
    34:    3228.23 cm**-1
    35:    3255.14 cm**-1

IR SPECTRUM
-----------

 Mode   freq       eps      Int      T**2         TX        TY        TZ
       cm**-1   L/(mol*cm) km/mol    a.u.
----------------------------------------------------------------------------
  6:     99.81   0.000016    0.08  0.000049  ( 0.000130 -0.000022 -0.006966)
  7:    214.39   0.000156    0.79  0.000227  (-0.000077 -0.000007  0.015071)
  8:    350.73   0.000103    0.52  0.000091  (-0.009474 -0.001231 -0.000008)
  9:    628.49   0.001175    5.94  0.000583  (-0.000023  0.000018  0.024149)
 10:    675.07   0.000787    3.98  0.000364  ( 0.019060  0.000686 -0.000016)
 11:    678.09   0.002749   13.89  0.001265  (-0.000035  0.000034 -0.035569)
 12:    710.79   0.006001   30.33  0.002635  ( 0.000015 -0.000028  0.051331)
 13:    791.81   0.006777   34.25  0.002671  ( 0.000005  0.000011  0.051681)
 14:    846.75   0.000649    3.28  0.000239  ( 0.000015 -0.000009 -0.015465)
 15:    915.81   0.002028   10.25  0.000691  (-0.021469  0.015168  0.000000)
 16:   1043.85   0.001688    8.53  0.000505  ( 0.018165 -0.013219 -0.000003)
 17:   1069.11   0.002893   14.62  0.000844  (-0.028366  0.006316  0.000001)
 18:   1088.72   0.002239   11.31  0.000642  (-0.024753 -0.005382  0.000000)
 19:   1136.96   0.003394   17.15  0.000931  (-0.013359  0.027441 -0.000001)
 20:   1143.60   0.000005    0.03  0.000001  (-0.000102  0.000073  0.001189)
 21:   1257.25   0.003814   19.28  0.000947  ( 0.030732 -0.001513  0.000005)
 22:   1298.66   0.004100   20.72  0.000985  ( 0.031030  0.004720  0.000005)
 23:   1368.58   0.000441    2.23  0.000101  (-0.009131  0.004141 -0.000003)
 24:   1376.16   0.000318    1.61  0.000072  ( 0.006157  0.005851  0.000001)
 25:   1440.53   0.003022   15.27  0.000655  (-0.024406  0.007679 -0.000030)
 26:   1477.88   0.001845    9.32  0.000390  (-0.000089  0.000020  0.019738)
 27:   1501.77   0.001112    5.62  0.000231  ( 0.000483  0.015194 -0.000019)
 28:   1523.36   0.009638   48.71  0.001974  ( 0.044434 -0.000293 -0.000007)
 29:   1533.17   0.001101    5.56  0.000224  (-0.005509  0.013917 -0.000007)
 30:   3013.69   0.009362   47.31  0.000969  ( 0.030902 -0.003810  0.000042)
 31:   3083.35   0.003286   16.61  0.000333  (-0.000021  0.000013  0.018237)
 32:   3117.70   0.001803    9.11  0.000181  ( 0.000034 -0.013435  0.000004)
 33:   3220.62   0.000434    2.19  0.000042  ( 0.004993  0.004134 -0.000001)
 34:   3228.23   0.000750    3.79  0.000073  ( 0.005347  0.006627 -0.000001)
 35:   3255.14   0.000420    2.12  0.000040  (-0.002230 -0.005937  0.000000)

--------------------------
THERMOCHEMISTRY AT 298.15K
--------------------------

Temperature         ...   298.15 K
Pressure            ...     1.00 atm
Total Mass          ...    82.11 AMU
Quasi RRHO          ...     True
Cut-Off Frequency   ...     1.00 cm^-1

Throughout the following assumptions are being made:
  (1) The electronic state is orbitally nondegenerate
  (2) There are no thermally accessible electronically excited states
  (3) Hindered rotations indicated by low frequency modes are not
      treated as such but are treated as vibrations and this may
      cause some error
  (4) All equations used are the standard statistical mechanics
      equations for an ideal gas
  (5) All vibrations are strictly harmonic

freq.      99.81  E(vib)   ...       0.46
freq.     214.39  E(vib)   ...       0.34
freq.     350.73  E(vib)   ...       0.23
freq.     628.49  E(vib)   ...       0.09
freq.     675.07  E(vib)   ...       0.08
freq.     678.09  E(vib)   ...       0.08
freq.     710.79  E(vib)   ...       0.07
freq.     791.81  E(vib)   ...       0.05
freq.     846.75  E(vib)   ...       0.04
freq.     915.81  E(vib)   ...       0.03
freq.    1043.85  E(vib)   ...       0.02
freq.    1069.11  E(vib)   ...       0.02
freq.    1088.72  E(vib)   ...       0.02
freq.    1136.96  E(vib)   ...       0.01
freq.    1143.60  E(vib)   ...       0.01
freq.    1257.25  E(vib)   ...       0.01
freq.    1298.66  E(vib)   ...       0.01
freq.    1368.58  E(vib)   ...       0.01
freq.    1376.16  E(vib)   ...       0.01
freq.    1440.53  E(vib)   ...       0.00
freq.    1477.88  E(vib)   ...       0.00
freq.    1501.77  E(vib)   ...       0.00
freq.    1523.36  E(vib)   ...       0.00
freq.    1533.17  E(vib)   ...       0.00
freq.    3013.69  E(vib)   ...       0.00
freq.    3083.35  E(vib)   ...       0.00
freq.    3117.70  E(vib)   ...       0.00
freq.    3220.62  E(vib)   ...       0.00
freq.    3228.23  E(vib)   ...       0.00
freq.    3255.14  E(vib)   ...       0.00

------------
INNER ENERGY
------------

The inner energy is: U= E(el) + E(ZPE) + E(vib) + E(rot) + E(trans)
    E(el)   - is the total energy from the electronic structure calculation
              = E(kin-el) + E(nuc-el) + E(el-el) + E(nuc-nuc)
    E(ZPE)  - the the zero temperature vibrational energy from the frequency calculation
    E(vib)  - the the finite temperature correction to E(ZPE) due to population
              of excited vibrational states
    E(rot)  - is the rotational thermal energy
    E(trans)- is the translational thermal energy

Summary of contributions to the inner energy U:
Electronic energy                ...   -265.47275675 Eh
Zero point energy                ...      0.09816647 Eh      61.60 kcal/mol
Thermal vibrational correction   ...      0.00252429 Eh       1.58 kcal/mol
Thermal rotational correction    ...      0.00141627 Eh       0.89 kcal/mol
Thermal translational correction ...      0.00141627 Eh       0.89 kcal/mol
-----------------------------------------------------------------------
Total thermal energy                   -265.36923344 Eh

Summary of corrections to the electronic energy:
(perhaps to be used in another calculation)
Total thermal correction                  0.00535684 Eh       3.36 kcal/mol
Non-thermal (ZPE) correction              0.09816647 Eh      61.60 kcal/mol
-----------------------------------------------------------------------
Total correction                          0.10352331 Eh      64.96 kcal/mol

--------
ENTHALPY
--------

The enthalpy is H = U + kB*T
                kB is Boltzmann's constant
Total thermal energy              ...   -265.36923344 Eh
Thermal Enthalpy correction       ...      0.00094421 Eh       0.59 kcal/mol
-----------------------------------------------------------------------
Total Enthalpy                    ...   -265.36828923 Eh

Note: Only C1 symmetry has been detected, increase convergence thresholds
      if your molecule has a higher symmetry. Symmetry factor of 1.0 is
      used for the rotational entropy correction.

Note: Rotational entropy computed according to Herzberg
Infrared and Raman Spectra, Chapter V,1, Van Nostrand Reinhold, 1945
Point Group:  C1, Symmetry Number:   1
Rotational constants in cm-1:     0.305856     0.120263     0.087763

Vibrational entropy computed according to the QRRHO of S. Grimme
Chem.Eur.J. 2012 18 9955 using a reference frequency of 100.0 cm-1

-------
ENTROPY
-------

The entropy contributions are T*S = T*(S(el)+S(vib)+S(rot)+S(trans))
     S(el)   - electronic entropy
     S(vib)  - vibrational entropy
     S(rot)  - rotational entropy
     S(trans)- translational entropy
The entropies will be listed as multiplied by the temperature to get
units of energy

Electronic entropy                ...      0.00000000 Eh      0.00 kcal/mol
Vibrational entropy               ...      0.00413337 Eh      2.59 kcal/mol
Rotational entropy                ...      0.01221864 Eh      7.67 kcal/mol
Translational entropy             ...      0.01859201 Eh     11.67 kcal/mol
-----------------------------------------------------------------------
Final entropy term                ...      0.03494403 Eh     21.93 kcal/mol

In case the symmetry of your molecule has not been determined correctly
or in case you have a reason to use a different symmetry number we print
out the resulting rotational entropy values for sn=1,12:

 non-linear molecules -----------------------------------
|  sn= 1 | S(rot)=       0.01221864 Eh      7.67 kcal/mol|
|  sn= 2 | S(rot)=       0.01156419 Eh      7.26 kcal/mol|
|  sn= 3 | S(rot)=       0.01118135 Eh      7.02 kcal/mol|
|  sn= 4 | S(rot)=       0.01090973 Eh      6.85 kcal/mol|
|  sn= 5 | S(rot)=       0.01069904 Eh      6.71 kcal/mol|
|  sn= 6 | S(rot)=       0.01052690 Eh      6.61 kcal/mol|
|  sn= 7 | S(rot)=       0.01038135 Eh      6.51 kcal/mol|
|  sn= 8 | S(rot)=       0.01025527 Eh      6.44 kcal/mol|
|  sn= 9 | S(rot)=       0.01014407 Eh      6.37 kcal/mol|
|  sn=10 | S(rot)=       0.01004459 Eh      6.30 kcal/mol|
|  sn=11 | S(rot)=       0.00995460 Eh      6.25 kcal/mol|
|  sn=12 | S(rot)=       0.00987244 Eh      6.20 kcal/mol|
 linear molecules ---------------------------------------
|  Dinfh | S(rot)=       0.00762311 Eh      4.78 kcal/mol|
|  Cinfv | S(rot)=       0.00827757 Eh      5.19 kcal/mol|
 --------------------------------------------------------

-------------------
GIBBS FREE ENERGY
-------------------

The Gibbs free energy is G = H - T*S

Total enthalpy                    ...   -265.36828923 Eh
Total entropy correction          ...     -0.03494403 Eh    -21.93 kcal/mol
-----------------------------------------------------------------------
Final Gibbs free energy         ...   -265.40323326 Eh

For completeness - the Gibbs free energy minus the electronic energy

                             ****ORCA TERMINATED NORMALLY****
TOTAL RUN TIME: 0 days 0 hours 5 minutes 48 seconds 556 msec
