                         Program Version 6.0.1  -  RELEASE   -
|  1> ! pbe def2-sv(p) def2/J RI DEFGRID1 loosescf d4 GCP(DFT/SV(P)) printgap
|  2> %output
|  3>     printlevel normal
|  4> end
|  5> * xyz 0 1
|  6> C -1.9490397682 -1.1738402809 -0.3279942397
|  7> C -1.0383995636 -0.5087342475 0.7493646394
|  8> H -1.5506570554 -0.552575517 1.7166328725
|  9> C -0.7498674632 0.9873847556 0.4948575863
| 10> H -1.6443031219 1.4342499877 0.0468403305
| 11> C 0.4483575967 1.2083370245 -0.4509521459
| 12> H 0.7250521653 2.2682436382 -0.3750717644
| 13> C 1.6496574612 0.3558473164 0.0015953269
| 14> H 2.4516373777 0.423137231 -0.7549287455
| 15> C 1.2136261983 -1.1220552043 0.0978898293
| 16> H 2.0143912683 -1.7210301015 0.5556758428
| 17> O 0.1411556436 -1.2738127624 0.9842583858
| 18> O 1.017836797 -1.6609153173 -1.1682020658
| 19> O 2.0928181623 0.8565885838 1.2392690108
| 20> O 0.074615356 0.881441912 -1.7794839605
| 21> O -0.5429455113 1.6786431234 1.693998881
| 22> O -2.4771175532 -0.3046986164 -1.2929491777
| 23> H -2.8183645947 -1.6120161966 0.1662993843
| 24> H -1.3859676611 -1.9922240858 -0.7952050563
| 25> H 0.4360715501 -1.0693669153 -1.6727732045
| 26> H 2.7095411595 0.2302316816 1.6355782972
| 27> H 0.7076620104 1.2674765145 -2.3947033136
| 28> H 0.318005289 1.4140893614 2.0517453914
| 29> H -1.7536762895 0.111854924 -1.7812363475
| 30> *
| 31>
| 32>                          ****END OF INPUT****

CARTESIAN COORDINATES (ANGSTROEM)
---------------------------------
  C     -1.949040   -1.173840   -0.327994
  C     -1.038400   -0.508734    0.749365
  H     -1.550657   -0.552576    1.716633
  C     -0.749867    0.987385    0.494858
  H     -1.644303    1.434250    0.046840
  C      0.448358    1.208337   -0.450952
  H      0.725052    2.268244   -0.375072
  C      1.649657    0.355847    0.001595
  H      2.451637    0.423137   -0.754929
  C      1.213626   -1.122055    0.097890
  H      2.014391   -1.721030    0.555676
  O      0.141156   -1.273813    0.984258
  O      1.017837   -1.660915   -1.168202
  O      2.092818    0.856589    1.239269
  O      0.074615    0.881442   -1.779484
  O     -0.542946    1.678643    1.693999
  O     -2.477118   -0.304699   -1.292949
  H     -2.818365   -1.612016    0.166299
  H     -1.385968   -1.992224   -0.795205
  H      0.436072   -1.069367   -1.672773
  H      2.709541    0.230232    1.635578
  H      0.707662    1.267477   -2.394703
  H      0.318005    1.414089    2.051745
  H     -1.753676    0.111855   -1.781236

 Total Charge           Charge          ....    0
 Multiplicity           Mult            ....    1
 Number of Electrons    NEL             ....   96
 Basis Dimension        Dim             ....  192

ORBITAL ENERGIES
----------------

  NO   OCC          E(Eh)            E(eV)
   0   2.0000     -18.811877      -511.8972
   1   2.0000     -18.787915      -511.2451
   2   2.0000     -18.764669      -510.6126
   3   2.0000     -18.759882      -510.4823
   4   2.0000     -18.740050      -509.9427
   5   2.0000     -18.736341      -509.8418
   6   2.0000      -9.993066      -271.9251
   7   2.0000      -9.969009      -271.2705
   8   2.0000      -9.962960      -271.1059
   9   2.0000      -9.944791      -270.6115
  10   2.0000      -9.937757      -270.4201
  11   2.0000      -9.922637      -270.0087
  12   2.0000      -0.993076       -27.0230
  13   2.0000      -0.972661       -26.4675
  14   2.0000      -0.958184       -26.0735
  15   2.0000      -0.927206       -25.2306
  16   2.0000      -0.915615       -24.9152
  17   2.0000      -0.909680       -24.7536
  18   2.0000      -0.713317       -19.4103
  19   2.0000      -0.693169       -18.8621
  20   2.0000      -0.620942       -16.8967
  21   2.0000      -0.601444       -16.3661
  22   2.0000      -0.577652       -15.7187
  23   2.0000      -0.537724       -14.6322
  24   2.0000      -0.519023       -14.1233
  25   2.0000      -0.496544       -13.5117
  26   2.0000      -0.484538       -13.1850
  27   2.0000      -0.461222       -12.5505
  28   2.0000      -0.451992       -12.2993
  29   2.0000      -0.446305       -12.1446
  30   2.0000      -0.425802       -11.5867
  31   2.0000      -0.404495       -11.0069
  32   2.0000      -0.396276       -10.7832
  33   2.0000      -0.375110       -10.2073
  34   2.0000      -0.367347        -9.9960
  35   2.0000      -0.357550        -9.7294
  36   2.0000      -0.339752        -9.2451
  37   2.0000      -0.329936        -8.9780
  38   2.0000      -0.320954        -8.7336
  39   2.0000      -0.299410        -8.1473
  40   2.0000      -0.291285        -7.9263
  41   2.0000      -0.280753        -7.6397
  42   2.0000      -0.264179        -7.1887
  43   2.0000      -0.251179        -6.8349
  44   2.0000      -0.240651        -6.5485
  45   2.0000      -0.231522        -6.3000
  46   2.0000      -0.215637        -5.8678
  47   2.0000      -0.196338        -5.3426
  48   0.0000      -0.017418        -0.4740
  49   0.0000       0.003772         0.1026
  50   0.0000       0.045901         1.2490
  51   0.0000       0.055382         1.5070
  52   0.0000       0.065609         1.7853

MULLIKEN ATOMIC CHARGES
-----------------------
   0 C :    0.016032
   1 C :    0.018165
   2 H :    0.081892
   3 C :    0.051512
   4 H :    0.089181
   5 C :   -0.002395
   6 H :    0.096571
   7 C :    0.022007
   8 H :    0.067311
   9 C :    0.188899
  10 H :    0.062620
  11 O :   -0.302464
  12 O :   -0.401204
  13 O :   -0.414885
  14 O :   -0.426724
  15 O :   -0.424662
  16 O :   -0.435100
  17 H :    0.085586
  18 H :    0.088283
  19 H :    0.300396
  20 H :    0.314748
  21 H :    0.326316
  22 H :    0.300040
  23 H :    0.297876
Sum of atomic charges:    0.0000000

LOEWDIN ATOMIC CHARGES
----------------------
   0 C :   -0.146557
   1 C :   -0.077858
   2 H :    0.125150
   3 C :   -0.072451
   4 H :    0.123997
   5 C :   -0.070310
   6 H :    0.117679
   7 C :   -0.098375
   8 H :    0.100185
   9 C :   -0.013454
  10 H :    0.103386
  11 O :   -0.142305
  12 O :   -0.306429
  13 O :   -0.302879
  14 O :   -0.300378
  15 O :   -0.313977
  16 O :   -0.338280
  17 H :    0.116781
  18 H :    0.099467
  19 H :    0.265688
  20 H :    0.294416
  21 H :    0.302787
  22 H :    0.271367
  23 H :    0.262350

  Mayer bond orders larger than 0.100000
B(  0-C ,  1-C ) :   0.9777 B(  0-C , 16-O ) :   1.1155 B(  0-C , 17-H ) :   0.9212
B(  0-C , 18-H ) :   0.9129 B(  1-C ,  2-H ) :   0.8924 B(  1-C ,  3-C ) :   1.0202
B(  1-C , 11-O ) :   0.9873 B(  3-C ,  4-H ) :   0.8740 B(  3-C ,  5-C ) :   1.0008
B(  3-C , 15-O ) :   1.0612 B(  5-C ,  6-H ) :   0.9027 B(  5-C ,  7-C ) :   0.9835
B(  5-C , 14-O ) :   0.9891 B(  7-C ,  8-H ) :   0.8958 B(  7-C ,  9-C ) :   0.9652
B(  7-C , 13-O ) :   1.0244 B(  9-C , 10-H ) :   0.9080 B(  9-C , 11-O ) :   1.0765
B(  9-C , 12-O ) :   1.1232 B( 12-O , 19-H ) :   0.7928 B( 13-O , 20-H ) :   0.8375
B( 14-O , 19-H ) :   0.1063 B( 14-O , 21-H ) :   0.8306 B( 15-O , 22-H ) :   0.8162
B( 16-O , 23-H ) :   0.8097

Dispersion correction           -0.026583913
FINAL SINGLE POINT ENERGY      -685.692112234915

DIPOLE MOMENT
-------------

Method             : SCF
Type of density    : Electron Density
Multiplicity       :   1
Irrep              :   0
Energy             :  -685.8281043482960513 Eh
Relativity type    :
Basis              : AO
                                X                 Y                 Z
Electronic contribution:      1.366023932       0.246450660       1.002369195
Nuclear contribution   :      0.200984019       0.192202349      -1.506934320
                        -----------------------------------------
Total Dipole Moment    :      1.567007951       0.438653009      -0.504565124
                        -----------------------------------------
Magnitude (a.u.)       :      1.703677301
Magnitude (Debye)      :      4.330403556

Rotational constants in cm-1:             0.040435             0.030759             0.026894
Rotational constants in MHz :          1212.224336           922.119977           806.267220

                             ****ORCA TERMINATED NORMALLY****
TOTAL RUN TIME: 0 days 0 hours 0 minutes 12 seconds 123 msec
