                         Program Version 6.0.1  -  RELEASE   -
|  1> ! pbe def2-sv(p) def2/J RI DEFGRID1 loosescf d4 GCP(DFT/SV(P)) printgap
|  2> %output
|  3>     printlevel normal
|  4> end
|  5> * xyz 0 1
|  6> C -2.4676961044 -0.818170873 0.0444420092
|  7> C -1.0819341499 -0.5042206783 0.6084257346
|  8> H -1.0551780125 -0.7989911081 1.6717041253
|  9> C -0.7464814545 1.0110150553 0.532945976
| 10> H -1.629222769 1.5563507841 0.1844998098
| 11> C 0.4017126991 1.2410355475 -0.4671077516
| 12> H 0.703781749 2.2962092214 -0.4057957674
| 13> C 1.6150695218 0.3728610855 -0.0472128213
| 14> H 2.3347648546 0.3437942951 -0.8740774483
| 15> C 1.1737403866 -1.0773321783 0.2301602452
| 16> H 1.3015696704 -1.2684020198 1.3188991565
| 17> O -0.1680284319 -1.3013215098 -0.1199738545
| 18> O 1.9531960174 -1.9373882981 -0.521291693
| 19> O 2.2093307561 0.8690663425 1.1375728708
| 20> O 0.0263608539 1.0157016339 -1.7908704707
| 21> O -0.4402649918 1.5318565651 1.7991052066
| 22> O -2.5309699173 -0.3303403352 -1.2757690212
| 23> H -3.2244477972 -0.3401996129 0.6800054232
| 24> H -2.6117612294 -1.9057829162 0.0633348312
| 25> H 1.4789154876 -2.7730728938 -0.6087781702
| 26> H 2.6821035886 1.6834982368 0.932424307
| 27> H -0.5564352767 0.2421136209 -1.8237249701
| 28> H 0.4674167069 1.2699211019 2.0239089281
| 29> H -3.3780910697 -0.5693680679 -1.6648213369
| 30> *
| 31>
| 32>                          ****END OF INPUT****

CARTESIAN COORDINATES (ANGSTROEM)
---------------------------------
  C     -2.467696   -0.818171    0.044442
  C     -1.081934   -0.504221    0.608426
  H     -1.055178   -0.798991    1.671704
  C     -0.746481    1.011015    0.532946
  H     -1.629223    1.556351    0.184500
  C      0.401713    1.241036   -0.467108
  H      0.703782    2.296209   -0.405796
  C      1.615070    0.372861   -0.047213
  H      2.334765    0.343794   -0.874077
  C      1.173740   -1.077332    0.230160
  H      1.301570   -1.268402    1.318899
  O     -0.168028   -1.301322   -0.119974
  O      1.953196   -1.937388   -0.521292
  O      2.209331    0.869066    1.137573
  O      0.026361    1.015702   -1.790870
  O     -0.440265    1.531857    1.799105
  O     -2.530970   -0.330340   -1.275769
  H     -3.224448   -0.340200    0.680005
  H     -2.611761   -1.905783    0.063335
  H      1.478915   -2.773073   -0.608778
  H      2.682104    1.683498    0.932424
  H     -0.556435    0.242114   -1.823725
  H      0.467417    1.269921    2.023909
  H     -3.378091   -0.569368   -1.664821

 Total Charge           Charge          ....    0
 Multiplicity           Mult            ....    1
 Number of Electrons    NEL             ....   96
 Basis Dimension        Dim             ....  192

ORBITAL ENERGIES
----------------

  NO   OCC          E(Eh)            E(eV)
   0   2.0000     -18.776032      -510.9218
   1   2.0000     -18.773740      -510.8594
   2   2.0000     -18.770538      -510.7723
   3   2.0000     -18.757790      -510.4254
   4   2.0000     -18.734437      -509.7899
   5   2.0000     -18.731967      -509.7227
   6   2.0000      -9.988659      -271.8052
   7   2.0000      -9.948341      -270.7081
   8   2.0000      -9.946994      -270.6715
   9   2.0000      -9.938455      -270.4391
  10   2.0000      -9.934627      -270.3349
  11   2.0000      -9.934560      -270.3331
  12   2.0000      -0.990793       -26.9609
  13   2.0000      -0.948247       -25.8031
  14   2.0000      -0.946215       -25.7478
  15   2.0000      -0.924869       -25.1670
  16   2.0000      -0.911177       -24.7944
  17   2.0000      -0.909494       -24.7486
  18   2.0000      -0.701965       -19.1014
  19   2.0000      -0.685581       -18.6556
  20   2.0000      -0.622946       -16.9512
  21   2.0000      -0.583132       -15.8678
  22   2.0000      -0.565118       -15.3777
  23   2.0000      -0.518081       -14.0977
  24   2.0000      -0.506991       -13.7959
  25   2.0000      -0.496973       -13.5233
  26   2.0000      -0.486336       -13.2339
  27   2.0000      -0.466532       -12.6950
  28   2.0000      -0.442354       -12.0371
  29   2.0000      -0.434660       -11.8277
  30   2.0000      -0.409865       -11.1530
  31   2.0000      -0.400775       -10.9056
  32   2.0000      -0.386816       -10.5258
  33   2.0000      -0.375619       -10.2211
  34   2.0000      -0.352775        -9.5995
  35   2.0000      -0.343883        -9.3575
  36   2.0000      -0.334381        -9.0990
  37   2.0000      -0.317029        -8.6268
  38   2.0000      -0.309707        -8.4275
  39   2.0000      -0.305033        -8.3004
  40   2.0000      -0.292717        -7.9652
  41   2.0000      -0.263900        -7.1811
  42   2.0000      -0.252674        -6.8756
  43   2.0000      -0.245372        -6.6769
  44   2.0000      -0.238947        -6.5021
  45   2.0000      -0.229538        -6.2460
  46   2.0000      -0.204375        -5.5613
  47   2.0000      -0.191003        -5.1975
  48   0.0000       0.010012         0.2724
  49   0.0000       0.016856         0.4587
  50   0.0000       0.043203         1.1756
  51   0.0000       0.055216         1.5025
  52   0.0000       0.061543         1.6747

MULLIKEN ATOMIC CHARGES
-----------------------
   0 C :    0.050651
   1 C :    0.017704
   2 H :    0.065147
   3 C :    0.026086
   4 H :    0.085167
   5 C :    0.031840
   6 H :    0.061185
   7 C :    0.013700
   8 H :    0.085699
   9 C :    0.216316
  10 H :    0.044965
  11 O :   -0.313497
  12 O :   -0.382432
  13 O :   -0.418339
  14 O :   -0.419904
  15 O :   -0.429811
  16 O :   -0.434983
  17 H :    0.089629
  18 H :    0.081446
  19 H :    0.300728
  20 H :    0.313300
  21 H :    0.310739
  22 H :    0.292746
  23 H :    0.311917
Sum of atomic charges:   -0.0000000

LOEWDIN ATOMIC CHARGES
----------------------
   0 C :   -0.122926
   1 C :   -0.073892
   2 H :    0.110059
   3 C :   -0.076015
   4 H :    0.119388
   5 C :   -0.080977
   6 H :    0.107972
   7 C :   -0.091154
   8 H :    0.118275
   9 C :    0.012218
  10 H :    0.081130
  11 O :   -0.153474
  12 O :   -0.296055
  13 O :   -0.307968
  14 O :   -0.313601
  15 O :   -0.325766
  16 O :   -0.328552
  17 H :    0.106818
  18 H :    0.103992
  19 H :    0.286161
  20 H :    0.294132
  21 H :    0.270351
  22 H :    0.265537
  23 H :    0.294345

  Mayer bond orders larger than 0.100000
B(  0-C ,  1-C ) :   1.0661 B(  0-C , 16-O ) :   1.0634 B(  0-C , 17-H ) :   0.9160
B(  0-C , 18-H ) :   0.9108 B(  1-C ,  2-H ) :   0.8762 B(  1-C ,  3-C ) :   0.9481
B(  1-C , 11-O ) :   0.9966 B(  3-C ,  4-H ) :   0.8967 B(  3-C ,  5-C ) :   0.9993
B(  3-C , 15-O ) :   1.0627 B(  5-C ,  6-H ) :   0.8974 B(  5-C ,  7-C ) :   0.9620
B(  5-C , 14-O ) :   1.0916 B(  7-C ,  8-H ) :   0.8849 B(  7-C ,  9-C ) :   0.9739
B(  7-C , 13-O ) :   1.0097 B(  9-C , 10-H ) :   0.8864 B(  9-C , 11-O ) :   1.0351
B(  9-C , 12-O ) :   1.1674 B( 12-O , 19-H ) :   0.8414 B( 13-O , 20-H ) :   0.8416
B( 13-O , 22-H ) :   0.1163 B( 14-O , 21-H ) :   0.8061 B( 15-O , 22-H ) :   0.8080
B( 16-O , 23-H ) :   0.8436

Dispersion correction           -0.025389711
FINAL SINGLE POINT ENERGY      -685.692549296019

DIPOLE MOMENT
-------------

Method             : SCF
Type of density    : Electron Density
Multiplicity       :   1
Irrep              :   0
Energy             :  -685.8257288780781664 Eh
Relativity type    :
Basis              : AO
                                X                 Y                 Z
Electronic contribution:      2.576746052      -0.428068469      -1.264811406
Nuclear contribution   :     -3.255459364      -0.249868745       1.393558427
                        -----------------------------------------
Total Dipole Moment    :     -0.678713312      -0.677937215       0.128747021
                        -----------------------------------------
Magnitude (a.u.)       :      0.967897940
Magnitude (Debye)      :      2.460201048

Rotational constants in cm-1:             0.041042             0.028213             0.023592
Rotational constants in MHz :          1230.412722           845.802804           707.278038

                             ****ORCA TERMINATED NORMALLY****
TOTAL RUN TIME: 0 days 0 hours 0 minutes 9 seconds 551 msec
