                         Program Version 6.0.1  -  RELEASE   -
|  1> ! pbe def2-sv(p) def2/J RI DEFGRID1 loosescf d4 GCP(DFT/SV(P)) printgap
|  2> %output
|  3>     printlevel normal
|  4> end
|  5> * xyz 0 1
|  6> C -2.4710671007 -0.5249100721 -0.1531876819
|  7> C -1.0376954991 -0.1903729187 0.2702579859
|  8> H -0.9559251131 -0.3011187602 1.3629302332
|  9> C -0.635418319 1.2508383758 -0.1107933725
| 10> H -1.2039353367 1.5690225249 -0.9935432736
| 11> C 0.8743226147 1.2995832249 -0.4450673367
| 12> H 1.2328607047 2.3153068879 -0.2166053855
| 13> C 1.6158434714 0.2963085162 0.4449168268
| 14> H 2.6906915257 0.3405355545 0.2200275928
| 15> C 1.1348921008 -1.1338434299 0.082166636
| 16> H 1.2349790405 -1.7846796679 0.9701097828
| 17> O -0.2002172399 -1.140155081 -0.3649095565
| 18> O 1.9228816475 -1.6889159567 -0.9020507226
| 19> O 1.366050538 0.6450647702 1.7877005591
| 20> O 1.1632085697 0.9563586149 -1.7788845767
| 21> O -0.9566324013 2.1640760493 0.8982521194
| 22> O -2.8471727072 -1.8036489029 0.2727864013
| 23> H -2.5405668304 -0.4432187808 -1.2474431198
| 24> H -3.1610314839 0.1837665471 0.3081356043
| 25> H 1.7919943981 -1.1590514017 -1.7031765163
| 26> H 1.8877378081 0.0739418375 2.3624180355
| 27> H 0.6750776161 1.5449387106 -2.3651958974
| 28> H -0.4108519099 1.9553860821 1.6695105627
| 29> H -2.1681486894 -2.4168755975 -0.0366266568
| 30> *
| 31>
| 32>                          ****END OF INPUT****

CARTESIAN COORDINATES (ANGSTROEM)
---------------------------------
  C     -2.471067   -0.524910   -0.153188
  C     -1.037695   -0.190373    0.270258
  H     -0.955925   -0.301119    1.362930
  C     -0.635418    1.250838   -0.110793
  H     -1.203935    1.569023   -0.993543
  C      0.874323    1.299583   -0.445067
  H      1.232861    2.315307   -0.216605
  C      1.615843    0.296309    0.444917
  H      2.690692    0.340536    0.220028
  C      1.134892   -1.133843    0.082167
  H      1.234979   -1.784680    0.970110
  O     -0.200217   -1.140155   -0.364910
  O      1.922882   -1.688916   -0.902051
  O      1.366051    0.645065    1.787701
  O      1.163209    0.956359   -1.778885
  O     -0.956632    2.164076    0.898252
  O     -2.847173   -1.803649    0.272786
  H     -2.540567   -0.443219   -1.247443
  H     -3.161031    0.183767    0.308136
  H      1.791994   -1.159051   -1.703177
  H      1.887738    0.073942    2.362418
  H      0.675078    1.544939   -2.365196
  H     -0.410852    1.955386    1.669511
  H     -2.168149   -2.416876   -0.036627

 Total Charge           Charge          ....    0
 Multiplicity           Mult            ....    1
 Number of Electrons    NEL             ....   96
 Basis Dimension        Dim             ....  192

ORBITAL ENERGIES
----------------

  NO   OCC          E(Eh)            E(eV)
   0   2.0000     -18.784587      -511.1546
   1   2.0000     -18.777418      -510.9595
   2   2.0000     -18.771605      -510.8013
   3   2.0000     -18.752760      -510.2885
   4   2.0000     -18.749387      -510.1967
   5   2.0000     -18.737434      -509.8715
   6   2.0000      -9.990362      -271.8516
   7   2.0000      -9.954877      -270.8860
   8   2.0000      -9.954581      -270.8779
   9   2.0000      -9.946143      -270.6483
  10   2.0000      -9.939675      -270.4723
  11   2.0000      -9.928029      -270.1554
  12   2.0000      -0.988998       -26.9120
  13   2.0000      -0.957534       -26.0558
  14   2.0000      -0.950367       -25.8608
  15   2.0000      -0.932535       -25.3756
  16   2.0000      -0.923057       -25.1176
  17   2.0000      -0.907404       -24.6917
  18   2.0000      -0.706358       -19.2210
  19   2.0000      -0.691175       -18.8078
  20   2.0000      -0.616277       -16.7698
  21   2.0000      -0.596285       -16.2258
  22   2.0000      -0.565106       -15.3773
  23   2.0000      -0.532536       -14.4910
  24   2.0000      -0.514618       -14.0035
  25   2.0000      -0.505241       -13.7483
  26   2.0000      -0.475293       -12.9334
  27   2.0000      -0.467474       -12.7206
  28   2.0000      -0.448494       -12.2041
  29   2.0000      -0.440629       -11.9901
  30   2.0000      -0.417730       -11.3670
  31   2.0000      -0.396938       -10.8012
  32   2.0000      -0.379494       -10.3265
  33   2.0000      -0.371626       -10.1125
  34   2.0000      -0.367640       -10.0040
  35   2.0000      -0.355964        -9.6863
  36   2.0000      -0.343733        -9.3534
  37   2.0000      -0.333478        -9.0744
  38   2.0000      -0.314101        -8.5471
  39   2.0000      -0.303381        -8.2554
  40   2.0000      -0.279320        -7.6007
  41   2.0000      -0.277567        -7.5530
  42   2.0000      -0.261050        -7.1035
  43   2.0000      -0.251853        -6.8533
  44   2.0000      -0.241530        -6.5724
  45   2.0000      -0.223335        -6.0773
  46   2.0000      -0.215365        -5.8604
  47   2.0000      -0.198528        -5.4022
  48   0.0000      -0.003771        -0.1026
  49   0.0000       0.016102         0.4382
  50   0.0000       0.038592         1.0501
  51   0.0000       0.059369         1.6155
  52   0.0000       0.068243         1.8570

MULLIKEN ATOMIC CHARGES
-----------------------
   0 C :    0.079871
   1 C :    0.008728
   2 H :    0.054471
   3 C :    0.053894
   4 H :    0.048020
   5 C :    0.061047
   6 H :    0.076401
   7 C :   -0.044265
   8 H :    0.088507
   9 C :    0.225273
  10 H :    0.047908
  11 O :   -0.310787
  12 O :   -0.391308
  13 O :   -0.420000
  14 O :   -0.421282
  15 O :   -0.422379
  16 O :   -0.433154
  17 H :    0.066190
  18 H :    0.095257
  19 H :    0.304533
  20 H :    0.316125
  21 H :    0.312018
  22 H :    0.306794
  23 H :    0.298137
Sum of atomic charges:   -0.0000000

LOEWDIN ATOMIC CHARGES
----------------------
   0 C :   -0.125380
   1 C :   -0.084076
   2 H :    0.103416
   3 C :   -0.073526
   4 H :    0.107891
   5 C :   -0.071594
   6 H :    0.107240
   7 C :   -0.092738
   8 H :    0.114280
   9 C :    0.000153
  10 H :    0.090246
  11 O :   -0.154329
  12 O :   -0.293633
  13 O :   -0.312033
  14 O :   -0.312990
  15 O :   -0.310439
  16 O :   -0.334353
  17 H :    0.096175
  18 H :    0.120761
  19 H :    0.279263
  20 H :    0.295081
  21 H :    0.292103
  22 H :    0.278535
  23 H :    0.279948

  Mayer bond orders larger than 0.100000
B(  0-C ,  1-C ) :   1.0539 B(  0-C , 16-O ) :   1.0790 B(  0-C , 17-H ) :   0.9021
B(  0-C , 18-H ) :   0.9190 B(  1-C ,  2-H ) :   0.8653 B(  1-C ,  3-C ) :   0.9647
B(  1-C , 11-O ) :   1.0068 B(  3-C ,  4-H ) :   0.8860 B(  3-C ,  5-C ) :   0.9698
B(  3-C , 15-O ) :   1.0461 B(  5-C ,  6-H ) :   0.8930 B(  5-C ,  7-C ) :   1.0321
B(  5-C , 14-O ) :   1.0343 B(  7-C ,  8-H ) :   0.8982 B(  7-C ,  9-C ) :   0.9374
B(  7-C , 13-O ) :   1.0358 B(  9-C , 10-H ) :   0.9040 B(  9-C , 11-O ) :   1.0230
B(  9-C , 12-O ) :   1.1521 B( 12-O , 19-H ) :   0.8251 B( 13-O , 20-H ) :   0.8403
B( 14-O , 21-H ) :   0.8422 B( 15-O , 22-H ) :   0.8293 B( 16-O , 23-H ) :   0.8426

Dispersion correction           -0.024988779
FINAL SINGLE POINT ENERGY      -685.695949607060

DIPOLE MOMENT
-------------

Method             : SCF
Type of density    : Electron Density
Multiplicity       :   1
Irrep              :   0
Energy             :  -685.8280256307646141 Eh
Relativity type    :
Basis              : AO
                                X                 Y                 Z
Electronic contribution:      1.764990340      -1.206985949      -0.349790263
Nuclear contribution   :     -0.863156011       1.748992836       0.308813226
                        -----------------------------------------
Total Dipole Moment    :      0.901834329       0.542006887      -0.040977037
                        -----------------------------------------
Magnitude (a.u.)       :      1.052974710
Magnitude (Debye)      :      2.676449011

Rotational constants in cm-1:             0.038168             0.027878             0.022187
Rotational constants in MHz :          1144.256247           835.764187           665.138375

                             ****ORCA TERMINATED NORMALLY****
TOTAL RUN TIME: 0 days 0 hours 24 minutes 26 seconds 746 msec
