                         Program Version 6.0.1  -  RELEASE   -
|  1> ! r2scan-3c def2/J RI DEFGRID2 scfconv6 printgap
|  2> %output
|  3>     printlevel normal
|  4> end
|  5> * xyz 0 1
|  6> C 1.7737477673 0.8706661278 0.6909878555
|  7> C 1.258926924 0.0809198948 -0.5076952007
|  8> C 1.4883616962 -1.4180398655 -0.346738414
|  9> O -0.1254017087 0.3762324265 -0.7770523565
| 10> C -1.0697276345 0.0816472861 0.1173016981
| 11> O -0.8822612458 -0.4224637346 1.1931859973
| 12> C -2.4297598564 0.4575678231 -0.4197066096
| 13> H 1.5592830819 1.9294521209 0.5629776106
| 14> H 1.2974053454 0.5215276189 1.6029834625
| 15> H 2.8483888928 0.7370620666 0.7779336071
| 16> H 1.7543530842 0.433099883 -1.4208798565
| 17> H 2.5548603083 -1.6165534087 -0.2884271847
| 18> H 1.0761169195 -1.9546685662 -1.1985465259
| 19> H 1.0106149344 -1.7755920285 0.5613005904
| 20> H -3.0777792605 0.7477980158 0.4019129514
| 21> H -2.8604640819 -0.4146870697 -0.9078813568
| 22> H -2.3407940307 1.2593513486 -1.1456010658
| 23> *
| 24>
| 25>                          ****END OF INPUT****

CARTESIAN COORDINATES (ANGSTROEM)
---------------------------------
  C      1.773748    0.870666    0.690988
  C      1.258927    0.080920   -0.507695
  C      1.488362   -1.418040   -0.346738
  O     -0.125402    0.376232   -0.777052
  C     -1.069728    0.081647    0.117302
  O     -0.882261   -0.422464    1.193186
  C     -2.429760    0.457568   -0.419707
  H      1.559283    1.929452    0.562978
  H      1.297405    0.521528    1.602983
  H      2.848389    0.737062    0.777934
  H      1.754353    0.433100   -1.420880
  H      2.554860   -1.616553   -0.288427
  H      1.076117   -1.954669   -1.198547
  H      1.010615   -1.775592    0.561301
  H     -3.077779    0.747798    0.401913
  H     -2.860464   -0.414687   -0.907881
  H     -2.340794    1.259351   -1.145601

 Total Charge           Charge          ....    0
 Multiplicity           Mult            ....    1
 Number of Electrons    NEL             ....   56
 Basis Dimension        Dim             ....  193

ORBITAL ENERGIES
----------------

  NO   OCC          E(Eh)            E(eV)
   0   2.0000     -18.993258      -516.8328
   1   2.0000     -18.928505      -515.0708
   2   2.0000     -10.155390      -276.3422
   3   2.0000     -10.099124      -274.8111
   4   2.0000     -10.036019      -273.0940
   5   2.0000     -10.021852      -272.7085
   6   2.0000     -10.021692      -272.7041
   7   2.0000      -1.068940       -29.0873
   8   2.0000      -0.981787       -26.7158
   9   2.0000      -0.768222       -20.9044
  10   2.0000      -0.707064       -19.2402
  11   2.0000      -0.661622       -18.0037
  12   2.0000      -0.612191       -16.6586
  13   2.0000      -0.497494       -13.5375
  14   2.0000      -0.464000       -12.6261
  15   2.0000      -0.445637       -12.1264
  16   2.0000      -0.443981       -12.0813
  17   2.0000      -0.407320       -11.0837
  18   2.0000      -0.395467       -10.7612
  19   2.0000      -0.389111       -10.5882
  20   2.0000      -0.372338       -10.1318
  21   2.0000      -0.364298        -9.9130
  22   2.0000      -0.344119        -9.3639
  23   2.0000      -0.330123        -8.9831
  24   2.0000      -0.320939        -8.7332
  25   2.0000      -0.304003        -8.2723
  26   2.0000      -0.270780        -7.3683
  27   2.0000      -0.232027        -6.3138
  28   0.0000      -0.012884        -0.3506
  29   0.0000       0.075686         2.0595
  30   0.0000       0.096687         2.6310
  31   0.0000       0.110817         3.0155
  32   0.0000       0.132968         3.6182

MULLIKEN ATOMIC CHARGES
-----------------------
   0 C :   -0.506261
   1 C :    0.054206
   2 C :   -0.505129
   3 O :   -0.164325
   4 C :    0.441689
   5 O :   -0.436129
   6 C :   -0.528508
   7 H :    0.152263
   8 H :    0.192400
   9 H :    0.145176
  10 H :    0.151290
  11 H :    0.145285
  12 H :    0.152231
  13 H :    0.192040
  14 H :    0.172363
  15 H :    0.172250
  16 H :    0.169158
Sum of atomic charges:    0.0000000

LOEWDIN ATOMIC CHARGES
----------------------
   0 C :   -0.383172
   1 C :    0.069416
   2 C :   -0.383512
   3 O :   -0.595260
   4 C :    0.358845
   5 O :   -0.439192
   6 C :   -0.337012
   7 H :    0.161029
   8 H :    0.179027
   9 H :    0.158864
  10 H :    0.183725
  11 H :    0.158996
  12 H :    0.160848
  13 H :    0.178979
  14 H :    0.174529
  15 H :    0.179950
  16 H :    0.173939

  Mayer bond orders larger than 0.100000
B(  0-C ,  1-C ) :   0.9315 B(  0-C ,  7-H ) :   0.9688 B(  0-C ,  8-H ) :   0.9679
B(  0-C ,  9-H ) :   0.9646 B(  1-C ,  2-C ) :   0.9286 B(  1-C ,  3-O ) :   0.8499
B(  1-C , 10-H ) :   0.9541 B(  2-C , 11-H ) :   0.9642 B(  2-C , 12-H ) :   0.9692
B(  2-C , 13-H ) :   0.9679 B(  3-O ,  4-C ) :   1.0503 B(  4-C ,  5-O ) :   1.8351
B(  4-C ,  6-C ) :   0.9467 B(  6-C , 14-H ) :   0.9789 B(  6-C , 15-H ) :   0.9356
B(  6-C , 16-H ) :   0.9791

Dispersion correction           -0.004250070
FINAL SINGLE POINT ENERGY      -346.939308071770

DIPOLE MOMENT
-------------

Method             : SCF
Type of density    : Electron Density
Multiplicity       :   1
Irrep              :   0
Energy             :  -346.9455254646522349 Eh
Relativity type    :
Basis              : AO
                                X                 Y                 Z
Electronic contribution:     -3.331791533       0.356619348       0.341031846
Nuclear contribution   :      3.570721384      -0.125658704      -0.982872252
                        -----------------------------------------
Total Dipole Moment    :      0.238929851       0.230960644      -0.641840406
                        -----------------------------------------
Magnitude (a.u.)       :      0.722765107
Magnitude (Debye)      :      1.837122904

Rotational constants in cm-1:             0.153089             0.059176             0.058800
Rotational constants in MHz :          4589.499266          1774.051460          1762.772153

                             ****ORCA TERMINATED NORMALLY****
TOTAL RUN TIME: 0 days 0 hours 0 minutes 16 seconds 718 msec
