                         Program Version 6.0.1  -  RELEASE   -
|  1> ! pbe def2-sv(p) def2/J RI DEFGRID1 loosescf d4 GCP(DFT/SV(P)) printgap
|  2> %output
|  3>     printlevel normal
|  4> end
|  5> * xyz 0 1
|  6> C 1.1030633511 -1.4988644046 0.397447463
|  7> C 0.7471779921 -0.0148007638 0.398129198
|  8> C 1.5755930674 0.7486730474 -0.6413655773
|  9> C -0.7255876982 0.256374928 0.1275422599
| 10> O -1.3278166273 1.1014183481 0.7414270218
| 11> C -1.3765162673 -0.5635636785 -0.955822691
| 12> H 0.481622169 -2.0445933497 1.1039686451
| 13> H 0.9780492418 -1.9348703058 -0.590382026
| 14> H 2.1426815439 -1.6244871384 0.6923741888
| 15> H 0.9671761985 0.4078707725 1.3844427592
| 16> H 1.4117275979 0.3476327271 -1.639250877
| 17> H 2.6340028429 0.6612205039 -0.4068859974
| 18> H 1.307232673 1.8025315699 -0.6417228616
| 19> H -0.7421290462 -0.6211540662 -1.8357277553
| 20> H -2.3368124477 -0.1275570162 -1.2186127535
| 21> H -1.5405018881 -1.5734775862 -0.584824575
| 22> *
| 23>
| 24>                          ****END OF INPUT****

CARTESIAN COORDINATES (ANGSTROEM)
---------------------------------
  C      1.103063   -1.498864    0.397447
  C      0.747178   -0.014801    0.398129
  C      1.575593    0.748673   -0.641366
  C     -0.725588    0.256375    0.127542
  O     -1.327817    1.101418    0.741427
  C     -1.376516   -0.563564   -0.955823
  H      0.481622   -2.044593    1.103969
  H      0.978049   -1.934870   -0.590382
  H      2.142682   -1.624487    0.692374
  H      0.967176    0.407871    1.384443
  H      1.411728    0.347633   -1.639251
  H      2.634003    0.661221   -0.406886
  H      1.307233    1.802532   -0.641723
  H     -0.742129   -0.621154   -1.835728
  H     -2.336812   -0.127557   -1.218613
  H     -1.540502   -1.573478   -0.584825

 Total Charge           Charge          ....    0
 Multiplicity           Mult            ....    1
 Number of Electrons    NEL             ....   48
 Basis Dimension        Dim             ....  104

ORBITAL ENERGIES
----------------

  NO   OCC          E(Eh)            E(eV)
   0   2.0000     -18.734292      -509.7860
   1   2.0000      -9.968926      -271.2683
   2   2.0000      -9.902070      -269.4490
   3   2.0000      -9.888386      -269.0767
   4   2.0000      -9.887234      -269.0453
   5   2.0000      -9.885589      -269.0006
   6   2.0000      -0.936690       -25.4886
   7   2.0000      -0.733924       -19.9711
   8   2.0000      -0.661374       -17.9969
   9   2.0000      -0.623969       -16.9791
  10   2.0000      -0.556700       -15.1486
  11   2.0000      -0.466920       -12.7055
  12   2.0000      -0.421009       -11.4562
  13   2.0000      -0.413883       -11.2623
  14   2.0000      -0.404287       -11.0012
  15   2.0000      -0.371649       -10.1131
  16   2.0000      -0.364384        -9.9154
  17   2.0000      -0.359931        -9.7942
  18   2.0000      -0.347165        -9.4468
  19   2.0000      -0.323290        -8.7972
  20   2.0000      -0.320262        -8.7148
  21   2.0000      -0.302708        -8.2371
  22   2.0000      -0.295367        -8.0373
  23   2.0000      -0.190539        -5.1848
  24   0.0000      -0.044683        -1.2159
  25   0.0000       0.026820         0.7298
  26   0.0000       0.062105         1.6899
  27   0.0000       0.069581         1.8934
  28   0.0000       0.090291         2.4569

MULLIKEN ATOMIC CHARGES
-----------------------
   0 C :   -0.257862
   1 C :   -0.157910
   2 C :   -0.263392
   3 C :    0.002353
   4 O :   -0.156637
   5 C :   -0.271480
   6 H :    0.113177
   7 H :    0.101590
   8 H :    0.108064
   9 H :    0.080747
  10 H :    0.100920
  11 H :    0.111907
  12 H :    0.118983
  13 H :    0.122278
  14 H :    0.117981
  15 H :    0.129282
Sum of atomic charges:    0.0000000

LOEWDIN ATOMIC CHARGES
----------------------
   0 C :   -0.329754
   1 C :   -0.180433
   2 C :   -0.320906
   3 C :    0.044891
   4 O :   -0.123434
   5 C :   -0.364362
   6 H :    0.121807
   7 H :    0.117889
   8 H :    0.124529
   9 H :    0.127629
  10 H :    0.116702
  11 H :    0.124360
  12 H :    0.126373
  13 H :    0.133834
  14 H :    0.135099
  15 H :    0.145776

  Mayer bond orders larger than 0.100000
B(  0-C ,  1-C ) :   1.0904 B(  0-C ,  6-H ) :   0.9536 B(  0-C ,  7-H ) :   0.9370
B(  0-C ,  8-H ) :   0.9463 B(  1-C ,  2-C ) :   1.0890 B(  1-C ,  3-C ) :   0.9515
B(  1-C ,  9-H ) :   0.8832 B(  2-C , 10-H ) :   0.9459 B(  2-C , 11-H ) :   0.9479
B(  2-C , 12-H ) :   0.9480 B(  3-C ,  4-O ) :   2.2065 B(  3-C ,  5-C ) :   1.0622
B(  5-C , 13-H ) :   0.9299 B(  5-C , 14-H ) :   0.9310 B(  5-C , 15-H ) :   0.9138

Dispersion correction           -0.012019923
FINAL SINGLE POINT ENERGY      -271.142051831259

DIPOLE MOMENT
-------------

Method             : SCF
Type of density    : Electron Density
Multiplicity       :   1
Irrep              :   0
Energy             :  -271.1957605083490535 Eh
Relativity type    :
Basis              : AO
                                X                 Y                 Z
Electronic contribution:     -4.377633274       3.703017417       3.001436438
Nuclear contribution   :      4.955442129      -4.399498844      -3.494571634
                        -----------------------------------------
Total Dipole Moment    :      0.577808855      -0.696481427      -0.493135196
                        -----------------------------------------
Magnitude (a.u.)       :      1.030597774
Magnitude (Debye)      :      2.619571361

Rotational constants in cm-1:             0.153038             0.093119             0.080050
Rotational constants in MHz :          4587.977984          2791.648935          2399.839785

                             ****ORCA TERMINATED NORMALLY****
TOTAL RUN TIME: 0 days 0 hours 0 minutes 6 seconds 639 msec
