                         Program Version 6.0.1  -  RELEASE   -
|  1> ! r2scan-3c def2/J RI DEFGRID2 scfconv6 printgap
|  2> %output
|  3>     printlevel normal
|  4> end
|  5> * xyz 0 1
|  6> C -3.0739196489 0.8117704143 0.4417608402
|  7> O -1.8968308573 0.6699812181 -0.3403181458
|  8> C -1.0716915259 -0.339845037 -0.0256777032
|  9> O -1.2856370296 -1.1112315346 0.8717600903
| 10> C 0.1141799921 -0.3866698281 -0.9729899126
| 11> C 1.1335288854 -1.4381613756 -0.5295554365
| 12> C 1.8524467268 -1.0135558976 0.7483498956
| 13> C 2.5111565704 0.3507492407 0.5740594261
| 14> C 1.468642151 1.3931702721 0.1830676067
| 15> C 0.7764428649 0.9886212133 -1.1147061422
| 16> H -3.8868905826 0.2379110659 -0.0078649274
| 17> H -3.3238542302 1.8705844124 0.4488163484
| 18> H -2.8983792172 0.448428888 1.4562312021
| 19> H -0.3029885122 -0.6737542325 -1.9465693967
| 20> H 0.6225344603 -2.3873096603 -0.3612888884
| 21> H 1.862784701 -1.5772630357 -1.3307814848
| 22> H 1.1301207409 -0.9698497765 1.5641989157
| 23> H 2.6047565392 -1.7613917554 1.0068655787
| 24> H 3.0044568249 0.6464156368 1.5020847631
| 25> H 3.2737460441 0.2918961391 -0.206768368
| 26> H 0.7267128369 1.479991028 0.9802248601
| 27> H 1.9420096479 2.369428318 0.0574506712
| 28> H 0.0260365078 1.7299927313 -1.3915809136
| 29> H 1.51652927 0.9368146947 -1.9166702411
| 30> *
| 31>
| 32>                          ****END OF INPUT****

CARTESIAN COORDINATES (ANGSTROEM)
---------------------------------
  C     -3.073920    0.811770    0.441761
  O     -1.896831    0.669981   -0.340318
  C     -1.071692   -0.339845   -0.025678
  O     -1.285637   -1.111232    0.871760
  C      0.114180   -0.386670   -0.972990
  C      1.133529   -1.438161   -0.529555
  C      1.852447   -1.013556    0.748350
  C      2.511157    0.350749    0.574059
  C      1.468642    1.393170    0.183068
  C      0.776443    0.988621   -1.114706
  H     -3.886891    0.237911   -0.007865
  H     -3.323854    1.870584    0.448816
  H     -2.898379    0.448429    1.456231
  H     -0.302989   -0.673754   -1.946569
  H      0.622534   -2.387310   -0.361289
  H      1.862785   -1.577263   -1.330781
  H      1.130121   -0.969850    1.564199
  H      2.604757   -1.761392    1.006866
  H      3.004457    0.646416    1.502085
  H      3.273746    0.291896   -0.206768
  H      0.726713    1.479991    0.980225
  H      1.942010    2.369428    0.057451
  H      0.026037    1.729993   -1.391581
  H      1.516529    0.936815   -1.916670

 Total Charge           Charge          ....    0
 Multiplicity           Mult            ....    1
 Number of Electrons    NEL             ....   78
 Basis Dimension        Dim             ....  270

ORBITAL ENERGIES
----------------

  NO   OCC          E(Eh)            E(eV)
   0   2.0000     -18.997577      -516.9504
   1   2.0000     -18.933569      -515.2086
   2   2.0000     -10.152304      -276.2582
   3   2.0000     -10.083944      -274.3981
   4   2.0000     -10.047030      -273.3936
   5   2.0000     -10.029293      -272.9110
   6   2.0000     -10.024167      -272.7715
   7   2.0000     -10.023838      -272.7625
   8   2.0000     -10.020304      -272.6663
   9   2.0000     -10.016338      -272.5584
  10   2.0000      -1.073381       -29.2082
  11   2.0000      -0.983585       -26.7647
  12   2.0000      -0.807152       -21.9637
  13   2.0000      -0.732761       -19.9394
  14   2.0000      -0.709330       -19.3019
  15   2.0000      -0.687606       -18.7107
  16   2.0000      -0.594150       -16.1676
  17   2.0000      -0.574500       -15.6330
  18   2.0000      -0.543864       -14.7993
  19   2.0000      -0.515993       -14.0409
  20   2.0000      -0.466195       -12.6858
  21   2.0000      -0.455883       -12.4052
  22   2.0000      -0.445768       -12.1300
  23   2.0000      -0.436279       -11.8718
  24   2.0000      -0.411139       -11.1877
  25   2.0000      -0.406797       -11.0695
  26   2.0000      -0.394958       -10.7473
  27   2.0000      -0.372034       -10.1236
  28   2.0000      -0.347887        -9.4665
  29   2.0000      -0.345919        -9.4129
  30   2.0000      -0.340347        -9.2613
  31   2.0000      -0.338354        -9.2071
  32   2.0000      -0.316428        -8.6105
  33   2.0000      -0.312107        -8.4929
  34   2.0000      -0.292327        -7.9546
  35   2.0000      -0.276385        -7.5208
  36   2.0000      -0.268046        -7.2939
  37   2.0000      -0.266676        -7.2566
  38   2.0000      -0.237665        -6.4672
  39   0.0000      -0.017309        -0.4710
  40   0.0000       0.063976         1.7409
  41   0.0000       0.087126         2.3708
  42   0.0000       0.102038         2.7766
  43   0.0000       0.112812         3.0698

MULLIKEN ATOMIC CHARGES
-----------------------
   0 C :   -0.304438
   1 O :   -0.173951
   2 C :    0.215259
   3 O :   -0.413727
   4 C :    0.090508
   5 C :   -0.336824
   6 C :   -0.323892
   7 C :   -0.311449
   8 C :   -0.267046
   9 C :   -0.358444
  10 H :    0.150130
  11 H :    0.148105
  12 H :    0.177208
  13 H :    0.160752
  14 H :    0.156889
  15 H :    0.156521
  16 H :    0.182342
  17 H :    0.146136
  18 H :    0.148162
  19 H :    0.141959
  20 H :    0.146907
  21 H :    0.150510
  22 H :    0.166029
  23 H :    0.152354
Sum of atomic charges:    0.0000000

LOEWDIN ATOMIC CHARGES
----------------------
   0 C :   -0.048168
   1 O :   -0.613737
   2 C :    0.361525
   3 O :   -0.431522
   4 C :   -0.154088
   5 C :   -0.278693
   6 C :   -0.296136
   7 C :   -0.302185
   8 C :   -0.294849
   9 C :   -0.273606
  10 H :    0.171267
  11 H :    0.173963
  12 H :    0.187934
  13 H :    0.186171
  14 H :    0.172292
  15 H :    0.158501
  16 H :    0.171358
  17 H :    0.155141
  18 H :    0.154805
  19 H :    0.153440
  20 H :    0.158775
  21 H :    0.156142
  22 H :    0.172715
  23 H :    0.158955

  Mayer bond orders larger than 0.100000
B(  0-C ,  1-O ) :   0.8486 B(  0-C , 10-H ) :   0.9606 B(  0-C , 11-H ) :   0.9705
B(  0-C , 12-H ) :   0.9681 B(  1-O ,  2-C ) :   1.0514 B(  2-C ,  3-O ) :   1.8703
B(  2-C ,  4-C ) :   0.9530 B(  4-C ,  5-C ) :   0.9502 B(  4-C ,  9-C ) :   0.8876
B(  4-C , 13-H ) :   0.8930 B(  5-C ,  6-C ) :   0.9018 B(  5-C , 14-H ) :   0.9408
B(  5-C , 15-H ) :   0.9899 B(  6-C ,  7-C ) :   0.9042 B(  6-C , 16-H ) :   0.9871
B(  6-C , 17-H ) :   0.9391 B(  7-C ,  8-C ) :   0.9178 B(  7-C , 18-H ) :   0.9456
B(  7-C , 19-H ) :   1.0024 B(  8-C ,  9-C ) :   0.9099 B(  8-C , 20-H ) :   0.9784
B(  8-C , 21-H ) :   0.9390 B(  9-C , 22-H ) :   0.9410 B(  9-C , 23-H ) :   0.9875

Dispersion correction           -0.007918726
FINAL SINGLE POINT ENERGY      -463.635501351119

DIPOLE MOMENT
-------------

Method             : SCF
Type of density    : Electron Density
Multiplicity       :   1
Irrep              :   0
Energy             :  -463.6409382504766654 Eh
Relativity type    :
Basis              : AO
                                X                 Y                 Z
Electronic contribution:     -5.934272371      -1.921470136      -0.272282044
Nuclear contribution   :      5.860993761       2.471996492      -0.128766478
                        -----------------------------------------
Total Dipole Moment    :     -0.073278610       0.550526355      -0.401048523
                        -----------------------------------------
Magnitude (a.u.)       :      0.685046670
Magnitude (Debye)      :      1.741250256

Rotational constants in cm-1:             0.078293             0.032043             0.028285
Rotational constants in MHz :          2347.175766           960.625815           847.959229

                             ****ORCA TERMINATED NORMALLY****
TOTAL RUN TIME: 0 days 0 hours 0 minutes 24 seconds 921 msec
