                         Program Version 6.0.1  -  RELEASE   -
|  1> ! pbe def2-sv(p) def2/J RI DEFGRID1 loosescf d4 GCP(DFT/SV(P)) printgap
|  2> %output
|  3>     printlevel normal
|  4> end
|  5> * xyz 0 1
|  6> C -1.2692132517 -0.942448659 -0.1085079174
|  7> C -0.4207412679 0.3120512418 -0.3039836488
|  8> C -1.1265247431 1.5630356826 0.2425387953
|  9> C 0.946887392 0.1255063423 0.3692224446
| 10> O 1.6839173444 -0.9489969161 -0.1626677507
| 11> H -2.1941592992 -0.8722091179 -0.6761939994
| 12> H -1.5127460421 -1.0707104992 0.9438922784
| 13> H -0.7207783455 -1.8213359081 -0.4401391486
| 14> H -0.2419363072 0.4386045547 -1.3794282247
| 15> H -2.0854056726 1.3019318114 0.6818476655
| 16> H -1.3057478878 2.290866252 -0.544266839
| 17> H -0.5268609925 2.042649373 1.0127141983
| 18> H 1.5253947174 1.058731442 0.2901241609
| 19> H 0.8126514711 -0.1102419225 1.4276085822
| 20> H 1.7987507733 -0.8036710676 -1.1086397131
| 21> *
| 22>
| 23>                          ****END OF INPUT****

CARTESIAN COORDINATES (ANGSTROEM)
---------------------------------
  C     -1.269213   -0.942449   -0.108508
  C     -0.420741    0.312051   -0.303984
  C     -1.126525    1.563036    0.242539
  C      0.946887    0.125506    0.369222
  O      1.683917   -0.948997   -0.162668
  H     -2.194159   -0.872209   -0.676194
  H     -1.512746   -1.070710    0.943892
  H     -0.720778   -1.821336   -0.440139
  H     -0.241936    0.438605   -1.379428
  H     -2.085406    1.301932    0.681848
  H     -1.305748    2.290866   -0.544267
  H     -0.526861    2.042649    1.012714
  H      1.525395    1.058731    0.290124
  H      0.812651   -0.110242    1.427609
  H      1.798751   -0.803671   -1.108640

 Total Charge           Charge          ....    0
 Multiplicity           Mult            ....    1
 Number of Electrons    NEL             ....   42
 Basis Dimension        Dim             ....   90

ORBITAL ENERGIES
----------------

  NO   OCC          E(Eh)            E(eV)
   0   2.0000     -18.739959      -509.9402
   1   2.0000      -9.925020      -270.0735
   2   2.0000      -9.895771      -269.2776
   3   2.0000      -9.876226      -268.7458
   4   2.0000      -9.869357      -268.5589
   5   2.0000      -0.918952       -25.0059
   6   2.0000      -0.719100       -19.5677
   7   2.0000      -0.611239       -16.6327
   8   2.0000      -0.599857       -16.3229
   9   2.0000      -0.515293       -14.0218
  10   2.0000      -0.444883       -12.1059
  11   2.0000      -0.419669       -11.4198
  12   2.0000      -0.395172       -10.7532
  13   2.0000      -0.365033        -9.9330
  14   2.0000      -0.350377        -9.5342
  15   2.0000      -0.343692        -9.3523
  16   2.0000      -0.314721        -8.5640
  17   2.0000      -0.295469        -8.0401
  18   2.0000      -0.290118        -7.8945
  19   2.0000      -0.263897        -7.1810
  20   2.0000      -0.211879        -5.7655
  21   0.0000       0.027194         0.7400
  22   0.0000       0.048264         1.3133
  23   0.0000       0.071969         1.9584
  24   0.0000       0.085824         2.3354
  25   0.0000       0.101438         2.7603

MULLIKEN ATOMIC CHARGES
-----------------------
   0 C :   -0.245089
   1 C :   -0.221357
   2 C :   -0.251889
   3 C :    0.033493
   4 O :   -0.427689
   5 H :    0.101264
   6 H :    0.095133
   7 H :    0.099919
   8 H :    0.062064
   9 H :    0.101652
  10 H :    0.101817
  11 H :    0.099749
  12 H :    0.075624
  13 H :    0.082560
  14 H :    0.292750
Sum of atomic charges:    0.0000000

LOEWDIN ATOMIC CHARGES
----------------------
   0 C :   -0.334252
   1 C :   -0.183025
   2 C :   -0.334215
   3 C :   -0.120923
   4 O :   -0.334640
   5 H :    0.116308
   6 H :    0.116665
   7 H :    0.117145
   8 H :    0.107048
   9 H :    0.122216
  10 H :    0.123288
  11 H :    0.120127
  12 H :    0.092080
  13 H :    0.111638
  14 H :    0.280542

  Mayer bond orders larger than 0.100000
B(  0-C ,  1-C ) :   1.1184 B(  0-C ,  5-H ) :   0.9504 B(  0-C ,  6-H ) :   0.9489
B(  0-C ,  7-H ) :   0.9420 B(  1-C ,  2-C ) :   1.0696 B(  1-C ,  3-C ) :   1.0681
B(  1-C ,  8-H ) :   0.9114 B(  2-C ,  9-H ) :   0.9556 B(  2-C , 10-H ) :   0.9519
B(  2-C , 11-H ) :   0.9547 B(  3-C ,  4-O ) :   1.0692 B(  3-C , 12-H ) :   0.9264
B(  3-C , 13-H ) :   0.9204 B(  4-O , 14-H ) :   0.8536

Dispersion correction           -0.009688763
FINAL SINGLE POINT ENERGY      -233.084481312183

DIPOLE MOMENT
-------------

Method             : SCF
Type of density    : Electron Density
Multiplicity       :   1
Irrep              :   0
Energy             :  -233.1442470535689893 Eh
Relativity type    :
Basis              : AO
                                X                 Y                 Z
Electronic contribution:      3.960829430      -1.842514171      -0.601318416
Nuclear contribution   :     -4.150625089       2.288747590       0.192272774
                        -----------------------------------------
Total Dipole Moment    :     -0.189795659       0.446233419      -0.409045643
                        -----------------------------------------
Magnitude (a.u.)       :      0.634401288
Magnitude (Debye)      :      1.612519925

Rotational constants in cm-1:             0.253566             0.116682             0.089026
Rotational constants in MHz :          7601.726475          3498.039941          2668.926233

                             ****ORCA TERMINATED NORMALLY****
TOTAL RUN TIME: 0 days 0 hours 0 minutes 5 seconds 967 msec
