                         Program Version 6.0.1  -  RELEASE   -
|  1> ! pbe def2-sv(p) def2/J RI DEFGRID1 loosescf d4 GCP(DFT/SV(P)) printgap
|  2> %output
|  3>     printlevel normal
|  4> end
|  5> * xyz 0 1
|  6> C 1.9860478614 0.8771639305 -0.6976183007
|  7> C 1.1464555588 -0.2403405162 -0.0897367619
|  8> C 1.8658351004 -0.9383198701 1.0575430359
|  9> O -0.068254541 0.3310652398 0.4269113878
| 10> C -1.2242313402 0.008386123 -0.1533944437
| 11> O -1.3328206126 -0.7326110995 -1.0948729732
| 12> C -2.3764669546 0.6881630919 0.5426234045
| 13> H 2.9081950334 0.4680273097 -1.1000900181
| 14> H 1.4381957771 1.3644974283 -1.5005495768
| 15> H 2.2259622596 1.6172226979 0.062138176
| 16> H 0.8699835368 -0.9668460068 -0.8643678275
| 17> H 1.2352322242 -1.7163601014 1.4806837416
| 18> H 2.1047340865 -0.2197743437 1.8377345407
| 19> H 2.7849673443 -1.3894174514 0.6951264459
| 20> H -2.017314485 1.5167305461 1.1442656807
| 21> H -2.869201149 -0.0377880731 1.1864152039
| 22> H -3.0955725063 1.0300579705 -0.1963144045
| 23> *
| 24>
| 25>                          ****END OF INPUT****

CARTESIAN COORDINATES (ANGSTROEM)
---------------------------------
  C      1.986048    0.877164   -0.697618
  C      1.146456   -0.240341   -0.089737
  C      1.865835   -0.938320    1.057543
  O     -0.068255    0.331065    0.426911
  C     -1.224231    0.008386   -0.153394
  O     -1.332821   -0.732611   -1.094873
  C     -2.376467    0.688163    0.542623
  H      2.908195    0.468027   -1.100090
  H      1.438196    1.364497   -1.500550
  H      2.225962    1.617223    0.062138
  H      0.869984   -0.966846   -0.864368
  H      1.235232   -1.716360    1.480684
  H      2.104734   -0.219774    1.837735
  H      2.784967   -1.389417    0.695126
  H     -2.017314    1.516731    1.144266
  H     -2.869201   -0.037788    1.186415
  H     -3.095573    1.030058   -0.196314

 Total Charge           Charge          ....    0
 Multiplicity           Mult            ....    1
 Number of Electrons    NEL             ....   56
 Basis Dimension        Dim             ....  118

ORBITAL ENERGIES
----------------

  NO   OCC          E(Eh)            E(eV)
   0   2.0000     -18.793957      -511.4096
   1   2.0000     -18.730634      -509.6865
   2   2.0000     -10.007216      -272.3102
   3   2.0000      -9.949167      -270.7306
   4   2.0000      -9.891861      -269.1712
   5   2.0000      -9.885040      -268.9856
   6   2.0000      -9.884774      -268.9784
   7   2.0000      -1.002263       -27.2730
   8   2.0000      -0.912765       -24.8376
   9   2.0000      -0.726433       -19.7672
  10   2.0000      -0.665913       -18.1204
  11   2.0000      -0.625794       -17.0287
  12   2.0000      -0.567342       -15.4382
  13   2.0000      -0.495179       -13.4745
  14   2.0000      -0.436615       -11.8809
  15   2.0000      -0.427151       -11.6234
  16   2.0000      -0.413362       -11.2481
  17   2.0000      -0.390657       -10.6303
  18   2.0000      -0.381184       -10.3725
  19   2.0000      -0.371282       -10.1031
  20   2.0000      -0.352756        -9.5990
  21   2.0000      -0.352017        -9.5789
  22   2.0000      -0.334399        -9.0995
  23   2.0000      -0.322829        -8.7846
  24   2.0000      -0.313571        -8.5327
  25   2.0000      -0.283980        -7.7275
  26   2.0000      -0.252369        -6.8673
  27   2.0000      -0.219028        -5.9601
  28   0.0000      -0.015749        -0.4285
  29   0.0000       0.037472         1.0197
  30   0.0000       0.060813         1.6548
  31   0.0000       0.077450         2.1075
  32   0.0000       0.086094         2.3427

MULLIKEN ATOMIC CHARGES
-----------------------
   0 C :   -0.244607
   1 C :   -0.026320
   2 C :   -0.241231
   3 O :   -0.241688
   4 C :    0.086261
   5 O :   -0.198795
   6 C :   -0.255381
   7 H :    0.106531
   8 H :    0.112264
   9 H :    0.103136
  10 H :    0.100948
  11 H :    0.109958
  12 H :    0.103167
  13 H :    0.106410
  14 H :    0.117061
  15 H :    0.134363
  16 H :    0.127923
Sum of atomic charges:    0.0000000

LOEWDIN ATOMIC CHARGES
----------------------
   0 C :   -0.338933
   1 C :   -0.053545
   2 C :   -0.338378
   3 O :   -0.066328
   4 C :    0.028425
   5 O :   -0.162375
   6 C :   -0.361420
   7 H :    0.127099
   8 H :    0.125791
   9 H :    0.122096
  10 H :    0.118992
  11 H :    0.124694
  12 H :    0.122280
  13 H :    0.127079
  14 H :    0.133614
  15 H :    0.148483
  16 H :    0.142426

  Mayer bond orders larger than 0.100000
B(  0-C ,  1-C ) :   1.1309 B(  0-C ,  7-H ) :   0.9470 B(  0-C ,  8-H ) :   0.9467
B(  0-C ,  9-H ) :   0.9431 B(  1-C ,  2-C ) :   1.1242 B(  1-C ,  3-O ) :   0.8912
B(  1-C , 10-H ) :   0.8846 B(  2-C , 11-H ) :   0.9474 B(  2-C , 12-H ) :   0.9432
B(  2-C , 13-H ) :   0.9470 B(  3-O ,  4-C ) :   1.1935 B(  4-C ,  5-O ) :   2.0663
B(  4-C ,  6-C ) :   1.0729 B(  6-C , 14-H ) :   0.9388 B(  6-C , 15-H ) :   0.9272
B(  6-C , 16-H ) :   0.9375

Dispersion correction           -0.012143904
FINAL SINGLE POINT ENERGY      -346.248958370581

DIPOLE MOMENT
-------------

Method             : SCF
Type of density    : Electron Density
Multiplicity       :   1
Irrep              :   0
Energy             :  -346.3131673377260995 Eh
Relativity type    :
Basis              : AO
                                X                 Y                 Z
Electronic contribution:     -4.830635622      -1.233831311      -2.053984380
Nuclear contribution   :      5.219062121       1.557361512       2.565405032
                        -----------------------------------------
Total Dipole Moment    :      0.388426499       0.323530201       0.511420652
                        -----------------------------------------
Magnitude (a.u.)       :      0.719095278
Magnitude (Debye)      :      1.827794940

Rotational constants in cm-1:             0.157041             0.052356             0.050814
Rotational constants in MHz :          4707.968584          1569.586410          1523.367071

                             ****ORCA TERMINATED NORMALLY****
TOTAL RUN TIME: 0 days 0 hours 0 minutes 5 seconds 259 msec
