                         Program Version 6.0.1  -  RELEASE   -
|  1> ! r2scan-3c def2/J RI DEFGRID2 scfconv6 printgap
|  2> %output
|  3>     printlevel normal
|  4> end
|  5> * xyz 0 1
|  6> C -2.2761760428 -0.321394988 -0.0826576849
|  7> C -1.8520133036 0.9967998647 -0.1101736865
|  8> C -0.5047855737 1.2951710997 -0.0147121581
|  9> C 0.4321718161 0.27816663 0.1159592058
| 10> C -0.0002207834 -1.0408862985 0.1476047866
| 11> C -1.3474743352 -1.3394679025 0.0463617769
| 12> C 1.9019330002 0.6024106208 0.2309279295
| 13> O 2.7515256831 -0.4184957015 -0.2352341568
| 14> H -3.3280411671 -0.5533249732 -0.1611743299
| 15> H -2.5730291619 1.7948606371 -0.2105870319
| 16> H -0.1750186047 2.3243117054 -0.0398419414
| 17> H 0.7285006084 -1.8312340218 0.2565867744
| 18> H -1.6724396154 -2.3693255929 0.0712475264
| 19> H 2.1122371303 1.5487980446 -0.2906967347
| 20> H 2.1651188774 0.7356836349 1.2861936548
| 21> H 2.5205614775 -0.6170151678 -1.1496315531
| 22> *
| 23>
| 24>                          ****END OF INPUT****

CARTESIAN COORDINATES (ANGSTROEM)
---------------------------------
  C     -2.276176   -0.321395   -0.082658
  C     -1.852013    0.996800   -0.110174
  C     -0.504786    1.295171   -0.014712
  C      0.432172    0.278167    0.115959
  C     -0.000221   -1.040886    0.147605
  C     -1.347474   -1.339468    0.046362
  C      1.901933    0.602411    0.230928
  O      2.751526   -0.418496   -0.235234
  H     -3.328041   -0.553325   -0.161174
  H     -2.573029    1.794861   -0.210587
  H     -0.175019    2.324312   -0.039842
  H      0.728501   -1.831234    0.256587
  H     -1.672440   -2.369326    0.071248
  H      2.112237    1.548798   -0.290697
  H      2.165119    0.735684    1.286194
  H      2.520561   -0.617015   -1.149632

 Total Charge           Charge          ....    0
 Multiplicity           Mult            ....    1
 Number of Electrons    NEL             ....   58
 Basis Dimension        Dim             ....  197

ORBITAL ENERGIES
----------------

  NO   OCC          E(Eh)            E(eV)
   0   2.0000     -18.955117      -515.7949
   1   2.0000     -10.085154      -274.4310
   2   2.0000     -10.044095      -273.3137
   3   2.0000     -10.038034      -273.1488
   4   2.0000     -10.037288      -273.1285
   5   2.0000     -10.037033      -273.1215
   6   2.0000     -10.035600      -273.0826
   7   2.0000     -10.033817      -273.0340
   8   2.0000      -0.994833       -27.0708
   9   2.0000      -0.830558       -22.6006
  10   2.0000      -0.737083       -20.0570
  11   2.0000      -0.718898       -19.5622
  12   2.0000      -0.648586       -17.6489
  13   2.0000      -0.579025       -15.7561
  14   2.0000      -0.561417       -15.2769
  15   2.0000      -0.499909       -13.6032
  16   2.0000      -0.468495       -12.7484
  17   2.0000      -0.434152       -11.8139
  18   2.0000      -0.417925       -11.3723
  19   2.0000      -0.413698       -11.2573
  20   2.0000      -0.394156       -10.7255
  21   2.0000      -0.389084       -10.5875
  22   2.0000      -0.344563        -9.3760
  23   2.0000      -0.334443        -9.1007
  24   2.0000      -0.314754        -8.5649
  25   2.0000      -0.297482        -8.0949
  26   2.0000      -0.253498        -6.8980
  27   2.0000      -0.240490        -6.5441
  28   2.0000      -0.228420        -6.2156
  29   0.0000      -0.035752        -0.9728
  30   0.0000      -0.034586        -0.9411
  31   0.0000       0.061197         1.6652
  32   0.0000       0.085332         2.3220
  33   0.0000       0.105363         2.8671

MULLIKEN ATOMIC CHARGES
-----------------------
   0 C :   -0.143946
   1 C :   -0.151087
   2 C :   -0.231953
   3 C :    0.156002
   4 C :   -0.208039
   5 C :   -0.147208
   6 C :   -0.203134
   7 O :   -0.429882
   8 H :    0.147213
   9 H :    0.145886
  10 H :    0.148168
  11 H :    0.175341
  12 H :    0.145970
  13 H :    0.138766
  14 H :    0.156368
  15 H :    0.301534
Sum of atomic charges:    0.0000000

LOEWDIN ATOMIC CHARGES
----------------------
   0 C :   -0.169275
   1 C :   -0.160347
   2 C :   -0.162057
   3 C :   -0.086468
   4 C :   -0.154869
   5 C :   -0.159406
   6 C :    0.029057
   7 O :   -0.608565
   8 H :    0.166868
   9 H :    0.167129
  10 H :    0.169258
  11 H :    0.181067
  12 H :    0.167283
  13 H :    0.164829
  14 H :    0.188286
  15 H :    0.267211

  Mayer bond orders larger than 0.100000
B(  0-C ,  1-C ) :   1.4233 B(  0-C ,  5-C ) :   1.4194 B(  0-C ,  8-H ) :   0.9468
B(  1-C ,  2-C ) :   1.4367 B(  1-C ,  9-H ) :   0.9487 B(  2-C ,  3-C ) :   1.4046
B(  2-C , 10-H ) :   0.9389 B(  3-C ,  4-C ) :   1.4169 B(  3-C ,  6-C ) :   0.8212
B(  4-C ,  5-C ) :   1.4025 B(  4-C , 11-H ) :   0.9574 B(  5-C , 12-H ) :   0.9550
B(  6-C ,  7-O ) :   1.0048 B(  6-C , 13-H ) :   1.0202 B(  6-C , 14-H ) :   0.9611
B(  7-O , 15-H ) :   0.8925

Dispersion correction           -0.004933550
FINAL SINGLE POINT ENERGY      -346.689306226788

DIPOLE MOMENT
-------------

Method             : SCF
Type of density    : Electron Density
Multiplicity       :   1
Irrep              :   0
Energy             :  -346.6902266551487060 Eh
Relativity type    :
Basis              : AO
                                X                 Y                 Z
Electronic contribution:     -0.218827349      -0.741223184      -0.071788320
Nuclear contribution   :     -0.167607576       0.962697616      -0.226679417
                        -----------------------------------------
Total Dipole Moment    :     -0.386434924       0.221474432      -0.298467737
                        -----------------------------------------
Magnitude (a.u.)       :      0.536158432
Magnitude (Debye)      :      1.362806431

Rotational constants in cm-1:             0.163988             0.049964             0.039265
Rotational constants in MHz :          4916.231444          1497.879841          1177.145382

                             ****ORCA TERMINATED NORMALLY****
TOTAL RUN TIME: 0 days 0 hours 2 minutes 43 seconds 961 msec
