                         Program Version 6.0.1  -  RELEASE   -
|  1> ! r2scan-3c def2/J RI DEFGRID2 scfconv6 printgap
|  2> %output
|  3>     printlevel normal
|  4> end
|  5> * xyz 0 1
|  6> C 1.1965863349 1.2559661519 -0.0380130807
|  7> C 0.3996196971 1.162e-05 0.3205147894
|  8> C 1.1953715938 -1.2566303346 -0.0382750977
|  9> C -0.9091843422 0.0005720294 -0.4107726879
| 10> C -2.0945003037 0.0001787748 0.1680821068
| 11> H 0.6351604601 2.1501422761 0.2238460702
| 12> H 1.4052828173 1.2806621743 -1.1056833789
| 13> H 2.142871383 1.271205483 0.4983517079
| 14> H 0.2057082854 -2.93294e-05 1.3983671873
| 15> H 1.4039331668 -1.2814356987 -1.1059722769
| 16> H 2.1416881854 -1.2726347739 0.4979900316
| 17> H 0.6332158999 -2.1503471345 0.2236240867
| 18> H -0.82919592 0.0014305849 -1.4906245952
| 19> H -3.0100749722 0.0005209547 -0.3992114973
| 20> H -2.2009403148 -0.0006852679 1.2410080158
| 21> *
| 22>
| 23>                          ****END OF INPUT****

CARTESIAN COORDINATES (ANGSTROEM)
---------------------------------
  C      1.196586    1.255966   -0.038013
  C      0.399620    0.000012    0.320515
  C      1.195372   -1.256630   -0.038275
  C     -0.909184    0.000572   -0.410773
  C     -2.094500    0.000179    0.168082
  H      0.635160    2.150142    0.223846
  H      1.405283    1.280662   -1.105683
  H      2.142871    1.271205    0.498352
  H      0.205708   -0.000029    1.398367
  H      1.403933   -1.281436   -1.105972
  H      2.141688   -1.272635    0.497990
  H      0.633216   -2.150347    0.223624
  H     -0.829196    0.001431   -1.490625
  H     -3.010075    0.000521   -0.399211
  H     -2.200940   -0.000685    1.241008

 Total Charge           Charge          ....    0
 Multiplicity           Mult            ....    1
 Number of Electrons    NEL             ....   40
 Basis Dimension        Dim             ....  145

ORBITAL ENERGIES
----------------

  NO   OCC          E(Eh)            E(eV)
   0   2.0000     -10.039048      -273.1764
   1   2.0000     -10.030672      -272.9485
   2   2.0000     -10.018737      -272.6237
   3   2.0000     -10.018732      -272.6236
   4   2.0000     -10.016625      -272.5662
   5   2.0000      -0.784035       -21.3347
   6   2.0000      -0.706062       -19.2129
   7   2.0000      -0.651851       -17.7378
   8   2.0000      -0.572041       -15.5660
   9   2.0000      -0.519318       -14.1314
  10   2.0000      -0.432334       -11.7644
  11   2.0000      -0.423796       -11.5321
  12   2.0000      -0.390226       -10.6186
  13   2.0000      -0.381423       -10.3790
  14   2.0000      -0.355371        -9.6701
  15   2.0000      -0.347560        -9.4576
  16   2.0000      -0.313078        -8.5193
  17   2.0000      -0.302945        -8.2435
  18   2.0000      -0.293760        -7.9936
  19   2.0000      -0.236206        -6.4275
  20   0.0000      -0.010699        -0.2911
  21   0.0000       0.085909         2.3377
  22   0.0000       0.123343         3.3563
  23   0.0000       0.127078         3.4580
  24   0.0000       0.137225         3.7341

MULLIKEN ATOMIC CHARGES
-----------------------
   0 C :   -0.474011
   1 C :   -0.033010
   2 C :   -0.474015
   3 C :   -0.106887
   4 C :   -0.380441
   5 H :    0.154542
   6 H :    0.145755
   7 H :    0.143487
   8 H :    0.146219
   9 H :    0.145782
  10 H :    0.143470
  11 H :    0.154545
  12 H :    0.153703
  13 H :    0.140239
  14 H :    0.140622
Sum of atomic charges:    0.0000000

LOEWDIN ATOMIC CHARGES
----------------------
   0 C :   -0.407683
   1 C :   -0.241700
   2 C :   -0.407666
   3 C :   -0.187911
   4 C :   -0.315182
   5 H :    0.157271
   6 H :    0.153467
   7 H :    0.153142
   8 H :    0.158425
   9 H :    0.153471
  10 H :    0.153136
  11 H :    0.157273
  12 H :    0.163408
  13 H :    0.155632
  14 H :    0.154917

  Mayer bond orders larger than 0.100000
B(  0-C ,  1-C ) :   0.9036 B(  0-C ,  5-H ) :   0.9728 B(  0-C ,  6-H ) :   0.9841
B(  0-C ,  7-H ) :   0.9704 B(  1-C ,  2-C ) :   0.9036 B(  1-C ,  3-C ) :   0.9435
B(  1-C ,  8-H ) :   0.9696 B(  2-C ,  9-H ) :   0.9842 B(  2-C , 10-H ) :   0.9704
B(  2-C , 11-H ) :   0.9728 B(  3-C ,  4-C ) :   1.9407 B(  3-C , 12-H ) :   0.9173
B(  4-C , 13-H ) :   0.9603 B(  4-C , 14-H ) :   0.9931

Dispersion correction           -0.003407814
FINAL SINGLE POINT ENERGY      -196.460226994157

DIPOLE MOMENT
-------------

Method             : SCF
Type of density    : Electron Density
Multiplicity       :   1
Irrep              :   0
Energy             :  -196.4627962684176055 Eh
Relativity type    :
Basis              : AO
                                X                 Y                 Z
Electronic contribution:     -2.214358490       0.001037110       0.036937004
Nuclear contribution   :      2.371346860      -0.001098337      -0.017172745
                        -----------------------------------------
Total Dipole Moment    :      0.156988371      -0.000061227       0.019764260
                        -----------------------------------------
Magnitude (a.u.)       :      0.158227615
Magnitude (Debye)      :      0.402182636

Rotational constants in cm-1:             0.253766             0.120141             0.092882
Rotational constants in MHz :          7607.726806          3601.735340          2784.538726

                             ****ORCA TERMINATED NORMALLY****
TOTAL RUN TIME: 0 days 0 hours 0 minutes 21 seconds 304 msec
