                         Program Version 6.0.1  -  RELEASE   -
|  1> ! r2scan-3c def2/J RI DEFGRID2 scfconv6 printgap
|  2> %output
|  3>     printlevel normal
|  4> end
|  5> * xyz 0 1
|  6> C -2.9803463735 1.2428490934 0.0108186764
|  7> C -1.7441514657 0.3935854636 -0.0076154195
|  8> C -1.8351196526 -0.9869624494 -0.006540495
|  9> C -0.6876637953 -1.7642255881 -0.0019953597
| 10> C 0.5652238638 -1.1798544962 0.0013947801
| 11> C 0.6734606701 0.2231262564 -7.58426e-05
| 12> C -0.4840797085 0.9847186725 -0.0040607789
| 13> O 1.9422112933 0.7206750016 0.001351196
| 14> C 2.1127298325 2.11390686 -0.0032525733
| 15> O 1.7143594103 -1.9137348171 0.0045524296
| 16> H -3.3730726879 1.3108683011 1.025918887
| 17> H -2.7678319512 2.2502315583 -0.3384213214
| 18> H -3.7547211283 0.8087701542 -0.6179231073
| 19> H -2.8029320055 -1.4652766366 -0.0095429775
| 20> H -0.7659681192 -2.8436727877 -0.0022745015
| 21> H -0.4206856464 2.0617633546 -0.0055018406
| 22> H 1.6730807019 2.5787267074 0.8860368927
| 23> H 1.6826396293 2.5712412236 -0.9011598295
| 24> H 3.1892727323 2.2778390162 0.0018611077
| 25> H 1.4910287204 -2.8521905797 0.0022749499
| 26> *
| 27>
| 28>                          ****END OF INPUT****

CARTESIAN COORDINATES (ANGSTROEM)
---------------------------------
  C     -2.980346    1.242849    0.010819
  C     -1.744151    0.393585   -0.007615
  C     -1.835120   -0.986962   -0.006540
  C     -0.687664   -1.764226   -0.001995
  C      0.565224   -1.179854    0.001395
  C      0.673461    0.223126   -0.000076
  C     -0.484080    0.984719   -0.004061
  O      1.942211    0.720675    0.001351
  C      2.112730    2.113907   -0.003253
  O      1.714359   -1.913735    0.004552
  H     -3.373073    1.310868    1.025919
  H     -2.767832    2.250232   -0.338421
  H     -3.754721    0.808770   -0.617923
  H     -2.802932   -1.465277   -0.009543
  H     -0.765968   -2.843673   -0.002275
  H     -0.420686    2.061763   -0.005502
  H      1.673081    2.578727    0.886037
  H      1.682640    2.571241   -0.901160
  H      3.189273    2.277839    0.001861
  H      1.491029   -2.852191    0.002275

 Total Charge           Charge          ....    0
 Multiplicity           Mult            ....    1
 Number of Electrons    NEL             ....   74
 Basis Dimension        Dim             ....  250

ORBITAL ENERGIES
----------------

  NO   OCC          E(Eh)            E(eV)
   0   2.0000     -18.981448      -516.5115
   1   2.0000     -18.978125      -516.4210
   2   2.0000     -10.089499      -274.5492
   3   2.0000     -10.088392      -274.5191
   4   2.0000     -10.083073      -274.3744
   5   2.0000     -10.034502      -273.0527
   6   2.0000     -10.030649      -272.9478
   7   2.0000     -10.027408      -272.8596
   8   2.0000     -10.024066      -272.7687
   9   2.0000     -10.022758      -272.7331
  10   2.0000      -1.037350       -28.2277
  11   2.0000      -1.016643       -27.6643
  12   2.0000      -0.820567       -22.3288
  13   2.0000      -0.738035       -20.0829
  14   2.0000      -0.718925       -19.5629
  15   2.0000      -0.672441       -18.2981
  16   2.0000      -0.642729       -17.4895
  17   2.0000      -0.585555       -15.9337
  18   2.0000      -0.551822       -15.0158
  19   2.0000      -0.515325       -14.0227
  20   2.0000      -0.480135       -13.0651
  21   2.0000      -0.462601       -12.5880
  22   2.0000      -0.436192       -11.8694
  23   2.0000      -0.422101       -11.4860
  24   2.0000      -0.407110       -11.0780
  25   2.0000      -0.390752       -10.6329
  26   2.0000      -0.389064       -10.5870
  27   2.0000      -0.372053       -10.1241
  28   2.0000      -0.369660       -10.0589
  29   2.0000      -0.347050        -9.4437
  30   2.0000      -0.328207        -8.9310
  31   2.0000      -0.313187        -8.5222
  32   2.0000      -0.308750        -8.4015
  33   2.0000      -0.293888        -7.9971
  34   2.0000      -0.283729        -7.7207
  35   2.0000      -0.217471        -5.9177
  36   2.0000      -0.181236        -4.9317
  37   0.0000      -0.020189        -0.5494
  38   0.0000      -0.007432        -0.2022
  39   0.0000       0.049323         1.3421
  40   0.0000       0.073474         1.9993
  41   0.0000       0.082914         2.2562

MULLIKEN ATOMIC CHARGES
-----------------------
   0 C :   -0.537137
   1 C :    0.211370
   2 C :   -0.237108
   3 C :   -0.316363
   4 C :    0.303742
   5 C :    0.171858
   6 C :   -0.342936
   7 O :   -0.174308
   8 C :   -0.328144
   9 O :   -0.407012
  10 H :    0.166662
  11 H :    0.147137
  12 H :    0.151328
  13 H :    0.146594
  14 H :    0.135751
  15 H :    0.146897
  16 H :    0.150045
  17 H :    0.150560
  18 H :    0.154650
  19 H :    0.306413
Sum of atomic charges:   -0.0000000

LOEWDIN ATOMIC CHARGES
----------------------
   0 C :   -0.389695
   1 C :   -0.109061
   2 C :   -0.177610
   3 C :   -0.161902
   4 C :    0.201210
   5 C :    0.205880
   6 C :   -0.164606
   7 O :   -0.661215
   8 C :   -0.051961
   9 O :   -0.476847
  10 H :    0.163324
  11 H :    0.157421
  12 H :    0.161049
  13 H :    0.168421
  14 H :    0.168859
  15 H :    0.176779
  16 H :    0.163378
  17 H :    0.163481
  18 H :    0.180403
  19 H :    0.282692

  Mayer bond orders larger than 0.100000
B(  0-C ,  1-C ) :   0.7619 B(  0-C , 10-H ) :   0.9704 B(  0-C , 11-H ) :   0.9960
B(  0-C , 12-H ) :   0.9883 B(  1-C ,  2-C ) :   1.4433 B(  1-C ,  6-C ) :   1.3819
B(  2-C ,  3-C ) :   1.4011 B(  2-C , 13-H ) :   0.9307 B(  3-C ,  4-C ) :   1.2790
B(  3-C , 14-H ) :   0.9497 B(  4-C ,  5-C ) :   1.5031 B(  4-C ,  9-O ) :   0.9089
B(  5-C ,  6-C ) :   1.3632 B(  5-C ,  7-O ) :   1.0661 B(  5-C ,  9-O ) :   0.1327
B(  6-C , 15-H ) :   0.9081 B(  7-O ,  8-C ) :   0.8599 B(  8-C , 16-H ) :   0.9630
B(  8-C , 17-H ) :   0.9630 B(  8-C , 18-H ) :   0.9680 B(  9-O , 19-H ) :   0.8864

Dispersion correction           -0.006541527
FINAL SINGLE POINT ENERGY      -461.198892272292

DIPOLE MOMENT
-------------

Method             : SCF
Type of density    : Electron Density
Multiplicity       :   1
Irrep              :   0
Energy             :  -461.2023689877530614 Eh
Relativity type    :
Basis              : AO
                                X                 Y                 Z
Electronic contribution:      5.096354725      -6.117141386      -0.026463699
Nuclear contribution   :     -5.433354298       6.266464732       0.038804098
                        -----------------------------------------
Total Dipole Moment    :     -0.336999573       0.149323346       0.012340399
                        -----------------------------------------
Magnitude (a.u.)       :      0.368806805
Magnitude (Debye)      :      0.937432398

Rotational constants in cm-1:             0.062184             0.039583             0.024409
Rotational constants in MHz :          1864.222162          1186.654389           731.765119

                             ****ORCA TERMINATED NORMALLY****
TOTAL RUN TIME: 0 days 0 hours 0 minutes 23 seconds 133 msec
