                         Program Version 6.0.1  -  RELEASE   -
|  1> ! pbe def2-sv(p) def2/J RI DEFGRID1 loosescf d4 GCP(DFT/SV(P)) printgap
|  2> %output
|  3>     printlevel normal
|  4> end
|  5> * xyz 0 1
|  6> C -2.644843749 -0.2119551075 -1.1401349164
|  7> C -1.7459114813 0.0042492038 0.0514063752
|  8> O -2.1571596437 -0.0022759577 1.1838786321
|  9> C -0.2799463778 0.2078429183 -0.2908835174
| 10> C 0.4087753487 -1.1643568479 -0.2554493843
| 11> C 1.845390312 -1.0526456277 -0.7776003378
| 12> C 2.4792630198 0.2926627635 -0.4024868169
| 13> C 1.8852131544 0.8101219521 0.9028538761
| 14> C 0.4038967251 1.1492725202 0.71182893
| 15> H -3.6157706375 -0.5810434049 -0.8206853601
| 16> H -2.7800600707 0.7419108047 -1.6480644737
| 17> H -2.1925572528 -0.9072803475 -1.8426105815
| 18> H -0.2040735844 0.6035623698 -1.3076151615
| 19> H 0.4026327496 -1.5220658314 0.7749304839
| 20> H -0.1465617579 -1.8872388677 -0.8566409659
| 21> H 2.4339574531 -1.8709889294 -0.3591851481
| 22> H 1.8534515803 -1.166192801 -1.8634932683
| 23> H 3.5604390311 0.1793235245 -0.3093118318
| 24> H 2.2941682144 1.0276735049 -1.1885481924
| 25> H 2.0040426111 0.0475801233 1.6740684515
| 26> H 2.4225878138 1.699396005 1.2358470768
| 27> H -0.1179441021 1.0753756791 1.6678994957
| 28> H 0.3019260447 2.1767413684 0.3563044408
| 29> *
| 30>
| 31>                          ****END OF INPUT****

CARTESIAN COORDINATES (ANGSTROEM)
---------------------------------
  C     -2.644844   -0.211955   -1.140135
  C     -1.745911    0.004249    0.051406
  O     -2.157160   -0.002276    1.183879
  C     -0.279946    0.207843   -0.290884
  C      0.408775   -1.164357   -0.255449
  C      1.845390   -1.052646   -0.777600
  C      2.479263    0.292663   -0.402487
  C      1.885213    0.810122    0.902854
  C      0.403897    1.149273    0.711829
  H     -3.615771   -0.581043   -0.820685
  H     -2.780060    0.741911   -1.648064
  H     -2.192557   -0.907280   -1.842611
  H     -0.204074    0.603562   -1.307615
  H      0.402633   -1.522066    0.774930
  H     -0.146562   -1.887239   -0.856641
  H      2.433957   -1.870989   -0.359185
  H      1.853452   -1.166193   -1.863493
  H      3.560439    0.179324   -0.309312
  H      2.294168    1.027674   -1.188548
  H      2.004043    0.047580    1.674068
  H      2.422588    1.699396    1.235847
  H     -0.117944    1.075376    1.667899
  H      0.301926    2.176741    0.356304

 Total Charge           Charge          ....    0
 Multiplicity           Mult            ....    1
 Number of Electrons    NEL             ....   70
 Basis Dimension        Dim             ....  154

ORBITAL ENERGIES
----------------

  NO   OCC          E(Eh)            E(eV)
   0   2.0000     -18.737089      -509.8621
   1   2.0000      -9.970590      -271.3136
   2   2.0000      -9.898720      -269.3579
   3   2.0000      -9.894665      -269.2475
   4   2.0000      -9.887977      -269.0655
   5   2.0000      -9.886290      -269.0196
   6   2.0000      -9.883899      -268.9546
   7   2.0000      -9.881866      -268.8992
   8   2.0000      -9.879986      -268.8481
   9   2.0000      -0.939705       -25.5707
  10   2.0000      -0.762111       -20.7381
  11   2.0000      -0.692195       -18.8356
  12   2.0000      -0.666686       -18.1414
  13   2.0000      -0.654524       -17.8105
  14   2.0000      -0.565066       -15.3762
  15   2.0000      -0.548548       -14.9267
  16   2.0000      -0.488682       -13.2977
  17   2.0000      -0.461562       -12.5597
  18   2.0000      -0.445883       -12.1331
  19   2.0000      -0.426107       -11.5950
  20   2.0000      -0.408683       -11.1208
  21   2.0000      -0.391087       -10.6420
  22   2.0000      -0.379453       -10.3254
  23   2.0000      -0.378077       -10.2880
  24   2.0000      -0.355850        -9.6832
  25   2.0000      -0.340132        -9.2555
  26   2.0000      -0.333107        -9.0643
  27   2.0000      -0.330750        -9.0002
  28   2.0000      -0.322306        -8.7704
  29   2.0000      -0.312275        -8.4974
  30   2.0000      -0.306885        -8.3508
  31   2.0000      -0.270958        -7.3731
  32   2.0000      -0.264712        -7.2032
  33   2.0000      -0.264294        -7.1918
  34   2.0000      -0.195104        -5.3090
  35   0.0000      -0.045216        -1.2304
  36   0.0000       0.020948         0.5700
  37   0.0000       0.043893         1.1944
  38   0.0000       0.058492         1.5916
  39   0.0000       0.068275         1.8579

MULLIKEN ATOMIC CHARGES
-----------------------
   0 C :   -0.252660
   1 C :    0.036101
   2 O :   -0.156720
   3 C :   -0.209376
   4 C :   -0.139977
   5 C :   -0.131394
   6 C :   -0.160788
   7 C :   -0.153571
   8 C :   -0.108705
   9 H :    0.116118
  10 H :    0.128012
  11 H :    0.118861
  12 H :    0.064489
  13 H :    0.089103
  14 H :    0.088217
  15 H :    0.085328
  16 H :    0.080857
  17 H :    0.087038
  18 H :    0.076991
  19 H :    0.078879
  20 H :    0.085673
  21 H :    0.098453
  22 H :    0.079071
Sum of atomic charges:    0.0000000

LOEWDIN ATOMIC CHARGES
----------------------
   0 C :   -0.362468
   1 C :    0.050222
   2 O :   -0.119332
   3 C :   -0.170915
   4 C :   -0.209063
   5 C :   -0.226994
   6 C :   -0.230991
   7 C :   -0.228137
   8 C :   -0.219435
   9 H :    0.132710
  10 H :    0.145453
  11 H :    0.134574
  12 H :    0.118658
  13 H :    0.123717
  14 H :    0.117003
  15 H :    0.119628
  16 H :    0.116232
  17 H :    0.118434
  18 H :    0.113599
  19 H :    0.115978
  20 H :    0.119149
  21 H :    0.124841
  22 H :    0.117136

  Mayer bond orders larger than 0.100000
B(  0-C ,  1-C ) :   1.0762 B(  0-C ,  9-H ) :   0.9340 B(  0-C , 10-H ) :   0.9221
B(  0-C , 11-H ) :   0.9268 B(  1-C ,  2-O ) :   2.1987 B(  1-C ,  3-C ) :   0.9061
B(  3-C ,  4-C ) :   1.1242 B(  3-C ,  8-C ) :   1.0872 B(  3-C , 12-H ) :   0.8805
B(  4-C ,  5-C ) :   1.1496 B(  4-C , 13-H ) :   0.8934 B(  4-C , 14-H ) :   0.9182
B(  5-C ,  6-C ) :   1.1385 B(  5-C , 15-H ) :   0.9168 B(  5-C , 16-H ) :   0.9201
B(  6-C ,  7-C ) :   1.1834 B(  6-C , 17-H ) :   0.9221 B(  6-C , 18-H ) :   0.9114
B(  7-C ,  8-C ) :   1.1551 B(  7-C , 19-H ) :   0.9067 B(  7-C , 20-H ) :   0.9193
B(  8-C , 21-H ) :   0.8936 B(  8-C , 22-H ) :   0.9179

Dispersion correction           -0.021845422
FINAL SINGLE POINT ENERGY      -387.601611184951

DIPOLE MOMENT
-------------

Method             : SCF
Type of density    : Electron Density
Multiplicity       :   1
Irrep              :   0
Energy             :  -387.6793856238434159 Eh
Relativity type    :
Basis              : AO
                                X                 Y                 Z
Electronic contribution:     -5.370704219       0.332043443       3.310021594
Nuclear contribution   :      5.799870425      -0.359582873      -4.192091293
                        -----------------------------------------
Total Dipole Moment    :      0.429166206      -0.027539430      -0.882069699
                        -----------------------------------------
Magnitude (a.u.)       :      0.981320032
Magnitude (Debye)      :      2.494317296

Rotational constants in cm-1:             0.102063             0.036324             0.030987
Rotational constants in MHz :          3059.773294          1088.968747           928.964742

                             ****ORCA TERMINATED NORMALLY****
TOTAL RUN TIME: 0 days 0 hours 0 minutes 11 seconds 63 msec
