                         Program Version 6.0.1  -  RELEASE   -
|  1> ! r2scan-3c def2/J RI DEFGRID2 scfconv6 printgap
|  2> %output
|  3>     printlevel normal
|  4> end
|  5> * xyz 0 1
|  6> C -1.0577782975 -0.7661718103 -0.0583745664
|  7> C -1.0533551171 0.7722351759 -0.0567348341
|  8> C 0.4274374508 1.1233807521 0.1726692704
|  9> O 1.1641215535 -0.0035788486 -0.2418843499
| 10> C 0.4203784536 -1.1256249866 0.1738959177
| 11> H -1.3967179213 -1.151274412 -1.0186965023
| 12> H -1.6919627467 -1.1805816187 0.7225744651
| 13> H -1.3929200585 1.1613255664 -1.01517104
| 14> H -1.6830176433 1.1883056333 0.7269929352
| 15> H 0.7697213121 1.9785286361 -0.4100569567
| 16> H 0.6109214052 1.3193251985 1.2403563801
| 17> H 0.7583569183 -1.9838433459 -0.4067856034
| 18> H 0.6011324082 -1.3204870674 1.2422319055
| 19> *
| 20>
| 21>                          ****END OF INPUT****

CARTESIAN COORDINATES (ANGSTROEM)
---------------------------------
  C     -1.057778   -0.766172   -0.058375
  C     -1.053355    0.772235   -0.056735
  C      0.427437    1.123381    0.172669
  O      1.164122   -0.003579   -0.241884
  C      0.420378   -1.125625    0.173896
  H     -1.396718   -1.151274   -1.018697
  H     -1.691963   -1.180582    0.722574
  H     -1.392920    1.161326   -1.015171
  H     -1.683018    1.188306    0.726993
  H      0.769721    1.978529   -0.410057
  H      0.610921    1.319325    1.240356
  H      0.758357   -1.983843   -0.406786
  H      0.601132   -1.320487    1.242232

 Total Charge           Charge          ....    0
 Multiplicity           Mult            ....    1
 Number of Electrons    NEL             ....   40
 Basis Dimension        Dim             ....  140

ORBITAL ENERGIES
----------------

  NO   OCC          E(Eh)            E(eV)
   0   2.0000     -18.947159      -515.5784
   1   2.0000     -10.071229      -274.0521
   2   2.0000     -10.071212      -274.0516
   3   2.0000     -10.030259      -272.9372
   4   2.0000     -10.030143      -272.9341
   5   2.0000      -1.005530       -27.3619
   6   2.0000      -0.745350       -20.2820
   7   2.0000      -0.700787       -19.0694
   8   2.0000      -0.562210       -15.2985
   9   2.0000      -0.558466       -15.1966
  10   2.0000      -0.468305       -12.7432
  11   2.0000      -0.453759       -12.3474
  12   2.0000      -0.419894       -11.4259
  13   2.0000      -0.383455       -10.4344
  14   2.0000      -0.367570       -10.0021
  15   2.0000      -0.326287        -8.8787
  16   2.0000      -0.315485        -8.5848
  17   2.0000      -0.293615        -7.9897
  18   2.0000      -0.287164        -7.8141
  19   2.0000      -0.218585        -5.9480
  20   0.0000       0.073284         1.9942
  21   0.0000       0.105489         2.8705
  22   0.0000       0.107968         2.9380
  23   0.0000       0.114666         3.1202
  24   0.0000       0.130530         3.5519

MULLIKEN ATOMIC CHARGES
-----------------------
   0 C :   -0.287019
   1 C :   -0.287029
   2 C :   -0.178083
   3 O :   -0.229251
   4 C :   -0.178087
   5 H :    0.153918
   6 H :    0.150564
   7 H :    0.153891
   8 H :    0.150548
   9 H :    0.141990
  10 H :    0.133219
  11 H :    0.142011
  12 H :    0.133329
Sum of atomic charges:   -0.0000000

LOEWDIN ATOMIC CHARGES
----------------------
   0 C :   -0.280303
   1 C :   -0.280358
   2 C :    0.013491
   3 O :   -0.771590
   4 C :    0.013509
   5 H :    0.159338
   6 H :    0.158881
   7 H :    0.159352
   8 H :    0.158870
   9 H :    0.176143
  10 H :    0.158245
  11 H :    0.176161
  12 H :    0.158260

  Mayer bond orders larger than 0.100000
B(  0-C ,  1-C ) :   0.9465 B(  0-C ,  4-C ) :   0.9199 B(  0-C ,  5-H ) :   0.9679
B(  0-C ,  6-H ) :   0.9811 B(  1-C ,  2-C ) :   0.9199 B(  1-C ,  7-H ) :   0.9680
B(  1-C ,  8-H ) :   0.9809 B(  2-C ,  3-O ) :   0.9112 B(  2-C ,  9-H ) :   0.9569
B(  2-C , 10-H ) :   0.9781 B(  3-O ,  4-C ) :   0.9099 B(  4-C , 11-H ) :   0.9568
B(  4-C , 12-H ) :   0.9781

Dispersion correction           -0.002751228
FINAL SINGLE POINT ENERGY      -232.383785731258

DIPOLE MOMENT
-------------

Method             : SCF
Type of density    : Electron Density
Multiplicity       :   1
Irrep              :   0
Energy             :  -232.3888444624959675 Eh
Relativity type    :
Basis              : AO
                                X                 Y                 Z
Electronic contribution:      2.607370490      -0.008924073      -0.795726351
Nuclear contribution   :     -3.195471490       0.010546875       1.010988073
                        -----------------------------------------
Total Dipole Moment    :     -0.588101000       0.001622802       0.215261722
                        -----------------------------------------
Magnitude (a.u.)       :      0.626261151
Magnitude (Debye)      :      1.591829341

Rotational constants in cm-1:             0.241299             0.231981             0.133915
Rotational constants in MHz :          7233.962551          6954.607964          4014.661366

                             ****ORCA TERMINATED NORMALLY****
TOTAL RUN TIME: 0 days 0 hours 0 minutes 15 seconds 371 msec
