                         Program Version 6.0.1  -  RELEASE   -
|  1> ! pbe def2-sv(p) def2/J RI DEFGRID1 loosescf d4 GCP(DFT/SV(P)) printgap
|  2> %output
|  3>     printlevel normal
|  4> end
|  5> * xyz 0 1
|  6> C -1.6889130551 -1.0492413496 -0.7334295444
|  7> C -1.0639517872 -0.5187766302 0.5651075226
|  8> H -1.7929963458 -0.6717418866 1.3732505762
|  9> C -0.7514020366 0.9813287585 0.4722070516
| 10> H -1.6424937603 1.4839097332 0.0625410146
| 11> C 0.4597316975 1.257472642 -0.4391305987
| 12> H 0.7756243123 2.2971811934 -0.2483605715
| 13> C 1.6424160675 0.3628249821 -0.0313596734
| 14> H 2.3727635297 0.3597081583 -0.8459134933
| 15> C 1.2352104917 -1.1064297832 0.2097615256
| 16> H 2.016660856 -1.5569134436 0.8449981863
| 17> O 0.0657241513 -1.2644837544 0.9756600948
| 18> O 1.1596167273 -1.7624489627 -1.0190144534
| 19> O 2.2789827304 0.8815449539 1.1020111949
| 20> O 0.1763165758 1.0735425387 -1.7992809579
| 21> O -0.4235131507 1.5172713643 1.7385608552
| 22> O -2.9073872535 -0.3590783528 -0.9352510885
| 23> H -1.8676699657 -2.1264571742 -0.6104705085
| 24> H -0.999657471 -0.8906277353 -1.5690502529
| 25> H 0.9534438613 -2.6918212634 -0.8630720972
| 26> H 1.5931838089 1.0772437598 1.7591396975
| 27> H -0.5579361074 1.648764176 -2.0446758393
| 28> H -1.1003111423 1.2590420488 2.3747305865
| 29> H -3.3133531024 -0.6911699789 -1.7424761908
| 30> *
| 31>
| 32>                          ****END OF INPUT****

CARTESIAN COORDINATES (ANGSTROEM)
---------------------------------
  C     -1.688913   -1.049241   -0.733430
  C     -1.063952   -0.518777    0.565108
  H     -1.792996   -0.671742    1.373251
  C     -0.751402    0.981329    0.472207
  H     -1.642494    1.483910    0.062541
  C      0.459732    1.257473   -0.439131
  H      0.775624    2.297181   -0.248361
  C      1.642416    0.362825   -0.031360
  H      2.372764    0.359708   -0.845913
  C      1.235210   -1.106430    0.209762
  H      2.016661   -1.556913    0.844998
  O      0.065724   -1.264484    0.975660
  O      1.159617   -1.762449   -1.019014
  O      2.278983    0.881545    1.102011
  O      0.176317    1.073543   -1.799281
  O     -0.423513    1.517271    1.738561
  O     -2.907387   -0.359078   -0.935251
  H     -1.867670   -2.126457   -0.610471
  H     -0.999657   -0.890628   -1.569050
  H      0.953444   -2.691821   -0.863072
  H      1.593184    1.077244    1.759140
  H     -0.557936    1.648764   -2.044676
  H     -1.100311    1.259042    2.374731
  H     -3.313353   -0.691170   -1.742476

 Total Charge           Charge          ....    0
 Multiplicity           Mult            ....    1
 Number of Electrons    NEL             ....   96
 Basis Dimension        Dim             ....  192

ORBITAL ENERGIES
----------------

  NO   OCC          E(Eh)            E(eV)
   0   2.0000     -18.770557      -510.7728
   1   2.0000     -18.767117      -510.6792
   2   2.0000     -18.757112      -510.4070
   3   2.0000     -18.755095      -510.3521
   4   2.0000     -18.755062      -510.3512
   5   2.0000     -18.732715      -509.7431
   6   2.0000      -9.975401      -271.4444
   7   2.0000      -9.946721      -270.6640
   8   2.0000      -9.945937      -270.6427
   9   2.0000      -9.941985      -270.5352
  10   2.0000      -9.931134      -270.2399
  11   2.0000      -9.927131      -270.1310
  12   2.0000      -0.979193       -26.6452
  13   2.0000      -0.947921       -25.7942
  14   2.0000      -0.934576       -25.4311
  15   2.0000      -0.929412       -25.2906
  16   2.0000      -0.913226       -24.8501
  17   2.0000      -0.908310       -24.7164
  18   2.0000      -0.703559       -19.1448
  19   2.0000      -0.682581       -18.5740
  20   2.0000      -0.620414       -16.8823
  21   2.0000      -0.585594       -15.9348
  22   2.0000      -0.568139       -15.4599
  23   2.0000      -0.514010       -13.9869
  24   2.0000      -0.503616       -13.7041
  25   2.0000      -0.480275       -13.0689
  26   2.0000      -0.464641       -12.6435
  27   2.0000      -0.456308       -12.4168
  28   2.0000      -0.451994       -12.2994
  29   2.0000      -0.426541       -11.6068
  30   2.0000      -0.406351       -11.0574
  31   2.0000      -0.401335       -10.9209
  32   2.0000      -0.390142       -10.6163
  33   2.0000      -0.371993       -10.1224
  34   2.0000      -0.361363        -9.8332
  35   2.0000      -0.351104        -9.5540
  36   2.0000      -0.328930        -8.9506
  37   2.0000      -0.321037        -8.7359
  38   2.0000      -0.306060        -8.3283
  39   2.0000      -0.296095        -8.0571
  40   2.0000      -0.279687        -7.6107
  41   2.0000      -0.258829        -7.0431
  42   2.0000      -0.243586        -6.6283
  43   2.0000      -0.240941        -6.5563
  44   2.0000      -0.227611        -6.1936
  45   2.0000      -0.220146        -5.9905
  46   2.0000      -0.212570        -5.7843
  47   2.0000      -0.204798        -5.5728
  48   0.0000       0.010991         0.2991
  49   0.0000       0.017470         0.4754
  50   0.0000       0.027524         0.7490
  51   0.0000       0.036326         0.9885
  52   0.0000       0.068288         1.8582

MULLIKEN ATOMIC CHARGES
-----------------------
   0 C :   -0.026666
   1 C :    0.029683
   2 H :    0.062333
   3 C :    0.029453
   4 H :    0.074602
   5 C :    0.022896
   6 H :    0.080960
   7 C :    0.073873
   8 H :    0.087514
   9 C :    0.174349
  10 H :    0.067174
  11 O :   -0.310010
  12 O :   -0.385857
  13 O :   -0.428776
  14 O :   -0.389813
  15 O :   -0.422526
  16 O :   -0.441391
  17 H :    0.064222
  18 H :    0.126667
  19 H :    0.297537
  20 H :    0.299366
  21 H :    0.302643
  22 H :    0.308438
  23 H :    0.303326
Sum of atomic charges:    0.0000000

LOEWDIN ATOMIC CHARGES
----------------------
   0 C :   -0.157444
   1 C :   -0.065020
   2 H :    0.109650
   3 C :   -0.081254
   4 H :    0.105180
   5 C :   -0.071199
   6 H :    0.107052
   7 C :   -0.067948
   8 H :    0.126892
   9 C :   -0.008751
  10 H :    0.099448
  11 O :   -0.142839
  12 O :   -0.304011
  13 O :   -0.314961
  14 O :   -0.299636
  15 O :   -0.310355
  16 O :   -0.348949
  17 H :    0.093514
  18 H :    0.110986
  19 H :    0.282487
  20 H :    0.271765
  21 H :    0.286696
  22 H :    0.290116
  23 H :    0.288581

  Mayer bond orders larger than 0.100000
B(  0-C ,  1-C ) :   1.0717 B(  0-C , 16-O ) :   1.0553 B(  0-C , 17-H ) :   0.9076
B(  0-C , 18-H ) :   0.8828 B(  1-C ,  2-H ) :   0.8913 B(  1-C ,  3-C ) :   1.0093
B(  1-C , 11-O ) :   1.0251 B(  3-C ,  4-H ) :   0.8887 B(  3-C ,  5-C ) :   0.9759
B(  3-C , 15-O ) :   1.0092 B(  5-C ,  6-H ) :   0.9043 B(  5-C ,  7-C ) :   0.9988
B(  5-C , 14-O ) :   1.0809 B(  7-C ,  8-H ) :   0.8831 B(  7-C ,  9-C ) :   0.9859
B(  7-C , 13-O ) :   1.0595 B(  9-C , 10-H ) :   0.9028 B(  9-C , 11-O ) :   1.0401
B(  9-C , 12-O ) :   1.1154 B( 12-O , 19-H ) :   0.8398 B( 13-O , 20-H ) :   0.8166
B( 14-O , 21-H ) :   0.8401 B( 15-O , 22-H ) :   0.8414 B( 16-O , 23-H ) :   0.8511

Dispersion correction           -0.025995809
FINAL SINGLE POINT ENERGY      -685.692235425351

DIPOLE MOMENT
-------------

Method             : SCF
Type of density    : Electron Density
Multiplicity       :   1
Irrep              :   0
Energy             :  -685.8239734046898093 Eh
Relativity type    :
Basis              : AO
                                X                 Y                 Z
Electronic contribution:      1.898110491       0.099126390       1.213973950
Nuclear contribution   :     -3.337276422      -0.470510054      -1.415106754
                        -----------------------------------------
Total Dipole Moment    :     -1.439165930      -0.371383664      -0.201132804
                        -----------------------------------------
Magnitude (a.u.)       :      1.499859595
Magnitude (Debye)      :      3.812340119

Rotational constants in cm-1:             0.040519             0.029110             0.025353
Rotational constants in MHz :          1214.722555           872.703304           760.055586

                             ****ORCA TERMINATED NORMALLY****
TOTAL RUN TIME: 0 days 0 hours 0 minutes 9 seconds 851 msec
