                         Program Version 6.0.1  -  RELEASE   -
|  1> ! r2scan-3c def2/J RI DEFGRID2 scfconv6 printgap
|  2> %output
|  3>     printlevel normal
|  4> end
|  5> * xyz 0 1
|  6> C 2.0832128621 0.0753144825 -0.1181762255
|  7> C 0.7546317163 0.6844802985 0.3196588101
|  8> C -0.4594306587 0.005011442 -0.3297794688
|  9> H -0.3210668194 0.0084367676 -1.4255905564
| 10> C -1.7490088787 0.7448696579 0.0093733039
| 11> O -0.6199768179 -1.3275341536 0.1152441174
| 12> H 2.9115085794 0.6374722039 0.30634777
| 13> H 2.1754388552 0.0970303407 -1.2028046835
| 14> H 2.1766777487 -0.9563837542 0.2175668543
| 15> H 0.7381818887 1.7418063371 0.0505896117
| 16> H 0.6549943784 0.60816843 1.4043464001
| 17> H -2.5943067781 0.219600955 -0.4258925969
| 18> H -1.8810951728 0.7741175135 1.0875625031
| 19> H -1.7185546016 1.7592225797 -0.3780447667
| 20> H 0.1992013366 -1.8067916127 -0.0462698483
| 21> *
| 22>
| 23>                          ****END OF INPUT****

CARTESIAN COORDINATES (ANGSTROEM)
---------------------------------
  C      2.083213    0.075314   -0.118176
  C      0.754632    0.684480    0.319659
  C     -0.459431    0.005011   -0.329779
  H     -0.321067    0.008437   -1.425591
  C     -1.749009    0.744870    0.009373
  O     -0.619977   -1.327534    0.115244
  H      2.911509    0.637472    0.306348
  H      2.175439    0.097030   -1.202805
  H      2.176678   -0.956384    0.217567
  H      0.738182    1.741806    0.050590
  H      0.654994    0.608168    1.404346
  H     -2.594307    0.219601   -0.425893
  H     -1.881095    0.774118    1.087563
  H     -1.718555    1.759223   -0.378045
  H      0.199201   -1.806792   -0.046270

 Total Charge           Charge          ....    0
 Multiplicity           Mult            ....    1
 Number of Electrons    NEL             ....   42
 Basis Dimension        Dim             ....  150

ORBITAL ENERGIES
----------------

  NO   OCC          E(Eh)            E(eV)
   0   2.0000     -18.943791      -515.4868
   1   2.0000     -10.078995      -274.2634
   2   2.0000     -10.026922      -272.8464
   3   2.0000     -10.025948      -272.8199
   4   2.0000     -10.014172      -272.4995
   5   2.0000      -0.984432       -26.7878
   6   2.0000      -0.752838       -20.4858
   7   2.0000      -0.698166       -18.9981
   8   2.0000      -0.601094       -16.3566
   9   2.0000      -0.547155       -14.8888
  10   2.0000      -0.482955       -13.1419
  11   2.0000      -0.432253       -11.7622
  12   2.0000      -0.402714       -10.9584
  13   2.0000      -0.393299       -10.7022
  14   2.0000      -0.357247        -9.7212
  15   2.0000      -0.350288        -9.5318
  16   2.0000      -0.328942        -8.9510
  17   2.0000      -0.325448        -8.8559
  18   2.0000      -0.311946        -8.4885
  19   2.0000      -0.284310        -7.7365
  20   2.0000      -0.232618        -6.3299
  21   0.0000       0.061358         1.6696
  22   0.0000       0.107173         2.9163
  23   0.0000       0.118710         3.2303
  24   0.0000       0.132026         3.5926
  25   0.0000       0.139747         3.8027

MULLIKEN ATOMIC CHARGES
-----------------------
   0 C :   -0.493276
   1 C :   -0.240611
   2 C :    0.059378
   3 H :    0.125353
   4 C :   -0.483730
   5 O :   -0.421520
   6 H :    0.153505
   7 H :    0.151684
   8 H :    0.132461
   9 H :    0.132475
  10 H :    0.153561
  11 H :    0.156440
  12 H :    0.149506
  13 H :    0.140262
  14 H :    0.284512
Sum of atomic charges:    0.0000000

LOEWDIN ATOMIC CHARGES
----------------------
   0 C :   -0.426046
   1 C :   -0.299685
   2 C :    0.045672
   3 H :    0.158352
   4 C :   -0.383900
   5 O :   -0.612979
   6 H :    0.155135
   7 H :    0.152531
   8 H :    0.144460
   9 H :    0.158717
  10 H :    0.163137
  11 H :    0.162447
  12 H :    0.160895
  13 H :    0.155718
  14 H :    0.265547

  Mayer bond orders larger than 0.100000
B(  0-C ,  1-C ) :   0.8880 B(  0-C ,  6-H ) :   0.9715 B(  0-C ,  7-H ) :   0.9839
B(  0-C ,  8-H ) :   0.9784 B(  1-C ,  2-C ) :   0.9169 B(  1-C ,  9-H ) :   0.9651
B(  1-C , 10-H ) :   0.9710 B(  2-C ,  3-H ) :   0.9507 B(  2-C ,  4-C ) :   0.9468
B(  2-C ,  5-O ) :   0.8430 B(  4-C , 11-H ) :   0.9708 B(  4-C , 12-H ) :   0.9803
B(  4-C , 13-H ) :   0.9770 B(  5-O , 14-H ) :   0.9002

Dispersion correction           -0.003149911
FINAL SINGLE POINT ENERGY      -233.604338071013

DIPOLE MOMENT
-------------

Method             : SCF
Type of density    : Electron Density
Multiplicity       :   1
Irrep              :   0
Energy             :  -233.6094124589997136 Eh
Relativity type    :
Basis              : AO
                                X                 Y                 Z
Electronic contribution:     -1.662607360      -2.583235466       0.176575930
Nuclear contribution   :      2.187021542       2.872357757      -0.384990844
                        -----------------------------------------
Total Dipole Moment    :      0.524414182       0.289122291      -0.208414914
                        -----------------------------------------
Magnitude (a.u.)       :      0.634065225
Magnitude (Debye)      :      1.611665721

Rotational constants in cm-1:             0.270037             0.114661             0.089026
Rotational constants in MHz :          8095.509549          3437.438892          2668.926825

                             ****ORCA TERMINATED NORMALLY****
TOTAL RUN TIME: 0 days 0 hours 0 minutes 10 seconds 432 msec
