                         Program Version 6.0.1  -  RELEASE   -
|  1> ! pbe def2-sv(p) def2/J RI DEFGRID1 loosescf d4 GCP(DFT/SV(P)) printgap
|  2> %output
|  3>     printlevel normal
|  4> end
|  5> * xyz 0 1
|  6> C 1.5920857255 1.523500161 1.3143884244
|  7> C 0.2567616885 0.7792778685 1.4234165927
|  8> H -0.2064251382 1.1333729245 2.3487858494
|  9> C 0.2561793492 -0.7785628846 1.4239016838
| 10> H -0.2067969043 -1.1318986382 2.3496553892
| 11> C 1.5911637057 -1.5233943395 1.3145582474
| 12> O 2.3069472475 -1.2551380048 0.1428504162
| 13> S 3.4004021199 -0.0005924179 0.2158213812
| 14> O 3.9029320192 -0.000671181 1.5623011439
| 15> O 2.3079003052 1.255028165 0.1427762203
| 16> C -0.7114568082 -1.1150883338 0.2548878069
| 17> C -0.0754724849 -0.6712301573 -1.0483962999
| 18> C -0.0747699728 0.6700895216 -1.0489029231
| 19> C -0.7104637276 1.1155584203 0.2539950846
| 20> C -1.7709790808 0.0007547978 0.4117907308
| 21> Cl -2.984578314 0.0005760932 -0.8724756113
| 22> Cl -2.6083280356 0.0015684247 1.9602228717
| 23> Cl -1.3085496768 2.7600559352 0.2735815295
| 24> Cl 0.4913019655 1.7341065799 -2.2286952058
| 25> Cl 0.4894969244 -1.7367894453 -2.2274004545
| 26> Cl -1.3111269179 -2.7589786641 0.2758592973
| 27> H 2.2188226032 1.2740367762 2.1817265504
| 28> H 1.3877843768 2.598560175 1.3280311372
| 29> H 2.2182211351 -1.2741677859 2.1817609672
| 30> H 1.3864109576 -2.5984035817 1.3282589538
| 31> *
| 32>
| 33>                          ****END OF INPUT****

CARTESIAN COORDINATES (ANGSTROEM)
---------------------------------
  C      1.592086    1.523500    1.314388
  C      0.256762    0.779278    1.423417
  H     -0.206425    1.133373    2.348786
  C      0.256179   -0.778563    1.423902
  H     -0.206797   -1.131899    2.349655
  C      1.591164   -1.523394    1.314558
  O      2.306947   -1.255138    0.142850
  S      3.400402   -0.000592    0.215821
  O      3.902932   -0.000671    1.562301
  O      2.307900    1.255028    0.142776
  C     -0.711457   -1.115088    0.254888
  C     -0.075472   -0.671230   -1.048396
  C     -0.074770    0.670090   -1.048903
  C     -0.710464    1.115558    0.253995
  C     -1.770979    0.000755    0.411791
  Cl    -2.984578    0.000576   -0.872476
  Cl    -2.608328    0.001568    1.960223
  Cl    -1.308550    2.760056    0.273582
  Cl     0.491302    1.734107   -2.228695
  Cl     0.489497   -1.736789   -2.227400
  Cl    -1.311127   -2.758979    0.275859
  H      2.218823    1.274037    2.181727
  H      1.387784    2.598560    1.328031
  H      2.218221   -1.274168    2.181761
  H      1.386411   -2.598404    1.328259

 Total Charge           Charge          ....    0
 Multiplicity           Mult            ....    1
 Number of Electrons    NEL             ....  202
 Basis Dimension        Dim             ....  306

ORBITAL ENERGIES
----------------

  NO   OCC          E(Eh)            E(eV)
   0   2.0000    -100.662876     -2739.1761
   1   2.0000    -100.661323     -2739.1339
   2   2.0000    -100.661289     -2739.1329
   3   2.0000    -100.654476     -2738.9475
   4   2.0000    -100.654465     -2738.9472
   5   2.0000    -100.650502     -2738.8394
   6   2.0000     -88.210936     -2400.3416
   7   2.0000     -18.805136      -511.7138
   8   2.0000     -18.805070      -511.7120
   9   2.0000     -18.777362      -510.9580
  10   2.0000     -10.035746      -273.0865
  11   2.0000     -10.002498      -272.1818
  12   2.0000     -10.002443      -272.1803
  13   2.0000      -9.970873      -271.3212
  14   2.0000      -9.970315      -271.3061
  15   2.0000      -9.966330      -271.1976
  16   2.0000      -9.966260      -271.1957
  17   2.0000      -9.944777      -270.6111
  18   2.0000      -9.944685      -270.6086
  19   2.0000      -9.198855      -250.3136
  20   2.0000      -9.197095      -250.2657
  21   2.0000      -9.197056      -250.2646
  22   2.0000      -9.190275      -250.0801
  23   2.0000      -9.190263      -250.0798
  24   2.0000      -9.186479      -249.9768
  25   2.0000      -7.838214      -213.2887
  26   2.0000      -7.030442      -191.3080
  27   2.0000      -7.028629      -191.2587
  28   2.0000      -7.028621      -191.2585
  29   2.0000      -7.021912      -191.0759
  30   2.0000      -7.021903      -191.0757
  31   2.0000      -7.018496      -190.9830
  32   2.0000      -7.018438      -190.9814
  33   2.0000      -7.018289      -190.9774
  34   2.0000      -7.017024      -190.9429
  35   2.0000      -7.017019      -190.9428
  36   2.0000      -7.016251      -190.9219
  37   2.0000      -7.016236      -190.9215
  38   2.0000      -7.009918      -190.7496
  39   2.0000      -7.009909      -190.7493
  40   2.0000      -7.009654      -190.7424
  41   2.0000      -7.009646      -190.7422
  42   2.0000      -7.005891      -190.6400
  43   2.0000      -7.005698      -190.6347
  44   2.0000      -5.866403      -159.6329
  45   2.0000      -5.865924      -159.6199
  46   2.0000      -5.855707      -159.3419
  47   2.0000      -1.054364       -28.6907
  48   2.0000      -0.963731       -26.2245
  49   2.0000      -0.951278       -25.8856
  50   2.0000      -0.909823       -24.7576
  51   2.0000      -0.835703       -22.7406
  52   2.0000      -0.825411       -22.4606
  53   2.0000      -0.802579       -21.8393
  54   2.0000      -0.790804       -21.5189
  55   2.0000      -0.772933       -21.0326
  56   2.0000      -0.766988       -20.8708
  57   2.0000      -0.730986       -19.8912
  58   2.0000      -0.688822       -18.7438
  59   2.0000      -0.677070       -18.4240
  60   2.0000      -0.625613       -17.0238
  61   2.0000      -0.621552       -16.9133
  62   2.0000      -0.559232       -15.2175
  63   2.0000      -0.553311       -15.0564
  64   2.0000      -0.527249       -14.3472
  65   2.0000      -0.504904       -13.7391
  66   2.0000      -0.498482       -13.5644
  67   2.0000      -0.495294       -13.4776
  68   2.0000      -0.479767       -13.0551
  69   2.0000      -0.472368       -12.8538
  70   2.0000      -0.461511       -12.5583
  71   2.0000      -0.449118       -12.2211
  72   2.0000      -0.424886       -11.5617
  73   2.0000      -0.422227       -11.4894
  74   2.0000      -0.421823       -11.4784
  75   2.0000      -0.411072       -11.1858
  76   2.0000      -0.397094       -10.8055
  77   2.0000      -0.395286       -10.7563
  78   2.0000      -0.388890       -10.5822
  79   2.0000      -0.386578       -10.5193
  80   2.0000      -0.359556        -9.7840
  81   2.0000      -0.354539        -9.6475
  82   2.0000      -0.341805        -9.3010
  83   2.0000      -0.340649        -9.2695
  84   2.0000      -0.322626        -8.7791
  85   2.0000      -0.315582        -8.5874
  86   2.0000      -0.309637        -8.4257
  87   2.0000      -0.299674        -8.1545
  88   2.0000      -0.292511        -7.9596
  89   2.0000      -0.287565        -7.8250
  90   2.0000      -0.285996        -7.7823
  91   2.0000      -0.283471        -7.7136
  92   2.0000      -0.282867        -7.6972
  93   2.0000      -0.277660        -7.5555
  94   2.0000      -0.276397        -7.5211
  95   2.0000      -0.272433        -7.4133
  96   2.0000      -0.268208        -7.2983
  97   2.0000      -0.267930        -7.2908
  98   2.0000      -0.266917        -7.2632
  99   2.0000      -0.250764        -6.8236
 100   2.0000      -0.214434        -5.8351
 101   0.0000      -0.058680        -1.5968
 102   0.0000      -0.053328        -1.4511
 103   0.0000      -0.037158        -1.0111
 104   0.0000      -0.017072        -0.4645
 105   0.0000      -0.013601        -0.3701

MULLIKEN ATOMIC CHARGES
-----------------------
   0 C :    0.045803
   1 C :   -0.068710
   2 H :    0.095141
   3 C :   -0.068633
   4 H :    0.095145
   5 C :    0.045667
   6 O :   -0.403618
   7 S :    0.858650
   8 O :   -0.418938
   9 O :   -0.403644
  10 C :   -0.105804
  11 C :    0.068647
  12 C :    0.068520
  13 C :   -0.105777
  14 C :   -0.139467
  15 Cl:    0.014573
  16 Cl:    0.005429
  17 Cl:   -0.023606
  18 Cl:   -0.006597
  19 Cl:   -0.006616
  20 Cl:   -0.023588
  21 H :    0.128980
  22 H :    0.109707
  23 H :    0.129012
  24 H :    0.109725
Sum of atomic charges:   -0.0000000

LOEWDIN ATOMIC CHARGES
----------------------
   0 C :   -0.149425
   1 C :   -0.154142
   2 H :    0.135443
   3 C :   -0.154119
   4 H :    0.135451
   5 C :   -0.149406
   6 O :   -0.293615
   7 S :    0.925705
   8 O :   -0.447540
   9 O :   -0.293687
  10 C :   -0.167694
  11 C :   -0.211601
  12 C :   -0.211637
  13 C :   -0.167656
  14 C :   -0.230560
  15 Cl:    0.128314
  16 Cl:    0.139972
  17 Cl:    0.134424
  18 Cl:    0.204040
  19 Cl:    0.203997
  20 Cl:    0.134434
  21 H :    0.117994
  22 H :    0.126659
  23 H :    0.117998
  24 H :    0.126649

  Mayer bond orders larger than 0.100000
B(  0-C ,  1-C ) :   1.0653 B(  0-C ,  9-O ) :   0.9860 B(  0-C , 21-H ) :   0.8928
B(  0-C , 22-H ) :   0.9038 B(  1-C ,  2-H ) :   0.8369 B(  1-C ,  3-C ) :   1.0020
B(  1-C , 13-C ) :   0.9989 B(  3-C ,  4-H ) :   0.8369 B(  3-C ,  5-C ) :   1.0652
B(  3-C , 10-C ) :   0.9990 B(  5-C ,  6-O ) :   0.9859 B(  5-C , 23-H ) :   0.8928
B(  5-C , 24-H ) :   0.9038 B(  6-O ,  7-S ) :   0.8973 B(  7-S ,  8-O ) :   1.7600
B(  7-S ,  9-O ) :   0.8971 B( 10-C , 11-C ) :   0.9106 B( 10-C , 14-C ) :   0.8323
B( 10-C , 20-Cl) :   1.1273 B( 11-C , 12-C ) :   1.7672 B( 11-C , 19-Cl) :   1.1395
B( 12-C , 13-C ) :   0.9106 B( 12-C , 18-Cl) :   1.1395 B( 13-C , 14-C ) :   0.8323
B( 13-C , 17-Cl) :   1.1272 B( 14-C , 15-Cl) :   1.1533 B( 14-C , 16-Cl) :   1.1298

Dispersion correction           -0.062207451
FINAL SINGLE POINT ENERGY     -3728.110308717326

DIPOLE MOMENT
-------------

Method             : SCF
Type of density    : Electron Density
Multiplicity       :   1
Irrep              :   0
Energy             : -3728.1627041411184109 Eh
Relativity type    :
Basis              : AO
                                X                 Y                 Z
Electronic contribution:    -15.835898702      -0.000966388     -14.185531374
Nuclear contribution   :     16.111810367       0.000689397      14.798399547
                        -----------------------------------------
Total Dipole Moment    :      0.275911665      -0.000276991       0.612868173
                        -----------------------------------------
Magnitude (a.u.)       :      0.672112134
Magnitude (Debye)      :      1.708373278

Rotational constants in cm-1:             0.010275             0.007288             0.006634
Rotational constants in MHz :           308.041500           218.496220           198.878796

                             ****ORCA TERMINATED NORMALLY****
TOTAL RUN TIME: 0 days 0 hours 0 minutes 17 seconds 604 msec
