                         Program Version 6.0.1  -  RELEASE   -
|  1> ! pbe def2-sv(p) def2/J RI DEFGRID1 loosescf d4 GCP(DFT/SV(P)) printgap
|  2> %output
|  3>     printlevel normal
|  4> end
|  5> * xyz 0 1
|  6> C -2.4752476072 -1.1810211441 -0.0037681085
|  7> C -1.6921741442 0.1097038872 0.0002182982
|  8> O -2.2476171572 1.1858599496 0.0031920767
|  9> C -0.209335244 0.0046184776 0.0005081757
| 10> C 0.524720065 1.1918728876 -0.0013604437
| 11> C 1.9051987096 1.169200121 -0.001986807
| 12> C 2.5748495472 -0.0439737391 -0.0005620021
| 13> C 1.8570471883 -1.2293602468 0.0016949241
| 14> C 0.4744373183 -1.2102750014 0.0021815766
| 15> H -2.2310877881 -1.7646193952 -0.888690575
| 16> H -3.5382055344 -0.9533870324 -0.0055172023
| 17> H -2.2349394959 -1.7678710981 0.8800728187
| 18> H -0.0171005076 2.1260502145 -0.0023640521
| 19> H 2.4612700165 2.0949210644 -0.0035906988
| 20> H 3.6546743454 -0.0671858703 -0.0011560833
| 21> H 2.3795827392 -2.1748559395 0.0030898398
| 22> H -0.0634174126 -2.1454470222 0.0041219679
| 23> *
| 24>
| 25>                          ****END OF INPUT****

CARTESIAN COORDINATES (ANGSTROEM)
---------------------------------
  C     -2.475248   -1.181021   -0.003768
  C     -1.692174    0.109704    0.000218
  O     -2.247617    1.185860    0.003192
  C     -0.209335    0.004618    0.000508
  C      0.524720    1.191873   -0.001360
  C      1.905199    1.169200   -0.001987
  C      2.574850   -0.043974   -0.000562
  C      1.857047   -1.229360    0.001695
  C      0.474437   -1.210275    0.002182
  H     -2.231088   -1.764619   -0.888691
  H     -3.538206   -0.953387   -0.005517
  H     -2.234939   -1.767871    0.880073
  H     -0.017101    2.126050   -0.002364
  H      2.461270    2.094921   -0.003591
  H      3.654674   -0.067186   -0.001156
  H      2.379583   -2.174856    0.003090
  H     -0.063417   -2.145447    0.004122

 Total Charge           Charge          ....    0
 Multiplicity           Mult            ....    1
 Number of Electrons    NEL             ....   64
 Basis Dimension        Dim             ....  142

ORBITAL ENERGIES
----------------

  NO   OCC          E(Eh)            E(eV)
   0   2.0000     -18.737389      -509.8703
   1   2.0000      -9.973598      -271.3954
   2   2.0000      -9.907916      -269.6081
   3   2.0000      -9.907876      -269.6070
   4   2.0000      -9.906065      -269.5577
   5   2.0000      -9.904506      -269.5153
   6   2.0000      -9.903884      -269.4984
   7   2.0000      -9.901539      -269.4346
   8   2.0000      -9.887747      -269.0593
   9   2.0000      -0.939007       -25.5517
  10   2.0000      -0.788479       -21.4556
  11   2.0000      -0.702045       -19.1036
  12   2.0000      -0.682106       -18.5611
  13   2.0000      -0.658988       -17.9320
  14   2.0000      -0.569045       -15.4845
  15   2.0000      -0.550398       -14.9771
  16   2.0000      -0.501769       -13.6538
  17   2.0000      -0.459266       -12.4973
  18   2.0000      -0.422714       -11.5026
  19   2.0000      -0.407950       -11.1009
  20   2.0000      -0.404418       -11.0048
  21   2.0000      -0.403104       -10.9690
  22   2.0000      -0.385354       -10.4860
  23   2.0000      -0.364008        -9.9052
  24   2.0000      -0.347479        -9.4554
  25   2.0000      -0.347150        -9.4464
  26   2.0000      -0.319360        -8.6902
  27   2.0000      -0.319078        -8.6825
  28   2.0000      -0.307672        -8.3722
  29   2.0000      -0.243703        -6.6315
  30   2.0000      -0.239405        -6.5145
  31   2.0000      -0.200670        -5.4605
  32   0.0000      -0.087685        -2.3860
  33   0.0000      -0.045658        -1.2424
  34   0.0000       0.001576         0.0429
  35   0.0000       0.034845         0.9482
  36   0.0000       0.055787         1.5180

MULLIKEN ATOMIC CHARGES
-----------------------
   0 C :   -0.250401
   1 C :   -0.014732
   2 O :   -0.149965
   3 C :    0.093345
   4 C :   -0.106317
   5 C :   -0.038168
   6 C :   -0.040443
   7 C :   -0.038274
   8 C :   -0.122392
   9 H :    0.126608
  10 H :    0.117929
  11 H :    0.126722
  12 H :    0.066435
  13 H :    0.060829
  14 H :    0.061950
  15 H :    0.056646
  16 H :    0.050228
Sum of atomic charges:   -0.0000000

LOEWDIN ATOMIC CHARGES
----------------------
   0 C :   -0.363479
   1 C :    0.043952
   2 O :   -0.122181
   3 C :   -0.079151
   4 C :   -0.084315
   5 C :   -0.119026
   6 C :   -0.106368
   7 C :   -0.121035
   8 C :   -0.107441
   9 H :    0.141178
  10 H :    0.135928
  11 H :    0.141243
  12 H :    0.134221
  13 H :    0.127325
  14 H :    0.127047
  15 H :    0.126132
  16 H :    0.125969

  Mayer bond orders larger than 0.100000
B(  0-C ,  1-C ) :   1.1199 B(  0-C ,  9-H ) :   0.9172 B(  0-C , 10-H ) :   0.9306
B(  0-C , 11-H ) :   0.9169 B(  1-C ,  2-O ) :   2.1767 B(  1-C ,  3-C ) :   0.9218
B(  3-C ,  4-C ) :   1.3741 B(  3-C ,  8-C ) :   1.3553 B(  4-C ,  5-C ) :   1.3623
B(  4-C , 12-H ) :   0.9558 B(  5-C ,  6-C ) :   1.3575 B(  5-C , 13-H ) :   0.9675
B(  6-C ,  7-C ) :   1.3806 B(  6-C , 14-H ) :   0.9643 B(  7-C ,  8-C ) :   1.3795
B(  7-C , 15-H ) :   0.9610 B(  8-C , 16-H ) :   0.9472

Dispersion correction           -0.017498130
FINAL SINGLE POINT ENERGY      -384.065490591739

DIPOLE MOMENT
-------------

Method             : SCF
Type of density    : Electron Density
Multiplicity       :   1
Irrep              :   0
Energy             :  -384.1121949009809100 Eh
Relativity type    :
Basis              : AO
                                X                 Y                 Z
Electronic contribution:      0.377491537       3.511894202       0.010811334
Nuclear contribution   :      0.352081174      -4.347170498      -0.013118978
                        -----------------------------------------
Total Dipole Moment    :      0.729572711      -0.835276296      -0.002307643
                        -----------------------------------------
Magnitude (a.u.)       :      1.109039294
Magnitude (Debye)      :      2.818953861

Rotational constants in cm-1:             0.124115             0.041164             0.031092
Rotational constants in MHz :          3720.882087          1234.066818           932.105474

                             ****ORCA TERMINATED NORMALLY****
TOTAL RUN TIME: 0 days 0 hours 0 minutes 13 seconds 708 msec
