                         Program Version 6.0.1  -  RELEASE   -
|  1> ! pbe def2-sv(p) def2/J RI DEFGRID1 loosescf d4 GCP(DFT/SV(P)) printgap
|  2> %output
|  3>     printlevel normal
|  4> end
|  5> * xyz 0 1
|  6> C -3.0650140601 -0.9171200577 0.2096749092
|  7> O -1.9062287898 -0.5660148656 -0.5316954475
|  8> C -1.0730463472 0.3073396561 0.0552140345
|  9> O -1.2870643151 0.785365461 1.1376435636
| 10> C 0.109004205 0.6215149252 -0.8437571705
| 11> C 0.7958500781 -0.6623050474 -1.3247936462
| 12> C 1.4924102812 -1.3697434349 -0.1665990288
| 13> C 2.5169818876 -0.4432089883 0.4801349518
| 14> C 1.8357036502 0.8226818252 0.9890889574
| 15> C 1.1093195207 1.5436107974 -0.1436535068
| 16> H -2.7840508579 -1.3973323815 1.1494414333
| 17> H -3.6304341796 -1.6035830969 -0.4152781218
| 18> H -3.6556481518 -0.026742478 0.4351875635
| 19> H -0.3136270772 1.1370328407 -1.7152181942
| 20> H 0.058477374 -1.3216272932 -1.7844352721
| 21> H 1.536381057 -0.3977317599 -2.0831896031
| 22> H 0.7507738336 -1.6656481428 0.5790486371
| 23> H 1.9818359611 -2.2756541029 -0.5309050199
| 24> H 3.0136050654 -0.955419826 1.3066006233
| 25> H 3.2796859399 -0.1779043369 -0.2565141578
| 26> H 1.114371889 0.563710798 1.7647631826
| 27> H 2.575724671 1.4935464208 1.4300286838
| 28> H 0.5819553821 2.4109292342 0.2564808396
| 29> H 1.8361518064 1.8931336299 -0.8804581608
| 30> *
| 31>
| 32>                          ****END OF INPUT****

CARTESIAN COORDINATES (ANGSTROEM)
---------------------------------
  C     -3.065014   -0.917120    0.209675
  O     -1.906229   -0.566015   -0.531695
  C     -1.073046    0.307340    0.055214
  O     -1.287064    0.785365    1.137644
  C      0.109004    0.621515   -0.843757
  C      0.795850   -0.662305   -1.324794
  C      1.492410   -1.369743   -0.166599
  C      2.516982   -0.443209    0.480135
  C      1.835704    0.822682    0.989089
  C      1.109320    1.543611   -0.143654
  H     -2.784051   -1.397332    1.149441
  H     -3.630434   -1.603583   -0.415278
  H     -3.655648   -0.026742    0.435188
  H     -0.313627    1.137033   -1.715218
  H      0.058477   -1.321627   -1.784435
  H      1.536381   -0.397732   -2.083190
  H      0.750774   -1.665648    0.579049
  H      1.981836   -2.275654   -0.530905
  H      3.013605   -0.955420    1.306601
  H      3.279686   -0.177904   -0.256514
  H      1.114372    0.563711    1.764763
  H      2.575725    1.493546    1.430029
  H      0.581955    2.410929    0.256481
  H      1.836152    1.893134   -0.880458

 Total Charge           Charge          ....    0
 Multiplicity           Mult            ....    1
 Number of Electrons    NEL             ....   78
 Basis Dimension        Dim             ....  168

ORBITAL ENERGIES
----------------

  NO   OCC          E(Eh)            E(eV)
   0   2.0000     -18.797332      -511.5014
   1   2.0000     -18.739974      -509.9406
   2   2.0000     -10.005311      -272.2584
   3   2.0000      -9.940053      -270.4826
   4   2.0000      -9.904286      -269.5093
   5   2.0000      -9.887023      -269.0396
   6   2.0000      -9.882763      -268.9236
   7   2.0000      -9.881774      -268.8967
   8   2.0000      -9.879025      -268.8219
   9   2.0000      -9.874531      -268.6997
  10   2.0000      -1.007019       -27.4024
  11   2.0000      -0.917275       -24.9603
  12   2.0000      -0.760358       -20.6904
  13   2.0000      -0.690363       -18.7857
  14   2.0000      -0.665912       -18.1204
  15   2.0000      -0.648170       -17.6376
  16   2.0000      -0.558429       -15.1956
  17   2.0000      -0.540260       -14.7012
  18   2.0000      -0.514629       -14.0038
  19   2.0000      -0.492415       -13.3993
  20   2.0000      -0.447715       -12.1829
  21   2.0000      -0.435424       -11.8485
  22   2.0000      -0.425068       -11.5667
  23   2.0000      -0.411996       -11.2110
  24   2.0000      -0.392531       -10.6813
  25   2.0000      -0.390174       -10.6172
  26   2.0000      -0.378221       -10.2919
  27   2.0000      -0.356993        -9.7143
  28   2.0000      -0.334635        -9.1059
  29   2.0000      -0.333096        -9.0640
  30   2.0000      -0.327031        -8.8990
  31   2.0000      -0.325114        -8.8468
  32   2.0000      -0.301499        -8.2042
  33   2.0000      -0.300417        -8.1748
  34   2.0000      -0.281625        -7.6634
  35   2.0000      -0.263747        -7.1769
  36   2.0000      -0.258411        -7.0317
  37   2.0000      -0.255338        -6.9481
  38   2.0000      -0.220799        -6.0082
  39   0.0000      -0.023535        -0.6404
  40   0.0000       0.034286         0.9330
  41   0.0000       0.046654         1.2695
  42   0.0000       0.066020         1.7965
  43   0.0000       0.076587         2.0840

MULLIKEN ATOMIC CHARGES
-----------------------
   0 C :   -0.109469
   1 O :   -0.245765
   2 C :    0.130735
   3 O :   -0.185569
   4 C :   -0.183571
   5 C :   -0.124208
   6 C :   -0.161564
   7 C :   -0.154926
   8 C :   -0.167122
   9 C :   -0.095384
  10 H :    0.115707
  11 H :    0.119885
  12 H :    0.117228
  13 H :    0.096290
  14 H :    0.098597
  15 H :    0.077667
  16 H :    0.086483
  17 H :    0.085439
  18 H :    0.083781
  19 H :    0.070548
  20 H :    0.098480
  21 H :    0.082365
  22 H :    0.091665
  23 H :    0.072707
Sum of atomic charges:    0.0000000

LOEWDIN ATOMIC CHARGES
----------------------
   0 C :   -0.207029
   1 O :   -0.076367
   2 C :    0.045305
   3 O :   -0.147090
   4 C :   -0.167424
   5 C :   -0.214207
   6 C :   -0.227728
   7 C :   -0.226280
   8 C :   -0.231150
   9 C :   -0.213405
  10 H :    0.117254
  11 H :    0.119260
  12 H :    0.117816
  13 H :    0.138783
  14 H :    0.119808
  15 H :    0.116398
  16 H :    0.115150
  17 H :    0.117210
  18 H :    0.115601
  19 H :    0.111407
  20 H :    0.121450
  21 H :    0.116342
  22 H :    0.123192
  23 H :    0.115705

  Mayer bond orders larger than 0.100000
B(  0-C ,  1-O ) :   0.9510 B(  0-C , 10-H ) :   0.9514 B(  0-C , 11-H ) :   0.9588
B(  0-C , 12-H ) :   0.9516 B(  1-O ,  2-C ) :   1.1923 B(  2-C ,  3-O ) :   2.0625
B(  2-C ,  4-C ) :   0.9471 B(  4-C ,  5-C ) :   1.0820 B(  4-C ,  9-C ) :   1.0977
B(  4-C , 13-H ) :   0.8617 B(  5-C ,  6-C ) :   1.1282 B(  5-C , 14-H ) :   0.9103
B(  5-C , 15-H ) :   0.9113 B(  6-C ,  7-C ) :   1.1286 B(  6-C , 16-H ) :   0.9115
B(  6-C , 17-H ) :   0.9175 B(  7-C ,  8-C ) :   1.1304 B(  7-C , 18-H ) :   0.9195
B(  7-C , 19-H ) :   0.9149 B(  8-C ,  9-C ) :   1.1289 B(  8-C , 20-H ) :   0.9107
B(  8-C , 21-H ) :   0.9174 B(  9-C , 22-H ) :   0.9083 B(  9-C , 23-H ) :   0.9108

Dispersion correction           -0.023737347
FINAL SINGLE POINT ENERGY      -462.707076370177

DIPOLE MOMENT
-------------

Method             : SCF
Type of density    : Electron Density
Multiplicity       :   1
Irrep              :   0
Energy             :  -462.7951727525321530 Eh
Relativity type    :
Basis              : AO
                                X                 Y                 Z
Electronic contribution:     -6.074685007       1.777869807       0.221476137
Nuclear contribution   :      5.905515990      -2.176382678      -0.689432273
                        -----------------------------------------
Total Dipole Moment    :     -0.169169017      -0.398512871      -0.467956136
                        -----------------------------------------
Magnitude (a.u.)       :      0.637505773
Magnitude (Debye)      :      1.620410898

Rotational constants in cm-1:             0.078792             0.031942             0.028345
Rotational constants in MHz :          2362.126489           957.611409           849.773827

                             ****ORCA TERMINATED NORMALLY****
TOTAL RUN TIME: 0 days 0 hours 0 minutes 8 seconds 465 msec
