                         Program Version 6.0.1  -  RELEASE   -
|  1> ! r2scan-3c def2/J RI DEFGRID2 scfconv6 printgap
|  2> %output
|  3>     printlevel normal
|  4> end
|  5> * xyz 0 1
|  6> C -1.0884684352 -1.8882858759 -0.0002605895
|  7> C -0.0102698813 -0.8583408651 -0.0001469182
|  8> C 1.3244938357 -1.2458908484 0.0001236917
|  9> C 2.3476694126 -0.3157198622 0.000233601
| 10> C 2.0556389961 1.0402888287 6.23777e-05
| 11> C 0.7386600167 1.4474552482 -0.0001193258
| 12> C -0.3047062117 0.5170599619 -0.0002153565
| 13> C -1.6755921412 1.0312505061 -0.0002094187
| 14> O -2.6976551108 0.3907945 0.000507956
| 15> H -1.7281652454 -1.7675639446 0.8726180145
| 16> H -1.7283961845 -1.7670926393 -0.872913481
| 17> H -0.6662475793 -2.8904228019 -0.0005750144
| 18> H 1.5643183515 -2.2996645499 0.0002759022
| 19> H 3.3757036462 -0.6470001742 0.0004285617
| 20> H 2.8520306488 1.769069324 -5.10215e-05
| 21> H 0.498822379 2.501616723 -0.0004453821
| 22> H -1.712966902 2.1411526847 -0.0010618377
| 23> *
| 24>
| 25>                          ****END OF INPUT****

CARTESIAN COORDINATES (ANGSTROEM)
---------------------------------
  C     -1.088468   -1.888286   -0.000261
  C     -0.010270   -0.858341   -0.000147
  C      1.324494   -1.245891    0.000124
  C      2.347669   -0.315720    0.000234
  C      2.055639    1.040289    0.000062
  C      0.738660    1.447455   -0.000119
  C     -0.304706    0.517060   -0.000215
  C     -1.675592    1.031251   -0.000209
  O     -2.697655    0.390794    0.000508
  H     -1.728165   -1.767564    0.872618
  H     -1.728396   -1.767093   -0.872913
  H     -0.666248   -2.890423   -0.000575
  H      1.564318   -2.299665    0.000276
  H      3.375704   -0.647000    0.000429
  H      2.852031    1.769069   -0.000051
  H      0.498822    2.501617   -0.000445
  H     -1.712967    2.141153   -0.001062

 Total Charge           Charge          ....    0
 Multiplicity           Mult            ....    1
 Number of Electrons    NEL             ....   64
 Basis Dimension        Dim             ....  216

ORBITAL ENERGIES
----------------

  NO   OCC          E(Eh)            E(eV)
   0   2.0000     -18.944746      -515.5127
   1   2.0000     -10.116401      -275.2813
   2   2.0000     -10.064626      -273.8724
   3   2.0000     -10.056068      -273.6395
   4   2.0000     -10.054869      -273.6069
   5   2.0000     -10.052825      -273.5513
   6   2.0000     -10.048630      -273.4371
   7   2.0000     -10.046485      -273.3787
   8   2.0000     -10.026198      -272.8267
   9   2.0000      -1.012469       -27.5507
  10   2.0000      -0.847194       -23.0533
  11   2.0000      -0.757039       -20.6001
  12   2.0000      -0.746098       -20.3024
  13   2.0000      -0.669843       -18.2274
  14   2.0000      -0.617717       -16.8089
  15   2.0000      -0.583955       -15.8902
  16   2.0000      -0.538105       -14.6426
  17   2.0000      -0.487116       -13.2551
  18   2.0000      -0.456923       -12.4335
  19   2.0000      -0.438347       -11.9280
  20   2.0000      -0.408681       -11.1208
  21   2.0000      -0.406379       -11.0581
  22   2.0000      -0.405302       -11.0288
  23   2.0000      -0.388544       -10.5728
  24   2.0000      -0.365163        -9.9366
  25   2.0000      -0.358207        -9.7473
  26   2.0000      -0.342860        -9.3297
  27   2.0000      -0.335418        -9.1272
  28   2.0000      -0.323639        -8.8067
  29   2.0000      -0.255460        -6.9514
  30   2.0000      -0.242420        -6.5966
  31   2.0000      -0.220606        -6.0030
  32   0.0000      -0.093820        -2.5530
  33   0.0000      -0.043318        -1.1788
  34   0.0000       0.004446         0.1210
  35   0.0000       0.079136         2.1534
  36   0.0000       0.083557         2.2737

MULLIKEN ATOMIC CHARGES
-----------------------
   0 C :   -0.487137
   1 C :    0.114586
   2 C :   -0.209519
   3 C :   -0.114312
   4 C :   -0.164521
   5 C :   -0.217585
   6 C :    0.207176
   7 C :    0.017869
   8 O :   -0.347205
   9 H :    0.180458
  10 H :    0.180420
  11 H :    0.139137
  12 H :    0.151210
  13 H :    0.148758
  14 H :    0.148629
  15 H :    0.152077
  16 H :    0.099960
Sum of atomic charges:   -0.0000000

LOEWDIN ATOMIC CHARGES
----------------------
   0 C :   -0.370238
   1 C :   -0.038655
   2 C :   -0.160061
   3 C :   -0.133308
   4 C :   -0.170203
   5 C :   -0.128870
   6 C :   -0.099651
   7 C :    0.210148
   8 O :   -0.464939
   9 H :    0.181861
  10 H :    0.181850
  11 H :    0.153022
  12 H :    0.171003
  13 H :    0.170175
  14 H :    0.169644
  15 H :    0.172663
  16 H :    0.155559

  Mayer bond orders larger than 0.100000
B(  0-C ,  1-C ) :   0.8797 B(  0-C ,  9-H ) :   0.9571 B(  0-C , 10-H ) :   0.9571
B(  0-C , 11-H ) :   0.9888 B(  1-C ,  2-C ) :   1.4060 B(  1-C ,  6-C ) :   1.4200
B(  2-C ,  3-C ) :   1.4243 B(  2-C , 12-H ) :   0.9302 B(  3-C ,  4-C ) :   1.4054
B(  3-C , 13-H ) :   0.9477 B(  4-C ,  5-C ) :   1.4299 B(  4-C , 14-H ) :   0.9517
B(  5-C ,  6-C ) :   1.3126 B(  5-C , 15-H ) :   0.9301 B(  6-C ,  7-C ) :   0.8810
B(  6-C , 16-H ) :  -0.1205 B(  7-C ,  8-O ) :   1.8871 B(  7-C , 16-H ) :   1.0307

Dispersion correction           -0.005804920
FINAL SINGLE POINT ENERGY      -384.791532928495

DIPOLE MOMENT
-------------

Method             : SCF
Type of density    : Electron Density
Multiplicity       :   1
Irrep              :   0
Energy             :  -384.7913413505912672 Eh
Relativity type    :
Basis              : AO
                                X                 Y                 Z
Electronic contribution:     -1.082387507       2.815054856       0.001101807
Nuclear contribution   :      2.263336759      -2.771105534      -0.001610123
                        -----------------------------------------
Total Dipole Moment    :      1.180949252       0.043949321      -0.000508315
                        -----------------------------------------
Magnitude (a.u.)       :      1.181766871
Magnitude (Debye)      :      3.003812669

Rotational constants in cm-1:             0.102666             0.049084             0.033410
Rotational constants in MHz :          3077.856857          1471.511645          1001.605053

                             ****ORCA TERMINATED NORMALLY****
TOTAL RUN TIME: 0 days 0 hours 0 minutes 26 seconds 516 msec
