                         Program Version 6.0.1  -  RELEASE   -
|  1> ! pbe def2-sv(p) def2/J RI DEFGRID1 loosescf d4 GCP(DFT/SV(P)) printgap
|  2> %output
|  3>     printlevel normal
|  4> end
|  5> * xyz 0 1
|  6> C -4.7749082743 -0.9521126483 0.0042256397
|  7> N -3.3389726867 -1.0476389083 0.0600981773
|  8> C -2.5346235886 0.0371591441 -0.0129834139
|  9> O -2.923748933 1.1706639412 -0.1249765099
| 10> O -1.2463259485 -0.3862478355 0.0589250146
| 11> C -0.1396407877 0.4459107572 0.0304434567
| 12> C -0.17852806 1.8152930174 0.0354442179
| 13> C 1.0168216279 2.55025541 0.015655386
| 14> C 2.2291463527 1.9244764009 -0.004932726
| 15> C 2.3036149161 0.5156552647 -0.0073240706
| 16> C 1.1061474531 -0.2445429153 0.0095812247
| 17> C 1.1905514548 -1.6514554454 0.0060204423
| 18> C 2.4048688206 -2.2795857662 -0.0122116758
| 19> C 3.5900932325 -1.5303058288 -0.0276581264
| 20> C 3.5389848949 -0.164646188 -0.0257106344
| 21> H -5.0278041693 0.1037629868 -0.0740076374
| 22> H -5.2245804602 -1.3660587035 0.9087966182
| 23> H -5.1660171706 -1.4823564762 -0.8664593908
| 24> H -2.9107162045 -1.9547980271 0.1464850183
| 25> H -1.121633859 2.3344737627 0.0499600728
| 26> H 0.9572802167 3.6283517652 0.0181723482
| 27> H 3.1466598859 2.4944102476 -0.0192598576
| 28> H 0.2761966746 -2.2243009031 0.0179723184
| 29> H 2.4585272094 -3.3585148021 -0.0147263121
| 30> H 4.5416216584 -2.0415855407 -0.0414490386
| 31> H 4.4481529703 0.4192849165 -0.0378817336
| 32> *
| 33>
| 34>                          ****END OF INPUT****

CARTESIAN COORDINATES (ANGSTROEM)
---------------------------------
  C     -4.774908   -0.952113    0.004226
  N     -3.338973   -1.047639    0.060098
  C     -2.534624    0.037159   -0.012983
  O     -2.923749    1.170664   -0.124977
  O     -1.246326   -0.386248    0.058925
  C     -0.139641    0.445911    0.030443
  C     -0.178528    1.815293    0.035444
  C      1.016822    2.550255    0.015655
  C      2.229146    1.924476   -0.004933
  C      2.303615    0.515655   -0.007324
  C      1.106147   -0.244543    0.009581
  C      1.190551   -1.651455    0.006020
  C      2.404869   -2.279586   -0.012212
  C      3.590093   -1.530306   -0.027658
  C      3.538985   -0.164646   -0.025711
  H     -5.027804    0.103763   -0.074008
  H     -5.224580   -1.366059    0.908797
  H     -5.166017   -1.482356   -0.866459
  H     -2.910716   -1.954798    0.146485
  H     -1.121634    2.334474    0.049960
  H      0.957280    3.628352    0.018172
  H      3.146660    2.494410   -0.019260
  H      0.276197   -2.224301    0.017972
  H      2.458527   -3.358515   -0.014726
  H      4.541622   -2.041586   -0.041449
  H      4.448153    0.419285   -0.037882

 Total Charge           Charge          ....    0
 Multiplicity           Mult            ....    1
 Number of Electrons    NEL             ....  106
 Basis Dimension        Dim             ....  232

ORBITAL ENERGIES
----------------

  NO   OCC          E(Eh)            E(eV)
   0   2.0000     -18.814411      -511.9662
   1   2.0000     -18.730067      -509.6710
   2   2.0000     -14.023879      -381.6091
   3   2.0000     -10.033288      -273.0196
   4   2.0000      -9.960142      -271.0292
   5   2.0000      -9.925241      -270.0795
   6   2.0000      -9.904730      -269.5214
   7   2.0000      -9.903267      -269.4816
   8   2.0000      -9.893758      -269.2229
   9   2.0000      -9.893490      -269.2156
  10   2.0000      -9.893152      -269.2064
  11   2.0000      -9.893043      -269.2034
  12   2.0000      -9.892046      -269.1763
  13   2.0000      -9.888137      -269.0699
  14   2.0000      -9.885160      -268.9889
  15   2.0000      -1.019545       -27.7432
  16   2.0000      -0.930436       -25.3184
  17   2.0000      -0.849273       -23.1099
  18   2.0000      -0.794469       -21.6186
  19   2.0000      -0.744518       -20.2594
  20   2.0000      -0.705762       -19.2047
  21   2.0000      -0.668399       -18.1881
  22   2.0000      -0.663969       -18.0675
  23   2.0000      -0.634135       -17.2557
  24   2.0000      -0.584349       -15.9009
  25   2.0000      -0.557637       -15.1741
  26   2.0000      -0.552385       -15.0312
  27   2.0000      -0.533145       -14.5076
  28   2.0000      -0.500863       -13.6292
  29   2.0000      -0.467028       -12.7085
  30   2.0000      -0.448207       -12.1963
  31   2.0000      -0.438815       -11.9408
  32   2.0000      -0.434614       -11.8265
  33   2.0000      -0.428919       -11.6715
  34   2.0000      -0.401571       -10.9273
  35   2.0000      -0.395626       -10.7655
  36   2.0000      -0.393142       -10.6979
  37   2.0000      -0.381960       -10.3937
  38   2.0000      -0.374405       -10.1881
  39   2.0000      -0.358291        -9.7496
  40   2.0000      -0.356158        -9.6916
  41   2.0000      -0.351074        -9.5532
  42   2.0000      -0.343919        -9.3585
  43   2.0000      -0.323456        -8.8017
  44   2.0000      -0.313666        -8.5353
  45   2.0000      -0.299647        -8.1538
  46   2.0000      -0.292927        -7.9710
  47   2.0000      -0.288696        -7.8558
  48   2.0000      -0.245126        -6.6702
  49   2.0000      -0.230818        -6.2809
  50   2.0000      -0.225747        -6.1429
  51   2.0000      -0.223259        -6.0752
  52   2.0000      -0.188660        -5.1337
  53   0.0000      -0.066269        -1.8033
  54   0.0000      -0.039021        -1.0618
  55   0.0000      -0.006311        -0.1717
  56   0.0000       0.025103         0.6831
  57   0.0000       0.026415         0.7188

MULLIKEN ATOMIC CHARGES
-----------------------
   0 C :   -0.179493
   1 N :   -0.297550
   2 C :    0.215803
   3 O :   -0.217298
   4 O :   -0.241952
   5 C :    0.207704
   6 C :   -0.187352
   7 C :   -0.030172
   8 C :   -0.111813
   9 C :    0.137994
  10 C :    0.077156
  11 C :   -0.121740
  12 C :   -0.037052
  13 C :   -0.037900
  14 C :   -0.130995
  15 H :    0.140633
  16 H :    0.115932
  17 H :    0.116211
  18 H :    0.235237
  19 H :    0.080758
  20 H :    0.055183
  21 H :    0.035094
  22 H :    0.033205
  23 H :    0.050457
  24 H :    0.052090
  25 H :    0.039861
Sum of atomic charges:    0.0000000

LOEWDIN ATOMIC CHARGES
----------------------
   0 C :   -0.258733
   1 N :   -0.174810
   2 C :    0.040611
   3 O :   -0.183792
   4 O :   -0.043329
   5 C :    0.053169
   6 C :   -0.158564
   7 C :   -0.116502
   8 C :   -0.124007
   9 C :   -0.022484
  10 C :   -0.037816
  11 C :   -0.113106
  12 C :   -0.124888
  13 C :   -0.124907
  14 C :   -0.109443
  15 H :    0.138848
  16 H :    0.118012
  17 H :    0.117760
  18 H :    0.236671
  19 H :    0.144275
  20 H :    0.126567
  21 H :    0.123038
  22 H :    0.121539
  23 H :    0.123374
  24 H :    0.124071
  25 H :    0.124443

  Mayer bond orders larger than 0.100000
B(  0-C ,  1-N ) :   1.0254 B(  0-C , 15-H ) :   0.9368 B(  0-C , 16-H ) :   0.9580
B(  0-C , 17-H ) :   0.9579 B(  1-N ,  2-C ) :   1.2206 B(  1-N , 18-H ) :   0.8597
B(  2-C ,  3-O ) :   2.0043 B(  2-C ,  4-O ) :   1.0644 B(  4-O ,  5-C ) :   1.0689
B(  5-C ,  6-C ) :   1.4569 B(  5-C , 10-C ) :   1.2159 B(  6-C ,  7-C ) :   1.2014
B(  6-C , 19-H ) :   0.9440 B(  7-C ,  8-C ) :   1.4422 B(  7-C , 20-H ) :   0.9633
B(  8-C ,  9-C ) :   1.2279 B(  8-C , 21-H ) :   0.9685 B(  9-C , 10-C ) :   1.2791
B(  9-C , 14-C ) :   1.2458 B( 10-C , 11-C ) :   1.2710 B( 11-C , 12-C ) :   1.4410
B( 11-C , 22-H ) :   0.9578 B( 12-C , 13-C ) :   1.2614 B( 12-C , 23-H ) :   0.9630
B( 13-C , 14-C ) :   1.4577 B( 13-C , 24-H ) :   0.9625 B( 14-C , 25-H ) :   0.9642

Dispersion correction           -0.031817448
FINAL SINGLE POINT ENERGY      -667.735928981062

DIPOLE MOMENT
-------------

Method             : SCF
Type of density    : Electron Density
Multiplicity       :   1
Irrep              :   0
Energy             :  -667.8134251272650772 Eh
Relativity type    :
Basis              : AO
                                X                 Y                 Z
Electronic contribution:      3.189340053       2.211425571       0.008003696
Nuclear contribution   :     -3.478443556      -3.228322393       0.081537858
                        -----------------------------------------
Total Dipole Moment    :     -0.289103503      -1.016896821       0.089541554
                        -----------------------------------------
Magnitude (a.u.)       :      1.060979581
Magnitude (Debye)      :      2.696795776

Rotational constants in cm-1:             0.042310             0.012384             0.009602
Rotational constants in MHz :          1268.435918           371.264584           287.864044

                             ****ORCA TERMINATED NORMALLY****
TOTAL RUN TIME: 0 days 0 hours 0 minutes 17 seconds 486 msec
