                         Program Version 6.0.1  -  RELEASE   -
|  1> ! r2scan-3c def2/J RI DEFGRID2 scfconv6 printgap
|  2> %output
|  3>     printlevel normal
|  4> end
|  5> * xyz 0 1
|  6> C -1.7356555167 -0.8183802267 -0.0232394025
|  7> C -0.4941478951 0.0075299415 -0.3471131682
|  8> C -0.676440222 1.4497282898 0.1250766164
|  9> C 0.7396853968 -0.6354103104 0.3030458345
| 10> O 1.9577876624 -0.0636970692 -0.1072119499
| 11> H -1.8994511724 -0.8491481087 1.0520914253
| 12> H -1.6243245212 -1.8384507859 -0.38273281
| 13> H -2.6145413713 -0.3825096653 -0.492120298
| 14> H -0.3377200642 0.0088907137 -1.431188554
| 15> H -1.5745393627 1.8775720947 -0.3141693344
| 16> H 0.165864763 2.0733689151 -0.1698879911
| 17> H -0.7754673649 1.4853332658 1.2089225045
| 18> H 0.6417707595 -0.5880868497 1.3984712217
| 19> H 0.8047636985 -1.686324266 0.0108424384
| 20> H 1.9542965446 0.8691576565 0.1332180107
| 21> *
| 22>
| 23>                          ****END OF INPUT****

CARTESIAN COORDINATES (ANGSTROEM)
---------------------------------
  C     -1.735656   -0.818380   -0.023239
  C     -0.494148    0.007530   -0.347113
  C     -0.676440    1.449728    0.125077
  C      0.739685   -0.635410    0.303046
  O      1.957788   -0.063697   -0.107212
  H     -1.899451   -0.849148    1.052091
  H     -1.624325   -1.838451   -0.382733
  H     -2.614541   -0.382510   -0.492120
  H     -0.337720    0.008891   -1.431189
  H     -1.574539    1.877572   -0.314169
  H      0.165865    2.073369   -0.169888
  H     -0.775467    1.485333    1.208923
  H      0.641771   -0.588087    1.398471
  H      0.804764   -1.686324    0.010842
  H      1.954297    0.869158    0.133218

 Total Charge           Charge          ....    0
 Multiplicity           Mult            ....    1
 Number of Electrons    NEL             ....   42
 Basis Dimension        Dim             ....  150

ORBITAL ENERGIES
----------------

  NO   OCC          E(Eh)            E(eV)
   0   2.0000     -18.945849      -515.5428
   1   2.0000     -10.071186      -274.0509
   2   2.0000     -10.036021      -273.0940
   3   2.0000     -10.024838      -272.7897
   4   2.0000     -10.021335      -272.6944
   5   2.0000      -0.985431       -26.8149
   6   2.0000      -0.769794       -20.9471
   7   2.0000      -0.659065       -17.9341
   8   2.0000      -0.639576       -17.4038
   9   2.0000      -0.539570       -14.6825
  10   2.0000      -0.481717       -13.1082
  11   2.0000      -0.425096       -11.5674
  12   2.0000      -0.413703       -11.2574
  13   2.0000      -0.402201       -10.9444
  14   2.0000      -0.363881        -9.9017
  15   2.0000      -0.351920        -9.5762
  16   2.0000      -0.346223        -9.4212
  17   2.0000      -0.310948        -8.4613
  18   2.0000      -0.305788        -8.3209
  19   2.0000      -0.285892        -7.7795
  20   2.0000      -0.233190        -6.3454
  21   0.0000       0.058330         1.5872
  22   0.0000       0.090916         2.4740
  23   0.0000       0.125325         3.4103
  24   0.0000       0.131329         3.5737
  25   0.0000       0.134904         3.6709

MULLIKEN ATOMIC CHARGES
-----------------------
   0 C :   -0.486847
   1 C :   -0.007341
   2 C :   -0.502215
   3 C :   -0.183615
   4 O :   -0.414175
   5 H :    0.145571
   6 H :    0.147790
   7 H :    0.148085
   8 H :    0.151901
   9 H :    0.151131
  10 H :    0.134673
  11 H :    0.154423
  12 H :    0.130813
  13 H :    0.138162
  14 H :    0.291643
Sum of atomic charges:   -0.0000000

LOEWDIN ATOMIC CHARGES
----------------------
   0 C :   -0.414983
   1 C :   -0.240390
   2 C :   -0.419699
   3 C :    0.003946
   4 O :   -0.614240
   5 H :    0.154341
   6 H :    0.154998
   7 H :    0.154803
   8 H :    0.162336
   9 H :    0.157649
  10 H :    0.148339
  11 H :    0.155263
  12 H :    0.156984
  13 H :    0.178199
  14 H :    0.262453

  Mayer bond orders larger than 0.100000
B(  0-C ,  1-C ) :   0.9084 B(  0-C ,  5-H ) :   0.9811 B(  0-C ,  6-H ) :   0.9733
B(  0-C ,  7-H ) :   0.9706 B(  1-C ,  2-C ) :   0.8986 B(  1-C ,  3-C ) :   0.9003
B(  1-C ,  8-H ) :   0.9446 B(  2-C ,  9-H ) :   0.9706 B(  2-C , 10-H ) :   0.9715
B(  2-C , 11-H ) :   0.9846 B(  3-C ,  4-O ) :   0.9444 B(  3-C , 12-H ) :   0.9869
B(  3-C , 13-H ) :   0.9765 B(  4-O , 14-H ) :   0.8948

Dispersion correction           -0.003241323
FINAL SINGLE POINT ENERGY      -233.600236536535

DIPOLE MOMENT
-------------

Method             : SCF
Type of density    : Electron Density
Multiplicity       :   1
Irrep              :   0
Energy             :  -233.6055571452170057 Eh
Relativity type    :
Basis              : AO
                                X                 Y                 Z
Electronic contribution:      4.374552531      -0.591734462      -0.744160259
Nuclear contribution   :     -4.905076092       0.908888716       0.949187838
                        -----------------------------------------
Total Dipole Moment    :     -0.530523561       0.317154254       0.205027579
                        -----------------------------------------
Magnitude (a.u.)       :      0.651213004
Magnitude (Debye)      :      1.655251912

Rotational constants in cm-1:             0.253012             0.117105             0.088509
Rotational constants in MHz :          7585.115259          3510.711054          2653.419286

                             ****ORCA TERMINATED NORMALLY****
TOTAL RUN TIME: 0 days 0 hours 0 minutes 12 seconds 568 msec
