                         Program Version 6.0.1  -  RELEASE   -
|  1> ! pbe def2-sv(p) def2/J RI DEFGRID1 loosescf d4 GCP(DFT/SV(P)) printgap
|  2> %output
|  3>     printlevel normal
|  4> end
|  5> * xyz 0 1
|  6> C -1.7112127845 -1.0728471238 -0.6701395221
|  7> C -1.0894596622 -0.5385225239 0.634137455
|  8> H -1.7838026337 -0.697425672 1.4665862089
|  9> C -0.7754421478 0.9673486043 0.5813251759
| 10> H -1.6834828833 1.5078954275 0.2944389063
| 11> C 0.3440916138 1.2469149546 -0.4330982589
| 12> H 0.6610626754 2.2977462841 -0.2886449688
| 13> C 1.5680609913 0.3598006308 -0.1161276855
| 14> H 2.2012088801 0.3223968284 -1.0134454576
| 15> C 1.2216874477 -1.0984763106 0.2357382743
| 16> H 2.0292241825 -1.4606933808 0.8942037484
| 17> O 0.0657631423 -1.2747115821 1.0088928187
| 18> O 1.1904964492 -1.8435250094 -0.9474954769
| 19> O 2.2779943453 0.8607325078 0.9961868969
| 20> O -0.0462231356 1.0761662687 -1.7685645493
| 21> O -0.4253930479 1.4440970774 1.8524147719
| 22> O -2.6122709366 -0.1081883978 -1.190732753
| 23> H -2.232742983 -2.0121114858 -0.4497057581
| 24> H -0.9129264748 -1.269818544 -1.3948650075
| 25> H 1.0384718574 -2.7693699156 -0.7230256982
| 26> H 2.5477756001 1.7685651919 0.8128241255
| 27> H -1.0114429545 1.0120576809 -1.8040733549
| 28> H 0.3743141171 0.9769998969 2.1376638795
| 29> H -3.1062577838 -0.5118076149 -1.9121454965
| 30> *
| 31>
| 32>                          ****END OF INPUT****

CARTESIAN COORDINATES (ANGSTROEM)
---------------------------------
  C     -1.711213   -1.072847   -0.670140
  C     -1.089460   -0.538523    0.634137
  H     -1.783803   -0.697426    1.466586
  C     -0.775442    0.967349    0.581325
  H     -1.683483    1.507895    0.294439
  C      0.344092    1.246915   -0.433098
  H      0.661063    2.297746   -0.288645
  C      1.568061    0.359801   -0.116128
  H      2.201209    0.322397   -1.013445
  C      1.221687   -1.098476    0.235738
  H      2.029224   -1.460693    0.894204
  O      0.065763   -1.274712    1.008893
  O      1.190496   -1.843525   -0.947495
  O      2.277994    0.860733    0.996187
  O     -0.046223    1.076166   -1.768565
  O     -0.425393    1.444097    1.852415
  O     -2.612271   -0.108188   -1.190733
  H     -2.232743   -2.012111   -0.449706
  H     -0.912926   -1.269819   -1.394865
  H      1.038472   -2.769370   -0.723026
  H      2.547776    1.768565    0.812824
  H     -1.011443    1.012058   -1.804073
  H      0.374314    0.977000    2.137664
  H     -3.106258   -0.511808   -1.912145

 Total Charge           Charge          ....    0
 Multiplicity           Mult            ....    1
 Number of Electrons    NEL             ....   96
 Basis Dimension        Dim             ....  192

ORBITAL ENERGIES
----------------

  NO   OCC          E(Eh)            E(eV)
   0   2.0000     -18.775410      -510.9049
   1   2.0000     -18.772742      -510.8323
   2   2.0000     -18.765876      -510.6455
   3   2.0000     -18.762635      -510.5573
   4   2.0000     -18.741847      -509.9916
   5   2.0000     -18.737351      -509.8692
   6   2.0000      -9.987190      -271.7653
   7   2.0000      -9.943461      -270.5753
   8   2.0000      -9.942673      -270.5539
   9   2.0000      -9.937878      -270.4234
  10   2.0000      -9.936176      -270.3771
  11   2.0000      -9.935665      -270.3632
  12   2.0000      -0.984564       -26.7914
  13   2.0000      -0.947456       -25.7816
  14   2.0000      -0.942855       -25.6564
  15   2.0000      -0.925828       -25.1931
  16   2.0000      -0.919018       -25.0078
  17   2.0000      -0.907868       -24.7043
  18   2.0000      -0.699963       -19.0470
  19   2.0000      -0.688042       -18.7226
  20   2.0000      -0.623443       -16.9647
  21   2.0000      -0.587325       -15.9819
  22   2.0000      -0.573827       -15.6146
  23   2.0000      -0.523612       -14.2482
  24   2.0000      -0.492359       -13.3978
  25   2.0000      -0.489862       -13.3298
  26   2.0000      -0.476563       -12.9679
  27   2.0000      -0.459406       -12.5011
  28   2.0000      -0.436729       -11.8840
  29   2.0000      -0.429285       -11.6814
  30   2.0000      -0.418929       -11.3996
  31   2.0000      -0.399723       -10.8770
  32   2.0000      -0.393242       -10.7007
  33   2.0000      -0.373939       -10.1754
  34   2.0000      -0.365186        -9.9372
  35   2.0000      -0.340890        -9.2761
  36   2.0000      -0.335640        -9.1332
  37   2.0000      -0.321884        -8.7589
  38   2.0000      -0.317046        -8.6273
  39   2.0000      -0.298138        -8.1128
  40   2.0000      -0.277734        -7.5575
  41   2.0000      -0.263434        -7.1684
  42   2.0000      -0.255355        -6.9486
  43   2.0000      -0.246116        -6.6971
  44   2.0000      -0.231763        -6.3066
  45   2.0000      -0.227110        -6.1800
  46   2.0000      -0.209871        -5.7109
  47   2.0000      -0.202015        -5.4971
  48   0.0000       0.007835         0.2132
  49   0.0000       0.020229         0.5505
  50   0.0000       0.028796         0.7836
  51   0.0000       0.056725         1.5436
  52   0.0000       0.067612         1.8398

MULLIKEN ATOMIC CHARGES
-----------------------
   0 C :   -0.045225
   1 C :    0.045356
   2 H :    0.081350
   3 C :    0.011778
   4 H :    0.090663
   5 C :    0.048081
   6 H :    0.053459
   7 C :    0.019320
   8 H :    0.089772
   9 C :    0.197114
  10 H :    0.075472
  11 O :   -0.316274
  12 O :   -0.386207
  13 O :   -0.418600
  14 O :   -0.411703
  15 O :   -0.422886
  16 O :   -0.434164
  17 H :    0.081344
  18 H :    0.120195
  19 H :    0.299524
  20 H :    0.307677
  21 H :    0.304496
  22 H :    0.296743
  23 H :    0.312716
Sum of atomic charges:   -0.0000000

LOEWDIN ATOMIC CHARGES
----------------------
   0 C :   -0.162120
   1 C :   -0.061292
   2 H :    0.120484
   3 C :   -0.082572
   4 H :    0.121238
   5 C :   -0.076354
   6 H :    0.094993
   7 C :   -0.079406
   8 H :    0.117270
   9 C :   -0.000000
  10 H :    0.103923
  11 O :   -0.139992
  12 O :   -0.303746
  13 O :   -0.308789
  14 O :   -0.319497
  15 O :   -0.313893
  16 O :   -0.333537
  17 H :    0.103258
  18 H :    0.109313
  19 H :    0.284100
  20 H :    0.288706
  21 H :    0.273289
  22 H :    0.270266
  23 H :    0.294358

  Mayer bond orders larger than 0.100000
B(  0-C ,  1-C ) :   1.0496 B(  0-C , 16-O ) :   1.0328 B(  0-C , 17-H ) :   0.9126
B(  0-C , 18-H ) :   0.8864 B(  1-C ,  2-H ) :   0.8952 B(  1-C ,  3-C ) :   1.0263
B(  1-C , 11-O ) :   0.9906 B(  3-C ,  4-H ) :   0.8801 B(  3-C ,  5-C ) :   0.9809
B(  3-C , 15-O ) :   1.0621 B(  5-C ,  6-H ) :   0.9011 B(  5-C ,  7-C ) :   0.9665
B(  5-C , 14-O ) :   1.1111 B(  7-C ,  8-H ) :   0.8866 B(  7-C ,  9-C ) :   0.9904
B(  7-C , 13-O ) :   1.0345 B(  9-C , 10-H ) :   0.9016 B(  9-C , 11-O ) :   1.0562
B(  9-C , 12-O ) :   1.1114 B( 12-O , 19-H ) :   0.8399 B( 13-O , 20-H ) :   0.8394
B( 14-O , 21-H ) :   0.7985 B( 15-O , 22-H ) :   0.8196 B( 16-O , 21-H ) :   0.1069
B( 16-O , 23-H ) :   0.8433

Dispersion correction           -0.026309252
FINAL SINGLE POINT ENERGY      -685.692496561589

DIPOLE MOMENT
-------------

Method             : SCF
Type of density    : Electron Density
Multiplicity       :   1
Irrep              :   0
Energy             :  -685.8265798144326482 Eh
Relativity type    :
Basis              : AO
                                X                 Y                 Z
Electronic contribution:      1.440677612       0.062874955       1.310547966
Nuclear contribution   :     -1.755772928      -0.781612510      -1.858484358
                        -----------------------------------------
Total Dipole Moment    :     -0.315095315      -0.718737555      -0.547936392
                        -----------------------------------------
Magnitude (a.u.)       :      0.957132708
Magnitude (Debye)      :      2.432838003

Rotational constants in cm-1:             0.040244             0.030118             0.026221
Rotational constants in MHz :          1206.495986           902.925212           786.094161

                             ****ORCA TERMINATED NORMALLY****
TOTAL RUN TIME: 0 days 0 hours 0 minutes 10 seconds 695 msec
