                         Program Version 6.0.1  -  RELEASE   -
|  1> ! pbe def2-sv(p) def2/J RI DEFGRID1 loosescf d4 GCP(DFT/SV(P)) printgap
|  2> %output
|  3>     printlevel normal
|  4> end
|  5> * xyz 0 1
|  6> C -1.8061024332 -1.091460197 -0.6133486704
|  7> C -1.0132019107 -0.5034137972 0.5724851719
|  8> H -1.6391139685 -0.5865039316 1.4725094784
|  9> C -0.7173639379 0.9992027789 0.374015718
| 10> H -1.5827751193 1.4352800808 -0.1431127204
| 11> C 0.550943444 1.2291909747 -0.470920504
| 12> H 0.8379327472 2.286304591 -0.3576772932
| 13> C 1.7091028633 0.3693318229 0.0602323842
| 14> H 2.5583155339 0.4582173467 -0.6349485104
| 15> C 1.2813097284 -1.1112619518 0.1072103127
| 16> H 2.0352074891 -1.7046886007 0.6458200346
| 17> O 0.1295712464 -1.277659811 0.8955302365
| 18> O 1.1959058136 -1.6533121801 -1.1653994752
| 19> O 2.0473656158 0.8564124273 1.338188408
| 20> O 0.3678578985 0.9073744404 -1.8337962446
| 21> O -0.6222508436 1.6790880429 1.5953477925
| 22> O -3.0472736264 -0.4516807 -0.7760080189
| 23> H -1.9238294361 -2.1698466095 -0.4462106036
| 24> H -1.2784006293 -0.9457373787 -1.5563074769
| 25> H 0.8323926213 -0.9860177533 -1.7690757267
| 26> H 2.6959348072 0.2671544981 1.7396610201
| 27> H -0.3685503858 1.4260342546 -2.1786027909
| 28> H 0.2249438959 1.4410886006 2.0015429251
| 29> H -3.5777700026 -0.5853414841 0.0177597155
| 30> *
| 31>
| 32>                          ****END OF INPUT****

CARTESIAN COORDINATES (ANGSTROEM)
---------------------------------
  C     -1.806102   -1.091460   -0.613349
  C     -1.013202   -0.503414    0.572485
  H     -1.639114   -0.586504    1.472509
  C     -0.717364    0.999203    0.374016
  H     -1.582775    1.435280   -0.143113
  C      0.550943    1.229191   -0.470921
  H      0.837933    2.286305   -0.357677
  C      1.709103    0.369332    0.060232
  H      2.558316    0.458217   -0.634949
  C      1.281310   -1.111262    0.107210
  H      2.035207   -1.704689    0.645820
  O      0.129571   -1.277660    0.895530
  O      1.195906   -1.653312   -1.165399
  O      2.047366    0.856412    1.338188
  O      0.367858    0.907374   -1.833796
  O     -0.622251    1.679088    1.595348
  O     -3.047274   -0.451681   -0.776008
  H     -1.923829   -2.169847   -0.446211
  H     -1.278401   -0.945737   -1.556307
  H      0.832393   -0.986018   -1.769076
  H      2.695935    0.267154    1.739661
  H     -0.368550    1.426034   -2.178603
  H      0.224944    1.441089    2.001543
  H     -3.577770   -0.585341    0.017760

 Total Charge           Charge          ....    0
 Multiplicity           Mult            ....    1
 Number of Electrons    NEL             ....   96
 Basis Dimension        Dim             ....  192

ORBITAL ENERGIES
----------------

  NO   OCC          E(Eh)            E(eV)
   0   2.0000     -18.788639      -511.2649
   1   2.0000     -18.782834      -511.1069
   2   2.0000     -18.763103      -510.5700
   3   2.0000     -18.754434      -510.3341
   4   2.0000     -18.751850      -510.2638
   5   2.0000     -18.737863      -509.8832
   6   2.0000      -9.986994      -271.7599
   7   2.0000      -9.958442      -270.9830
   8   2.0000      -9.957028      -270.9445
   9   2.0000      -9.941467      -270.5211
  10   2.0000      -9.940094      -270.4837
  11   2.0000      -9.929560      -270.1971
  12   2.0000      -0.983931       -26.7741
  13   2.0000      -0.958177       -26.0733
  14   2.0000      -0.952550       -25.9202
  15   2.0000      -0.931815       -25.3560
  16   2.0000      -0.922013       -25.0893
  17   2.0000      -0.906829       -24.6761
  18   2.0000      -0.706105       -19.2141
  19   2.0000      -0.694517       -18.8988
  20   2.0000      -0.613543       -16.6954
  21   2.0000      -0.602861       -16.4047
  22   2.0000      -0.572866       -15.5885
  23   2.0000      -0.535558       -14.5733
  24   2.0000      -0.515547       -14.0287
  25   2.0000      -0.493990       -13.4422
  26   2.0000      -0.472124       -12.8471
  27   2.0000      -0.462244       -12.5783
  28   2.0000      -0.449989       -12.2448
  29   2.0000      -0.434465       -11.8224
  30   2.0000      -0.427986       -11.6461
  31   2.0000      -0.400711       -10.9039
  32   2.0000      -0.387884       -10.5549
  33   2.0000      -0.378960       -10.3120
  34   2.0000      -0.364723        -9.9246
  35   2.0000      -0.347073        -9.4443
  36   2.0000      -0.340071        -9.2538
  37   2.0000      -0.334942        -9.1142
  38   2.0000      -0.310617        -8.4523
  39   2.0000      -0.303619        -8.2619
  40   2.0000      -0.289981        -7.8908
  41   2.0000      -0.269940        -7.3454
  42   2.0000      -0.253990        -6.9114
  43   2.0000      -0.251775        -6.8511
  44   2.0000      -0.236880        -6.4458
  45   2.0000      -0.233047        -6.3415
  46   2.0000      -0.220756        -6.0071
  47   2.0000      -0.197085        -5.3630
  48   0.0000      -0.003364        -0.0915
  49   0.0000       0.014386         0.3915
  50   0.0000       0.026340         0.7168
  51   0.0000       0.059544         1.6203
  52   0.0000       0.063605         1.7308

MULLIKEN ATOMIC CHARGES
-----------------------
   0 C :    0.031454
   1 C :    0.016706
   2 H :    0.064958
   3 C :    0.063789
   4 H :    0.064407
   5 C :    0.010597
   6 H :    0.089066
   7 C :    0.007183
   8 H :    0.089162
   9 C :    0.188733
  10 H :    0.057852
  11 O :   -0.300896
  12 O :   -0.401006
  13 O :   -0.418989
  14 O :   -0.419370
  15 O :   -0.427004
  16 O :   -0.429941
  17 H :    0.089421
  18 H :    0.063251
  19 H :    0.319734
  20 H :    0.314316
  21 H :    0.324356
  22 H :    0.302174
  23 H :    0.300050
Sum of atomic charges:    0.0000000

LOEWDIN ATOMIC CHARGES
----------------------
   0 C :   -0.144761
   1 C :   -0.079502
   2 H :    0.113475
   3 C :   -0.080434
   4 H :    0.111648
   5 C :   -0.070640
   6 H :    0.111909
   7 C :   -0.087374
   8 H :    0.111602
   9 C :   -0.012647
  10 H :    0.101132
  11 O :   -0.141272
  12 O :   -0.305036
  13 O :   -0.303912
  14 O :   -0.306764
  15 O :   -0.319903
  16 O :   -0.331090
  17 H :    0.104467
  18 H :    0.103278
  19 H :    0.273210
  20 H :    0.294455
  21 H :    0.299962
  22 H :    0.272792
  23 H :    0.285408

  Mayer bond orders larger than 0.100000
B(  0-C ,  1-C ) :   1.0241 B(  0-C , 16-O ) :   1.0413 B(  0-C , 17-H ) :   0.9129
B(  0-C , 18-H ) :   0.9043 B(  1-C ,  2-H ) :   0.8943 B(  1-C ,  3-C ) :   0.9759
B(  1-C , 11-O ) :   1.0104 B(  3-C ,  4-H ) :   0.8805 B(  3-C ,  5-C ) :   0.9806
B(  3-C , 15-O ) :   1.0606 B(  5-C ,  6-H ) :   0.9028 B(  5-C ,  7-C ) :   1.0067
B(  5-C , 14-O ) :   1.0296 B(  7-C ,  8-H ) :   0.8960 B(  7-C ,  9-C ) :   0.9846
B(  7-C , 13-O ) :   1.0203 B(  9-C , 10-H ) :   0.9083 B(  9-C , 11-O ) :   1.0519
B(  9-C , 12-O ) :   1.1491 B( 12-O , 19-H ) :   0.7945 B( 13-O , 20-H ) :   0.8398
B( 14-O , 21-H ) :   0.8325 B( 15-O , 22-H ) :   0.8163 B( 16-O , 23-H ) :   0.8498

Dispersion correction           -0.026071879
FINAL SINGLE POINT ENERGY      -685.697902761599

DIPOLE MOMENT
-------------

Method             : SCF
Type of density    : Electron Density
Multiplicity       :   1
Irrep              :   0
Energy             :  -685.8314884231102724 Eh
Relativity type    :
Basis              : AO
                                X                 Y                 Z
Electronic contribution:      1.434350551      -0.043391916       1.191313560
Nuclear contribution   :     -1.111345549       0.316064421      -1.133113811
                        -----------------------------------------
Total Dipole Moment    :      0.323005003       0.272672505       0.058199749
                        -----------------------------------------
Magnitude (a.u.)       :      0.426696306
Magnitude (Debye)      :      1.084575817

Rotational constants in cm-1:             0.040771             0.029019             0.024822
Rotational constants in MHz :          1222.272225           869.956841           744.136584

                             ****ORCA TERMINATED NORMALLY****
TOTAL RUN TIME: 0 days 0 hours 13 minutes 45 seconds 654 msec
