                         Program Version 6.0.0  -   RELEASE  -
|  1> ! r2SCAN-3c DEF2-TZVP FREQ
|  2> * xyzfile 0 1 censo.xyz
|  3>
|  4>                          ****END OF INPUT****

CARTESIAN COORDINATES (ANGSTROEM)
---------------------------------
  C      3.580472    0.696003    0.001912
  C      3.580472   -0.696016    0.002111
  C      2.374600   -1.394261    0.000721
  C      1.176418   -0.696844   -0.000919
  C      1.176417    0.696836   -0.001002
  C      2.374602    1.394250    0.000397
  O      0.000011    1.432458   -0.002603
  C     -1.176397    0.696836   -0.000867
  C     -2.374576    1.394254    0.000831
  C     -3.580454    0.696017    0.002231
  C     -3.580457   -0.696000    0.001982
  C     -2.374586   -1.394251    0.000419
  C     -1.176398   -0.696845   -0.000983
  O      0.000008   -1.432468   -0.002611
  H      4.515438    1.245796    0.002970
  H      4.515435   -1.245816    0.003373
  H      2.347108   -2.479210    0.000832
  H      2.347122    2.479198    0.000241
  H     -2.347075    2.479203    0.000969
  H     -4.515409    1.245833    0.003538
  H     -4.515413   -1.245811    0.003036
  H     -2.347119   -2.479199    0.000227

 Total Charge           Charge          ....    0
 Multiplicity           Mult            ....    1
 Number of Electrons    NEL             ....   96
 Basis Dimension        Dim             ....  482

ORBITAL ENERGIES
----------------

  NO   OCC          E(Eh)            E(eV)
   0   2.0000     -19.013924      -517.3952
   1   2.0000     -19.013911      -517.3948
   2   2.0000     -10.108928      -275.0779
   3   2.0000     -10.108919      -275.0777
   4   2.0000     -10.108507      -275.0665
   5   2.0000     -10.108495      -275.0661
   6   2.0000     -10.045603      -273.3547
   7   2.0000     -10.045599      -273.3546
   8   2.0000     -10.045592      -273.3545
   9   2.0000     -10.045589      -273.3544
  10   2.0000     -10.043005      -273.2841
  11   2.0000     -10.043004      -273.2840
  12   2.0000     -10.042574      -273.2723
  13   2.0000     -10.042573      -273.2723
  14   2.0000      -1.074321       -29.2338
  15   2.0000      -1.041536       -28.3416
  16   2.0000      -0.846084       -23.0231
  17   2.0000      -0.819050       -22.2875
  18   2.0000      -0.746699       -20.3187
  19   2.0000      -0.737686       -20.0735
  20   2.0000      -0.714375       -19.4391
  21   2.0000      -0.695196       -18.9172
  22   2.0000      -0.628812       -17.1108
  23   2.0000      -0.610813       -16.6211
  24   2.0000      -0.578989       -15.7551
  25   2.0000      -0.558475       -15.1969
  26   2.0000      -0.544967       -14.8293
  27   2.0000      -0.487507       -13.2657
  28   2.0000      -0.480466       -13.0741
  29   2.0000      -0.449226       -12.2240
  30   2.0000      -0.447150       -12.1676
  31   2.0000      -0.445513       -12.1230
  32   2.0000      -0.419929       -11.4269
  33   2.0000      -0.412181       -11.2160
  34   2.0000      -0.410001       -11.1567
  35   2.0000      -0.384627       -10.4662
  36   2.0000      -0.381703       -10.3867
  37   2.0000      -0.365328        -9.9411
  38   2.0000      -0.360966        -9.8224
  39   2.0000      -0.358025        -9.7423
  40   2.0000      -0.338014        -9.1978
  41   2.0000      -0.337100        -9.1730
  42   2.0000      -0.315367        -8.5816
  43   2.0000      -0.305631        -8.3167
  44   2.0000      -0.251642        -6.8475
  45   2.0000      -0.249721        -6.7953
  46   2.0000      -0.226526        -6.1641
  47   2.0000      -0.185517        -5.0482
  48   0.0000      -0.046569        -1.2672
  49   0.0000      -0.041875        -1.1395
  50   0.0000      -0.038617        -1.0508
  51   0.0000      -0.005124        -0.1394
  52   0.0000       0.026318         0.7161

MULLIKEN ATOMIC CHARGES
-----------------------
   0 C :   -0.089733
   1 C :   -0.089675
   2 C :   -0.247758
   3 C :    0.236602
   4 C :    0.236492
   5 C :   -0.247687
   6 O :   -0.248264
   7 C :    0.236622
   8 C :   -0.247795
   9 C :   -0.089660
  10 C :   -0.089724
  11 C :   -0.247712
  12 C :    0.236495
  13 O :   -0.248263
  14 H :    0.112359
  15 H :    0.112358
  16 H :    0.112657
  17 H :    0.112668
  18 H :    0.112654
  19 H :    0.112355
  20 H :    0.112355
  21 H :    0.112656
Sum of atomic charges:   -0.0000000

LOEWDIN ATOMIC CHARGES
----------------------
   0 C :   -0.146609
   1 C :   -0.146608
   2 C :   -0.111148
   3 C :   -0.198792
   4 C :   -0.198794
   5 C :   -0.111148
   6 O :    0.319272
   7 C :   -0.198794
   8 C :   -0.111148
   9 C :   -0.146609
  10 C :   -0.146609
  11 C :   -0.111148
  12 C :   -0.198795
  13 O :    0.319270
  14 H :    0.144747
  15 H :    0.144747
  16 H :    0.152168
  17 H :    0.152167
  18 H :    0.152168
  19 H :    0.144747
  20 H :    0.144747
  21 H :    0.152167

  Mayer bond orders larger than 0.100000
B(  0-C ,  1-C ) :   1.3944 B(  0-C ,  5-C ) :   1.3673 B(  0-C , 14-H ) :   0.9736
B(  1-C ,  2-C ) :   1.3673 B(  1-C , 15-H ) :   0.9736 B(  2-C ,  3-C ) :   1.3563
B(  2-C , 16-H ) :   0.9840 B(  3-C ,  4-C ) :   1.3658 B(  3-C , 13-O ) :   0.9840
B(  4-C ,  5-C ) :   1.3563 B(  4-C ,  6-O ) :   0.9840 B(  5-C , 17-H ) :   0.9839
B(  6-O ,  7-C ) :   0.9840 B(  7-C ,  8-C ) :   1.3563 B(  7-C , 12-C ) :   1.3659
B(  8-C ,  9-C ) :   1.3673 B(  8-C , 18-H ) :   0.9839 B(  9-C , 10-C ) :   1.3943
B(  9-C , 19-H ) :   0.9737 B( 10-C , 11-C ) :   1.3673 B( 10-C , 20-H ) :   0.9737
B( 11-C , 12-C ) :   1.3563 B( 11-C , 21-H ) :   0.9839 B( 12-C , 13-O ) :   0.9841

Dispersion correction           -0.009186946
FINAL SINGLE POINT ENERGY      -612.444899287469

DIPOLE MOMENT
-------------

Method             : SCF
Type of density    : Electron Density
Multiplicity       :   1
Irrep              :   0
Energy             :  -612.4420503694934723 Eh
Relativity type    :
Basis              : AO
                                X                 Y                 Z
Electronic contribution:     -0.000001537      -0.000011442      -0.012068392
Nuclear contribution   :      0.000010260       0.000012474       0.013599978
                        -----------------------------------------
Total Dipole Moment    :      0.000008723       0.000001031       0.001531586
                        -----------------------------------------
Magnitude (a.u.)       :      0.001531611
Magnitude (Debye)      :      0.003893047

VIBRATIONAL FREQUENCIES
-----------------------

Scaling factor for frequencies =  1.000000000  (already applied!)

     0:       0.00 cm**-1
     1:       0.00 cm**-1
     2:       0.00 cm**-1
     3:       0.00 cm**-1
     4:       0.00 cm**-1
     5:       0.00 cm**-1
     6:      52.93 cm**-1
     7:     129.32 cm**-1
     8:     241.45 cm**-1
     9:     242.47 cm**-1
    10:     275.77 cm**-1
    11:     307.75 cm**-1
    12:     398.02 cm**-1
    13:     443.97 cm**-1
    14:     458.29 cm**-1
    15:     463.57 cm**-1
    16:     547.23 cm**-1
    17:     556.13 cm**-1
    18:     562.34 cm**-1
    19:     575.96 cm**-1
    20:     626.34 cm**-1
    21:     671.98 cm**-1
    22:     687.22 cm**-1
    23:     708.05 cm**-1
    24:     735.07 cm**-1
    25:     751.77 cm**-1
    26:     753.75 cm**-1
    27:     842.21 cm**-1
    28:     843.61 cm**-1
    29:     846.80 cm**-1
    30:     863.01 cm**-1
    31:     902.91 cm**-1
    32:     917.65 cm**-1
    33:     918.82 cm**-1
    34:     932.19 cm**-1
    35:     933.71 cm**-1
    36:    1048.88 cm**-1
    37:    1050.76 cm**-1
    38:    1108.12 cm**-1
    39:    1134.67 cm**-1
    40:    1174.44 cm**-1
    41:    1174.94 cm**-1
    42:    1182.52 cm**-1
    43:    1200.57 cm**-1
    44:    1229.50 cm**-1
    45:    1282.75 cm**-1
    46:    1286.22 cm**-1
    47:    1308.59 cm**-1
    48:    1348.49 cm**-1
    49:    1371.29 cm**-1
    50:    1473.73 cm**-1
    51:    1497.25 cm**-1
    52:    1509.79 cm**-1
    53:    1523.62 cm**-1
    54:    1611.16 cm**-1
    55:    1621.41 cm**-1
    56:    1654.25 cm**-1
    57:    1658.10 cm**-1
    58:    3167.41 cm**-1
    59:    3167.57 cm**-1
    60:    3175.21 cm**-1
    61:    3175.27 cm**-1
    62:    3182.64 cm**-1
    63:    3182.65 cm**-1
    64:    3191.55 cm**-1
    65:    3191.60 cm**-1

IR SPECTRUM
-----------

 Mode   freq       eps      Int      T**2         TX        TY        TZ
       cm**-1   L/(mol*cm) km/mol    a.u.
----------------------------------------------------------------------------
  6:     52.93   0.000250    1.26  0.001472  (-0.000002  0.000006  0.038365)
  7:    129.32   0.000000    0.00  0.000000  (-0.000004 -0.000000  0.000053)
  8:    241.45   0.000027    0.13  0.000034  (-0.000009  0.005869  0.000001)
  9:    242.47   0.000321    1.62  0.000413  ( 0.000003  0.020334 -0.000001)
 10:    275.77   0.000000    0.00  0.000000  ( 0.000409 -0.000028 -0.000003)
 11:    307.75   0.000066    0.33  0.000067  ( 0.000003  0.000003 -0.008185)
 12:    398.02   0.000000    0.00  0.000000  ( 0.000000  0.000000  0.000043)
 13:    443.97   0.000000    0.00  0.000000  ( 0.000000 -0.000000 -0.000014)
 14:    458.29   0.000000    0.00  0.000000  (-0.000039 -0.000061 -0.000001)
 15:    463.57   0.001509    7.63  0.001016  ( 0.000000  0.000005  0.031873)
 16:    547.23   0.000000    0.00  0.000000  ( 0.000000 -0.000000 -0.000006)
 17:    556.13   0.000000    0.00  0.000000  ( 0.000001 -0.000006 -0.000026)
 18:    562.34   0.000000    0.00  0.000000  ( 0.000016 -0.000001  0.000004)
 19:    575.96   0.000000    0.00  0.000000  ( 0.000000  0.000000 -0.000145)
 20:    626.34   0.000333    1.68  0.000166  (-0.012887 -0.000000  0.000000)
 21:    671.98   0.000000    0.00  0.000000  ( 0.000004  0.000002  0.000024)
 22:    687.22   0.000001    0.01  0.000001  (-0.000000  0.000713  0.000002)
 23:    708.05   0.000000    0.00  0.000000  (-0.000040  0.000158  0.000001)
 24:    735.07   0.000000    0.00  0.000000  ( 0.000000  0.000000 -0.000312)
 25:    751.77   0.029490  149.03  0.012241  ( 0.000001 -0.000006 -0.110641)
 26:    753.75   0.000000    0.00  0.000000  ( 0.000175 -0.000055 -0.000124)
 27:    842.21   0.000000    0.00  0.000000  (-0.000006  0.000000 -0.000002)
 28:    843.61   0.011964   60.46  0.004426  ( 0.066525  0.000002 -0.000001)
 29:    846.80   0.000000    0.00  0.000000  (-0.000054 -0.000116 -0.000003)
 30:    863.01   0.003810   19.25  0.001378  ( 0.000002 -0.037116  0.000000)
 31:    902.91   0.000000    0.00  0.000000  ( 0.000000  0.000000 -0.000003)
 32:    917.65   0.000000    0.00  0.000000  ( 0.000071  0.000025  0.000271)
 33:    918.82   0.001720    8.69  0.000584  (-0.000000  0.000002  0.024168)
 34:    932.19   0.000000    0.00  0.000000  ( 0.000002 -0.000004 -0.000029)
 35:    933.71   0.000000    0.00  0.000000  ( 0.000021 -0.000168 -0.000003)
 36:   1048.88   0.000000    0.00  0.000000  ( 0.000007  0.000000  0.000053)
 37:   1050.76   0.003101   15.67  0.000921  ( 0.030347 -0.000001 -0.000000)
 38:   1108.12   0.000000    0.00  0.000000  (-0.000001 -0.000000  0.000002)
 39:   1134.67   0.004670   23.60  0.001284  (-0.000001 -0.035838 -0.000001)
 40:   1174.44   0.000871    4.40  0.000231  ( 0.015214  0.000000 -0.000000)
 41:   1174.94   0.000000    0.00  0.000000  ( 0.000004 -0.000000  0.000019)
 42:   1182.52   0.000000    0.00  0.000000  (-0.000003 -0.000001 -0.000007)
 43:   1200.57   0.001110    5.61  0.000289  (-0.000005 -0.016985  0.000000)
 44:   1229.50   0.000000    0.00  0.000000  ( 0.000003 -0.000001  0.000098)
 45:   1282.75   0.000000    0.00  0.000000  ( 0.000047 -0.000001  0.000004)
 46:   1286.22   0.153480  775.62  0.037237  ( 0.192970 -0.000001 -0.000003)
 47:   1308.59   0.000312    1.58  0.000074  ( 0.000005 -0.008630 -0.000000)
 48:   1348.49   0.003865   19.53  0.000895  (-0.029909 -0.000000  0.000000)
 49:   1371.29   0.000000    0.00  0.000000  ( 0.000003  0.000000  0.000002)
 50:   1473.73   0.000000    0.00  0.000000  ( 0.000001  0.000000 -0.000002)
 51:   1497.25   0.000991    5.01  0.000206  ( 0.000004  0.014368 -0.000000)
 52:   1509.79   0.105980  535.58  0.021905  (-0.148005  0.000001  0.000002)
 53:   1523.62   0.000000    0.00  0.000000  ( 0.000012 -0.000000 -0.000088)
 54:   1611.16   0.000000    0.00  0.000000  ( 0.000001  0.000000 -0.000006)
 55:   1621.41   0.009653   48.78  0.001858  ( 0.043102 -0.000000 -0.000001)
 56:   1654.25   0.000000    0.00  0.000000  (-0.000001 -0.000000 -0.000019)
 57:   1658.10   0.000500    2.53  0.000094  (-0.000002  0.009699 -0.000001)
 58:   3167.41   0.000000    0.00  0.000000  ( 0.000006 -0.000036 -0.000001)
 59:   3167.57   0.000176    0.89  0.000017  ( 0.000015 -0.004165 -0.000000)
 60:   3175.21   0.002432   12.29  0.000239  (-0.015460 -0.000005  0.000000)
 61:   3175.27   0.000000    0.00  0.000000  (-0.000090 -0.000004  0.000020)
 62:   3182.64   0.002628   13.28  0.000258  (-0.000014  0.016052  0.000000)
 63:   3182.65   0.000003    0.02  0.000000  (-0.000009  0.000561  0.000002)
 64:   3191.55   0.003952   19.97  0.000386  (-0.019659 -0.000011  0.000001)
 65:   3191.60   0.000002    0.01  0.000000  ( 0.000476 -0.000004  0.000015)

--------------------------
THERMOCHEMISTRY AT 298.15K
--------------------------

Temperature         ...   298.15 K
Pressure            ...     1.00 atm
Total Mass          ...   184.19 AMU
Quasi RRHO          ...     True
Cut-Off Frequency   ...     1.00 cm^-1

Throughout the following assumptions are being made:
  (1) The electronic state is orbitally nondegenerate
  (2) There are no thermally accessible electronically excited states
  (3) Hindered rotations indicated by low frequency modes are not
      treated as such but are treated as vibrations and this may
      cause some error
  (4) All equations used are the standard statistical mechanics
      equations for an ideal gas
  (5) All vibrations are strictly harmonic

freq.      52.93  E(vib)   ...       0.52
freq.     129.32  E(vib)   ...       0.43
freq.     241.45  E(vib)   ...       0.31
freq.     242.47  E(vib)   ...       0.31
freq.     275.77  E(vib)   ...       0.28
freq.     307.75  E(vib)   ...       0.26
freq.     398.02  E(vib)   ...       0.20
freq.     443.97  E(vib)   ...       0.17
freq.     458.29  E(vib)   ...       0.16
freq.     463.57  E(vib)   ...       0.16
freq.     547.23  E(vib)   ...       0.12
freq.     556.13  E(vib)   ...       0.12
freq.     562.34  E(vib)   ...       0.11
freq.     575.96  E(vib)   ...       0.11
freq.     626.34  E(vib)   ...       0.09
freq.     671.98  E(vib)   ...       0.08
freq.     687.22  E(vib)   ...       0.07
freq.     708.05  E(vib)   ...       0.07
freq.     735.07  E(vib)   ...       0.06
freq.     751.77  E(vib)   ...       0.06
freq.     753.75  E(vib)   ...       0.06
freq.     842.21  E(vib)   ...       0.04
freq.     843.61  E(vib)   ...       0.04
freq.     846.80  E(vib)   ...       0.04
freq.     863.01  E(vib)   ...       0.04
freq.     902.91  E(vib)   ...       0.03
freq.     917.65  E(vib)   ...       0.03
freq.     918.82  E(vib)   ...       0.03
freq.     932.19  E(vib)   ...       0.03
freq.     933.71  E(vib)   ...       0.03
freq.    1048.88  E(vib)   ...       0.02
freq.    1050.76  E(vib)   ...       0.02
freq.    1108.12  E(vib)   ...       0.02
freq.    1134.67  E(vib)   ...       0.01
freq.    1174.44  E(vib)   ...       0.01
freq.    1174.94  E(vib)   ...       0.01
freq.    1182.52  E(vib)   ...       0.01
freq.    1200.57  E(vib)   ...       0.01
freq.    1229.50  E(vib)   ...       0.01
freq.    1282.75  E(vib)   ...       0.01
freq.    1286.22  E(vib)   ...       0.01
freq.    1308.59  E(vib)   ...       0.01
freq.    1348.49  E(vib)   ...       0.01
freq.    1371.29  E(vib)   ...       0.01
freq.    1473.73  E(vib)   ...       0.00
freq.    1497.25  E(vib)   ...       0.00
freq.    1509.79  E(vib)   ...       0.00
freq.    1523.62  E(vib)   ...       0.00
freq.    1611.16  E(vib)   ...       0.00
freq.    1621.41  E(vib)   ...       0.00
freq.    1654.25  E(vib)   ...       0.00
freq.    1658.10  E(vib)   ...       0.00
freq.    3167.41  E(vib)   ...       0.00
freq.    3167.57  E(vib)   ...       0.00
freq.    3175.21  E(vib)   ...       0.00
freq.    3175.27  E(vib)   ...       0.00
freq.    3182.64  E(vib)   ...       0.00
freq.    3182.65  E(vib)   ...       0.00
freq.    3191.55  E(vib)   ...       0.00
freq.    3191.60  E(vib)   ...       0.00

------------
INNER ENERGY
------------

The inner energy is: U= E(el) + E(ZPE) + E(vib) + E(rot) + E(trans)
    E(el)   - is the total energy from the electronic structure calculation
              = E(kin-el) + E(nuc-el) + E(el-el) + E(nuc-nuc)
    E(ZPE)  - the the zero temperature vibrational energy from the frequency calculation
    E(vib)  - the the finite temperature correction to E(ZPE) due to population
              of excited vibrational states
    E(rot)  - is the rotational thermal energy
    E(trans)- is the translational thermal energy

Summary of contributions to the inner energy U:
Electronic energy                ...   -612.44489929 Eh
Zero point energy                ...      0.16647771 Eh     104.47 kcal/mol
Thermal vibrational correction   ...      0.00676023 Eh       4.24 kcal/mol
Thermal rotational correction    ...      0.00141627 Eh       0.89 kcal/mol
Thermal translational correction ...      0.00141627 Eh       0.89 kcal/mol
-----------------------------------------------------------------------
Total thermal energy                   -612.26882880 Eh

Summary of corrections to the electronic energy:
(perhaps to be used in another calculation)
Total thermal correction                  0.00959278 Eh       6.02 kcal/mol
Non-thermal (ZPE) correction              0.16647771 Eh     104.47 kcal/mol
-----------------------------------------------------------------------
Total correction                          0.17607049 Eh     110.49 kcal/mol

--------
ENTHALPY
--------

The enthalpy is H = U + kB*T
                kB is Boltzmann's constant
Total thermal energy              ...   -612.26882880 Eh
Thermal Enthalpy correction       ...      0.00094421 Eh       0.59 kcal/mol
-----------------------------------------------------------------------
Total Enthalpy                    ...   -612.26788459 Eh

WARNING (ORCA/SYM): A non-planar off-center atom subset has been encountered
in function TSymmetryFinder::FilterSubsetShapes() which cannot occur under
regular conditions. The full point group may not be assigned correctly. If the
symmetry appears to be too low, please try increasing the cleaning tolerance
using option SymThresh in the %symmetry input block. If the problem persists,
you may post a message in the ORCA forum.

WARNING (ORCA/SYM): A non-planar off-center atom subset has been encountered
in function TSymmetryFinder::FilterSubsetShapes() which cannot occur under
regular conditions. The full point group may not be assigned correctly. If the
symmetry appears to be too low, please try increasing the cleaning tolerance
using option SymThresh in the %symmetry input block. If the problem persists,
you may post a message in the ORCA forum.

WARNING (ORCA/SYM): A non-planar off-center atom subset has been encountered
in function TSymmetryFinder::FilterSubsetShapes() which cannot occur under
regular conditions. The full point group may not be assigned correctly. If the
symmetry appears to be too low, please try increasing the cleaning tolerance
using option SymThresh in the %symmetry input block. If the problem persists,
you may post a message in the ORCA forum.

WARNING (ORCA/SYM): A non-planar off-center atom subset has been encountered
in function TSymmetryFinder::FilterSubsetShapes() which cannot occur under
regular conditions. The full point group may not be assigned correctly. If the
symmetry appears to be too low, please try increasing the cleaning tolerance
using option SymThresh in the %symmetry input block. If the problem persists,
you may post a message in the ORCA forum.

Note: Rotational entropy computed according to Herzberg
Infrared and Raman Spectra, Chapter V,1, Van Nostrand Reinhold, 1945
Point Group:  C2, Symmetry Number:   2
Rotational constants in cm-1:     0.071220     0.015938     0.013023

Vibrational entropy computed according to the QRRHO of S. Grimme
Chem.Eur.J. 2012 18 9955 using a reference frequency of 100.0 cm-1

-------

                             ****ORCA TERMINATED NORMALLY****
TOTAL RUN TIME: 0 days 0 hours 32 minutes 10 seconds 151 msec
