                         Program Version 6.0.0  -   RELEASE  -
|  1> ! r2SCAN-3c DEF2-TZVP FREQ
|  2> * xyzfile 0 1 vacuum_censo.xyz
|  3>
|  4>                          ****END OF INPUT****

CARTESIAN COORDINATES (ANGSTROEM)
---------------------------------
  C      3.575149    0.695317   -0.000292
  C      3.575156   -0.695296   -0.000216
  C      2.369595   -1.392445   -0.000048
  C      1.170173   -0.697475    0.000071
  C      1.170164    0.697478    0.000058
  C      2.369582    1.392457   -0.000158
  O     -0.000013    1.428119    0.000280
  C     -1.170183    0.697461    0.000169
  C     -2.369609    1.392426    0.000155
  C     -3.575166    0.695270    0.000008
  C     -3.575155   -0.695345   -0.000158
  C     -2.369586   -1.392477   -0.000125
  C     -1.170172   -0.697490    0.000082
  O      0.000004   -1.428130    0.000233
  H      4.510126    1.244392   -0.000448
  H      4.510138   -1.244364   -0.000293
  H      2.338887   -2.476638    0.000003
  H      2.338871    2.476649   -0.000204
  H     -2.338911    2.476620    0.000266
  H     -4.510154    1.244327    0.000015
  H     -4.510134   -1.244416   -0.000311
  H     -2.338855   -2.476669   -0.000239

 Total Charge           Charge          ....    0
 Multiplicity           Mult            ....    1
 Number of Electrons    NEL             ....   96
 Basis Dimension        Dim             ....  482

ORBITAL ENERGIES
----------------

  NO   OCC          E(Eh)            E(eV)
   0   2.0000     -19.014633      -517.4145
   1   2.0000     -19.014620      -517.4141
   2   2.0000     -10.108555      -275.0678
   3   2.0000     -10.108545      -275.0675
   4   2.0000     -10.108138      -275.0564
   5   2.0000     -10.108126      -275.0561
   6   2.0000     -10.044957      -273.3372
   7   2.0000     -10.044953      -273.3371
   8   2.0000     -10.044947      -273.3369
   9   2.0000     -10.044944      -273.3368
  10   2.0000     -10.042416      -273.2680
  11   2.0000     -10.042416      -273.2680
  12   2.0000     -10.041980      -273.2562
  13   2.0000     -10.041979      -273.2561
  14   2.0000      -1.079544       -29.3759
  15   2.0000      -1.046535       -28.4777
  16   2.0000      -0.846393       -23.0315
  17   2.0000      -0.818984       -22.2857
  18   2.0000      -0.747645       -20.3445
  19   2.0000      -0.738517       -20.0961
  20   2.0000      -0.714134       -19.4326
  21   2.0000      -0.694972       -18.9111
  22   2.0000      -0.630679       -17.1617
  23   2.0000      -0.611782       -16.6474
  24   2.0000      -0.579062       -15.7571
  25   2.0000      -0.560630       -15.2555
  26   2.0000      -0.544811       -14.8251
  27   2.0000      -0.487849       -13.2750
  28   2.0000      -0.481686       -13.1073
  29   2.0000      -0.449024       -12.2186
  30   2.0000      -0.448329       -12.1997
  31   2.0000      -0.447591       -12.1796
  32   2.0000      -0.419676       -11.4200
  33   2.0000      -0.412673       -11.2294
  34   2.0000      -0.409521       -11.1436
  35   2.0000      -0.386598       -10.5199
  36   2.0000      -0.384905       -10.4738
  37   2.0000      -0.365272        -9.9396
  38   2.0000      -0.360904        -9.8207
  39   2.0000      -0.357793        -9.7360
  40   2.0000      -0.337562        -9.1855
  41   2.0000      -0.337349        -9.1797
  42   2.0000      -0.315690        -8.5904
  43   2.0000      -0.304997        -8.2994
  44   2.0000      -0.251521        -6.8442
  45   2.0000      -0.249660        -6.7936
  46   2.0000      -0.226248        -6.1565
  47   2.0000      -0.184755        -5.0274
  48   0.0000      -0.046596        -1.2679
  49   0.0000      -0.041376        -1.1259
  50   0.0000      -0.038174        -1.0388
  51   0.0000      -0.004244        -0.1155
  52   0.0000       0.028794         0.7835

MULLIKEN ATOMIC CHARGES
-----------------------
   0 C :   -0.089967
   1 C :   -0.089897
   2 C :   -0.247212
   3 C :    0.237428
   4 C :    0.237285
   5 C :   -0.247114
   6 O :   -0.248506
   7 C :    0.237372
   8 C :   -0.247155
   9 C :   -0.089912
  10 C :   -0.089955
  11 C :   -0.247144
  12 C :    0.237345
  13 O :   -0.248510
  14 H :    0.112036
  15 H :    0.112041
  16 H :    0.111951
  17 H :    0.111957
  18 H :    0.111940
  19 H :    0.112033
  20 H :    0.112031
  21 H :    0.111951
Sum of atomic charges:   -0.0000000

LOEWDIN ATOMIC CHARGES
----------------------
   0 C :   -0.147116
   1 C :   -0.147116
   2 C :   -0.111215
   3 C :   -0.203037
   4 C :   -0.203037
   5 C :   -0.111214
   6 O :    0.329381
   7 C :   -0.203036
   8 C :   -0.111214
   9 C :   -0.147115
  10 C :   -0.147116
  11 C :   -0.111215
  12 C :   -0.203038
  13 O :    0.329383
  14 H :    0.144760
  15 H :    0.144760
  16 H :    0.151916
  17 H :    0.151916
  18 H :    0.151916
  19 H :    0.144760
  20 H :    0.144760
  21 H :    0.151916

  Mayer bond orders larger than 0.100000
B(  0-C ,  1-C ) :   1.3952 B(  0-C ,  5-C ) :   1.3664 B(  0-C , 14-H ) :   0.9741
B(  1-C ,  2-C ) :   1.3664 B(  1-C , 15-H ) :   0.9741 B(  2-C ,  3-C ) :   1.3574
B(  2-C , 16-H ) :   0.9843 B(  3-C ,  4-C ) :   1.3638 B(  3-C , 13-O ) :   0.9832
B(  4-C ,  5-C ) :   1.3574 B(  4-C ,  6-O ) :   0.9832 B(  5-C , 17-H ) :   0.9843
B(  6-O ,  7-C ) :   0.9832 B(  7-C ,  8-C ) :   1.3574 B(  7-C , 12-C ) :   1.3638
B(  8-C ,  9-C ) :   1.3663 B(  8-C , 18-H ) :   0.9843 B(  9-C , 10-C ) :   1.3951
B(  9-C , 19-H ) :   0.9741 B( 10-C , 11-C ) :   1.3664 B( 10-C , 20-H ) :   0.9741
B( 11-C , 12-C ) :   1.3574 B( 11-C , 21-H ) :   0.9843 B( 12-C , 13-O ) :   0.9832

Dispersion correction           -0.009204055
FINAL SINGLE POINT ENERGY      -612.445269001860

DIPOLE MOMENT
-------------

Method             : SCF
Type of density    : Electron Density
Multiplicity       :   1
Irrep              :   0
Energy             :  -612.4424262801321674 Eh
Relativity type    :
Basis              : AO
                                X                 Y                 Z
Electronic contribution:     -0.000005550       0.000019875       0.001064385
Nuclear contribution   :      0.000003400      -0.000022903      -0.001193076
                        -----------------------------------------
Total Dipole Moment    :     -0.000002149      -0.000003028      -0.000128690
                        -----------------------------------------
Magnitude (a.u.)       :      0.000128744
Magnitude (Debye)      :      0.000327241

VIBRATIONAL FREQUENCIES
-----------------------

Scaling factor for frequencies =  1.000000000  (already applied!)

     0:       0.00 cm**-1
     1:       0.00 cm**-1
     2:       0.00 cm**-1
     3:       0.00 cm**-1
     4:       0.00 cm**-1
     5:       0.00 cm**-1
     6:      42.48 cm**-1
     7:     124.94 cm**-1
     8:     235.45 cm**-1
     9:     243.23 cm**-1
    10:     272.05 cm**-1
    11:     300.48 cm**-1
    12:     401.08 cm**-1
    13:     445.53 cm**-1
    14:     454.95 cm**-1
    15:     458.83 cm**-1
    16:     547.52 cm**-1
    17:     555.27 cm**-1
    18:     560.69 cm**-1
    19:     575.98 cm**-1
    20:     626.87 cm**-1
    21:     670.98 cm**-1
    22:     688.08 cm**-1
    23:     706.97 cm**-1
    24:     739.03 cm**-1
    25:     749.67 cm**-1
    26:     751.68 cm**-1
    27:     839.98 cm**-1
    28:     844.79 cm**-1
    29:     848.40 cm**-1
    30:     868.24 cm**-1
    31:     909.60 cm**-1
    32:     915.21 cm**-1
    33:     916.44 cm**-1
    34:     930.59 cm**-1
    35:     932.06 cm**-1
    36:    1051.04 cm**-1
    37:    1052.67 cm**-1
    38:    1113.94 cm**-1
    39:    1136.29 cm**-1
    40:    1174.88 cm**-1
    41:    1175.44 cm**-1
    42:    1197.77 cm**-1
    43:    1213.99 cm**-1
    44:    1241.26 cm**-1
    45:    1286.35 cm**-1
    46:    1306.49 cm**-1
    47:    1309.64 cm**-1
    48:    1349.77 cm**-1
    49:    1373.63 cm**-1
    50:    1475.56 cm**-1
    51:    1499.10 cm**-1
    52:    1516.15 cm**-1
    53:    1529.05 cm**-1
    54:    1614.29 cm**-1
    55:    1622.38 cm**-1
    56:    1655.33 cm**-1
    57:    1663.12 cm**-1
    58:    3171.10 cm**-1
    59:    3171.27 cm**-1
    60:    3180.13 cm**-1
    61:    3180.17 cm**-1
    62:    3187.69 cm**-1
    63:    3187.70 cm**-1
    64:    3195.46 cm**-1
    65:    3195.54 cm**-1

IR SPECTRUM
-----------

 Mode   freq       eps      Int      T**2         TX        TY        TZ
       cm**-1   L/(mol*cm) km/mol    a.u.
----------------------------------------------------------------------------
  6:     42.48   0.000225    1.14  0.001653  ( 0.000008 -0.000003 -0.040657)
  7:    124.94   0.000000    0.00  0.000000  ( 0.000013 -0.000004 -0.000003)
  8:    235.45   0.000000    0.00  0.000000  ( 0.000007  0.000065 -0.000000)
  9:    243.23   0.000325    1.64  0.000416  (-0.000000  0.020405 -0.000000)
 10:    272.05   0.000000    0.00  0.000000  ( 0.000039 -0.000011  0.000005)
 11:    300.48   0.000094    0.47  0.000097  (-0.000010 -0.000014  0.009871)
 12:    401.08   0.000000    0.00  0.000000  ( 0.000000  0.000000  0.000003)
 13:    445.53   0.000000    0.00  0.000000  ( 0.000000 -0.000000  0.000018)
 14:    454.95   0.000000    0.00  0.000000  (-0.000001  0.000009 -0.000005)
 15:    458.83   0.001521    7.69  0.001035  (-0.000000  0.000001 -0.032164)
 16:    547.52   0.000000    0.00  0.000000  ( 0.000000 -0.000000  0.000003)
 17:    555.27   0.000000    0.00  0.000000  (-0.000002 -0.000007  0.000006)
 18:    560.69   0.000000    0.00  0.000000  (-0.000010 -0.000022  0.000002)
 19:    575.98   0.000000    0.00  0.000000  ( 0.000000  0.000000 -0.000015)
 20:    626.87   0.000350    1.77  0.000174  ( 0.013197  0.000000 -0.000000)
 21:    670.98   0.000000    0.00  0.000000  (-0.000007 -0.000001  0.000006)
 22:    688.08   0.000001    0.01  0.000001  ( 0.000000 -0.000733 -0.000002)
 23:    706.97   0.000000    0.00  0.000000  ( 0.000029  0.000034 -0.000000)
 24:    739.03   0.000000    0.00  0.000000  ( 0.000000  0.000000 -0.000055)
 25:    749.67   0.029378  148.46  0.012229  (-0.000003  0.000015  0.110585)
 26:    751.68   0.000000    0.00  0.000000  ( 0.000016  0.000038  0.000057)
 27:    839.98   0.000000    0.00  0.000000  (-0.000002 -0.000001 -0.000002)
 28:    844.79   0.000000    0.00  0.000000  (-0.000014 -0.000012 -0.000000)
 29:    848.40   0.009662   48.83  0.003554  ( 0.059616  0.000001 -0.000001)
 30:    868.24   0.003711   18.75  0.001334  (-0.000001  0.036522  0.000000)
 31:    909.60   0.000000    0.00  0.000000  ( 0.000000 -0.000000  0.000008)
 32:    915.21   0.000000    0.00  0.000000  ( 0.000006 -0.000017 -0.000019)
 33:    916.44   0.001728    8.73  0.000588  (-0.000001 -0.000007 -0.024254)
 34:    930.59   0.000000    0.00  0.000000  (-0.000004  0.000002  0.000004)
 35:    932.06   0.000000    0.00  0.000000  (-0.000015 -0.000017  0.000000)
 36:   1051.04   0.000000    0.00  0.000000  ( 0.000003  0.000000  0.000005)
 37:   1052.67   0.002844   14.37  0.000843  (-0.029038 -0.000000  0.000001)
 38:   1113.94   0.000000    0.00  0.000000  (-0.000001  0.000000 -0.000002)
 39:   1136.29   0.004572   23.11  0.001256  ( 0.000000  0.035435  0.000001)
 40:   1174.88   0.000573    2.90  0.000152  (-0.012336 -0.000000  0.000000)
 41:   1175.44   0.000000    0.00  0.000000  (-0.000001  0.000000  0.000002)
 42:   1197.77   0.000000    0.00  0.000000  (-0.000004  0.000000  0.000004)
 43:   1213.99   0.001469    7.42  0.000378  (-0.000003 -0.019430  0.000000)
 44:   1241.26   0.000000    0.00  0.000000  (-0.000000 -0.000001  0.000010)
 45:   1286.35   0.000000    0.00  0.000000  ( 0.000010  0.000000 -0.000003)
 46:   1306.49   0.144375  729.61  0.034485  ( 0.185701  0.000001 -0.000005)
 47:   1309.64   0.000308    1.56  0.000073  (-0.000004  0.008570  0.000001)
 48:   1349.77   0.006584   33.28  0.001522  ( 0.039017  0.000000 -0.000001)
 49:   1373.63   0.000000    0.00  0.000000  ( 0.000004  0.000000 -0.000000)
 50:   1475.56   0.000000    0.00  0.000000  ( 0.000002  0.000000  0.000001)
 51:   1499.10   0.000997    5.04  0.000207  ( 0.000004 -0.014403  0.000000)
 52:   1516.15   0.120040  606.63  0.024707  ( 0.157186  0.000001 -0.000004)
 53:   1529.05   0.000000    0.00  0.000000  ( 0.000003 -0.000001 -0.000009)
 54:   1614.29   0.000000    0.00  0.000000  ( 0.000002  0.000000  0.000003)
 55:   1622.38   0.010556   53.34  0.002030  (-0.045060 -0.000000  0.000001)
 56:   1655.33   0.000000    0.00  0.000000  (-0.000002  0.000000 -0.000002)
 57:   1663.12   0.000545    2.75  0.000102  ( 0.000001 -0.010112  0.000001)
 58:   3171.10   0.000000    0.00  0.000000  ( 0.000000  0.000010  0.000001)
 59:   3171.27   0.000263    1.33  0.000026  (-0.000002  0.005086  0.000000)
 60:   3180.13   0.002939   14.85  0.000288  ( 0.016983  0.000001 -0.000000)
 61:   3180.17   0.000001    0.01  0.000000  (-0.000335  0.000000  0.000002)
 62:   3187.69   0.002063   10.43  0.000202  ( 0.000003 -0.014211 -0.000001)
 63:   3187.70   0.000616    3.11  0.000060  (-0.000001  0.007763 -0.000001)
 64:   3195.46   0.003459   17.48  0.000338  ( 0.018380  0.000002 -0.000000)
 65:   3195.54   0.000000    0.00  0.000000  (-0.000122 -0.000000  0.000001)

--------------------------
THERMOCHEMISTRY AT 298.15K
--------------------------

Temperature         ...   298.15 K
Pressure            ...     1.00 atm
Total Mass          ...   184.19 AMU
Quasi RRHO          ...     True
Cut-Off Frequency   ...     1.00 cm^-1

Throughout the following assumptions are being made:
  (1) The electronic state is orbitally nondegenerate
  (2) There are no thermally accessible electronically excited states
  (3) Hindered rotations indicated by low frequency modes are not
      treated as such but are treated as vibrations and this may
      cause some error
  (4) All equations used are the standard statistical mechanics
      equations for an ideal gas
  (5) All vibrations are strictly harmonic

freq.      42.48  E(vib)   ...       0.53
freq.     124.94  E(vib)   ...       0.43
freq.     235.45  E(vib)   ...       0.32
freq.     243.23  E(vib)   ...       0.31
freq.     272.05  E(vib)   ...       0.29
freq.     300.48  E(vib)   ...       0.26
freq.     401.08  E(vib)   ...       0.19
freq.     445.53  E(vib)   ...       0.17
freq.     454.95  E(vib)   ...       0.16
freq.     458.83  E(vib)   ...       0.16
freq.     547.52  E(vib)   ...       0.12
freq.     555.27  E(vib)   ...       0.12
freq.     560.69  E(vib)   ...       0.11
freq.     575.98  E(vib)   ...       0.11
freq.     626.87  E(vib)   ...       0.09
freq.     670.98  E(vib)   ...       0.08
freq.     688.08  E(vib)   ...       0.07
freq.     706.97  E(vib)   ...       0.07
freq.     739.03  E(vib)   ...       0.06
freq.     749.67  E(vib)   ...       0.06
freq.     751.68  E(vib)   ...       0.06
freq.     839.98  E(vib)   ...       0.04
freq.     844.79  E(vib)   ...       0.04
freq.     848.40  E(vib)   ...       0.04
freq.     868.24  E(vib)   ...       0.04
freq.     909.60  E(vib)   ...       0.03
freq.     915.21  E(vib)   ...       0.03
freq.     916.44  E(vib)   ...       0.03
freq.     930.59  E(vib)   ...       0.03
freq.     932.06  E(vib)   ...       0.03
freq.    1051.04  E(vib)   ...       0.02
freq.    1052.67  E(vib)   ...       0.02
freq.    1113.94  E(vib)   ...       0.01
freq.    1136.29  E(vib)   ...       0.01
freq.    1174.88  E(vib)   ...       0.01
freq.    1175.44  E(vib)   ...       0.01
freq.    1197.77  E(vib)   ...       0.01
freq.    1213.99  E(vib)   ...       0.01
freq.    1241.26  E(vib)   ...       0.01
freq.    1286.35  E(vib)   ...       0.01
freq.    1306.49  E(vib)   ...       0.01
freq.    1309.64  E(vib)   ...       0.01
freq.    1349.77  E(vib)   ...       0.01
freq.    1373.63  E(vib)   ...       0.01
freq.    1475.56  E(vib)   ...       0.00
freq.    1499.10  E(vib)   ...       0.00
freq.    1516.15  E(vib)   ...       0.00
freq.    1529.05  E(vib)   ...       0.00
freq.    1614.29  E(vib)   ...       0.00
freq.    1622.38  E(vib)   ...       0.00
freq.    1655.33  E(vib)   ...       0.00
freq.    1663.12  E(vib)   ...       0.00
freq.    3171.10  E(vib)   ...       0.00
freq.    3171.27  E(vib)   ...       0.00
freq.    3180.13  E(vib)   ...       0.00
freq.    3180.17  E(vib)   ...       0.00
freq.    3187.69  E(vib)   ...       0.00
freq.    3187.70  E(vib)   ...       0.00
freq.    3195.46  E(vib)   ...       0.00
freq.    3195.54  E(vib)   ...       0.00

------------
INNER ENERGY
------------

The inner energy is: U= E(el) + E(ZPE) + E(vib) + E(rot) + E(trans)
    E(el)   - is the total energy from the electronic structure calculation
              = E(kin-el) + E(nuc-el) + E(el-el) + E(nuc-nuc)
    E(ZPE)  - the the zero temperature vibrational energy from the frequency calculation
    E(vib)  - the the finite temperature correction to E(ZPE) due to population
              of excited vibrational states
    E(rot)  - is the rotational thermal energy
    E(trans)- is the translational thermal energy

Summary of contributions to the inner energy U:
Electronic energy                ...   -612.44526900 Eh
Zero point energy                ...      0.16672603 Eh     104.62 kcal/mol
Thermal vibrational correction   ...      0.00680895 Eh       4.27 kcal/mol
Thermal rotational correction    ...      0.00141627 Eh       0.89 kcal/mol
Thermal translational correction ...      0.00141627 Eh       0.89 kcal/mol
-----------------------------------------------------------------------
Total thermal energy                   -612.26890148 Eh

Summary of corrections to the electronic energy:
(perhaps to be used in another calculation)
Total thermal correction                  0.00964149 Eh       6.05 kcal/mol
Non-thermal (ZPE) correction              0.16672603 Eh     104.62 kcal/mol
-----------------------------------------------------------------------
Total correction                          0.17636752 Eh     110.67 kcal/mol

--------
ENTHALPY
--------

The enthalpy is H = U + kB*T
                kB is Boltzmann's constant
Total thermal energy              ...   -612.26890148 Eh
Thermal Enthalpy correction       ...      0.00094421 Eh       0.59 kcal/mol
-----------------------------------------------------------------------
Total Enthalpy                    ...   -612.26795727 Eh

WARNING (ORCA/SYM): A non-planar off-center atom subset has been encountered
in function TSymmetryFinder::FilterSubsetShapes() which cannot occur under
regular conditions. The full point group may not be assigned correctly. If the
symmetry appears to be too low, please try increasing the cleaning tolerance
using option SymThresh in the %symmetry input block. If the problem persists,
you may post a message in the ORCA forum.

WARNING (ORCA/SYM): A non-planar off-center atom subset has been encountered
in function TSymmetryFinder::FilterSubsetShapes() which cannot occur under
regular conditions. The full point group may not be assigned correctly. If the
symmetry appears to be too low, please try increasing the cleaning tolerance
using option SymThresh in the %symmetry input block. If the problem persists,
you may post a message in the ORCA forum.

Note: Rotational entropy computed according to Herzberg
Infrared and Raman Spectra, Chapter V,1, Van Nostrand Reinhold, 1945
Point Group:  C2, Symmetry Number:   2
Rotational constants in cm-1:     0.071434     0.015998     0.013071

Vibrational entropy computed according to the QRRHO of S. Grimme
Chem.Eur.J. 2012 18 9955 using a reference frequency of 100.0 cm-1

-------
ENTROPY
-------

The entropy contributions are T*S = T*(S(el)+S(vib)+S(rot)+S(trans))
     S(el)   - electronic entropy
     S(vib)  - vibrational entropy
     S(rot)  - rotational entropy
     S(trans)- translational entropy
The entropies will be listed as multiplied by the temperature to get
units of energy

Electronic entropy                ...      0.00000000 Eh      0.00 kcal/mol
Vibrational entropy               ...      0.01085494 Eh      6.81 kcal/mol
Rotational entropy                ...      0.01410204 Eh      8.85 kcal/mol

                             ****ORCA TERMINATED NORMALLY****
TOTAL RUN TIME: 0 days 0 hours 32 minutes 38 seconds 625 msec
