                         Program Version 6.0.0  -   RELEASE  -
|  1> ! r2SCAN-3c DEF2-TZVP FREQ
|  2> * xyzfile 0 1 censo.xyz
|  3>
|  4>                          ****END OF INPUT****

CARTESIAN COORDINATES (ANGSTROEM)
---------------------------------
  C     -2.926580   -0.374905    0.001445
  C     -2.684128    1.016497    0.002410
  C     -1.398109    1.505240    0.000703
  C     -0.284863    0.625078   -0.003077
  C      1.045712    1.097484   -0.004919
  C      2.116928    0.218103   -0.012484
  C      1.861590   -1.181960   -0.007415
  C      0.578679   -1.662525   -0.001118
  C     -0.534932   -0.785656   -0.001859
  C     -1.868580   -1.255605    0.000239
  N      3.427929    0.664140   -0.085078
  H     -3.946893   -0.744598    0.001889
  H     -3.523359    1.705444    0.004013
  H     -1.217193    2.576655    0.001265
  H      1.225290    2.169812   -0.003095
  H      2.704341   -1.867888   -0.008672
  H      0.401053   -2.734452    0.005541
  H     -2.041987   -2.328485    0.000380
  H      4.115171    0.021954    0.282441
  H      3.574518    1.612550    0.229588

 Total Charge           Charge          ....    0
 Multiplicity           Mult            ....    1
 Number of Electrons    NEL             ....   76
 Basis Dimension        Dim             ....  395

ORBITAL ENERGIES
----------------

  NO   OCC          E(Eh)            E(eV)
   0   2.0000     -14.173969      -385.6933
   1   2.0000     -10.077132      -274.2127
   2   2.0000     -10.042207      -273.2624
   3   2.0000     -10.037772      -273.1417
   4   2.0000     -10.036680      -273.1119
   5   2.0000     -10.035364      -273.0761
   6   2.0000     -10.031840      -272.9802
   7   2.0000     -10.031201      -272.9628
   8   2.0000     -10.029628      -272.9201
   9   2.0000     -10.027732      -272.8685
  10   2.0000     -10.026359      -272.8311
  11   2.0000      -0.893187       -24.3049
  12   2.0000      -0.828882       -22.5550
  13   2.0000      -0.773402       -21.0453
  14   2.0000      -0.734171       -19.9778
  15   2.0000      -0.697602       -18.9827
  16   2.0000      -0.677544       -18.4369
  17   2.0000      -0.594657       -16.1814
  18   2.0000      -0.575106       -15.6494
  19   2.0000      -0.561609       -15.2822
  20   2.0000      -0.497284       -13.5318
  21   2.0000      -0.488271       -13.2865
  22   2.0000      -0.476215       -12.9585
  23   2.0000      -0.446175       -12.1410
  24   2.0000      -0.416263       -11.3271
  25   2.0000      -0.406373       -11.0580
  26   2.0000      -0.387687       -10.5495
  27   2.0000      -0.378570       -10.3014
  28   2.0000      -0.374087       -10.1794
  29   2.0000      -0.369407       -10.0521
  30   2.0000      -0.338318        -9.2061
  31   2.0000      -0.329319        -8.9612
  32   2.0000      -0.309546        -8.4232
  33   2.0000      -0.295662        -8.0454
  34   2.0000      -0.275245        -7.4898
  35   2.0000      -0.254908        -6.9364
  36   2.0000      -0.211300        -5.7498
  37   2.0000      -0.180473        -4.9109
  38   0.0000      -0.060363        -1.6426
  39   0.0000      -0.025821        -0.7026
  40   0.0000       0.000091         0.0025
  41   0.0000       0.038647         1.0516
  42   0.0000       0.064678         1.7600

MULLIKEN ATOMIC CHARGES
-----------------------
   0 C :   -0.118795
   1 C :   -0.082646
   2 C :   -0.235397
   3 C :    0.212723
   4 C :   -0.350402
   5 C :    0.347227
   6 C :   -0.228359
   7 C :   -0.181010
   8 C :    0.146359
   9 C :   -0.196391
  10 N :   -0.438932
  11 H :    0.104877
  12 H :    0.105107
  13 H :    0.090586
  14 H :    0.080196
  15 H :    0.092091
  16 H :    0.097559
  17 H :    0.094733
  18 H :    0.230344
  19 H :    0.230129
Sum of atomic charges:   -0.0000000

LOEWDIN ATOMIC CHARGES
----------------------
   0 C :   -0.153964
   1 C :   -0.144657
   2 C :   -0.109804
   3 C :   -0.096330
   4 C :   -0.107127
   5 C :   -0.248336
   6 C :   -0.127820
   7 C :   -0.100098
   8 C :   -0.103092
   9 C :   -0.106217
  10 N :   -0.035606
  11 H :    0.141002
  12 H :    0.142012
  13 H :    0.143697
  14 H :    0.143101
  15 H :    0.141980
  16 H :    0.147179
  17 H :    0.144913
  18 H :    0.164288
  19 H :    0.164877

  Mayer bond orders larger than 0.100000
B(  0-C ,  1-C ) :   1.2556 B(  0-C ,  9-C ) :   1.5148 B(  0-C , 11-H ) :   0.9728
B(  1-C ,  2-C ) :   1.5253 B(  1-C , 12-H ) :   0.9699 B(  2-C ,  3-C ) :   1.1813
B(  2-C , 13-H ) :   0.9888 B(  3-C ,  4-C ) :   1.2740 B(  3-C ,  8-C ) :   1.1978
B(  4-C ,  5-C ) :   1.4369 B(  4-C , 14-H ) :   0.9681 B(  5-C ,  6-C ) :   1.1990
B(  5-C , 10-N ) :   1.0647 B(  6-C ,  7-C ) :   1.5797 B(  6-C , 15-H ) :   0.9695
B(  7-C ,  8-C ) :   1.1865 B(  7-C , 16-H ) :   0.9815 B(  8-C ,  9-C ) :   1.2020
B(  9-C , 17-H ) :   0.9853 B( 10-N , 18-H ) :   0.9183 B( 10-N , 19-H ) :   0.9209

Dispersion correction           -0.007801505
FINAL SINGLE POINT ENERGY      -441.169956569808

DIPOLE MOMENT
-------------

Method             : SCF
Type of density    : Electron Density
Multiplicity       :   1
Irrep              :   0
Energy             :  -441.1687242898325394 Eh
Relativity type    :
Basis              : AO
                                X                 Y                 Z
Electronic contribution:     -0.465995078      -0.289500277      -0.174775131
Nuclear contribution   :      1.221756980       0.381620799       0.539406248
                        -----------------------------------------
Total Dipole Moment    :      0.755761902       0.092120521       0.364631116
                        -----------------------------------------
Magnitude (a.u.)       :      0.844167101
Magnitude (Debye)      :      2.145702249

VIBRATIONAL FREQUENCIES
-----------------------

Scaling factor for frequencies =  1.000000000  (already applied!)

     0:       0.00 cm**-1
     1:       0.00 cm**-1
     2:       0.00 cm**-1
     3:       0.00 cm**-1
     4:       0.00 cm**-1
     5:       0.00 cm**-1
     6:     120.03 cm**-1
     7:     184.23 cm**-1
     8:     287.75 cm**-1
     9:     292.72 cm**-1
    10:     378.67 cm**-1
    11:     408.13 cm**-1
    12:     428.91 cm**-1
    13:     470.42 cm**-1
    14:     472.97 cm**-1
    15:     532.97 cm**-1
    16:     537.67 cm**-1
    17:     603.85 cm**-1
    18:     640.47 cm**-1
    19:     658.87 cm**-1
    20:     739.65 cm**-1
    21:     748.14 cm**-1
    22:     775.13 cm**-1
    23:     780.01 cm**-1
    24:     809.72 cm**-1
    25:     839.26 cm**-1
    26:     874.36 cm**-1
    27:     922.23 cm**-1
    28:     927.31 cm**-1
    29:     940.01 cm**-1
    30:     956.53 cm**-1
    31:     973.17 cm**-1
    32:    1039.99 cm**-1
    33:    1120.36 cm**-1
    34:    1148.63 cm**-1
    35:    1171.90 cm**-1
    36:    1178.13 cm**-1
    37:    1207.16 cm**-1
    38:    1252.30 cm**-1
    39:    1290.36 cm**-1
    40:    1322.69 cm**-1
    41:    1390.44 cm**-1
    42:    1404.75 cm**-1
    43:    1412.89 cm**-1
    44:    1481.49 cm**-1
    45:    1502.60 cm**-1
    46:    1545.72 cm**-1
    47:    1600.86 cm**-1
    48:    1634.31 cm**-1
    49:    1654.97 cm**-1
    50:    1665.99 cm**-1
    51:    3145.08 cm**-1
    52:    3147.31 cm**-1
    53:    3148.06 cm**-1
    54:    3151.59 cm**-1
    55:    3164.71 cm**-1
    56:    3165.22 cm**-1
    57:    3179.13 cm**-1
    58:    3532.89 cm**-1
    59:    3640.57 cm**-1

IR SPECTRUM
-----------

 Mode   freq       eps      Int      T**2         TX        TY        TZ
       cm**-1   L/(mol*cm) km/mol    a.u.
----------------------------------------------------------------------------
  6:    120.03   0.000731    3.70  0.001901  ( 0.014711  0.004128 -0.040840)
  7:    184.23   0.000263    1.33  0.000446  ( 0.000679 -0.008195 -0.019448)
  8:    287.75   0.000498    2.52  0.000540  (-0.007488  0.021985  0.000970)
  9:    292.72   0.000481    2.43  0.000513  ( 0.017083  0.004299 -0.014241)
 10:    378.67   0.003854   19.48  0.003176  ( 0.033019 -0.045371 -0.005239)
 11:    408.13   0.000271    1.37  0.000207  ( 0.007348  0.007656 -0.009736)
 12:    428.91   0.000305    1.54  0.000222  (-0.006786  0.013085  0.002203)
 13:    470.42   0.000892    4.51  0.000592  ( 0.019366  0.007081 -0.012901)
 14:    472.97   0.004837   24.44  0.003191  ( 0.004982  0.003843 -0.056142)
 15:    532.97   0.000507    2.56  0.000297  (-0.016308  0.001463  0.005359)
 16:    537.67   0.005732   28.97  0.003327  ( 0.047492  0.007244 -0.031922)
 17:    603.85   0.067795  342.61  0.035036  (-0.158204 -0.030150  0.095385)
 18:    640.47   0.000517    2.61  0.000252  ( 0.000373  0.008773 -0.013228)
 19:    658.87   0.004064   20.54  0.001925  ( 0.040252  0.008587 -0.015194)
 20:    739.65   0.001088    5.50  0.000459  ( 0.002000  0.004109 -0.020931)
 21:    748.14   0.005028   25.41  0.002097  ( 0.011863  0.004095  0.044045)
 22:    775.13   0.000087    0.44  0.000035  ( 0.005728 -0.001341  0.000771)
 23:    780.01   0.000006    0.03  0.000002  (-0.001352  0.000463  0.000463)
 24:    809.72   0.003489   17.63  0.001345  ( 0.004929 -0.001724 -0.036298)
 25:    839.26   0.012225   61.78  0.004546  (-0.012623 -0.002371  0.066187)
 26:    874.36   0.000717    3.62  0.000256  (-0.002494 -0.001259  0.015746)
 27:    922.23   0.000291    1.47  0.000098  (-0.009310 -0.000172 -0.003408)
 28:    927.31   0.000121    0.61  0.000041  (-0.001349 -0.000460  0.006225)
 29:    940.01   0.000340    1.72  0.000113  ( 0.000897  0.000264  0.010586)
 30:    956.53   0.000002    0.01  0.000001  ( 0.000012 -0.000094 -0.000732)
 31:    973.17   0.000510    2.58  0.000163  ( 0.012767 -0.000705 -0.000113)
 32:   1039.99   0.001039    5.25  0.000312  ( 0.017638  0.000770  0.000073)
 33:   1120.36   0.000003    0.01  0.000001  (-0.000891  0.000176 -0.000001)
 34:   1148.63   0.000882    4.46  0.000240  (-0.011038  0.010800 -0.001054)
 35:   1171.90   0.002145   10.84  0.000571  ( 0.019373 -0.013988  0.000264)
 36:   1178.13   0.000620    3.13  0.000164  ( 0.012404  0.003188  0.000312)
 37:   1207.16   0.004371   22.09  0.001130  ( 0.028054  0.018487  0.001065)
 38:   1252.30   0.002475   12.51  0.000617  ( 0.024828  0.000441  0.000389)
 39:   1290.36   0.000907    4.58  0.000219  ( 0.001681  0.014713  0.000172)
 40:   1322.69   0.010496   53.04  0.002476  (-0.049634 -0.003549  0.000517)
 41:   1390.44   0.000398    2.01  0.000089  ( 0.000038 -0.009455  0.000148)
 42:   1404.75   0.002060   10.41  0.000458  (-0.015504 -0.014737  0.000203)
 43:   1412.89   0.002485   12.56  0.000549  ( 0.022626  0.006044 -0.000556)
 44:   1481.49   0.001102    5.57  0.000232  ( 0.012730  0.008361  0.000452)
 45:   1502.60   0.004239   21.42  0.000880  (-0.028714 -0.007352  0.001340)
 46:   1545.72   0.009103   46.00  0.001838  (-0.042484 -0.005708  0.000468)
 47:   1600.86   0.000350    1.77  0.000068  (-0.002550  0.007839  0.000481)
 48:   1634.31   0.001854    9.37  0.000354  (-0.016302 -0.008444  0.004126)
 49:   1654.97   0.005093   25.74  0.000960  (-0.028465  0.004842  0.011252)
 50:   1665.99   0.044782  226.31  0.008388  (-0.088627 -0.018553 -0.013758)
 51:   3145.08   0.002468   12.47  0.000245  ( 0.007194  0.013898 -0.000000)
 52:   3147.31   0.001083    5.47  0.000107  (-0.010362 -0.000061  0.000002)
 53:   3148.06   0.003011   15.22  0.000298  (-0.010734 -0.013537  0.000028)
 54:   3151.59   0.000022    0.11  0.000002  ( 0.001456  0.000313 -0.000007)
 55:   3164.71   0.002935   14.83  0.000289  ( 0.011303 -0.012715  0.000052)
 56:   3165.22   0.006923   34.98  0.000683  ( 0.001188 -0.026098 -0.000002)
 57:   3179.13   0.004179   21.12  0.000410  (-0.020246  0.000527 -0.000007)
 58:   3532.89   0.004943   24.98  0.000437  ( 0.019737  0.003603  0.005838)
 59:   3640.57   0.003002   15.17  0.000257  ( 0.004349 -0.015436  0.000377)

--------------------------
THERMOCHEMISTRY AT 298.15K
--------------------------

Temperature         ...   298.15 K
Pressure            ...     1.00 atm
Total Mass          ...   143.19 AMU
Quasi RRHO          ...     True
Cut-Off Frequency   ...     1.00 cm^-1

Throughout the following assumptions are being made:
  (1) The electronic state is orbitally nondegenerate
  (2) There are no thermally accessible electronically excited states
  (3) Hindered rotations indicated by low frequency modes are not
      treated as such but are treated as vibrations and this may
      cause some error
  (4) All equations used are the standard statistical mechanics
      equations for an ideal gas
  (5) All vibrations are strictly harmonic

freq.     120.03  E(vib)   ...       0.44
freq.     184.23  E(vib)   ...       0.37
freq.     287.75  E(vib)   ...       0.27
freq.     292.72  E(vib)   ...       0.27
freq.     378.67  E(vib)   ...       0.21
freq.     408.13  E(vib)   ...       0.19
freq.     428.91  E(vib)   ...       0.18
freq.     470.42  E(vib)   ...       0.15
freq.     472.97  E(vib)   ...       0.15
freq.     532.97  E(vib)   ...       0.13
freq.     537.67  E(vib)   ...       0.12
freq.     603.85  E(vib)   ...       0.10
freq.     640.47  E(vib)   ...       0.09
freq.     658.87  E(vib)   ...       0.08
freq.     739.65  E(vib)   ...       0.06
freq.     748.14  E(vib)   ...       0.06
freq.     775.13  E(vib)   ...       0.05
freq.     780.01  E(vib)   ...       0.05
freq.     809.72  E(vib)   ...       0.05
freq.     839.26  E(vib)   ...       0.04
freq.     874.36  E(vib)   ...       0.04
freq.     922.23  E(vib)   ...       0.03
freq.     927.31  E(vib)   ...       0.03
freq.     940.01  E(vib)   ...       0.03
freq.     956.53  E(vib)   ...       0.03
freq.     973.17  E(vib)   ...       0.03
freq.    1039.99  E(vib)   ...       0.02
freq.    1120.36  E(vib)   ...       0.01
freq.    1148.63  E(vib)   ...       0.01
freq.    1171.90  E(vib)   ...       0.01
freq.    1178.13  E(vib)   ...       0.01
freq.    1207.16  E(vib)   ...       0.01
freq.    1252.30  E(vib)   ...       0.01
freq.    1290.36  E(vib)   ...       0.01
freq.    1322.69  E(vib)   ...       0.01
freq.    1390.44  E(vib)   ...       0.00
freq.    1404.75  E(vib)   ...       0.00
freq.    1412.89  E(vib)   ...       0.00
freq.    1481.49  E(vib)   ...       0.00
freq.    1502.60  E(vib)   ...       0.00
freq.    1545.72  E(vib)   ...       0.00
freq.    1600.86  E(vib)   ...       0.00
freq.    1634.31  E(vib)   ...       0.00
freq.    1654.97  E(vib)   ...       0.00
freq.    1665.99  E(vib)   ...       0.00
freq.    3145.08  E(vib)   ...       0.00
freq.    3147.31  E(vib)   ...       0.00
freq.    3148.06  E(vib)   ...       0.00
freq.    3151.59  E(vib)   ...       0.00
freq.    3164.71  E(vib)   ...       0.00
freq.    3165.22  E(vib)   ...       0.00
freq.    3179.13  E(vib)   ...       0.00
freq.    3532.89  E(vib)   ...       0.00
freq.    3640.57  E(vib)   ...       0.00

------------
INNER ENERGY
------------

The inner energy is: U= E(el) + E(ZPE) + E(vib) + E(rot) + E(trans)
    E(el)   - is the total energy from the electronic structure calculation
              = E(kin-el) + E(nuc-el) + E(el-el) + E(nuc-nuc)
    E(ZPE)  - the the zero temperature vibrational energy from the frequency calculation
    E(vib)  - the the finite temperature correction to E(ZPE) due to population
              of excited vibrational states
    E(rot)  - is the rotational thermal energy
    E(trans)- is the translational thermal energy

Summary of contributions to the inner energy U:
Electronic energy                ...   -441.16995657 Eh
Zero point energy                ...      0.16312428 Eh     102.36 kcal/mol
Thermal vibrational correction   ...      0.00538622 Eh       3.38 kcal/mol
Thermal rotational correction    ...      0.00141627 Eh       0.89 kcal/mol
Thermal translational correction ...      0.00141627 Eh       0.89 kcal/mol
-----------------------------------------------------------------------
Total thermal energy                   -440.99861353 Eh

Summary of corrections to the electronic energy:
(perhaps to be used in another calculation)
Total thermal correction                  0.00821876 Eh       5.16 kcal/mol
Non-thermal (ZPE) correction              0.16312428 Eh     102.36 kcal/mol
-----------------------------------------------------------------------
Total correction                          0.17134304 Eh     107.52 kcal/mol

--------
ENTHALPY
--------

The enthalpy is H = U + kB*T
                kB is Boltzmann's constant
Total thermal energy              ...   -440.99861353 Eh
Thermal Enthalpy correction       ...      0.00094421 Eh       0.59 kcal/mol
-----------------------------------------------------------------------
Total Enthalpy                    ...   -440.99766932 Eh

Note: Only C1 symmetry has been detected, increase convergence thresholds
      if your molecule has a higher symmetry. Symmetry factor of 1.0 is
      used for the rotational entropy correction.

Note: Rotational entropy computed according to Herzberg
Infrared and Raman Spectra, Chapter V,1, Van Nostrand Reinhold, 1945
Point Group:  C1, Symmetry Number:   1
Rotational constants in cm-1:     0.094793     0.027655     0.021421

Vibrational entropy computed according to the QRRHO of S. Grimme
Chem.Eur.J. 2012 18 9955 using a reference frequency of 100.0 cm-1

-------
ENTROPY
-------

The entropy contributions are T*S = T*(S(el)+S(vib)+S(rot)+S(trans))
     S(el)   - electronic entropy
     S(vib)  - vibrational entropy
     S(rot)  - rotational entropy
     S(trans)- translational entropy
The entropies will be listed as multiplied by the temperature to get
units of energy

Electronic entropy                ...      0.00000000 Eh      0.00 kcal/mol
Vibrational entropy               ...      0.00829708 Eh      5.21 kcal/mol
Rotational entropy                ...      0.01413135 Eh      8.87 kcal/mol
Translational entropy             ...      0.01937968 Eh     12.16 kcal/mol
-----------------------------------------------------------------------
Final entropy term                ...      0.04180811 Eh     26.23 kcal/mol

In case the symmetry of your molecule has not been determined correctly
or in case you have a reason to use a different symmetry number we print
out the resulting rotational entropy values for sn=1,12:

 non-linear molecules -----------------------------------
|  sn= 1 | S(rot)=       0.01413135 Eh      8.87 kcal/mol|
|  sn= 2 | S(rot)=       0.01347690 Eh      8.46 kcal/mol|
|  sn= 3 | S(rot)=       0.01309406 Eh      8.22 kcal/mol|
|  sn= 4 | S(rot)=       0.01282244 Eh      8.05 kcal/mol|
|  sn= 5 | S(rot)=       0.01261175 Eh      7.91 kcal/mol|
|  sn= 6 | S(rot)=       0.01243961 Eh      7.81 kcal/mol|

                             ****ORCA TERMINATED NORMALLY****
TOTAL RUN TIME: 0 days 0 hours 39 minutes 17 seconds 265 msec
