                         Program Version 6.0.0  -   RELEASE  -
|  1> ! r2SCAN-3c DEF2-TZVP FREQ
|  2> * xyzfile 0 1 vacuum_censo.xyz
|  3>
|  4>                          ****END OF INPUT****

CARTESIAN COORDINATES (ANGSTROEM)
---------------------------------
  C     -2.924206   -0.373757   -0.002864
  C     -2.681787    1.016110   -0.001739
  C     -1.396739    1.502961    0.000230
  C     -0.285390    0.623807    0.001935
  C      1.045527    1.093453    0.002166
  C      2.114001    0.216181    0.006842
  C      1.860676   -1.181299    0.007206
  C      0.577912   -1.660635    0.001096
  C     -0.534469   -0.785331   -0.000384
  C     -1.867776   -1.253428   -0.002850
  N      3.431561    0.665244    0.077295
  H     -3.944184   -0.743535   -0.003332
  H     -3.520328    1.705444   -0.001603
  H     -1.216554    2.574281    0.001708
  H      1.222526    2.166202    0.006255
  H      2.700696   -1.870496    0.019689
  H      0.401391   -2.732649   -0.000797
  H     -2.043597   -2.325794   -0.003672
  H      4.115695    0.033921   -0.309775
  H      3.575603    1.611455   -0.239671

 Total Charge           Charge          ....    0
 Multiplicity           Mult            ....    1
 Number of Electrons    NEL             ....   76
 Basis Dimension        Dim             ....  395

ORBITAL ENERGIES
----------------

  NO   OCC          E(Eh)            E(eV)
   0   2.0000     -14.172905      -385.6644
   1   2.0000     -10.076864      -274.2054
   2   2.0000     -10.041955      -273.2555
   3   2.0000     -10.037521      -273.1348
   4   2.0000     -10.036530      -273.1079
   5   2.0000     -10.035159      -273.0706
   6   2.0000     -10.031702      -272.9765
   7   2.0000     -10.031093      -272.9599
   8   2.0000     -10.029553      -272.9180
   9   2.0000     -10.027656      -272.8664
  10   2.0000     -10.026330      -272.8303
  11   2.0000      -0.891467       -24.2581
  12   2.0000      -0.829917       -22.5832
  13   2.0000      -0.774468       -21.0744
  14   2.0000      -0.734828       -19.9957
  15   2.0000      -0.698393       -19.0042
  16   2.0000      -0.678330       -18.4583
  17   2.0000      -0.594897       -16.1880
  18   2.0000      -0.575439       -15.6585
  19   2.0000      -0.562030       -15.2936
  20   2.0000      -0.496467       -13.5095
  21   2.0000      -0.487572       -13.2675
  22   2.0000      -0.476640       -12.9700
  23   2.0000      -0.446177       -12.1411
  24   2.0000      -0.416216       -11.3258
  25   2.0000      -0.406697       -11.0668
  26   2.0000      -0.388074       -10.5600
  27   2.0000      -0.378804       -10.3078
  28   2.0000      -0.374374       -10.1872
  29   2.0000      -0.369854       -10.0642
  30   2.0000      -0.338605        -9.2139
  31   2.0000      -0.329196        -8.9579
  32   2.0000      -0.309851        -8.4315
  33   2.0000      -0.295869        -8.0510
  34   2.0000      -0.275438        -7.4951
  35   2.0000      -0.255317        -6.9475
  36   2.0000      -0.211687        -5.7603
  37   2.0000      -0.181348        -4.9347
  38   0.0000      -0.060525        -1.6470
  39   0.0000      -0.026016        -0.7079
  40   0.0000       0.000238         0.0065
  41   0.0000       0.039518         1.0754
  42   0.0000       0.064421         1.7530

MULLIKEN ATOMIC CHARGES
-----------------------
   0 C :   -0.117709
   1 C :   -0.082596
   2 C :   -0.234849
   3 C :    0.214895
   4 C :   -0.350724
   5 C :    0.348776
   6 C :   -0.231125
   7 C :   -0.179395
   8 C :    0.146104
   9 C :   -0.197126
  10 N :   -0.440601
  11 H :    0.104855
  12 H :    0.105131
  13 H :    0.090441
  14 H :    0.080457
  15 H :    0.093599
  16 H :    0.097355
  17 H :    0.094521
  18 H :    0.229474
  19 H :    0.228517
Sum of atomic charges:   -0.0000000

LOEWDIN ATOMIC CHARGES
----------------------
   0 C :   -0.153704
   1 C :   -0.144468
   2 C :   -0.109593
   3 C :   -0.096489
   4 C :   -0.106204
   5 C :   -0.245409
   6 C :   -0.127376
   7 C :   -0.099795
   8 C :   -0.103302
   9 C :   -0.105862
  10 N :   -0.039464
  11 H :    0.141215
  12 H :    0.142181
  13 H :    0.143954
  14 H :    0.143623
  15 H :    0.142583
  16 H :    0.147314
  17 H :    0.145093
  18 H :    0.162630
  19 H :    0.163070

  Mayer bond orders larger than 0.100000
B(  0-C ,  1-C ) :   1.2557 B(  0-C ,  9-C ) :   1.5167 B(  0-C , 11-H ) :   0.9727
B(  1-C ,  2-C ) :   1.5262 B(  1-C , 12-H ) :   0.9700 B(  2-C ,  3-C ) :   1.1816
B(  2-C , 13-H ) :   0.9888 B(  3-C ,  4-C ) :   1.2719 B(  3-C ,  8-C ) :   1.1987
B(  4-C ,  5-C ) :   1.4417 B(  4-C , 14-H ) :   0.9683 B(  5-C ,  6-C ) :   1.2025
B(  5-C , 10-N ) :   1.0552 B(  6-C ,  7-C ) :   1.5784 B(  6-C , 15-H ) :   0.9698
B(  7-C ,  8-C ) :   1.1872 B(  7-C , 16-H ) :   0.9818 B(  8-C ,  9-C ) :   1.2007
B(  9-C , 17-H ) :   0.9855 B( 10-N , 18-H ) :   0.9194 B( 10-N , 19-H ) :   0.9225

Dispersion correction           -0.007805953
FINAL SINGLE POINT ENERGY      -441.170041877291

DIPOLE MOMENT
-------------

Method             : SCF
Type of density    : Electron Density
Multiplicity       :   1
Irrep              :   0
Energy             :  -441.1688025419435917 Eh
Relativity type    :
Basis              : AO
                                X                 Y                 Z
Electronic contribution:     -0.498006084      -0.299706136       0.166801840
Nuclear contribution   :      1.217604801       0.390217241      -0.538468690
                        -----------------------------------------
Total Dipole Moment    :      0.719598717       0.090511104      -0.371666850
                        -----------------------------------------
Magnitude (a.u.)       :      0.814954490
Magnitude (Debye)      :      2.071449694

VIBRATIONAL FREQUENCIES
-----------------------

Scaling factor for frequencies =  1.000000000  (already applied!)

     0:       0.00 cm**-1
     1:       0.00 cm**-1
     2:       0.00 cm**-1
     3:       0.00 cm**-1
     4:       0.00 cm**-1
     5:       0.00 cm**-1
     6:     120.96 cm**-1
     7:     179.52 cm**-1
     8:     286.02 cm**-1
     9:     292.92 cm**-1
    10:     330.98 cm**-1
    11:     406.19 cm**-1
    12:     427.27 cm**-1
    13:     469.53 cm**-1
    14:     471.14 cm**-1
    15:     533.35 cm**-1
    16:     536.21 cm**-1
    17:     605.37 cm**-1
    18:     640.77 cm**-1
    19:     659.47 cm**-1
    20:     739.13 cm**-1
    21:     747.84 cm**-1
    22:     775.16 cm**-1
    23:     782.57 cm**-1
    24:     810.46 cm**-1
    25:     840.85 cm**-1
    26:     875.17 cm**-1
    27:     922.03 cm**-1
    28:     928.47 cm**-1
    29:     941.03 cm**-1
    30:     957.07 cm**-1
    31:     975.65 cm**-1
    32:    1043.18 cm**-1
    33:    1114.86 cm**-1
    34:    1150.33 cm**-1
    35:    1173.76 cm**-1
    36:    1179.18 cm**-1
    37:    1207.34 cm**-1
    38:    1254.25 cm**-1
    39:    1292.21 cm**-1
    40:    1315.64 cm**-1
    41:    1397.02 cm**-1
    42:    1407.66 cm**-1
    43:    1417.06 cm**-1
    44:    1483.37 cm**-1
    45:    1504.23 cm**-1
    46:    1550.05 cm**-1
    47:    1607.96 cm**-1
    48:    1639.27 cm**-1
    49:    1657.15 cm**-1
    50:    1666.94 cm**-1
    51:    3145.01 cm**-1
    52:    3147.80 cm**-1
    53:    3149.47 cm**-1
    54:    3152.96 cm**-1
    55:    3165.27 cm**-1
    56:    3167.36 cm**-1
    57:    3181.48 cm**-1
    58:    3554.18 cm**-1
    59:    3657.85 cm**-1

IR SPECTRUM
-----------

 Mode   freq       eps      Int      T**2         TX        TY        TZ
       cm**-1   L/(mol*cm) km/mol    a.u.
----------------------------------------------------------------------------
  6:    120.96   0.000703    3.55  0.001813  (-0.014804 -0.003850 -0.039734)
  7:    179.52   0.000282    1.42  0.000489  ( 0.002295 -0.011113  0.018990)
  8:    286.02   0.000618    3.12  0.000674  (-0.008578  0.024504 -0.000333)
  9:    292.92   0.000474    2.40  0.000505  ( 0.015964  0.006977  0.014207)
 10:    330.98   0.004256   21.51  0.004013  ( 0.038361 -0.050253  0.003980)
 11:    406.19   0.000285    1.44  0.000219  ( 0.009729  0.005018  0.009937)
 12:    427.27   0.000199    1.00  0.000145  (-0.005016  0.010829 -0.001673)
 13:    469.53   0.001269    6.41  0.000843  ( 0.022359  0.006767  0.017245)
 14:    471.14   0.004580   23.15  0.003034  ( 0.004039  0.003243  0.054835)
 15:    533.35   0.000526    2.66  0.000308  (-0.016471  0.001222 -0.005893)
 16:    536.21   0.005932   29.98  0.003452  ( 0.048677  0.008075  0.031902)
 17:    605.37   0.066867  337.92  0.034469  (-0.158267 -0.029517 -0.092464)
 18:    640.77   0.000558    2.82  0.000272  ( 0.001710  0.008857  0.013801)
 19:    659.47   0.005053   25.54  0.002391  ( 0.044752  0.009218  0.017420)
 20:    739.13   0.001394    7.05  0.000589  ( 0.002696  0.004058  0.023769)
 21:    747.84   0.004784   24.18  0.001996  (-0.013136 -0.004108  0.042509)
 22:    775.16   0.000077    0.39  0.000031  (-0.005481  0.000880  0.000197)
 23:    782.57   0.000006    0.03  0.000003  (-0.001114  0.000432 -0.001061)
 24:    810.46   0.003685   18.62  0.001419  ( 0.004781 -0.000765  0.037356)
 25:    840.85   0.011855   59.91  0.004400  (-0.012566 -0.002220 -0.065091)
 26:    875.17   0.000793    4.01  0.000283  (-0.003023 -0.001003 -0.016513)
 27:    922.03   0.000348    1.76  0.000118  (-0.010083 -0.000439  0.003988)
 28:    928.47   0.000145    0.73  0.000049  (-0.000975 -0.000813 -0.006854)
 29:    941.03   0.000327    1.65  0.000108  ( 0.000325  0.000370 -0.010401)
 30:    957.07   0.000002    0.01  0.000001  ( 0.000309 -0.000001  0.000699)
 31:    975.65   0.000656    3.31  0.000210  ( 0.014473 -0.000374 -0.000273)
 32:   1043.18   0.001012    5.11  0.000303  ( 0.017390  0.000555 -0.000049)
 33:   1114.86   0.000006    0.03  0.000002  ( 0.000910  0.000955 -0.000222)
 34:   1150.33   0.000987    4.99  0.000268  (-0.012221  0.010819  0.001209)
 35:   1173.76   0.001937    9.79  0.000515  ( 0.018718 -0.012824 -0.000262)
 36:   1179.18   0.000534    2.70  0.000141  ( 0.011426  0.003272 -0.000257)
 37:   1207.34   0.005111   25.83  0.001321  (-0.030998 -0.018933  0.001343)
 38:   1254.25   0.002594   13.11  0.000645  ( 0.025395  0.000380 -0.000519)
 39:   1292.21   0.000968    4.89  0.000234  ( 0.003284  0.014933 -0.000242)
 40:   1315.64   0.010481   52.97  0.002486  (-0.049720 -0.003731 -0.000012)
 41:   1397.02   0.000553    2.80  0.000124  ( 0.000412  0.011110  0.000112)
 42:   1407.66   0.000853    4.31  0.000189  ( 0.008375  0.010903  0.000087)
 43:   1417.06   0.002935   14.83  0.000646  (-0.023752 -0.009058 -0.000465)
 44:   1483.37   0.001067    5.39  0.000224  ( 0.012369  0.008439 -0.000538)
 45:   1504.23   0.004326   21.86  0.000897  (-0.029031 -0.007315 -0.001048)
 46:   1550.05   0.008910   45.03  0.001794  (-0.041981 -0.005605 -0.000085)
 47:   1607.96   0.000351    1.77  0.000068  ( 0.000622  0.008212 -0.000537)
 48:   1639.27   0.001974    9.97  0.000376  ( 0.017106  0.007650  0.004955)
 49:   1657.15   0.002123   10.73  0.000400  ( 0.004593  0.011598 -0.015623)
 50:   1666.94   0.043742  221.05  0.008189  (-0.088748 -0.014883  0.009549)
 51:   3145.01   0.002845   14.38  0.000282  ( 0.008113  0.014714 -0.000011)
 52:   3147.80   0.001543    7.80  0.000153  (-0.012129 -0.002410  0.000003)
 53:   3149.47   0.002286   11.55  0.000226  (-0.007571 -0.013005 -0.000032)
 54:   3152.96   0.000056    0.28  0.000006  ( 0.001862  0.001447  0.000010)
 55:   3165.27   0.003794   19.17  0.000374  (-0.010803  0.016043  0.000015)
 56:   3167.36   0.005817   29.40  0.000573  (-0.000259 -0.023939 -0.000024)
 57:   3181.48   0.004221   21.33  0.000414  (-0.020333  0.000774  0.000016)
 58:   3554.18   0.004710   23.80  0.000414  ( 0.019158  0.003490 -0.005858)
 59:   3657.85   0.002766   13.98  0.000236  ( 0.004243 -0.014754 -0.000566)

--------------------------
THERMOCHEMISTRY AT 298.15K
--------------------------

Temperature         ...   298.15 K
Pressure            ...     1.00 atm
Total Mass          ...   143.19 AMU
Quasi RRHO          ...     True
Cut-Off Frequency   ...     1.00 cm^-1

Throughout the following assumptions are being made:
  (1) The electronic state is orbitally nondegenerate
  (2) There are no thermally accessible electronically excited states
  (3) Hindered rotations indicated by low frequency modes are not
      treated as such but are treated as vibrations and this may
      cause some error
  (4) All equations used are the standard statistical mechanics
      equations for an ideal gas
  (5) All vibrations are strictly harmonic

freq.     120.96  E(vib)   ...       0.44
freq.     179.52  E(vib)   ...       0.37
freq.     286.02  E(vib)   ...       0.27
freq.     292.92  E(vib)   ...       0.27
freq.     330.98  E(vib)   ...       0.24
freq.     406.19  E(vib)   ...       0.19
freq.     427.27  E(vib)   ...       0.18
freq.     469.53  E(vib)   ...       0.16
freq.     471.14  E(vib)   ...       0.15
freq.     533.35  E(vib)   ...       0.13
freq.     536.21  E(vib)   ...       0.12
freq.     605.37  E(vib)   ...       0.10
freq.     640.77  E(vib)   ...       0.09
freq.     659.47  E(vib)   ...       0.08
freq.     739.13  E(vib)   ...       0.06
freq.     747.84  E(vib)   ...       0.06
freq.     775.16  E(vib)   ...       0.05
freq.     782.57  E(vib)   ...       0.05
freq.     810.46  E(vib)   ...       0.05
freq.     840.85  E(vib)   ...       0.04
freq.     875.17  E(vib)   ...       0.04
freq.     922.03  E(vib)   ...       0.03
freq.     928.47  E(vib)   ...       0.03
freq.     941.03  E(vib)   ...       0.03
freq.     957.07  E(vib)   ...       0.03
freq.     975.65  E(vib)   ...       0.03
freq.    1043.18  E(vib)   ...       0.02
freq.    1114.86  E(vib)   ...       0.01
freq.    1150.33  E(vib)   ...       0.01
freq.    1173.76  E(vib)   ...       0.01
freq.    1179.18  E(vib)   ...       0.01
freq.    1207.34  E(vib)   ...       0.01
freq.    1254.25  E(vib)   ...       0.01
freq.    1292.21  E(vib)   ...       0.01
freq.    1315.64  E(vib)   ...       0.01
freq.    1397.02  E(vib)   ...       0.00
freq.    1407.66  E(vib)   ...       0.00
freq.    1417.06  E(vib)   ...       0.00
freq.    1483.37  E(vib)   ...       0.00
freq.    1504.23  E(vib)   ...       0.00
freq.    1550.05  E(vib)   ...       0.00
freq.    1607.96  E(vib)   ...       0.00
freq.    1639.27  E(vib)   ...       0.00
freq.    1657.15  E(vib)   ...       0.00
freq.    1666.94  E(vib)   ...       0.00
freq.    3145.01  E(vib)   ...       0.00
freq.    3147.80  E(vib)   ...       0.00
freq.    3149.47  E(vib)   ...       0.00
freq.    3152.96  E(vib)   ...       0.00
freq.    3165.27  E(vib)   ...       0.00
freq.    3167.36  E(vib)   ...       0.00
freq.    3181.48  E(vib)   ...       0.00
freq.    3554.18  E(vib)   ...       0.00
freq.    3657.85  E(vib)   ...       0.00

------------
INNER ENERGY
------------

The inner energy is: U= E(el) + E(ZPE) + E(vib) + E(rot) + E(trans)
    E(el)   - is the total energy from the electronic structure calculation
              = E(kin-el) + E(nuc-el) + E(el-el) + E(nuc-nuc)
    E(ZPE)  - the the zero temperature vibrational energy from the frequency calculation
    E(vib)  - the the finite temperature correction to E(ZPE) due to population
              of excited vibrational states
    E(rot)  - is the rotational thermal energy
    E(trans)- is the translational thermal energy

Summary of contributions to the inner energy U:
Electronic energy                ...   -441.17004188 Eh
Zero point energy                ...      0.16320324 Eh     102.41 kcal/mol
Thermal vibrational correction   ...      0.00544827 Eh       3.42 kcal/mol
Thermal rotational correction    ...      0.00141627 Eh       0.89 kcal/mol
Thermal translational correction ...      0.00141627 Eh       0.89 kcal/mol
-----------------------------------------------------------------------
Total thermal energy                   -440.99855782 Eh

Summary of corrections to the electronic energy:
(perhaps to be used in another calculation)
Total thermal correction                  0.00828081 Eh       5.20 kcal/mol
Non-thermal (ZPE) correction              0.16320324 Eh     102.41 kcal/mol
-----------------------------------------------------------------------
Total correction                          0.17148405 Eh     107.61 kcal/mol

--------
ENTHALPY
--------

The enthalpy is H = U + kB*T
                kB is Boltzmann's constant
Total thermal energy              ...   -440.99855782 Eh
Thermal Enthalpy correction       ...      0.00094421 Eh       0.59 kcal/mol
-----------------------------------------------------------------------
Total Enthalpy                    ...   -440.99761361 Eh

Note: Only C1 symmetry has been detected, increase convergence thresholds
      if your molecule has a higher symmetry. Symmetry factor of 1.0 is
      used for the rotational entropy correction.

Note: Rotational entropy computed according to Herzberg
Infrared and Raman Spectra, Chapter V,1, Van Nostrand Reinhold, 1945
Point Group:  C1, Symmetry Number:   1
Rotational constants in cm-1:     0.095016     0.027669     0.021441

Vibrational entropy computed according to the QRRHO of S. Grimme
Chem.Eur.J. 2012 18 9955 using a reference frequency of 100.0 cm-1

-------
ENTROPY
-------

The entropy contributions are T*S = T*(S(el)+S(vib)+S(rot)+S(trans))
     S(el)   - electronic entropy
     S(vib)  - vibrational entropy
     S(rot)  - rotational entropy
     S(trans)- translational entropy
The entropies will be listed as multiplied by the temperature to get
units of energy

Electronic entropy                ...      0.00000000 Eh      0.00 kcal/mol
Vibrational entropy               ...      0.00842429 Eh      5.29 kcal/mol
Rotational entropy                ...      0.01412956 Eh      8.87 kcal/mol
Translational entropy             ...      0.01937968 Eh     12.16 kcal/mol
-----------------------------------------------------------------------
Final entropy term                ...      0.04193353 Eh     26.31 kcal/mol

In case the symmetry of your molecule has not been determined correctly
or in case you have a reason to use a different symmetry number we print
out the resulting rotational entropy values for sn=1,12:

 non-linear molecules -----------------------------------
|  sn= 1 | S(rot)=       0.01412956 Eh      8.87 kcal/mol|
|  sn= 2 | S(rot)=       0.01347510 Eh      8.46 kcal/mol|
|  sn= 3 | S(rot)=       0.01309227 Eh      8.22 kcal/mol|
|  sn= 4 | S(rot)=       0.01282065 Eh      8.05 kcal/mol|
|  sn= 5 | S(rot)=       0.01260996 Eh      7.91 kcal/mol|
|  sn= 6 | S(rot)=       0.01243782 Eh      7.80 kcal/mol|

                             ****ORCA TERMINATED NORMALLY****
TOTAL RUN TIME: 0 days 0 hours 38 minutes 14 seconds 713 msec
