                         Program Version 6.0.1  -  RELEASE   -
|  1> ! pbe def2-sv(p) def2/J RI DEFGRID1 loosescf d4 GCP(DFT/SV(P)) printgap
|  2> %output
|  3>     printlevel normal
|  4> end
|  5> * xyz 0 1
|  6> C 1.9045958038 -1.454193676 -6.18689e-05
|  7> C 2.5836930639 -0.2362803955 0.0002517177
|  8> C 1.8937540003 0.9529118733 0.0002540712
|  9> C 0.4925009129 0.978129528 -7.10837e-05
| 10> C -0.1853994538 -0.2591726582 -0.0004070526
| 11> C 0.5321046889 -1.4611398406 -0.0003874914
| 12> N -1.6047933259 -0.3313097894 -0.0001330914
| 13> O -2.2368099838 0.7251026068 -4.01135e-05
| 14> O -2.1353337643 -1.4193549442 0.0005150981
| 15> O -0.1105285676 2.1620046936 -1.49817e-05
| 16> H 2.4526958395 -2.382363506 -9.09572e-05
| 17> H 3.6628119558 -0.2249252335 0.0004231565
| 18> H 2.4056309376 1.9018106797 0.0004317126
| 19> H -0.0279225883 -2.3838023361 -0.000683939
| 20> H -1.0882114852 2.0282812946 -0.0005070663
| 21> *
| 22>
| 23>                          ****END OF INPUT****

CARTESIAN COORDINATES (ANGSTROEM)
---------------------------------
  C      1.904596   -1.454194   -0.000062
  C      2.583693   -0.236280    0.000252
  C      1.893754    0.952912    0.000254
  C      0.492501    0.978130   -0.000071
  C     -0.185399   -0.259173   -0.000407
  C      0.532105   -1.461140   -0.000387
  N     -1.604793   -0.331310   -0.000133
  O     -2.236810    0.725103   -0.000040
  O     -2.135334   -1.419355    0.000515
  O     -0.110529    2.162005   -0.000015
  H      2.452696   -2.382364   -0.000091
  H      3.662812   -0.224925    0.000423
  H      2.405631    1.901811    0.000432
  H     -0.027923   -2.383802   -0.000684
  H     -1.088211    2.028281   -0.000507

 Total Charge           Charge          ....    0
 Multiplicity           Mult            ....    1
 Number of Electrons    NEL             ....   72
 Basis Dimension        Dim             ....  150

ORBITAL ENERGIES
----------------

  NO   OCC          E(Eh)            E(eV)
   0   2.0000     -18.803431      -511.6674
   1   2.0000     -18.795704      -511.4571
   2   2.0000     -18.788737      -511.2675
   3   2.0000     -14.223945      -387.0532
   4   2.0000      -9.995281      -271.9854
   5   2.0000      -9.959834      -271.0209
   6   2.0000      -9.923467      -270.0313
   7   2.0000      -9.921381      -269.9745
   8   2.0000      -9.914726      -269.7934
   9   2.0000      -9.910388      -269.6754
  10   2.0000      -1.146232       -31.1906
  11   2.0000      -0.997231       -27.1360
  12   2.0000      -0.971552       -26.4373
  13   2.0000      -0.811782       -22.0897
  14   2.0000      -0.746891       -20.3239
  15   2.0000      -0.695019       -18.9124
  16   2.0000      -0.641425       -17.4541
  17   2.0000      -0.575534       -15.6611
  18   2.0000      -0.570225       -15.5166
  19   2.0000      -0.508794       -13.8450
  20   2.0000      -0.504667       -13.7327
  21   2.0000      -0.496837       -13.5196
  22   2.0000      -0.471526       -12.8309
  23   2.0000      -0.449569       -12.2334
  24   2.0000      -0.432762       -11.7761
  25   2.0000      -0.408297       -11.1103
  26   2.0000      -0.393664       -10.7121
  27   2.0000      -0.362708        -9.8698
  28   2.0000      -0.357232        -9.7208
  29   2.0000      -0.326739        -8.8910
  30   2.0000      -0.325567        -8.8591
  31   2.0000      -0.285285        -7.7630
  32   2.0000      -0.270229        -7.3533
  33   2.0000      -0.262399        -7.1403
  34   2.0000      -0.252670        -6.8755
  35   2.0000      -0.225864        -6.1461
  36   0.0000      -0.123055        -3.3485
  37   0.0000      -0.050952        -1.3865
  38   0.0000      -0.034369        -0.9352
  39   0.0000       0.031270         0.8509
  40   0.0000       0.069636         1.8949

MULLIKEN ATOMIC CHARGES
-----------------------
   0 C :   -0.052786
   1 C :    0.000045
   2 C :   -0.160042
   3 C :    0.135749
   4 C :    0.120737
   5 C :   -0.115843
   6 N :    0.229867
   7 O :   -0.269033
   8 O :   -0.202285
   9 O :   -0.276988
  10 H :    0.065722
  11 H :    0.070942
  12 H :    0.061317
  13 H :    0.071948
  14 H :    0.320650
Sum of atomic charges:   -0.0000000

LOEWDIN ATOMIC CHARGES
----------------------
   0 C :   -0.138047
   1 C :   -0.088263
   2 C :   -0.139562
   3 C :    0.039910
   4 C :   -0.088705
   5 C :   -0.099354
   6 N :    0.261384
   7 O :   -0.218236
   8 O :   -0.168391
   9 O :   -0.198643
  10 H :    0.131579
  11 H :    0.133118
  12 H :    0.139698
  13 H :    0.144051
  14 H :    0.289461

  Mayer bond orders larger than 0.100000
B(  0-C ,  1-C ) :   1.2858 B(  0-C ,  5-C ) :   1.3743 B(  0-C , 10-H ) :   0.9685
B(  1-C ,  2-C ) :   1.4054 B(  1-C , 11-H ) :   0.9678 B(  2-C ,  3-C ) :   1.3201
B(  2-C ,  5-C ) :   0.1060 B(  2-C , 12-H ) :   0.9617 B(  3-C ,  4-C ) :   1.2040
B(  3-C ,  9-O ) :   1.3677 B(  4-C ,  5-C ) :   1.3315 B(  4-C ,  6-N ) :   0.9359
B(  5-C , 13-H ) :   0.9478 B(  6-N ,  7-O ) :   1.4025 B(  6-N ,  8-O ) :   1.5742
B(  7-O ,  8-O ) :   0.2651 B(  7-O , 14-H ) :   0.1424 B(  9-O , 14-H ) :   0.7522

Dispersion correction           -0.016502609
FINAL SINGLE POINT ENERGY      -510.980304520795

DIPOLE MOMENT
-------------

Method             : SCF
Type of density    : Electron Density
Multiplicity       :   1
Irrep              :   0
Energy             :  -511.0335557710910734 Eh
Relativity type    :
Basis              : AO
                                X                 Y                 Z
Electronic contribution:     -5.667166484       0.874934850      -0.000211163
Nuclear contribution   :      6.871998182      -0.975494705      -0.000394610
                        -----------------------------------------
Total Dipole Moment    :      1.204831698      -0.100559855      -0.000605772
                        -----------------------------------------
Magnitude (a.u.)       :      1.209021121
Magnitude (Debye)      :      3.073087468

Rotational constants in cm-1:             0.079828             0.043288             0.028068
Rotational constants in MHz :          2393.190699          1297.733116           841.448671

                             ****ORCA TERMINATED NORMALLY****
TOTAL RUN TIME: 0 days 0 hours 0 minutes 8 seconds 75 msec
