                         Program Version 6.0.1  -  RELEASE   -
|  1> ! pbe def2-sv(p) def2/J RI DEFGRID1 loosescf d4 GCP(DFT/SV(P)) printgap
|  2> %output
|  3>     printlevel normal
|  4> end
|  5> * xyz 0 1
|  6> C -2.249971721 -0.9964261602 -0.3611173536
|  7> C -1.1768421634 -0.1998177569 0.3911740367
|  8> H -1.6359409744 0.2509603649 1.2790417931
|  9> C -0.5784409277 0.915576229 -0.4674366978
| 10> H -0.4079968034 0.5477734312 -1.4938835178
| 11> C 0.7738978291 1.3268631923 0.1424733193
| 12> H 0.618593805 1.5677918515 1.2023484129
| 13> C 1.7637260836 0.1602293769 0.0179949813
| 14> H 2.2240364942 0.1708112205 -0.9768580038
| 15> C 1.0036099112 -1.1850925601 0.1430278338
| 16> H 1.6315771745 -1.8849723869 0.718287773
| 17> O -0.172040938 -1.086054115 0.8983406902
| 18> O 0.7782932769 -1.6590900003 -1.1494151135
| 19> O 2.827611184 0.247697287 0.921464789
| 20> O 1.2319271539 2.5218511585 -0.4364979185
| 21> O -1.4619523419 2.0028807558 -0.4921034275
| 22> O -2.7918119025 -2.0080510972 0.446281153
| 23> H -1.8138208073 -1.4245436543 -1.27620194
| 24> H -3.0637444736 -0.3244431601 -0.6389081811
| 25> H 0.3598441406 -2.5283020888 -1.1068740437
| 26> H 2.4824833735 0.3068797492 1.8205508673
| 27> H 1.5838693223 2.3373672225 -1.3157940813
| 28> H -0.923259486 2.8059299781 -0.5633145506
| 29> H -2.0664757894 -2.3847869932 0.9616554438
| 30> *
| 31>
| 32>                          ****END OF INPUT****

CARTESIAN COORDINATES (ANGSTROEM)
---------------------------------
  C     -2.249972   -0.996426   -0.361117
  C     -1.176842   -0.199818    0.391174
  H     -1.635941    0.250960    1.279042
  C     -0.578441    0.915576   -0.467437
  H     -0.407997    0.547773   -1.493884
  C      0.773898    1.326863    0.142473
  H      0.618594    1.567792    1.202348
  C      1.763726    0.160229    0.017995
  H      2.224036    0.170811   -0.976858
  C      1.003610   -1.185093    0.143028
  H      1.631577   -1.884972    0.718288
  O     -0.172041   -1.086054    0.898341
  O      0.778293   -1.659090   -1.149415
  O      2.827611    0.247697    0.921465
  O      1.231927    2.521851   -0.436498
  O     -1.461952    2.002881   -0.492103
  O     -2.791812   -2.008051    0.446281
  H     -1.813821   -1.424544   -1.276202
  H     -3.063744   -0.324443   -0.638908
  H      0.359844   -2.528302   -1.106874
  H      2.482483    0.306880    1.820551
  H      1.583869    2.337367   -1.315794
  H     -0.923259    2.805930   -0.563315
  H     -2.066476   -2.384787    0.961655

 Total Charge           Charge          ....    0
 Multiplicity           Mult            ....    1
 Number of Electrons    NEL             ....   96
 Basis Dimension        Dim             ....  192

ORBITAL ENERGIES
----------------

  NO   OCC          E(Eh)            E(eV)
   0   2.0000     -18.786920      -511.2181
   1   2.0000     -18.778578      -510.9911
   2   2.0000     -18.774151      -510.8706
   3   2.0000     -18.762189      -510.5451
   4   2.0000     -18.749825      -510.2087
   5   2.0000     -18.740135      -509.9450
   6   2.0000      -9.998109      -272.0624
   7   2.0000      -9.955803      -270.9112
   8   2.0000      -9.955499      -270.9029
   9   2.0000      -9.947407      -270.6827
  10   2.0000      -9.945457      -270.6297
  11   2.0000      -9.926922      -270.1253
  12   2.0000      -0.997549       -27.1447
  13   2.0000      -0.961590       -26.1662
  14   2.0000      -0.941477       -25.6189
  15   2.0000      -0.933071       -25.3901
  16   2.0000      -0.922543       -25.1037
  17   2.0000      -0.914314       -24.8797
  18   2.0000      -0.712859       -19.3979
  19   2.0000      -0.699857       -19.0441
  20   2.0000      -0.625961       -17.0333
  21   2.0000      -0.591512       -16.0959
  22   2.0000      -0.580442       -15.7946
  23   2.0000      -0.538546       -14.6546
  24   2.0000      -0.516611       -14.0577
  25   2.0000      -0.497256       -13.5310
  26   2.0000      -0.470478       -12.8024
  27   2.0000      -0.464453       -12.6384
  28   2.0000      -0.449221       -12.2239
  29   2.0000      -0.435945       -11.8627
  30   2.0000      -0.425817       -11.5871
  31   2.0000      -0.404379       -11.0037
  32   2.0000      -0.393942       -10.7197
  33   2.0000      -0.387808       -10.5528
  34   2.0000      -0.367562       -10.0019
  35   2.0000      -0.357688        -9.7332
  36   2.0000      -0.338628        -9.2145
  37   2.0000      -0.324190        -8.8217
  38   2.0000      -0.310910        -8.4603
  39   2.0000      -0.304701        -8.2913
  40   2.0000      -0.285520        -7.7694
  41   2.0000      -0.278876        -7.5886
  42   2.0000      -0.269994        -7.3469
  43   2.0000      -0.252231        -6.8636
  44   2.0000      -0.239478        -6.5165
  45   2.0000      -0.231793        -6.3074
  46   2.0000      -0.214950        -5.8491
  47   2.0000      -0.208020        -5.6605
  48   0.0000       0.009714         0.2643
  49   0.0000       0.012463         0.3391
  50   0.0000       0.024792         0.6746
  51   0.0000       0.041869         1.1393
  52   0.0000       0.055223         1.5027

MULLIKEN ATOMIC CHARGES
-----------------------
   0 C :    0.080307
   1 C :    0.030489
   2 H :    0.077531
   3 C :    0.021031
   4 H :    0.058589
   5 C :    0.032599
   6 H :    0.056050
   7 C :    0.088041
   8 H :    0.070963
   9 C :    0.140951
  10 H :    0.069792
  11 O :   -0.331517
  12 O :   -0.392037
  13 O :   -0.406839
  14 O :   -0.410417
  15 O :   -0.411173
  16 O :   -0.434724
  17 H :    0.055871
  18 H :    0.097858
  19 H :    0.308965
  20 H :    0.301298
  21 H :    0.304920
  22 H :    0.300546
  23 H :    0.290906
Sum of atomic charges:    0.0000000

LOEWDIN ATOMIC CHARGES
----------------------
   0 C :   -0.132836
   1 C :   -0.068142
   2 H :    0.121103
   3 C :   -0.084725
   4 H :    0.101466
   5 C :   -0.081223
   6 H :    0.116743
   7 C :   -0.082904
   8 H :    0.122183
   9 C :   -0.012341
  10 H :    0.100129
  11 O :   -0.152451
  12 O :   -0.306516
  13 O :   -0.303849
  14 O :   -0.302363
  15 O :   -0.320741
  16 O :   -0.340278
  17 H :    0.090166
  18 H :    0.122529
  19 H :    0.287849
  20 H :    0.286052
  21 H :    0.288841
  22 H :    0.279057
  23 H :    0.272249

  Mayer bond orders larger than 0.100000
B(  0-C ,  1-C ) :   1.0891 B(  0-C , 16-O ) :   1.0759 B(  0-C , 17-H ) :   0.8947
B(  0-C , 18-H ) :   0.9130 B(  1-C ,  2-H ) :   0.8732 B(  1-C ,  3-C ) :   0.9689
B(  1-C , 11-O ) :   0.9400 B(  3-C ,  4-H ) :   0.8715 B(  3-C ,  5-C ) :   1.0193
B(  3-C , 15-O ) :   1.0970 B(  5-C ,  6-H ) :   0.8494 B(  5-C ,  7-C ) :   1.0110
B(  5-C , 14-O ) :   1.0334 B(  7-C ,  8-H ) :   0.8652 B(  7-C ,  9-C ) :   0.9726
B(  7-C , 13-O ) :   1.0586 B(  9-C , 10-H ) :   0.8981 B(  9-C , 11-O ) :   1.0746
B(  9-C , 12-O ) :   1.0931 B( 12-O , 19-H ) :   0.8306 B( 13-O , 20-H ) :   0.8495
B( 14-O , 21-H ) :   0.8464 B( 15-O , 22-H ) :   0.8195 B( 16-O , 23-H ) :   0.8398

Dispersion correction           -0.024598343
FINAL SINGLE POINT ENERGY      -685.691165761049

DIPOLE MOMENT
-------------

Method             : SCF
Type of density    : Electron Density
Multiplicity       :   1
Irrep              :   0
Energy             :  -685.8228542874867344 Eh
Relativity type    :
Basis              : AO
                                X                 Y                 Z
Electronic contribution:      1.707459158       0.291060387       1.207389908
Nuclear contribution   :     -0.942230314      -0.524653574      -1.301223418
                        -----------------------------------------
Total Dipole Moment    :      0.765228845      -0.233593187      -0.093833510
                        -----------------------------------------
Magnitude (a.u.)       :      0.805571654
Magnitude (Debye)      :      2.047600419

Rotational constants in cm-1:             0.042761             0.026039             0.018879
Rotational constants in MHz :          1281.944852           780.633443           565.972591

                             ****ORCA TERMINATED NORMALLY****
TOTAL RUN TIME: 0 days 0 hours 23 minutes 48 seconds 502 msec
