                         Program Version 6.0.1  -  RELEASE   -
|  1> ! r2scan-3c def2/J RI DEFGRID2 scfconv6 printgap
|  2> %output
|  3>     printlevel normal
|  4> end
|  5> * xyz 0 1
|  6> C 0.0152407282 1.4193741702 2.3544e-06
|  7> C 0.7980806049 0.3221329532 1.02794e-05
|  8> C 0.2102738635 -1.0207396721 -3.80388e-05
|  9> O 0.8078592567 -2.065540821 5.24082e-05
| 10> N -1.181882321 -0.9876336072 -8.38641e-05
| 11> C -2.0154202264 0.1063910726 5.997e-06
| 12> O -3.2164659667 0.0318387182 6.32093e-05
| 13> N -1.344616978 1.3140059526 3.61243e-05
| 14> Cl 2.5103659666 0.4327462376 2.9524e-06
| 15> H 0.4282950572 2.4162299767 -7.15834e-05
| 16> H -1.6444492611 -1.8911806303 -0.0003815412
| 17> H -1.9220680924 2.1433309492 -0.0005913196
| 18> *
| 19>
| 20>                          ****END OF INPUT****

CARTESIAN COORDINATES (ANGSTROEM)
---------------------------------
  C      0.015241    1.419374    0.000002
  C      0.798081    0.322133    0.000010
  C      0.210274   -1.020740   -0.000038
  O      0.807859   -2.065541    0.000052
  N     -1.181882   -0.987634   -0.000084
  C     -2.015420    0.106391    0.000006
  O     -3.216466    0.031839    0.000063
  N     -1.344617    1.314006    0.000036
  Cl     2.510366    0.432746    0.000003
  H      0.428295    2.416230   -0.000072
  H     -1.644449   -1.891181   -0.000382
  H     -1.922068    2.143331   -0.000591

 Total Charge           Charge          ....    0
 Multiplicity           Mult            ....    1
 Number of Electrons    NEL             ....   74
 Basis Dimension        Dim             ....  214

ORBITAL ENERGIES
----------------

  NO   OCC          E(Eh)            E(eV)
   0   2.0000    -101.238045     -2754.8272
   1   2.0000     -18.946345      -515.5563
   2   2.0000     -18.944487      -515.5057
   3   2.0000     -14.252256      -387.8236
   4   2.0000     -14.233971      -387.3260
   5   2.0000     -10.196071      -277.4492
   6   2.0000     -10.167470      -276.6709
   7   2.0000     -10.130873      -275.6751
   8   2.0000     -10.120481      -275.3923
   9   2.0000      -9.393479      -255.6096
  10   2.0000      -7.140229      -194.2955
  11   2.0000      -7.129494      -194.0034
  12   2.0000      -7.129042      -193.9911
  13   2.0000      -1.066961       -29.0335
  14   2.0000      -1.034743       -28.1568
  15   2.0000      -0.969955       -26.3938
  16   2.0000      -0.917501       -24.9665
  17   2.0000      -0.862928       -23.4815
  18   2.0000      -0.752562       -20.4783
  19   2.0000      -0.677363       -18.4320
  20   2.0000      -0.655094       -17.8260
  21   2.0000      -0.568557       -15.4712
  22   2.0000      -0.557574       -15.1723
  23   2.0000      -0.510618       -13.8946
  24   2.0000      -0.473693       -12.8898
  25   2.0000      -0.461092       -12.5469
  26   2.0000      -0.436828       -11.8867
  27   2.0000      -0.414160       -11.2699
  28   2.0000      -0.408166       -11.1068
  29   2.0000      -0.403088       -10.9686
  30   2.0000      -0.375634       -10.2215
  31   2.0000      -0.324507        -8.8303
  32   2.0000      -0.303329        -8.2540
  33   2.0000      -0.280623        -7.6361
  34   2.0000      -0.280539        -7.6339
  35   2.0000      -0.252280        -6.8649
  36   2.0000      -0.232540        -6.3277
  37   0.0000      -0.088228        -2.4008
  38   0.0000      -0.032720        -0.8903
  39   0.0000      -0.010344        -0.2815
  40   0.0000       0.044201         1.2028
  41   0.0000       0.063722         1.7340

MULLIKEN ATOMIC CHARGES
-----------------------
   0 C :   -0.151928
   1 C :    0.093914
   2 C :    0.148056
   3 O :   -0.368870
   4 N :   -0.091049
   5 C :    0.243040
   6 O :   -0.415534
   7 N :   -0.082503
   8 Cl:   -0.082352
   9 H :    0.155986
  10 H :    0.277185
  11 H :    0.274054
Sum of atomic charges:   -0.0000000

LOEWDIN ATOMIC CHARGES
----------------------
   0 C :    0.118384
   1 C :   -0.149089
   2 C :    0.341423
   3 O :   -0.406530
   4 N :   -0.441221
   5 C :    0.436006
   6 O :   -0.376266
   7 N :   -0.515335
   8 Cl:    0.191344
   9 H :    0.205772
  10 H :    0.301735
  11 H :    0.293776

  Mayer bond orders larger than 0.100000
B(  0-C ,  1-C ) :   1.5214 B(  0-C ,  7-N ) :   1.1656 B(  0-C ,  9-H ) :   0.9518
B(  1-C ,  2-C ) :   0.9613 B(  1-C ,  8-Cl) :   1.0165 B(  2-C ,  3-O ) :   2.0427
B(  2-C ,  4-N ) :   1.0452 B(  4-N ,  5-C ) :   1.0819 B(  4-N , 10-H ) :   0.9010
B(  5-C ,  6-O ) :   1.9835 B(  5-C ,  7-N ) :   1.0688 B(  7-N , 11-H ) :   0.9058

Dispersion correction           -0.004382857
FINAL SINGLE POINT ENERGY      -874.324547199730

DIPOLE MOMENT
-------------

Method             : SCF
Type of density    : Electron Density
Multiplicity       :   1
Irrep              :   0
Energy             :  -874.3335533834924718 Eh
Relativity type    :
Basis              : AO
                                X                 Y                 Z
Electronic contribution:      6.121140232      -0.339913750       0.000366582
Nuclear contribution   :     -6.363171083       1.894284269      -0.000982387
                        -----------------------------------------
Total Dipole Moment    :     -0.242030851       1.554370518      -0.000615805
                        -----------------------------------------
Magnitude (a.u.)       :      1.573101084
Magnitude (Debye)      :      3.998505189

Rotational constants in cm-1:             0.102182             0.033192             0.025054
Rotational constants in MHz :          3063.334381           995.074909           751.094079

                             ****ORCA TERMINATED NORMALLY****
TOTAL RUN TIME: 0 days 0 hours 0 minutes 28 seconds 298 msec
