                         Program Version 6.0.1  -  RELEASE   -
|  1> ! pbe def2-sv(p) def2/J RI DEFGRID1 loosescf d4 GCP(DFT/SV(P)) printgap
|  2> %output
|  3>     printlevel normal
|  4> end
|  5> * xyz 0 1
|  6> C -2.522926692 -0.6418842942 -0.0968909636
|  7> C -1.1864298582 -0.4386168569 0.6334801708
|  8> H -1.2876891618 -0.757338602 1.6835254821
|  9> C -0.7087131727 1.0406729573 0.6621201658
| 10> H -1.5734690202 1.6885714745 0.4720759593
| 11> C 0.3547161786 1.2907203463 -0.4133423561
| 12> H 0.7564733105 2.3043785091 -0.2769162959
| 13> C 1.5447877614 0.3255329727 -0.1798125731
| 14> H 2.0607683118 0.1839992021 -1.1373947715
| 15> C 1.0649937333 -1.05629583 0.3140082168
| 16> H 1.1512831889 -1.0878397826 1.4233585644
| 17> O -0.2726538609 -1.2973802567 -0.0367568995
| 18> O 1.8544172983 -2.0336949689 -0.269202904
| 19> O 2.3901334846 0.9227531256 0.7803071975
| 20> O -0.1412240514 1.2201261408 -1.7149028999
| 21> O -0.2251250267 1.3759018401 1.9391911767
| 22> O -2.3637453836 -0.5229764685 -1.4889422858
| 23> H -3.2421666525 0.1187132753 0.2089404802
| 24> H -2.9205040525 -1.6321378305 0.1556272651
| 25> H 1.4059050294 -2.8838522733 -0.1864880107
| 26> H 3.2111774932 0.4208175737 0.8288155534
| 27> H -0.933577656 0.6531778012 -1.7436175777
| 28> H 0.7426913505 1.3407684083 1.9288166857
| 29> H -1.7612487225 -1.2254803223 -1.7697163096
| 30> *
| 31>
| 32>                          ****END OF INPUT****

CARTESIAN COORDINATES (ANGSTROEM)
---------------------------------
  C     -2.522927   -0.641884   -0.096891
  C     -1.186430   -0.438617    0.633480
  H     -1.287689   -0.757339    1.683525
  C     -0.708713    1.040673    0.662120
  H     -1.573469    1.688571    0.472076
  C      0.354716    1.290720   -0.413342
  H      0.756473    2.304379   -0.276916
  C      1.544788    0.325533   -0.179813
  H      2.060768    0.183999   -1.137395
  C      1.064994   -1.056296    0.314008
  H      1.151283   -1.087840    1.423359
  O     -0.272654   -1.297380   -0.036757
  O      1.854417   -2.033695   -0.269203
  O      2.390133    0.922753    0.780307
  O     -0.141224    1.220126   -1.714903
  O     -0.225125    1.375902    1.939191
  O     -2.363745   -0.522976   -1.488942
  H     -3.242167    0.118713    0.208940
  H     -2.920504   -1.632138    0.155627
  H      1.405905   -2.883852   -0.186488
  H      3.211177    0.420818    0.828816
  H     -0.933578    0.653178   -1.743618
  H      0.742691    1.340768    1.928817
  H     -1.761249   -1.225480   -1.769716

 Total Charge           Charge          ....    0
 Multiplicity           Mult            ....    1
 Number of Electrons    NEL             ....   96
 Basis Dimension        Dim             ....  192

ORBITAL ENERGIES
----------------

  NO   OCC          E(Eh)            E(eV)
   0   2.0000     -18.787125      -511.2237
   1   2.0000     -18.779947      -511.0283
   2   2.0000     -18.774186      -510.8716
   3   2.0000     -18.770461      -510.7702
   4   2.0000     -18.742792      -510.0173
   5   2.0000     -18.734362      -509.7879
   6   2.0000      -9.994897      -271.9750
   7   2.0000      -9.951410      -270.7916
   8   2.0000      -9.950089      -270.7557
   9   2.0000      -9.943332      -270.5718
  10   2.0000      -9.942386      -270.5461
  11   2.0000      -9.940515      -270.4952
  12   2.0000      -0.999083       -27.1864
  13   2.0000      -0.957784       -26.0626
  14   2.0000      -0.949829       -25.8461
  15   2.0000      -0.932001       -25.3610
  16   2.0000      -0.919156       -25.0115
  17   2.0000      -0.912521       -24.8310
  18   2.0000      -0.704368       -19.1668
  19   2.0000      -0.691489       -18.8164
  20   2.0000      -0.624643       -16.9974
  21   2.0000      -0.599060       -16.3012
  22   2.0000      -0.575436       -15.6584
  23   2.0000      -0.521701       -14.1962
  24   2.0000      -0.511587       -13.9210
  25   2.0000      -0.497284       -13.5318
  26   2.0000      -0.487454       -13.2643
  27   2.0000      -0.473320       -12.8797
  28   2.0000      -0.459597       -12.5063
  29   2.0000      -0.433316       -11.7911
  30   2.0000      -0.415473       -11.3056
  31   2.0000      -0.404085       -10.9957
  32   2.0000      -0.394159       -10.7256
  33   2.0000      -0.383441       -10.4340
  34   2.0000      -0.361945        -9.8490
  35   2.0000      -0.360149        -9.8002
  36   2.0000      -0.334158        -9.0929
  37   2.0000      -0.324167        -8.8210
  38   2.0000      -0.321242        -8.7414
  39   2.0000      -0.303779        -8.2663
  40   2.0000      -0.299492        -8.1496
  41   2.0000      -0.266615        -7.2550
  42   2.0000      -0.262943        -7.1551
  43   2.0000      -0.249023        -6.7762
  44   2.0000      -0.246081        -6.6962
  45   2.0000      -0.233377        -6.3505
  46   2.0000      -0.211309        -5.7500
  47   2.0000      -0.204427        -5.5628
  48   0.0000       0.011183         0.3043
  49   0.0000       0.019117         0.5202
  50   0.0000       0.035480         0.9655
  51   0.0000       0.051642         1.4053
  52   0.0000       0.057652         1.5688

MULLIKEN ATOMIC CHARGES
-----------------------
   0 C :    0.057322
   1 C :    0.014640
   2 H :    0.075905
   3 C :   -0.014673
   4 H :    0.081776
   5 C :    0.056947
   6 H :    0.085188
   7 C :    0.020945
   8 H :    0.080637
   9 C :    0.192958
  10 H :    0.034166
  11 O :   -0.332579
  12 O :   -0.384864
  13 O :   -0.418598
  14 O :   -0.419942
  15 O :   -0.422065
  16 O :   -0.427736
  17 H :    0.107497
  18 H :    0.091664
  19 H :    0.302492
  20 H :    0.314598
  21 H :    0.281462
  22 H :    0.306776
  23 H :    0.315485
Sum of atomic charges:   -0.0000000

LOEWDIN ATOMIC CHARGES
----------------------
   0 C :   -0.124258
   1 C :   -0.081333
   2 H :    0.113759
   3 C :   -0.075521
   4 H :    0.114990
   5 C :   -0.068658
   6 H :    0.117849
   7 C :   -0.089736
   8 H :    0.119581
   9 C :   -0.005293
  10 H :    0.077011
  11 O :   -0.164871
  12 O :   -0.302258
  13 O :   -0.311459
  14 O :   -0.323880
  15 O :   -0.321767
  16 O :   -0.309872
  17 H :    0.123476
  18 H :    0.107866
  19 H :    0.286964
  20 H :    0.295808
  21 H :    0.260786
  22 H :    0.274517
  23 H :    0.286300

  Mayer bond orders larger than 0.100000
B(  0-C ,  1-C ) :   1.0321 B(  0-C , 16-O ) :   1.0333 B(  0-C , 17-H ) :   0.9241
B(  0-C , 18-H ) :   0.9206 B(  1-C ,  2-H ) :   0.8830 B(  1-C ,  3-C ) :   0.9347
B(  1-C , 11-O ) :   0.9790 B(  3-C ,  4-H ) :   0.8993 B(  3-C ,  5-C ) :   1.0406
B(  3-C , 15-O ) :   1.0797 B(  5-C ,  6-H ) :   0.8950 B(  5-C ,  7-C ) :   0.9533
B(  5-C , 14-O ) :   1.1154 B(  7-C ,  8-H ) :   0.8752 B(  7-C ,  9-C ) :   0.9844
B(  7-C , 13-O ) :   1.0232 B(  9-C , 10-H ) :   0.8790 B(  9-C , 11-O ) :   1.0347
B(  9-C , 12-O ) :   1.1575 B( 12-O , 19-H ) :   0.8404 B( 13-O , 20-H ) :   0.8428
B( 14-O , 21-H ) :   0.7804 B( 15-O , 22-H ) :   0.8118 B( 16-O , 21-H ) :   0.1656
B( 16-O , 23-H ) :   0.8189

Dispersion correction           -0.025513392
FINAL SINGLE POINT ENERGY      -685.695876513606

DIPOLE MOMENT
-------------

Method             : SCF
Type of density    : Electron Density
Multiplicity       :   1
Irrep              :   0
Energy             :  -685.8307556285934652 Eh
Relativity type    :
Basis              : AO
                                X                 Y                 Z
Electronic contribution:      2.406684677      -0.524451246      -1.042763996
Nuclear contribution   :     -2.224164444      -0.827012692       1.477193341
                        -----------------------------------------
Total Dipole Moment    :      0.182520233      -1.351463938       0.434429345
                        -----------------------------------------
Magnitude (a.u.)       :      1.431257233
Magnitude (Debye)      :      3.637966773

Rotational constants in cm-1:             0.041011             0.028048             0.023967
Rotational constants in MHz :          1229.469887           840.852045           718.521597

                             ****ORCA TERMINATED NORMALLY****
TOTAL RUN TIME: 0 days 0 hours 25 minutes 22 seconds 895 msec
