                         Program Version 6.0.1  -  RELEASE   -
|  1> ! r2scan-3c def2/J RI DEFGRID2 scfconv6 printgap
|  2> %output
|  3>     printlevel normal
|  4> end
|  5> * xyz 0 1
|  6> C -2.3525119508 0.0803602374 -0.1814449086
|  7> C -0.9273169688 0.4626463677 0.2024154328
|  8> C 0.0028343699 -0.7114587362 0.1536404599
|  9> C 1.3164064634 -0.632547255 0.0032837764
| 10> C 2.0763975337 0.6494133992 -0.145941296
| 11> H -2.378603299 -0.3176149512 -1.1937319452
| 12> H -3.0071541879 0.9481288278 -0.1366420163
| 13> H -2.74138064 -0.6775724928 0.4954999786
| 14> H -0.5656951116 1.2485474868 -0.4648571352
| 15> H -0.9254057176 0.8762427315 1.2170389794
| 16> H -0.4643896292 -1.6805500546 0.2657014295
| 17> H 1.903599209 -1.5403128756 -0.0113829285
| 18> H 3.1396471831 0.4595542981 -0.2625426414
| 19> H 1.9313860407 1.2852053446 0.7272820639
| 20> H 1.7279115495 1.2048001887 -1.0171506472
| 21> *
| 22>
| 23>                          ****END OF INPUT****

CARTESIAN COORDINATES (ANGSTROEM)
---------------------------------
  C     -2.352512    0.080360   -0.181445
  C     -0.927317    0.462646    0.202415
  C      0.002834   -0.711459    0.153640
  C      1.316406   -0.632547    0.003284
  C      2.076398    0.649413   -0.145941
  H     -2.378603   -0.317615   -1.193732
  H     -3.007154    0.948129   -0.136642
  H     -2.741381   -0.677572    0.495500
  H     -0.565695    1.248547   -0.464857
  H     -0.925406    0.876243    1.217039
  H     -0.464390   -1.680550    0.265701
  H      1.903599   -1.540313   -0.011383
  H      3.139647    0.459554   -0.262543
  H      1.931386    1.285205    0.727282
  H      1.727912    1.204800   -1.017151

 Total Charge           Charge          ....    0
 Multiplicity           Mult            ....    1
 Number of Electrons    NEL             ....   40
 Basis Dimension        Dim             ....  145

ORBITAL ENERGIES
----------------

  NO   OCC          E(Eh)            E(eV)
   0   2.0000     -10.028320      -272.8845
   1   2.0000     -10.021878      -272.7092
   2   2.0000     -10.021573      -272.7009
   3   2.0000     -10.018731      -272.6235
   4   2.0000     -10.017898      -272.6009
   5   2.0000      -0.772824       -21.0296
   6   2.0000      -0.718076       -19.5398
   7   2.0000      -0.646112       -17.5816
   8   2.0000      -0.581730       -15.8297
   9   2.0000      -0.495485       -13.4828
  10   2.0000      -0.441053       -12.0017
  11   2.0000      -0.413535       -11.2529
  12   2.0000      -0.397592       -10.8190
  13   2.0000      -0.379037       -10.3141
  14   2.0000      -0.349243        -9.5034
  15   2.0000      -0.338783        -9.2188
  16   2.0000      -0.324576        -8.8322
  17   2.0000      -0.313947        -8.5429
  18   2.0000      -0.291188        -7.9236
  19   2.0000      -0.216828        -5.9002
  20   0.0000      -0.005757        -0.1566
  21   0.0000       0.094950         2.5837
  22   0.0000       0.111837         3.0432
  23   0.0000       0.129411         3.5215
  24   0.0000       0.144340         3.9277

MULLIKEN ATOMIC CHARGES
-----------------------
   0 C :   -0.471724
   1 C :   -0.232773
   2 C :   -0.163030
   3 C :   -0.143377
   4 C :   -0.487210
   5 H :    0.151048
   6 H :    0.144239
   7 H :    0.140348
   8 H :    0.139400
   9 H :    0.156206
  10 H :    0.149558
  11 H :    0.152892
  12 H :    0.146174
  13 H :    0.157369
  14 H :    0.160880
Sum of atomic charges:   -0.0000000

LOEWDIN ATOMIC CHARGES
----------------------
   0 C :   -0.420834
   1 C :   -0.307505
   2 C :   -0.211659
   3 C :   -0.215091
   4 C :   -0.420296
   5 H :    0.152563
   6 H :    0.150013
   7 H :    0.150463
   8 H :    0.158406
   9 H :    0.162801
  10 H :    0.163719
  11 H :    0.160343
  12 H :    0.154989
  13 H :    0.161392
  14 H :    0.160695

  Mayer bond orders larger than 0.100000
B(  0-C ,  1-C ) :   0.8938 B(  0-C ,  5-H ) :   0.9869 B(  0-C ,  6-H ) :   0.9750
B(  0-C ,  7-H ) :   0.9738 B(  1-C ,  2-C ) :   0.9254 B(  1-C ,  8-H ) :   0.9813
B(  1-C ,  9-H ) :   0.9633 B(  2-C ,  3-C ) :   1.9445 B(  2-C , 10-H ) :   0.9471
B(  3-C ,  4-C ) :   0.8965 B(  3-C , 11-H ) :   0.9522 B(  4-C , 12-H ) :   0.9735
B(  4-C , 13-H ) :   0.9754 B(  4-C , 14-H ) :   0.9803

Dispersion correction           -0.003242874
FINAL SINGLE POINT ENERGY      -196.458593343589

DIPOLE MOMENT
-------------

Method             : SCF
Type of density    : Electron Density
Multiplicity       :   1
Irrep              :   0
Energy             :  -196.4614826305931388 Eh
Relativity type    :
Basis              : AO
                                X                 Y                 Z
Electronic contribution:      1.287268585      -1.540850697       0.370790337
Nuclear contribution   :     -1.294744366       1.694724456      -0.357238284
                        -----------------------------------------
Total Dipole Moment    :     -0.007475781       0.153873759       0.013552053
                        -----------------------------------------
Magnitude (a.u.)       :      0.154650183
Magnitude (Debye)      :      0.393089525

Rotational constants in cm-1:             0.449035             0.084305             0.075019
Rotational constants in MHz :         13461.741241          2527.399802          2249.005033

                             ****ORCA TERMINATED NORMALLY****
TOTAL RUN TIME: 0 days 0 hours 0 minutes 9 seconds 708 msec
