                         Program Version 6.0.0  -   RELEASE  -
|  1> ! r2SCAN-3c DEF2-TZVP FREQ
|  2> * xyzfile 0 1 censo.xyz
|  3>
|  4>                          ****END OF INPUT****

CARTESIAN COORDINATES (ANGSTROEM)
---------------------------------
  C      1.324768    1.232555    0.217398
  C      0.488655    0.105344   -0.413460
  C      0.908705   -1.276177    0.063596
  C     -0.957203    0.399005   -0.160857
  O     -1.741870   -0.355968    0.390263
  H      1.237532    1.207641    1.308532
  H      1.002313    2.217389   -0.134271
  H      2.377345    1.102419   -0.047827
  H      0.604547    0.185120   -1.506546
  H      1.963082   -1.448983   -0.169657
  H      0.317524   -2.061634   -0.415995
  H      0.779801   -1.366997    1.147000
  H     -1.301899    1.394513   -0.511318

 Total Charge           Charge          ....    0
 Multiplicity           Mult            ....    1
 Number of Electrons    NEL             ....   40
 Basis Dimension        Dim             ....  203

ORBITAL ENERGIES
----------------

  NO   OCC          E(Eh)            E(eV)
   0   2.0000     -18.951006      -515.6831
   1   2.0000     -10.120574      -275.3948
   2   2.0000     -10.056238      -273.6441
   3   2.0000     -10.043173      -273.2886
   4   2.0000     -10.028278      -272.8833
   5   2.0000      -1.005782       -27.3687
   6   2.0000      -0.782777       -21.3004
   7   2.0000      -0.666339       -18.1320
   8   2.0000      -0.623023       -16.9533
   9   2.0000      -0.519784       -14.1440
  10   2.0000      -0.464929       -12.6514
  11   2.0000      -0.428341       -11.6557
  12   2.0000      -0.417670       -11.3654
  13   2.0000      -0.380225       -10.3464
  14   2.0000      -0.367063        -9.9883
  15   2.0000      -0.352537        -9.5930
  16   2.0000      -0.344548        -9.3756
  17   2.0000      -0.325704        -8.8629
  18   2.0000      -0.317835        -8.6487
  19   2.0000      -0.223069        -6.0700
  20   0.0000      -0.061501        -1.6735
  21   0.0000       0.040179         1.0933
  22   0.0000       0.074583         2.0295
  23   0.0000       0.081540         2.2188
  24   0.0000       0.097709         2.6588

MULLIKEN ATOMIC CHARGES
-----------------------
   0 C :   -0.345743
   1 C :    0.066459
   2 C :   -0.325117
   3 C :    0.102446
   4 O :   -0.307108
   5 H :    0.116328
   6 H :    0.112162
   7 H :    0.116550
   8 H :    0.070590
   9 H :    0.104728
  10 H :    0.119317
  11 H :    0.110164
  12 H :    0.059224
Sum of atomic charges:   -0.0000000

LOEWDIN ATOMIC CHARGES
----------------------
   0 C :   -0.271617
   1 C :   -0.314938
   2 C :   -0.276221
   3 C :   -0.264695
   4 O :    0.103194
   5 H :    0.125592
   6 H :    0.122241
   7 H :    0.124938
   8 H :    0.164837
   9 H :    0.121477
  10 H :    0.127480
  11 H :    0.127274
  12 H :    0.110439

  Mayer bond orders larger than 0.100000
B(  0-C ,  1-C ) :   0.9413 B(  0-C ,  5-H ) :   0.9686 B(  0-C ,  6-H ) :   0.9694
B(  0-C ,  7-H ) :   0.9693 B(  1-C ,  2-C ) :   0.9796 B(  1-C ,  3-C ) :   0.9105
B(  1-C ,  8-H ) :   0.9247 B(  2-C ,  9-H ) :   0.9725 B(  2-C , 10-H ) :   0.9683
B(  2-C , 11-H ) :   0.9651 B(  3-C ,  4-O ) :   2.0827 B(  3-C , 12-H ) :   0.9779

Dispersion correction           -0.002781431
FINAL SINGLE POINT ENERGY      -232.410309320723

DIPOLE MOMENT
-------------

Method             : SCF
Type of density    : Electron Density
Multiplicity       :   1
Irrep              :   0
Energy             :  -232.4135809157910444 Eh
Relativity type    :
Basis              : AO
                                X                 Y                 Z
Electronic contribution:     -5.569599797      -0.531246232       0.107552283
Nuclear contribution   :      6.484725732       1.035771384      -0.552952467
                        -----------------------------------------
Total Dipole Moment    :      0.915125935       0.504525151      -0.445400183
                        -----------------------------------------
Magnitude (a.u.)       :      1.135950012
Magnitude (Debye)      :      2.887355468

VIBRATIONAL FREQUENCIES
-----------------------

Scaling factor for frequencies =  1.000000000  (already applied!)

     0:       0.00 cm**-1
     1:       0.00 cm**-1
     2:       0.00 cm**-1
     3:       0.00 cm**-1
     4:       0.00 cm**-1
     5:       0.00 cm**-1
     6:     139.56 cm**-1
     7:     226.13 cm**-1
     8:     253.03 cm**-1
     9:     284.18 cm**-1
    10:     350.06 cm**-1
    11:     398.31 cm**-1
    12:     649.79 cm**-1
    13:     805.50 cm**-1
    14:     904.00 cm**-1
    15:     931.20 cm**-1
    16:     945.14 cm**-1
    17:     975.49 cm**-1
    18:    1123.15 cm**-1
    19:    1147.18 cm**-1
    20:    1201.55 cm**-1
    21:    1283.77 cm**-1
    22:    1351.75 cm**-1
    23:    1386.17 cm**-1
    24:    1390.91 cm**-1
    25:    1416.45 cm**-1
    26:    1475.58 cm**-1
    27:    1481.83 cm**-1
    28:    1496.10 cm**-1
    29:    1501.41 cm**-1
    30:    1713.21 cm**-1
    31:    2891.59 cm**-1
    32:    2975.76 cm**-1
    33:    3010.13 cm**-1
    34:    3017.04 cm**-1
    35:    3090.76 cm**-1
    36:    3094.76 cm**-1
    37:    3099.72 cm**-1
    38:    3100.37 cm**-1

IR SPECTRUM
-----------

 Mode   freq       eps      Int      T**2         TX        TY        TZ
       cm**-1   L/(mol*cm) km/mol    a.u.
----------------------------------------------------------------------------
  6:    139.56   0.000980    4.95  0.002192  ( 0.007950  0.020772  0.041202)
  7:    226.13   0.000004    0.02  0.000005  (-0.001569 -0.001619  0.000008)
  8:    253.03   0.000363    1.83  0.000448  ( 0.013874 -0.015836 -0.002108)
  9:    284.18   0.001102    5.57  0.001210  (-0.030194  0.016497 -0.005150)
 10:    350.06   0.000158    0.80  0.000141  (-0.005509  0.004750 -0.009400)
 11:    398.31   0.000216    1.09  0.000169  (-0.009155  0.004060  0.008309)
 12:    649.79   0.000749    3.78  0.000360  (-0.016401  0.008233 -0.004778)
 13:    805.50   0.001869    9.44  0.000724  ( 0.023423 -0.012977 -0.002645)
 14:    904.00   0.001797    9.08  0.000620  ( 0.024486  0.002968 -0.003448)
 15:    931.20   0.001784    9.01  0.000598  (-0.024124  0.000229 -0.003961)
 16:    945.14   0.002916   14.74  0.000963  (-0.027897  0.013422  0.002114)
 17:    975.49   0.000265    1.34  0.000085  (-0.008880 -0.001577  0.001865)
 18:   1123.15   0.000879    4.44  0.000244  ( 0.014713 -0.000700 -0.005229)
 19:   1147.18   0.000735    3.72  0.000200  (-0.012248 -0.002329 -0.006677)
 20:   1201.55   0.000093    0.47  0.000024  (-0.003950  0.002697  0.001104)
 21:   1283.77   0.000405    2.04  0.000098  (-0.008905 -0.002204  0.003767)
 22:   1351.75   0.000448    2.27  0.000103  ( 0.009311 -0.002260 -0.003419)
 23:   1386.17   0.001234    6.24  0.000278  ( 0.001389  0.016601  0.000519)
 24:   1390.91   0.000083    0.42  0.000019  (-0.003368 -0.002616 -0.000623)
 25:   1416.45   0.001635    8.26  0.000360  ( 0.004000 -0.014094  0.012063)
 26:   1475.58   0.000009    0.04  0.000002  (-0.000027  0.000653 -0.001172)
 27:   1481.83   0.000842    4.25  0.000177  ( 0.005194  0.010797  0.005804)
 28:   1496.10   0.001964    9.92  0.000410  ( 0.000352 -0.005474  0.019481)
 29:   1501.41   0.002977   15.05  0.000619  ( 0.021165 -0.005930 -0.011651)
 30:   1713.21   0.035186  177.82  0.006409  (-0.063833 -0.038780  0.028824)
 31:   2891.59   0.024943  126.05  0.002692  (-0.020032  0.045262 -0.015557)
 32:   2975.76   0.003956   19.99  0.000415  ( 0.008052 -0.008470  0.016681)
 33:   3010.13   0.005311   26.84  0.000551  (-0.009731 -0.020104 -0.007189)
 34:   3017.04   0.003169   16.01  0.000328  (-0.011487  0.012688 -0.005901)
 35:   3090.76   0.003817   19.29  0.000385  (-0.004181  0.014373 -0.012701)
 36:   3094.76   0.003505   17.71  0.000353  (-0.005647 -0.002357  0.017776)
 37:   3099.72   0.004889   24.71  0.000492  (-0.015020  0.010695  0.012338)
 38:   3100.37   0.004393   22.20  0.000442  ( 0.019020  0.006080  0.006592)

--------------------------
THERMOCHEMISTRY AT 298.15K
--------------------------

Temperature         ...   298.15 K
Pressure            ...     1.00 atm
Total Mass          ...    72.11 AMU
Quasi RRHO          ...     True
Cut-Off Frequency   ...     1.00 cm^-1

Throughout the following assumptions are being made:
  (1) The electronic state is orbitally nondegenerate
  (2) There are no thermally accessible electronically excited states
  (3) Hindered rotations indicated by low frequency modes are not
      treated as such but are treated as vibrations and this may
      cause some error
  (4) All equations used are the standard statistical mechanics
      equations for an ideal gas
  (5) All vibrations are strictly harmonic

freq.     139.56  E(vib)   ...       0.42
freq.     226.13  E(vib)   ...       0.33
freq.     253.03  E(vib)   ...       0.30
freq.     284.18  E(vib)   ...       0.28
freq.     350.06  E(vib)   ...       0.23
freq.     398.31  E(vib)   ...       0.20
freq.     649.79  E(vib)   ...       0.08
freq.     805.50  E(vib)   ...       0.05
freq.     904.00  E(vib)   ...       0.03
freq.     931.20  E(vib)   ...       0.03
freq.     945.14  E(vib)   ...       0.03
freq.     975.49  E(vib)   ...       0.03
freq.    1123.15  E(vib)   ...       0.01
freq.    1147.18  E(vib)   ...       0.01
freq.    1201.55  E(vib)   ...       0.01
freq.    1283.77  E(vib)   ...       0.01
freq.    1351.75  E(vib)   ...       0.01
freq.    1386.17  E(vib)   ...       0.00
freq.    1390.91  E(vib)   ...       0.00
freq.    1416.45  E(vib)   ...       0.00
freq.    1475.58  E(vib)   ...       0.00
freq.    1481.83  E(vib)   ...       0.00
freq.    1496.10  E(vib)   ...       0.00
freq.    1501.41  E(vib)   ...       0.00
freq.    1713.21  E(vib)   ...       0.00
freq.    2891.59  E(vib)   ...       0.00
freq.    2975.76  E(vib)   ...       0.00
freq.    3010.13  E(vib)   ...       0.00
freq.    3017.04  E(vib)   ...       0.00
freq.    3090.76  E(vib)   ...       0.00
freq.    3094.76  E(vib)   ...       0.00
freq.    3099.72  E(vib)   ...       0.00
freq.    3100.37  E(vib)   ...       0.00

------------
INNER ENERGY
------------

The inner energy is: U= E(el) + E(ZPE) + E(vib) + E(rot) + E(trans)
    E(el)   - is the total energy from the electronic structure calculation
              = E(kin-el) + E(nuc-el) + E(el-el) + E(nuc-nuc)
    E(ZPE)  - the the zero temperature vibrational energy from the frequency calculation
    E(vib)  - the the finite temperature correction to E(ZPE) due to population
              of excited vibrational states
    E(rot)  - is the rotational thermal energy
    E(trans)- is the translational thermal energy

Summary of contributions to the inner energy U:
Electronic energy                ...   -232.41030932 Eh
Zero point energy                ...      0.11188435 Eh      70.21 kcal/mol
Thermal vibrational correction   ...      0.00330236 Eh       2.07 kcal/mol
Thermal rotational correction    ...      0.00141627 Eh       0.89 kcal/mol
Thermal translational correction ...      0.00141627 Eh       0.89 kcal/mol
-----------------------------------------------------------------------
Total thermal energy                   -232.29229007 Eh

Summary of corrections to the electronic energy:
(perhaps to be used in another calculation)
Total thermal correction                  0.00613490 Eh       3.85 kcal/mol
Non-thermal (ZPE) correction              0.11188435 Eh      70.21 kcal/mol
-----------------------------------------------------------------------
Total correction                          0.11801925 Eh      74.06 kcal/mol

--------
ENTHALPY
--------

The enthalpy is H = U + kB*T
                kB is Boltzmann's constant
Total thermal energy              ...   -232.29229007 Eh
Thermal Enthalpy correction       ...      0.00094421 Eh       0.59 kcal/mol
-----------------------------------------------------------------------
Total Enthalpy                    ...   -232.29134586 Eh

Note: Only C1 symmetry has been detected, increase convergence thresholds
      if your molecule has a higher symmetry. Symmetry factor of 1.0 is
      used for the rotational entropy correction.

Note: Rotational entropy computed according to Herzberg
Infrared and Raman Spectra, Chapter V,1, Van Nostrand Reinhold, 1945
Point Group:  C1, Symmetry Number:   1
Rotational constants in cm-1:     0.248139     0.137977     0.100052

Vibrational entropy computed according to the QRRHO of S. Grimme
Chem.Eur.J. 2012 18 9955 using a reference frequency of 100.0 cm-1

-------
ENTROPY
-------

The entropy contributions are T*S = T*(S(el)+S(vib)+S(rot)+S(trans))
     S(el)   - electronic entropy
     S(vib)  - vibrational entropy
     S(rot)  - rotational entropy
     S(trans)- translational entropy
The entropies will be listed as multiplied by the temperature to get
units of energy

Electronic entropy                ...      0.00000000 Eh      0.00 kcal/mol
Vibrational entropy               ...      0.00541520 Eh      3.40 kcal/mol
Rotational entropy                ...      0.01219063 Eh      7.65 kcal/mol
Translational entropy             ...      0.01840809 Eh     11.55 kcal/mol
-----------------------------------------------------------------------
Final entropy term                ...      0.03601393 Eh     22.60 kcal/mol

In case the symmetry of your molecule has not been determined correctly
or in case you have a reason to use a different symmetry number we print
out the resulting rotational entropy values for sn=1,12:

 non-linear molecules -----------------------------------
|  sn= 1 | S(rot)=       0.01219063 Eh      7.65 kcal/mol|
|  sn= 2 | S(rot)=       0.01153618 Eh      7.24 kcal/mol|
|  sn= 3 | S(rot)=       0.01115334 Eh      7.00 kcal/mol|
|  sn= 4 | S(rot)=       0.01088172 Eh      6.83 kcal/mol|
|  sn= 5 | S(rot)=       0.01067103 Eh      6.70 kcal/mol|
|  sn= 6 | S(rot)=       0.01049889 Eh      6.59 kcal/mol|
|  sn= 7 | S(rot)=       0.01035334 Eh      6.50 kcal/mol|
|  sn= 8 | S(rot)=       0.01022726 Eh      6.42 kcal/mol|
|  sn= 9 | S(rot)=       0.01011606 Eh      6.35 kcal/mol|
|  sn=10 | S(rot)=       0.01001658 Eh      6.29 kcal/mol|
|  sn=11 | S(rot)=       0.00992659 Eh      6.23 kcal/mol|
|  sn=12 | S(rot)=       0.00984443 Eh      6.18 kcal/mol|
 linear molecules ---------------------------------------
|  Dinfh | S(rot)=       0.00749938 Eh      4.71 kcal/mol|
|  Cinfv | S(rot)=       0.00815383 Eh      5.12 kcal/mol|
 --------------------------------------------------------

-------------------
GIBBS FREE ENERGY
-------------------

The Gibbs free energy is G = H - T*S

Total enthalpy                    ...   -232.29134586 Eh
Total entropy correction          ...     -0.03601393 Eh    -22.60 kcal/mol
-----------------------------------------------------------------------

                             ****ORCA TERMINATED NORMALLY****
TOTAL RUN TIME: 0 days 0 hours 4 minutes 54 seconds 507 msec
