                         Program Version 6.0.0  -   RELEASE  -
|  1> ! r2SCAN-3c DEF2-TZVP FREQ
|  2> * xyzfile 0 1 vacuum_censo.xyz
|  3>
|  4>                          ****END OF INPUT****

CARTESIAN COORDINATES (ANGSTROEM)
---------------------------------
  C      0.947755    1.285004   -0.062599
  C      0.457973   -0.127897   -0.346309
  C      1.395890   -1.209008    0.215703
  C     -0.934451   -0.368476    0.188283
  O     -1.601855    0.444232    0.782567
  H      0.257796    2.030136   -0.465773
  H      1.936166    1.444453   -0.503130
  H      1.017795    1.454040    1.015931
  H      0.382033   -0.291373   -1.434260
  H      2.386225   -1.124299   -0.239723
  H      1.017202   -2.216929    0.017156
  H      1.508205   -1.091862    1.298463
  H     -1.327116   -1.398492    0.002146

 Total Charge           Charge          ....    0
 Multiplicity           Mult            ....    1
 Number of Electrons    NEL             ....   40
 Basis Dimension        Dim             ....  203

ORBITAL ENERGIES
----------------

  NO   OCC          E(Eh)            E(eV)
   0   2.0000     -18.952639      -515.7275
   1   2.0000     -10.121170      -275.4110
   2   2.0000     -10.055954      -273.6364
   3   2.0000     -10.042183      -273.2617
   4   2.0000     -10.027353      -272.8581
   5   2.0000      -1.013658       -27.5830
   6   2.0000      -0.780457       -21.2373
   7   2.0000      -0.665562       -18.1109
   8   2.0000      -0.620054       -16.8725
   9   2.0000      -0.519175       -14.1275
  10   2.0000      -0.463812       -12.6210
  11   2.0000      -0.428186       -11.6515
  12   2.0000      -0.419199       -11.4070
  13   2.0000      -0.380871       -10.3640
  14   2.0000      -0.366345        -9.9688
  15   2.0000      -0.355065        -9.6618
  16   2.0000      -0.345116        -9.3911
  17   2.0000      -0.325196        -8.8490
  18   2.0000      -0.318027        -8.6539
  19   2.0000      -0.223652        -6.0859
  20   0.0000      -0.059690        -1.6243
  21   0.0000       0.041233         1.1220
  22   0.0000       0.074349         2.0231
  23   0.0000       0.081746         2.2244
  24   0.0000       0.097375         2.6497

MULLIKEN ATOMIC CHARGES
-----------------------
   0 C :   -0.325295
   1 C :    0.059901
   2 C :   -0.347116
   3 C :    0.101615
   4 O :   -0.292464
   5 H :    0.119456
   6 H :    0.105429
   7 H :    0.108252
   8 H :    0.071072
   9 H :    0.116941
  10 H :    0.111907
  11 H :    0.115085
  12 H :    0.055215
Sum of atomic charges:   -0.0000000

LOEWDIN ATOMIC CHARGES
----------------------
   0 C :   -0.277956
   1 C :   -0.312968
   2 C :   -0.274595
   3 C :   -0.272297
   4 O :    0.118522
   5 H :    0.127222
   6 H :    0.121065
   7 H :    0.126601
   8 H :    0.163216
   9 H :    0.124675
  10 H :    0.122016
  11 H :    0.125129
  12 H :    0.109371

  Mayer bond orders larger than 0.100000
B(  0-C ,  1-C ) :   0.9809 B(  0-C ,  5-H ) :   0.9684 B(  0-C ,  6-H ) :   0.9722
B(  0-C ,  7-H ) :   0.9658 B(  1-C ,  2-C ) :   0.9447 B(  1-C ,  3-C ) :   0.9044
B(  1-C ,  8-H ) :   0.9264 B(  2-C ,  9-H ) :   0.9695 B(  2-C , 10-H ) :   0.9694
B(  2-C , 11-H ) :   0.9688 B(  3-C ,  4-O ) :   2.0936 B(  3-C , 12-H ) :   0.9735

Dispersion correction           -0.002779321
FINAL SINGLE POINT ENERGY      -232.410776365161

DIPOLE MOMENT
-------------

Method             : SCF
Type of density    : Electron Density
Multiplicity       :   1
Irrep              :   0
Energy             :  -232.4140366327596325 Eh
Relativity type    :
Basis              : AO
                                X                 Y                 Z
Electronic contribution:     -5.496432189       0.660488186       1.017961839
Nuclear contribution   :      6.290091886      -1.203008598      -1.545600798
                        -----------------------------------------
Total Dipole Moment    :      0.793659697      -0.542520411      -0.527638959
                        -----------------------------------------
Magnitude (a.u.)       :      1.096643507
Magnitude (Debye)      :      2.787446273

VIBRATIONAL FREQUENCIES
-----------------------

Scaling factor for frequencies =  1.000000000  (already applied!)

     0:       0.00 cm**-1
     1:       0.00 cm**-1
     2:       0.00 cm**-1
     3:       0.00 cm**-1
     4:       0.00 cm**-1
     5:       0.00 cm**-1
     6:     108.93 cm**-1
     7:     216.34 cm**-1
     8:     244.31 cm**-1
     9:     281.14 cm**-1
    10:     346.87 cm**-1
    11:     400.82 cm**-1
    12:     641.47 cm**-1
    13:     797.00 cm**-1
    14:     906.11 cm**-1
    15:     921.65 cm**-1
    16:     939.52 cm**-1
    17:     973.34 cm**-1
    18:    1124.75 cm**-1
    19:    1148.71 cm**-1
    20:    1197.92 cm**-1
    21:    1287.33 cm**-1
    22:    1341.52 cm**-1
    23:    1388.19 cm**-1
    24:    1395.27 cm**-1
    25:    1418.65 cm**-1
    26:    1475.79 cm**-1
    27:    1480.75 cm**-1
    28:    1495.95 cm**-1
    29:    1500.60 cm**-1
    30:    1777.56 cm**-1
    31:    2821.85 cm**-1
    32:    2969.66 cm**-1
    33:    3009.75 cm**-1
    34:    3021.33 cm**-1
    35:    3087.55 cm**-1
    36:    3095.92 cm**-1
    37:    3098.82 cm**-1
    38:    3108.07 cm**-1

IR SPECTRUM
-----------

 Mode   freq       eps      Int      T**2         TX        TY        TZ
       cm**-1   L/(mol*cm) km/mol    a.u.
----------------------------------------------------------------------------
  6:    108.93   0.000940    4.75  0.002694  ( 0.016881 -0.017797  0.045740)
  7:    216.34   0.000002    0.01  0.000003  ( 0.001590 -0.000464 -0.000797)
  8:    244.31   0.000328    1.66  0.000420  ( 0.012709  0.015022 -0.005686)
  9:    281.14   0.001218    6.16  0.001352  (-0.032022 -0.017947  0.002230)
 10:    346.87   0.000127    0.64  0.000114  (-0.005966 -0.005570 -0.006886)
 11:    400.82   0.000197    1.00  0.000153  (-0.006832 -0.002193  0.010097)
 12:    641.47   0.000606    3.06  0.000295  (-0.014872 -0.008405 -0.001737)
 13:    797.00   0.002607   13.17  0.001021  (-0.027784 -0.012873  0.009115)
 14:    906.11   0.002653   13.41  0.000914  ( 0.028954 -0.002588 -0.008278)
 15:    921.65   0.002012   10.17  0.000681  ( 0.025818  0.003824 -0.000400)
 16:    939.52   0.001680    8.49  0.000558  (-0.018618 -0.012355  0.007670)
 17:    973.34   0.000295    1.49  0.000095  (-0.008973  0.001634  0.003378)
 18:   1124.75   0.000833    4.21  0.000231  ( 0.013441  0.000264 -0.007094)
 19:   1148.71   0.000748    3.78  0.000203  ( 0.013362 -0.002103  0.004494)
 20:   1197.92   0.000097    0.49  0.000025  (-0.003181 -0.002111  0.003267)
 21:   1287.33   0.000323    1.63  0.000078  ( 0.006971 -0.002141 -0.005008)
 22:   1341.52   0.000468    2.36  0.000109  ( 0.008827  0.000419 -0.005539)
 23:   1388.19   0.001205    6.09  0.000271  ( 0.002117 -0.016269  0.001308)
 24:   1395.27   0.000100    0.51  0.000022  (-0.002238 -0.002527  0.003328)
 25:   1418.65   0.001580    7.98  0.000347  ( 0.007605  0.014535  0.008853)
 26:   1475.79   0.000029    0.15  0.000006  ( 0.000483 -0.002409  0.000362)
 27:   1480.75   0.000880    4.45  0.000185  ( 0.005937 -0.009649  0.007554)
 28:   1495.95   0.001797    9.08  0.000375  ( 0.003762  0.007507  0.017443)
 29:   1500.60   0.003147   15.90  0.000654  ( 0.019313  0.003900 -0.016319)
 30:   1777.56   0.035857  181.21  0.006295  ( 0.056349 -0.043214 -0.035389)
 31:   2821.85   0.028500  144.03  0.003152  ( 0.024457  0.049867  0.008182)
 32:   2969.66   0.003583   18.11  0.000377  (-0.010364 -0.007803 -0.014431)
 33:   3009.75   0.005211   26.33  0.000540  (-0.011233  0.019028 -0.007211)
 34:   3021.33   0.003525   17.81  0.000364  (-0.012600 -0.014179 -0.002067)
 35:   3087.55   0.004816   24.34  0.000487  (-0.007883 -0.016003 -0.012983)
 36:   3095.92   0.000803    4.06  0.000081  ( 0.007063  0.005275  0.001807)
 37:   3098.82   0.007359   37.19  0.000741  ( 0.014949  0.003588 -0.022466)
 38:   3108.07   0.003660   18.49  0.000367  ( 0.015276 -0.008671  0.007676)

--------------------------
THERMOCHEMISTRY AT 298.15K
--------------------------

Temperature         ...   298.15 K
Pressure            ...     1.00 atm
Total Mass          ...    72.11 AMU
Quasi RRHO          ...     True
Cut-Off Frequency   ...     1.00 cm^-1

Throughout the following assumptions are being made:
  (1) The electronic state is orbitally nondegenerate
  (2) There are no thermally accessible electronically excited states
  (3) Hindered rotations indicated by low frequency modes are not
      treated as such but are treated as vibrations and this may
      cause some error
  (4) All equations used are the standard statistical mechanics
      equations for an ideal gas
  (5) All vibrations are strictly harmonic

freq.     108.93  E(vib)   ...       0.45
freq.     216.34  E(vib)   ...       0.34
freq.     244.31  E(vib)   ...       0.31
freq.     281.14  E(vib)   ...       0.28
freq.     346.87  E(vib)   ...       0.23
freq.     400.82  E(vib)   ...       0.19
freq.     641.47  E(vib)   ...       0.09
freq.     797.00  E(vib)   ...       0.05
freq.     906.11  E(vib)   ...       0.03
freq.     921.65  E(vib)   ...       0.03
freq.     939.52  E(vib)   ...       0.03
freq.     973.34  E(vib)   ...       0.03
freq.    1124.75  E(vib)   ...       0.01
freq.    1148.71  E(vib)   ...       0.01
freq.    1197.92  E(vib)   ...       0.01
freq.    1287.33  E(vib)   ...       0.01
freq.    1341.52  E(vib)   ...       0.01
freq.    1388.19  E(vib)   ...       0.00
freq.    1395.27  E(vib)   ...       0.00
freq.    1418.65  E(vib)   ...       0.00
freq.    1475.79  E(vib)   ...       0.00
freq.    1480.75  E(vib)   ...       0.00
freq.    1495.95  E(vib)   ...       0.00
freq.    1500.60  E(vib)   ...       0.00
freq.    1777.56  E(vib)   ...       0.00
freq.    2821.85  E(vib)   ...       0.00
freq.    2969.66  E(vib)   ...       0.00
freq.    3009.75  E(vib)   ...       0.00
freq.    3021.33  E(vib)   ...       0.00
freq.    3087.55  E(vib)   ...       0.00
freq.    3095.92  E(vib)   ...       0.00
freq.    3098.82  E(vib)   ...       0.00
freq.    3108.07  E(vib)   ...       0.00

------------
INNER ENERGY
------------

The inner energy is: U= E(el) + E(ZPE) + E(vib) + E(rot) + E(trans)
    E(el)   - is the total energy from the electronic structure calculation
              = E(kin-el) + E(nuc-el) + E(el-el) + E(nuc-nuc)
    E(ZPE)  - the the zero temperature vibrational energy from the frequency calculation
    E(vib)  - the the finite temperature correction to E(ZPE) due to population
              of excited vibrational states
    E(rot)  - is the rotational thermal energy
    E(trans)- is the translational thermal energy

Summary of contributions to the inner energy U:
Electronic energy                ...   -232.41077637 Eh
Zero point energy                ...      0.11168364 Eh      70.08 kcal/mol
Thermal vibrational correction   ...      0.00339892 Eh       2.13 kcal/mol
Thermal rotational correction    ...      0.00141627 Eh       0.89 kcal/mol
Thermal translational correction ...      0.00141627 Eh       0.89 kcal/mol
-----------------------------------------------------------------------
Total thermal energy                   -232.29286126 Eh

Summary of corrections to the electronic energy:
(perhaps to be used in another calculation)
Total thermal correction                  0.00623146 Eh       3.91 kcal/mol
Non-thermal (ZPE) correction              0.11168364 Eh      70.08 kcal/mol
-----------------------------------------------------------------------
Total correction                          0.11791510 Eh      73.99 kcal/mol

--------
ENTHALPY
--------

The enthalpy is H = U + kB*T
                kB is Boltzmann's constant
Total thermal energy              ...   -232.29286126 Eh
Thermal Enthalpy correction       ...      0.00094421 Eh       0.59 kcal/mol
-----------------------------------------------------------------------
Total Enthalpy                    ...   -232.29191705 Eh

Note: Only C1 symmetry has been detected, increase convergence thresholds
      if your molecule has a higher symmetry. Symmetry factor of 1.0 is
      used for the rotational entropy correction.

Note: Rotational entropy computed according to Herzberg
Infrared and Raman Spectra, Chapter V,1, Van Nostrand Reinhold, 1945
Point Group:  C1, Symmetry Number:   1
Rotational constants in cm-1:     0.249357     0.137342     0.099691

Vibrational entropy computed according to the QRRHO of S. Grimme
Chem.Eur.J. 2012 18 9955 using a reference frequency of 100.0 cm-1

-------
ENTROPY
-------

The entropy contributions are T*S = T*(S(el)+S(vib)+S(rot)+S(trans))
     S(el)   - electronic entropy
     S(vib)  - vibrational entropy
     S(rot)  - rotational entropy
     S(trans)- translational entropy
The entropies will be listed as multiplied by the temperature to get
units of energy

Electronic entropy                ...      0.00000000 Eh      0.00 kcal/mol
Vibrational entropy               ...      0.00565855 Eh      3.55 kcal/mol
Rotational entropy                ...      0.01219220 Eh      7.65 kcal/mol
Translational entropy             ...      0.01840809 Eh     11.55 kcal/mol
-----------------------------------------------------------------------
Final entropy term                ...      0.03625885 Eh     22.75 kcal/mol

In case the symmetry of your molecule has not been determined correctly
or in case you have a reason to use a different symmetry number we print
out the resulting rotational entropy values for sn=1,12:

 non-linear molecules -----------------------------------
|  sn= 1 | S(rot)=       0.01219220 Eh      7.65 kcal/mol|
|  sn= 2 | S(rot)=       0.01153774 Eh      7.24 kcal/mol|
|  sn= 3 | S(rot)=       0.01115491 Eh      7.00 kcal/mol|
|  sn= 4 | S(rot)=       0.01088329 Eh      6.83 kcal/mol|
|  sn= 5 | S(rot)=       0.01067260 Eh      6.70 kcal/mol|
|  sn= 6 | S(rot)=       0.01050045 Eh      6.59 kcal/mol|
|  sn= 7 | S(rot)=       0.01035491 Eh      6.50 kcal/mol|
|  sn= 8 | S(rot)=       0.01022883 Eh      6.42 kcal/mol|
|  sn= 9 | S(rot)=       0.01011762 Eh      6.35 kcal/mol|
|  sn=10 | S(rot)=       0.01001814 Eh      6.29 kcal/mol|
|  sn=11 | S(rot)=       0.00992815 Eh      6.23 kcal/mol|
|  sn=12 | S(rot)=       0.00984600 Eh      6.18 kcal/mol|
 linear molecules ---------------------------------------
|  Dinfh | S(rot)=       0.00750278 Eh      4.71 kcal/mol|
|  Cinfv | S(rot)=       0.00815724 Eh      5.12 kcal/mol|
 --------------------------------------------------------

-------------------
GIBBS FREE ENERGY
-------------------

The Gibbs free energy is G = H - T*S

Total enthalpy                    ...   -232.29191705 Eh
Total entropy correction          ...     -0.03625885 Eh    -22.75 kcal/mol
-----------------------------------------------------------------------

                             ****ORCA TERMINATED NORMALLY****
TOTAL RUN TIME: 0 days 0 hours 4 minutes 54 seconds 599 msec
