                         Program Version 6.0.1  -  RELEASE   -
|  1> ! r2scan-3c def2/J RI DEFGRID2 scfconv6 printgap
|  2> %output
|  3>     printlevel normal
|  4> end
|  5> * xyz 0 1
|  6> C -2.0804975113 0.0097662043 -0.1316093819
|  7> C -0.7652156771 0.6376857033 0.3150684385
|  8> C 0.4700103235 0.0010532654 -0.3316375751
|  9> C 1.7123508806 0.8294476247 -0.007680214
| 10> C 0.6730582347 -1.4393798085 0.1321915769
| 11> H -2.9205466553 0.5572351723 0.2903696176
| 12> H -2.1543765561 -1.0240667643 0.1951893922
| 13> H -2.1658849123 0.0353746173 -1.2160907425
| 14> H -0.7815427473 1.6999786398 0.0586139714
| 15> H -0.6778318097 0.5630394916 1.4016430932
| 16> H 0.3280090191 0.0002793609 -1.4186778308
| 17> H 2.5933669737 0.3995007891 -0.4790289296
| 18> H 1.8782069497 0.8570464902 1.0674495066
| 19> H 1.5987786087 1.85136556 -0.3630213067
| 20> H 0.7719565632 -1.4773587258 1.2152971879
| 21> H 1.5772705391 -1.8538001898 -0.3085710902
| 22> H -0.1630739695 -2.0682632307 -0.161134765
| 23> *
| 24>
| 25>                          ****END OF INPUT****

CARTESIAN COORDINATES (ANGSTROEM)
---------------------------------
  C     -2.080498    0.009766   -0.131609
  C     -0.765216    0.637686    0.315068
  C      0.470010    0.001053   -0.331638
  C      1.712351    0.829448   -0.007680
  C      0.673058   -1.439380    0.132192
  H     -2.920547    0.557235    0.290370
  H     -2.154377   -1.024067    0.195189
  H     -2.165885    0.035375   -1.216091
  H     -0.781543    1.699979    0.058614
  H     -0.677832    0.563039    1.401643
  H      0.328009    0.000279   -1.418678
  H      2.593367    0.399501   -0.479029
  H      1.878207    0.857046    1.067450
  H      1.598779    1.851366   -0.363021
  H      0.771957   -1.477359    1.215297
  H      1.577271   -1.853800   -0.308571
  H     -0.163074   -2.068263   -0.161135

 Total Charge           Charge          ....    0
 Multiplicity           Mult            ....    1
 Number of Electrons    NEL             ....   42
 Basis Dimension        Dim             ....  155

ORBITAL ENERGIES
----------------

  NO   OCC          E(Eh)            E(eV)
   0   2.0000     -10.029240      -272.9095
   1   2.0000     -10.020153      -272.6622
   2   2.0000     -10.013434      -272.4794
   3   2.0000     -10.012092      -272.4429
   4   2.0000     -10.011725      -272.4329
   5   2.0000      -0.775633       -21.1061
   6   2.0000      -0.698269       -19.0009
   7   2.0000      -0.646980       -17.6052
   8   2.0000      -0.588431       -16.0120
   9   2.0000      -0.520799       -14.1717
  10   2.0000      -0.433210       -11.7882
  11   2.0000      -0.411838       -11.2067
  12   2.0000      -0.398328       -10.8390
  13   2.0000      -0.377547       -10.2736
  14   2.0000      -0.352286        -9.5862
  15   2.0000      -0.347818        -9.4646
  16   2.0000      -0.326039        -8.8720
  17   2.0000      -0.315644        -8.5891
  18   2.0000      -0.289559        -7.8793
  19   2.0000      -0.286072        -7.7844
  20   2.0000      -0.281132        -7.6500
  21   0.0000       0.088499         2.4082
  22   0.0000       0.113396         3.0857
  23   0.0000       0.131234         3.5711
  24   0.0000       0.135144         3.6775
  25   0.0000       0.137865         3.7515

MULLIKEN ATOMIC CHARGES
-----------------------
   0 C :   -0.499184
   1 C :   -0.222805
   2 C :   -0.027179
   3 C :   -0.471286
   4 C :   -0.498577
   5 H :    0.145878
   6 H :    0.147590
   7 H :    0.144486
   8 H :    0.136970
   9 H :    0.135722
  10 H :    0.137196
  11 H :    0.144934
  12 H :    0.143263
  13 H :    0.144199
  14 H :    0.148027
  15 H :    0.142418
  16 H :    0.148348
Sum of atomic charges:   -0.0000000

LOEWDIN ATOMIC CHARGES
----------------------
   0 C :   -0.424735
   1 C :   -0.313158
   2 C :   -0.251539
   3 C :   -0.418737
   4 C :   -0.418295
   5 H :    0.150633
   6 H :    0.148981
   7 H :    0.150290
   8 H :    0.153602
   9 H :    0.153811
  10 H :    0.153368
  11 H :    0.151732
  12 H :    0.153299
  13 H :    0.151981
  14 H :    0.153230
  15 H :    0.153145
  16 H :    0.152390

  Mayer bond orders larger than 0.100000
B(  0-C ,  1-C ) :   0.8980 B(  0-C ,  5-H ) :   0.9728 B(  0-C ,  6-H ) :   0.9843
B(  0-C ,  7-H ) :   0.9857 B(  1-C ,  2-C ) :   0.9092 B(  1-C ,  8-H ) :   0.9702
B(  1-C ,  9-H ) :   0.9725 B(  2-C ,  3-C ) :   0.9139 B(  2-C ,  4-C ) :   0.9016
B(  2-C , 10-H ) :   0.9603 B(  3-C , 11-H ) :   0.9772 B(  3-C , 12-H ) :   0.9838
B(  3-C , 13-H ) :   0.9781 B(  4-C , 14-H ) :   0.9862 B(  4-C , 15-H ) :   0.9709
B(  4-C , 16-H ) :   0.9759

Dispersion correction           -0.003877146
FINAL SINGLE POINT ENERGY      -197.689456055015

DIPOLE MOMENT
-------------

Method             : SCF
Type of density    : Electron Density
Multiplicity       :   1
Irrep              :   0
Energy             :  -197.6937166451748169 Eh
Relativity type    :
Basis              : AO
                                X                 Y                 Z
Electronic contribution:      0.097181527       0.450478300      -0.288874325
Nuclear contribution   :     -0.108515182      -0.431243245       0.264597097
                        -----------------------------------------
Total Dipole Moment    :     -0.011333654       0.019235055      -0.024277228
                        -----------------------------------------
Magnitude (a.u.)       :      0.032982160
Magnitude (Debye)      :      0.083833988

Rotational constants in cm-1:             0.245553             0.112944             0.086652
Rotational constants in MHz :          7361.494082          3385.988747          2597.771997

                             ****ORCA TERMINATED NORMALLY****
TOTAL RUN TIME: 0 days 0 hours 0 minutes 20 seconds 604 msec
