                         Program Version 6.0.1  -  RELEASE   -
|  1> ! r2scan-3c def2/J RI DEFGRID2 scfconv6 printgap
|  2> %output
|  3>     printlevel normal
|  4> end
|  5> * xyz 0 1
|  6> C -2.2782140961 -0.3349997777 -0.0223136535
|  7> C -1.8710593955 0.9893895017 -0.0219159391
|  8> C -0.5244608011 1.3006707493 -0.0081553248
|  9> C 0.4299077704 0.2901166897 0.0055168461
| 10> C 0.0179382992 -1.0332001565 0.0051893628
| 11> C -1.3314068012 -1.3434460788 -0.0087968135
| 12> C 1.8923734733 0.6559733466 0.0212672744
| 13> O 2.7005252014 -0.4985218686 0.0208139847
| 14> H -3.3308418821 -0.577197187 -0.0332145568
| 15> H -2.6057321768 1.7814487671 -0.0325061669
| 16> H -0.2076020626 2.3345216948 -0.0079691867
| 17> H 0.7633687526 -1.8121358332 0.0156285556
| 18> H -1.6429237026 -2.3778518298 -0.0090767116
| 19> H 2.1109546654 1.2787069553 -0.8615733792
| 20> H 2.094580262 1.2662621493 0.9167517811
| 21> H 3.624416841 -0.2306631921 0.0296290704
| 22> *
| 23>
| 24>                          ****END OF INPUT****

CARTESIAN COORDINATES (ANGSTROEM)
---------------------------------
  C     -2.278214   -0.335000   -0.022314
  C     -1.871059    0.989390   -0.021916
  C     -0.524461    1.300671   -0.008155
  C      0.429908    0.290117    0.005517
  C      0.017938   -1.033200    0.005189
  C     -1.331407   -1.343446   -0.008797
  C      1.892373    0.655973    0.021267
  O      2.700525   -0.498522    0.020814
  H     -3.330842   -0.577197   -0.033215
  H     -2.605732    1.781449   -0.032506
  H     -0.207602    2.334522   -0.007969
  H      0.763369   -1.812136    0.015629
  H     -1.642924   -2.377852   -0.009077
  H      2.110955    1.278707   -0.861573
  H      2.094580    1.266262    0.916752
  H      3.624417   -0.230663    0.029629

 Total Charge           Charge          ....    0
 Multiplicity           Mult            ....    1
 Number of Electrons    NEL             ....   58
 Basis Dimension        Dim             ....  197

ORBITAL ENERGIES
----------------

  NO   OCC          E(Eh)            E(eV)
   0   2.0000     -18.958484      -515.8866
   1   2.0000     -10.088405      -274.5195
   2   2.0000     -10.041230      -273.2358
   3   2.0000     -10.032385      -272.9951
   4   2.0000     -10.031905      -272.9820
   5   2.0000     -10.029900      -272.9275
   6   2.0000     -10.028747      -272.8961
   7   2.0000     -10.025486      -272.8073
   8   2.0000      -0.997557       -27.1449
   9   2.0000      -0.825148       -22.4534
  10   2.0000      -0.735300       -20.0085
  11   2.0000      -0.712516       -19.3885
  12   2.0000      -0.645159       -17.5557
  13   2.0000      -0.575456       -15.6590
  14   2.0000      -0.549937       -14.9645
  15   2.0000      -0.490250       -13.3404
  16   2.0000      -0.481017       -13.0891
  17   2.0000      -0.428898       -11.6709
  18   2.0000      -0.421138       -11.4597
  19   2.0000      -0.408304       -11.1105
  20   2.0000      -0.390794       -10.6340
  21   2.0000      -0.385118       -10.4796
  22   2.0000      -0.337154        -9.1744
  23   2.0000      -0.328721        -8.9449
  24   2.0000      -0.308107        -8.3840
  25   2.0000      -0.299096        -8.1388
  26   2.0000      -0.255189        -6.9441
  27   2.0000      -0.233186        -6.3453
  28   2.0000      -0.220703        -6.0056
  29   0.0000      -0.030076        -0.8184
  30   0.0000      -0.023480        -0.6389
  31   0.0000       0.053584         1.4581
  32   0.0000       0.088839         2.4174
  33   0.0000       0.108316         2.9474

MULLIKEN ATOMIC CHARGES
-----------------------
   0 C :   -0.147333
   1 C :   -0.153465
   2 C :   -0.247304
   3 C :    0.209326
   4 C :   -0.200915
   5 C :   -0.155320
   6 C :   -0.210204
   7 O :   -0.424065
   8 H :    0.146038
   9 H :    0.144776
  10 H :    0.145223
  11 H :    0.176816
  12 H :    0.145124
  13 H :    0.137765
  14 H :    0.138177
  15 H :    0.295362
Sum of atomic charges:   -0.0000000

LOEWDIN ATOMIC CHARGES
----------------------
   0 C :   -0.173026
   1 C :   -0.163208
   2 C :   -0.164235
   3 C :   -0.066604
   4 C :   -0.142962
   5 C :   -0.160719
   6 C :    0.035512
   7 O :   -0.623933
   8 H :    0.165968
   9 H :    0.166362
  10 H :    0.168634
  11 H :    0.188189
  12 H :    0.166626
  13 H :    0.167767
  14 H :    0.167847
  15 H :    0.267783

  Mayer bond orders larger than 0.100000
B(  0-C ,  1-C ) :   1.4159 B(  0-C ,  5-C ) :   1.4250 B(  0-C ,  8-H ) :   0.9465
B(  1-C ,  2-C ) :   1.4354 B(  1-C ,  9-H ) :   0.9477 B(  2-C ,  3-C ) :   1.4069
B(  2-C , 10-H ) :   0.9336 B(  3-C ,  4-C ) :   1.4476 B(  3-C ,  6-C ) :   0.8665
B(  3-C ,  7-O ) :  -0.1216 B(  4-C ,  5-C ) :   1.3838 B(  4-C , 11-H ) :   0.9555
B(  5-C , 12-H ) :   0.9557 B(  6-C ,  7-O ) :   1.0110 B(  6-C , 13-H ) :   0.9772
B(  6-C , 14-H ) :   0.9761 B(  7-O , 15-H ) :   0.8995

Dispersion correction           -0.004887971
FINAL SINGLE POINT ENERGY      -346.687355983183

DIPOLE MOMENT
-------------

Method             : SCF
Type of density    : Electron Density
Multiplicity       :   1
Irrep              :   0
Energy             :  -346.6883472467592355 Eh
Relativity type    :
Basis              : AO
                                X                 Y                 Z
Electronic contribution:     -0.373393295      -1.038914810      -0.009724065
Nuclear contribution   :      0.796385629       1.552875025       0.016885300
                        -----------------------------------------
Total Dipole Moment    :      0.422992334       0.513960216       0.007161235
                        -----------------------------------------
Magnitude (a.u.)       :      0.665679278
Magnitude (Debye)      :      1.692022258

Rotational constants in cm-1:             0.166866             0.050162             0.038852
Rotational constants in MHz :          5002.521489          1503.816027          1164.739734

                             ****ORCA TERMINATED NORMALLY****
TOTAL RUN TIME: 0 days 0 hours 2 minutes 40 seconds 220 msec
