                         Program Version 6.0.1  -  RELEASE   -
|  1> ! r2scan-3c def2/J RI DEFGRID2 scfconv6 printgap
|  2> %output
|  3>     printlevel normal
|  4> end
|  5> * xyz 0 1
|  6> C -2.3263406589 -1.212898786 0.1362347025
|  7> N -1.60876331 0.0387495767 0.1944377013
|  8> C -2.3642363226 1.1549448694 -0.3274697826
|  9> C -0.2266840268 0.0224992611 0.066872915
| 10> C 0.5239516328 1.2019032318 0.1594846978
| 11> C 1.9022888987 1.1813177454 0.101682238
| 12> C 2.5894531183 -0.0110365849 -0.0495201524
| 13> C 1.8652333664 -1.1854002438 -0.1405710549
| 14> C 0.4844421673 -1.17416837 -0.0868619543
| 15> H -3.3631432039 -1.0318791139 0.4186311138
| 16> H -1.9021137469 -1.9160378436 0.8517358456
| 17> H -2.3172646791 -1.6682268239 -0.8635569286
| 18> H -1.9074097393 2.0997549041 -0.0501895568
| 19> H -3.3673977813 1.1324870804 0.0990288852
| 20> H -2.4517703515 1.1181148044 -1.4221811637
| 21> H 0.034434184 2.1534024195 0.2940985476
| 22> H 2.4463192025 2.1121232559 0.1784870472
| 23> H 3.667705194 -0.0229723869 -0.0958831215
| 24> H 2.3783014323 -2.1288627944 -0.2633728876
| 25> H -0.0345691695 -2.1142354237 -0.1787535587
| 26> *
| 27>
| 28>                          ****END OF INPUT****

CARTESIAN COORDINATES (ANGSTROEM)
---------------------------------
  C     -2.326341   -1.212899    0.136235
  N     -1.608763    0.038750    0.194438
  C     -2.364236    1.154945   -0.327470
  C     -0.226684    0.022499    0.066873
  C      0.523952    1.201903    0.159485
  C      1.902289    1.181318    0.101682
  C      2.589453   -0.011037   -0.049520
  C      1.865233   -1.185400   -0.140571
  C      0.484442   -1.174168   -0.086862
  H     -3.363143   -1.031879    0.418631
  H     -1.902114   -1.916038    0.851736
  H     -2.317265   -1.668227   -0.863557
  H     -1.907410    2.099755   -0.050190
  H     -3.367398    1.132487    0.099029
  H     -2.451770    1.118115   -1.422181
  H      0.034434    2.153402    0.294099
  H      2.446319    2.112123    0.178487
  H      3.667705   -0.022972   -0.095883
  H      2.378301   -2.128863   -0.263373
  H     -0.034569   -2.114235   -0.178754

 Total Charge           Charge          ....    0
 Multiplicity           Mult            ....    1
 Number of Electrons    NEL             ....   66
 Basis Dimension        Dim             ....  231

ORBITAL ENERGIES
----------------

  NO   OCC          E(Eh)            E(eV)
   0   2.0000     -14.177596      -385.7920
   1   2.0000     -10.068282      -273.9719
   2   2.0000     -10.059797      -273.7410
   3   2.0000     -10.058938      -273.7176
   4   2.0000     -10.025451      -272.8064
   5   2.0000     -10.025300      -272.8023
   6   2.0000     -10.021920      -272.7103
   7   2.0000     -10.021062      -272.6870
   8   2.0000     -10.015491      -272.5354
   9   2.0000      -0.916512       -24.9396
  10   2.0000      -0.809325       -22.0229
  11   2.0000      -0.712490       -19.3878
  12   2.0000      -0.711876       -19.3711
  13   2.0000      -0.684868       -18.6362
  14   2.0000      -0.625332       -17.0161
  15   2.0000      -0.565480       -15.3875
  16   2.0000      -0.542274       -14.7560
  17   2.0000      -0.497468       -13.5368
  18   2.0000      -0.446089       -12.1387
  19   2.0000      -0.441547       -12.0151
  20   2.0000      -0.435839       -11.8598
  21   2.0000      -0.412177       -11.2159
  22   2.0000      -0.388937       -10.5835
  23   2.0000      -0.383079       -10.4241
  24   2.0000      -0.370357       -10.0779
  25   2.0000      -0.362631        -9.8677
  26   2.0000      -0.347671        -9.4606
  27   2.0000      -0.338476        -9.2104
  28   2.0000      -0.319054        -8.6819
  29   2.0000      -0.298863        -8.1325
  30   2.0000      -0.258550        -7.0355
  31   2.0000      -0.228098        -6.2069
  32   2.0000      -0.171999        -4.6803
  33   0.0000      -0.023001        -0.6259
  34   0.0000      -0.008652        -0.2354
  35   0.0000       0.077648         2.1129
  36   0.0000       0.082376         2.2416
  37   0.0000       0.111952         3.0464

MULLIKEN ATOMIC CHARGES
-----------------------
   0 C :   -0.438009
   1 N :    0.083178
   2 C :   -0.370473
   3 C :    0.261130
   4 C :   -0.336764
   5 C :   -0.138121
   6 C :   -0.195325
   7 C :   -0.155871
   8 C :   -0.300587
   9 H :    0.140605
  10 H :    0.159436
  11 H :    0.159797
  12 H :    0.140348
  13 H :    0.143576
  14 H :    0.151037
  15 H :    0.125231
  16 H :    0.143748
  17 H :    0.144673
  18 H :    0.143110
  19 H :    0.139284
Sum of atomic charges:   -0.0000000

LOEWDIN ATOMIC CHARGES
----------------------
   0 C :   -0.130111
   1 N :   -0.918480
   2 C :   -0.120097
   3 C :    0.146554
   4 C :   -0.157720
   5 C :   -0.158057
   6 C :   -0.201964
   7 C :   -0.156924
   8 C :   -0.168608
   9 H :    0.177190
  10 H :    0.179474
  11 H :    0.161307
  12 H :    0.174535
  13 H :    0.174384
  14 H :    0.163190
  15 H :    0.167264
  16 H :    0.165986
  17 H :    0.164654
  18 H :    0.165906
  19 H :    0.171516

  Mayer bond orders larger than 0.100000
B(  0-C ,  1-N ) :   0.9132 B(  0-C ,  9-H ) :   0.9613 B(  0-C , 10-H ) :   0.9647
B(  0-C , 11-H ) :   0.9491 B(  1-N ,  2-C ) :   0.9110 B(  1-N ,  3-C ) :   1.1999
B(  2-C , 12-H ) :   0.9629 B(  2-C , 13-H ) :   0.9721 B(  2-C , 14-H ) :   0.9459
B(  3-C ,  4-C ) :   1.3173 B(  3-C ,  8-C ) :   1.3164 B(  4-C ,  5-C ) :   1.4451
B(  4-C , 15-H ) :   0.9416 B(  5-C ,  6-C ) :   1.4052 B(  5-C , 16-H ) :   0.9472
B(  6-C ,  7-C ) :   1.4263 B(  6-C , 17-H ) :   0.9488 B(  7-C ,  8-C ) :   1.4139
B(  7-C , 18-H ) :   0.9491 B(  8-C , 19-H ) :   0.9476

Dispersion correction           -0.006689931
FINAL SINGLE POINT ENERGY      -366.099058570700

DIPOLE MOMENT
-------------

Method             : SCF
Type of density    : Electron Density
Multiplicity       :   1
Irrep              :   0
Energy             :  -366.1051233612863030 Eh
Relativity type    :
Basis              : AO
                                X                 Y                 Z
Electronic contribution:      5.693730644       0.242027876       0.848184825
Nuclear contribution   :     -6.404222632      -0.249651669      -0.967082049
                        -----------------------------------------
Total Dipole Moment    :     -0.710491987      -0.007623793      -0.118897224
                        -----------------------------------------
Magnitude (a.u.)       :      0.720412060
Magnitude (Debye)      :      1.831141933

Rotational constants in cm-1:             0.119640             0.040654             0.031107
Rotational constants in MHz :          3586.722567          1218.789009           932.574144

                             ****ORCA TERMINATED NORMALLY****
TOTAL RUN TIME: 0 days 0 hours 0 minutes 25 seconds 551 msec
