                         Program Version 6.0.1  -  RELEASE   -
|  1> ! pbe def2-sv(p) def2/J RI DEFGRID1 loosescf d4 GCP(DFT/SV(P)) printgap
|  2> %output
|  3>     printlevel normal
|  4> end
|  5> * xyz 0 1
|  6> C 1.7087492528 -0.4539081057 1.580834277
|  7> C 3.0819260717 -0.5797101616 1.6770250404
|  8> C 3.8934859096 -0.1892636387 0.6222321531
|  9> C 3.3192614417 0.3317655418 -0.5350771889
| 10> C 1.9423047608 0.4574514975 -0.628638677
| 11> C 1.1319178715 0.06524584 0.4279267072
| 12> C -0.3408444057 0.1879309968 0.3151956529
| 13> C -0.9880671389 1.3521703474 0.701664686
| 14> C -2.3660380566 1.4607181977 0.5983390637
| 15> C -3.1210293514 0.3986116234 0.1023163959
| 16> C -2.4777039566 -0.7753385908 -0.2897852664
| 17> C -1.0920238815 -0.8757854891 -0.1814216227
| 18> Cl -0.2973295386 -2.3214394202 -0.6643645824
| 19> Cl -3.3931619109 -2.0880105692 -0.9021061873
| 20> Cl -4.8252394453 0.5266863762 -0.0272994179
| 21> Cl -3.1474739186 2.9094961795 1.0841011668
| 22> Cl 4.3096282947 0.8203339657 -1.8549728955
| 23> Cl 5.60187144 -0.3512886353 0.7484618487
| 24> H 1.0794196226 -0.7618521043 2.4010645356
| 25> H 3.5341694597 -0.9832254923 2.568899925
| 26> H 1.5037070911 0.8573792668 -1.5291503722
| 27> H -0.4140253939 2.1798411573 1.0862228789
| 28> *
| 29>
| 30>                          ****END OF INPUT****

CARTESIAN COORDINATES (ANGSTROEM)
---------------------------------
  C      1.708749   -0.453908    1.580834
  C      3.081926   -0.579710    1.677025
  C      3.893486   -0.189264    0.622232
  C      3.319261    0.331766   -0.535077
  C      1.942305    0.457451   -0.628639
  C      1.131918    0.065246    0.427927
  C     -0.340844    0.187931    0.315196
  C     -0.988067    1.352170    0.701665
  C     -2.366038    1.460718    0.598339
  C     -3.121029    0.398612    0.102316
  C     -2.477704   -0.775339   -0.289785
  C     -1.092024   -0.875785   -0.181422
  Cl    -0.297330   -2.321439   -0.664365
  Cl    -3.393162   -2.088011   -0.902106
  Cl    -4.825239    0.526686   -0.027299
  Cl    -3.147474    2.909496    1.084101
  Cl     4.309628    0.820334   -1.854973
  Cl     5.601871   -0.351289    0.748462
  H      1.079420   -0.761852    2.401065
  H      3.534169   -0.983225    2.568900
  H      1.503707    0.857379   -1.529150
  H     -0.414025    2.179841    1.086223

 Total Charge           Charge          ....    0
 Multiplicity           Mult            ....    1
 Number of Electrons    NEL             ....  178
 Basis Dimension        Dim             ....  284

ORBITAL ENERGIES
----------------

  NO   OCC          E(Eh)            E(eV)
   0   2.0000    -100.662184     -2739.1573
   1   2.0000    -100.662079     -2739.1544
   2   2.0000    -100.660332     -2739.1069
   3   2.0000    -100.660269     -2739.1052
   4   2.0000    -100.653802     -2738.9292
   5   2.0000    -100.653700     -2738.9264
   6   2.0000      -9.983116      -271.6544
   7   2.0000      -9.982902      -271.6486
   8   2.0000      -9.978781      -271.5364
   9   2.0000      -9.977917      -271.5129
  10   2.0000      -9.969513      -271.2842
  11   2.0000      -9.969182      -271.2752
  12   2.0000      -9.941015      -270.5088
  13   2.0000      -9.931419      -270.2476
  14   2.0000      -9.929020      -270.1824
  15   2.0000      -9.921586      -269.9801
  16   2.0000      -9.920967      -269.9632
  17   2.0000      -9.916744      -269.8483
  18   2.0000      -9.197995      -250.2902
  19   2.0000      -9.197903      -250.2877
  20   2.0000      -9.196208      -250.2415
  21   2.0000      -9.195852      -250.2318
  22   2.0000      -9.189581      -250.0612
  23   2.0000      -9.189491      -250.0588
  24   2.0000      -7.029722      -191.2885
  25   2.0000      -7.029637      -191.2861
  26   2.0000      -7.027773      -191.2354
  27   2.0000      -7.027451      -191.2267
  28   2.0000      -7.021099      -191.0538
  29   2.0000      -7.021032      -191.0520
  30   2.0000      -7.018039      -190.9705
  31   2.0000      -7.017993      -190.9693
  32   2.0000      -7.016871      -190.9388
  33   2.0000      -7.016808      -190.9371
  34   2.0000      -7.016229      -190.9213
  35   2.0000      -7.015952      -190.9138
  36   2.0000      -7.015314      -190.8964
  37   2.0000      -7.014874      -190.8844
  38   2.0000      -7.009632      -190.7418
  39   2.0000      -7.009570      -190.7401
  40   2.0000      -7.008718      -190.7169
  41   2.0000      -7.008648      -190.7150
  42   2.0000      -0.874159       -23.7871
  43   2.0000      -0.848697       -23.0942
  44   2.0000      -0.834387       -22.7048
  45   2.0000      -0.815713       -22.1967
  46   2.0000      -0.793101       -21.5814
  47   2.0000      -0.788364       -21.4525
  48   2.0000      -0.781140       -21.2559
  49   2.0000      -0.761720       -20.7275
  50   2.0000      -0.705678       -19.2025
  51   2.0000      -0.683512       -18.5993
  52   2.0000      -0.669270       -18.2118
  53   2.0000      -0.652333       -17.7509
  54   2.0000      -0.585313       -15.9272
  55   2.0000      -0.573057       -15.5937
  56   2.0000      -0.565375       -15.3846
  57   2.0000      -0.537482       -14.6256
  58   2.0000      -0.494014       -13.4428
  59   2.0000      -0.487709       -13.2712
  60   2.0000      -0.470278       -12.7969
  61   2.0000      -0.459277       -12.4976
  62   2.0000      -0.439091       -11.9483
  63   2.0000      -0.428480       -11.6595
  64   2.0000      -0.420629       -11.4459
  65   2.0000      -0.413109       -11.2413
  66   2.0000      -0.411836       -11.2066
  67   2.0000      -0.405592       -11.0367
  68   2.0000      -0.390102       -10.6152
  69   2.0000      -0.386889       -10.5278
  70   2.0000      -0.373870       -10.1735
  71   2.0000      -0.356532        -9.7017
  72   2.0000      -0.348538        -9.4842
  73   2.0000      -0.345955        -9.4139
  74   2.0000      -0.330573        -8.9953
  75   2.0000      -0.315437        -8.5835
  76   2.0000      -0.310338        -8.4447
  77   2.0000      -0.305552        -8.3145
  78   2.0000      -0.303162        -8.2495
  79   2.0000      -0.296326        -8.0634
  80   2.0000      -0.290739        -7.9114
  81   2.0000      -0.287037        -7.8107
  82   2.0000      -0.281698        -7.6654
  83   2.0000      -0.268374        -7.3028
  84   2.0000      -0.264169        -7.1884
  85   2.0000      -0.243211        -6.6181
  86   2.0000      -0.236135        -6.4256
  87   2.0000      -0.226215        -6.1556
  88   2.0000      -0.225824        -6.1450
  89   0.0000      -0.074896        -2.0380
  90   0.0000      -0.070766        -1.9256
  91   0.0000      -0.062272        -1.6945
  92   0.0000      -0.057443        -1.5631
  93   0.0000      -0.049394        -1.3441

MULLIKEN ATOMIC CHARGES
-----------------------
   0 C :   -0.060997
   1 C :   -0.093079
   2 C :    0.078754
   3 C :    0.095807
   4 C :   -0.127108
   5 C :    0.047821
   6 C :    0.028077
   7 C :   -0.169115
   8 C :    0.085974
   9 C :    0.029125
  10 C :    0.005629
  11 C :    0.048698
  12 Cl:   -0.022075
  13 Cl:   -0.013755
  14 Cl:   -0.014010
  15 Cl:   -0.039295
  16 Cl:   -0.048269
  17 Cl:   -0.048714
  18 H :    0.057443
  19 H :    0.057780
  20 H :    0.050220
  21 H :    0.051089
Sum of atomic charges:    0.0000000

LOEWDIN ATOMIC CHARGES
----------------------
   0 C :   -0.108208
   1 C :   -0.127673
   2 C :   -0.157024
   3 C :   -0.154622
   4 C :   -0.120208
   5 C :   -0.039717
   6 C :   -0.044235
   7 C :   -0.125215
   8 C :   -0.159957
   9 C :   -0.180649
  10 C :   -0.177711
  11 C :   -0.153250
  12 Cl:    0.174658
  13 Cl:    0.177173
  14 Cl:    0.175573
  15 Cl:    0.163785
  16 Cl:    0.154185
  17 Cl:    0.153340
  18 H :    0.133754
  19 H :    0.136632
  20 H :    0.137595
  21 H :    0.141773

  Mayer bond orders larger than 0.100000
B(  0-C ,  1-C ) :   1.3324 B(  0-C ,  5-C ) :   1.3681 B(  0-C , 18-H ) :   0.9661
B(  1-C ,  2-C ) :   1.3796 B(  1-C , 19-H ) :   0.9650 B(  2-C ,  3-C ) :   1.4031
B(  2-C , 17-Cl) :   1.0443 B(  3-C ,  4-C ) :   1.3493 B(  3-C , 16-Cl) :   1.0402
B(  4-C ,  5-C ) :   1.3473 B(  4-C , 20-H ) :   0.9700 B(  5-C ,  6-C ) :   0.9470
B(  6-C ,  7-C ) :   1.3309 B(  6-C , 11-C ) :   1.4157 B(  7-C ,  8-C ) :   1.3074
B(  7-C , 21-H ) :   0.9829 B(  8-C ,  9-C ) :   1.3979 B(  8-C , 15-Cl) :   1.0368
B(  9-C , 10-C ) :   1.4137 B(  9-C , 14-Cl) :   1.1200 B( 10-C , 11-C ) :   1.3902
B( 10-C , 13-Cl) :   1.1210 B( 11-C , 12-Cl) :   1.1199

Dispersion correction           -0.044975430
FINAL SINGLE POINT ENERGY     -3217.958848583888

DIPOLE MOMENT
-------------

Method             : SCF
Type of density    : Electron Density
Multiplicity       :   1
Irrep              :   0
Energy             : -3217.9830025191604363 Eh
Relativity type    :
Basis              : AO
                                X                 Y                 Z
Electronic contribution:     -7.752229719      -1.813353200      -5.989590526
Nuclear contribution   :      7.701832540       1.889030129       6.416413636
                        -----------------------------------------
Total Dipole Moment    :     -0.050397179       0.075676929       0.426823110
                        -----------------------------------------
Magnitude (a.u.)       :      0.436399864
Magnitude (Debye)      :      1.109240300

Rotational constants in cm-1:             0.015365             0.003771             0.003365
Rotational constants in MHz :           460.618437           113.047748           100.875295

                             ****ORCA TERMINATED NORMALLY****
TOTAL RUN TIME: 0 days 0 hours 0 minutes 20 seconds 565 msec
