                         Program Version 6.0.1  -  RELEASE   -
|  1> ! pbe def2-sv(p) def2/J RI DEFGRID1 loosescf d4 GCP(DFT/SV(P)) printgap
|  2> %output
|  3>     printlevel normal
|  4> end
|  5> * xyz 0 1
|  6> C -2.9073670711 -1.6398340011 0.0001673463
|  7> N -2.6770005175 -0.2141686062 -0.0015998351
|  8> C -3.8431794288 0.6388952644 0.0014928458
|  9> C -1.4402788516 0.3769293365 -0.0007500148
| 10> O -1.3104608831 1.5850382773 -0.0012188243
| 11> N -0.3893865184 -0.5116326605 0.0005602517
| 12> C 0.9788931413 -0.2364620152 0.0004366295
| 13> C 1.502152665 1.0531643221 0.000758517
| 14> C 2.8723068334 1.2389089177 0.0004658309
| 15> C 3.7369020985 0.1576879034 -0.0001404221
| 16> C 3.2189931288 -1.1264997659 -0.0003308545
| 17> C 1.8521537681 -1.3242121295 1.7633e-06
| 18> H -2.4892738292 -2.1201116091 -0.8907769626
| 19> H -3.9815030333 -1.8118763761 -0.0041717602
| 20> H -2.496670097 -2.1172428411 0.8962144596
| 21> H -4.4528727124 0.460324032 -0.8874875681
| 22> H -3.4991434759 1.6709880751 -0.0008695676
| 23> H -4.4470468497 0.4625969285 0.8950267396
| 24> H -0.6072151009 -1.4953625666 0.001452041
| 25> H 0.8318129349 1.8954914047 0.0011326726
| 26> H 3.2670021926 2.2442287942 0.0003933445
| 27> H 4.8053803015 0.3122652265 -0.0008812592
| 28> H 3.8814266484 -1.9799519092 -0.0010846504
| 29> H 1.4531684128 -2.3303968391 -0.0001978347
| 30> *
| 31>
| 32>                          ****END OF INPUT****

CARTESIAN COORDINATES (ANGSTROEM)
---------------------------------
  C     -2.907367   -1.639834    0.000167
  N     -2.677001   -0.214169   -0.001600
  C     -3.843179    0.638895    0.001493
  C     -1.440279    0.376929   -0.000750
  O     -1.310461    1.585038   -0.001219
  N     -0.389387   -0.511633    0.000560
  C      0.978893   -0.236462    0.000437
  C      1.502153    1.053164    0.000759
  C      2.872307    1.238909    0.000466
  C      3.736902    0.157688   -0.000140
  C      3.218993   -1.126500   -0.000331
  C      1.852154   -1.324212    0.000002
  H     -2.489274   -2.120112   -0.890777
  H     -3.981503   -1.811876   -0.004172
  H     -2.496670   -2.117243    0.896214
  H     -4.452873    0.460324   -0.887488
  H     -3.499143    1.670988   -0.000870
  H     -4.447047    0.462597    0.895027
  H     -0.607215   -1.495363    0.001452
  H      0.831813    1.895491    0.001133
  H      3.267002    2.244229    0.000393
  H      4.805380    0.312265   -0.000881
  H      3.881427   -1.979952   -0.001085
  H      1.453168   -2.330397   -0.000198

 Total Charge           Charge          ....    0
 Multiplicity           Mult            ....    1
 Number of Electrons    NEL             ....   88
 Basis Dimension        Dim             ....  192

ORBITAL ENERGIES
----------------

  NO   OCC          E(Eh)            E(eV)
   0   2.0000     -18.707169      -509.0480
   1   2.0000     -14.027514      -381.7081
   2   2.0000     -14.022038      -381.5591
   3   2.0000     -10.003540      -272.2102
   4   2.0000      -9.937804      -270.4214
   5   2.0000      -9.935258      -270.3521
   6   2.0000      -9.913419      -269.7579
   7   2.0000      -9.889766      -269.1142
   8   2.0000      -9.888344      -269.0755
   9   2.0000      -9.883499      -268.9437
  10   2.0000      -9.879843      -268.8442
  11   2.0000      -9.875006      -268.7126
  12   2.0000      -0.951644       -25.8955
  13   2.0000      -0.858447       -23.3595
  14   2.0000      -0.844849       -22.9895
  15   2.0000      -0.762308       -20.7435
  16   2.0000      -0.675505       -18.3814
  17   2.0000      -0.664951       -18.0942
  18   2.0000      -0.660861       -17.9829
  19   2.0000      -0.622140       -16.9293
  20   2.0000      -0.561913       -15.2904
  21   2.0000      -0.546103       -14.8602
  22   2.0000      -0.502769       -13.6810
  23   2.0000      -0.496455       -13.5092
  24   2.0000      -0.471741       -12.8367
  25   2.0000      -0.438159       -11.9229
  26   2.0000      -0.438109       -11.9215
  27   2.0000      -0.415419       -11.3041
  28   2.0000      -0.395573       -10.7641
  29   2.0000      -0.380858       -10.3637
  30   2.0000      -0.377176       -10.2635
  31   2.0000      -0.372463       -10.1352
  32   2.0000      -0.371196       -10.1008
  33   2.0000      -0.367857       -10.0099
  34   2.0000      -0.357071        -9.7164
  35   2.0000      -0.334162        -9.0930
  36   2.0000      -0.328027        -8.9261
  37   2.0000      -0.310802        -8.4574
  38   2.0000      -0.295904        -8.0520
  39   2.0000      -0.269737        -7.3399
  40   2.0000      -0.222940        -6.0665
  41   2.0000      -0.208975        -5.6865
  42   2.0000      -0.202818        -5.5190
  43   2.0000      -0.184942        -5.0325
  44   0.0000      -0.027740        -0.7548
  45   0.0000      -0.024588        -0.6691
  46   0.0000       0.014127         0.3844
  47   0.0000       0.040955         1.1144
  48   0.0000       0.047056         1.2805

MULLIKEN ATOMIC CHARGES
-----------------------
   0 C :   -0.205333
   1 N :   -0.277492
   2 C :   -0.184416
   3 C :    0.190895
   4 O :   -0.238130
   5 N :   -0.242536
   6 C :    0.192695
   7 C :   -0.135806
   8 C :   -0.053103
   9 C :   -0.041992
  10 C :   -0.062585
  11 C :   -0.143911
  12 H :    0.121293
  13 H :    0.125317
  14 H :    0.121180
  15 H :    0.107174
  16 H :    0.147553
  17 H :    0.107081
  18 H :    0.224134
  19 H :    0.074257
  20 H :    0.052586
  21 H :    0.046524
  22 H :    0.048978
  23 H :    0.025635
Sum of atomic charges:   -0.0000000

LOEWDIN ATOMIC CHARGES
----------------------
   0 C :   -0.260347
   1 N :   -0.091106
   2 C :   -0.254556
   3 C :    0.034978
   4 O :   -0.211533
   5 N :   -0.132735
   6 C :    0.011752
   7 C :   -0.146806
   8 C :   -0.114236
   9 C :   -0.144716
  10 C :   -0.120555
  11 C :   -0.155534
  12 H :    0.115815
  13 H :    0.132784
  14 H :    0.115695
  15 H :    0.111799
  16 H :    0.139551
  17 H :    0.111719
  18 H :    0.233487
  19 H :    0.141433
  20 H :    0.123918
  21 H :    0.120744
  22 H :    0.122542
  23 H :    0.115908

  Mayer bond orders larger than 0.100000
B(  0-C ,  1-N ) :   1.0185 B(  0-C , 12-H ) :   0.9389 B(  0-C , 13-H ) :   0.9466
B(  0-C , 14-H ) :   0.9389 B(  1-N ,  2-C ) :   1.0186 B(  1-N ,  3-C ) :   1.1175
B(  2-C , 15-H ) :   0.9532 B(  2-C , 16-H ) :   0.9267 B(  2-C , 17-H ) :   0.9532
B(  3-C ,  4-O ) :   1.9680 B(  3-C ,  5-N ) :   1.1053 B(  5-N ,  6-C ) :   1.1047
B(  5-N , 18-H ) :   0.8205 B(  6-C ,  7-C ) :   1.3889 B(  6-C , 11-C ) :   1.3221
B(  7-C ,  8-C ) :   1.3446 B(  7-C , 19-H ) :   0.9423 B(  8-C ,  9-C ) :   1.3692
B(  8-C , 20-H ) :   0.9636 B(  9-C , 10-C ) :   1.3720 B(  9-C , 21-H ) :   0.9669
B( 10-C , 11-C ) :   1.3977 B( 10-C , 22-H ) :   0.9612 B( 11-C , 23-H ) :   0.9528

Dispersion correction           -0.025483343
FINAL SINGLE POINT ENERGY      -533.771560148363

DIPOLE MOMENT
-------------

Method             : SCF
Type of density    : Electron Density
Multiplicity       :   1
Irrep              :   0
Energy             :  -533.8517324951181990 Eh
Relativity type    :
Basis              : AO
                                X                 Y                 Z
Electronic contribution:      6.440437899       3.066309114      -0.006869943
Nuclear contribution   :     -7.292919213      -4.492198675       0.008184897
                        -----------------------------------------
Total Dipole Moment    :     -0.852481314      -1.425889560       0.001314954
                        -----------------------------------------
Magnitude (a.u.)       :      1.661290811
Magnitude (Debye)      :      4.222665660

Rotational constants in cm-1:             0.087922             0.016189             0.013743
Rotational constants in MHz :          2635.848075           485.327933           412.007598

                             ****ORCA TERMINATED NORMALLY****
TOTAL RUN TIME: 0 days 0 hours 0 minutes 22 seconds 366 msec
