                         Program Version 6.0.1  -  RELEASE   -
|  1> ! pbe def2-sv(p) def2/J RI DEFGRID1 loosescf d4 GCP(DFT/SV(P)) printgap
|  2> %output
|  3>     printlevel normal
|  4> end
|  5> * xyz 0 1
|  6> C -1.8977502775 0.0454081174 -0.445035974
|  7> C -0.8704761973 -0.2293049221 0.6531611801
|  8> C 0.537615186 -0.0885473237 0.101479807
|  9> O 1.2355944735 -1.0242156373 -0.2127937217
| 10> N 0.9500025717 1.195273549 -0.0329088068
| 11> H -1.8052248829 1.0618199844 -0.8225632466
| 12> H -1.7508296552 -0.6431051425 -1.2735360819
| 13> H -2.9056119693 -0.0884979265 -0.0590652543
| 14> H -0.9895176044 -1.2493108966 1.0183626905
| 15> H -1.012958867 0.4630341181 1.4849694779
| 16> H 0.3705820019 1.9742930606 0.2209584926
| 17> H 1.8595109215 1.37622466 -0.4234272562
| 18> *
| 19>
| 20>                          ****END OF INPUT****

CARTESIAN COORDINATES (ANGSTROEM)
---------------------------------
  C     -1.897750    0.045408   -0.445036
  C     -0.870476   -0.229305    0.653161
  C      0.537615   -0.088547    0.101480
  O      1.235594   -1.024216   -0.212794
  N      0.950003    1.195274   -0.032909
  H     -1.805225    1.061820   -0.822563
  H     -1.750830   -0.643105   -1.273536
  H     -2.905612   -0.088498   -0.059065
  H     -0.989518   -1.249311    1.018363
  H     -1.012959    0.463034    1.484969
  H      0.370582    1.974293    0.220958
  H      1.859511    1.376225   -0.423427

 Total Charge           Charge          ....    0
 Multiplicity           Mult            ....    1
 Number of Electrons    NEL             ....   40
 Basis Dimension        Dim             ....   84

ORBITAL ENERGIES
----------------

  NO   OCC          E(Eh)            E(eV)
   0   2.0000     -18.704035      -508.9627
   1   2.0000     -14.006515      -381.1367
   2   2.0000      -9.975148      -271.4376
   3   2.0000      -9.891453      -269.1601
   4   2.0000      -9.886816      -269.0339
   5   2.0000      -0.927731       -25.2449
   6   2.0000      -0.814878       -22.1740
   7   2.0000      -0.699959       -19.0468
   8   2.0000      -0.583663       -15.8823
   9   2.0000      -0.523518       -14.2456
  10   2.0000      -0.488546       -13.2940
  11   2.0000      -0.426278       -11.5996
  12   2.0000      -0.393556       -10.7092
  13   2.0000      -0.377299       -10.2668
  14   2.0000      -0.349510        -9.5106
  15   2.0000      -0.323694        -8.8082
  16   2.0000      -0.315583        -8.5874
  17   2.0000      -0.310465        -8.4482
  18   2.0000      -0.224765        -6.1162
  19   2.0000      -0.191237        -5.2038
  20   0.0000       0.001966         0.0535
  21   0.0000       0.021544         0.5863
  22   0.0000       0.069949         1.9034
  23   0.0000       0.076620         2.0849
  24   0.0000       0.089030         2.4226

MULLIKEN ATOMIC CHARGES
-----------------------
   0 C :   -0.288657
   1 C :   -0.196112
   2 C :    0.036042
   3 O :   -0.197706
   4 N :   -0.329764
   5 H :    0.093989
   6 H :    0.118895
   7 H :    0.115007
   8 H :    0.102363
   9 H :    0.092730
  10 H :    0.224213
  11 H :    0.229000
Sum of atomic charges:   -0.0000000

LOEWDIN ATOMIC CHARGES
----------------------
   0 C :   -0.333508
   1 C :   -0.257592
   2 C :    0.008549
   3 O :   -0.190981
   4 N :   -0.304985
   5 H :    0.112533
   6 H :    0.127900
   7 H :    0.122857
   8 H :    0.133970
   9 H :    0.120651
  10 H :    0.229309
  11 H :    0.231295

  Mayer bond orders larger than 0.100000
B(  0-C ,  1-C ) :   1.1386 B(  0-C ,  5-H ) :   0.9557 B(  0-C ,  6-H ) :   0.9521
B(  0-C ,  7-H ) :   0.9515 B(  1-C ,  2-C ) :   1.0029 B(  1-C ,  8-H ) :   0.9092
B(  1-C ,  9-H ) :   0.9145 B(  2-C ,  3-O ) :   2.1372 B(  2-C ,  4-N ) :   1.2422
B(  4-N , 10-H ) :   0.8728 B(  4-N , 11-H ) :   0.8707

Dispersion correction           -0.007557551
FINAL SINGLE POINT ENERGY      -247.972313996761

DIPOLE MOMENT
-------------

Method             : SCF
Type of density    : Electron Density
Multiplicity       :   1
Irrep              :   0
Energy             :  -248.0179761151211721 Eh
Relativity type    :
Basis              : AO
                                X                 Y                 Z
Electronic contribution:      5.275831849      -1.411959362       0.052803052
Nuclear contribution   :     -5.825058790       2.706851303       0.133354817
                        -----------------------------------------
Total Dipole Moment    :     -0.549226942       1.294891941       0.186157869
                        -----------------------------------------
Magnitude (a.u.)       :      1.418819976
Magnitude (Debye)      :      3.606353778

Rotational constants in cm-1:             0.276723             0.132101             0.105254
Rotational constants in MHz :          8295.949737          3960.295537          3155.450385

                             ****ORCA TERMINATED NORMALLY****
TOTAL RUN TIME: 0 days 0 hours 0 minutes 16 seconds 933 msec
