                         Program Version 6.0.0  -   RELEASE  -
|  1> ! r2SCAN-3c DEF2-TZVP FREQ
|  2> * xyzfile 0 1 censo.xyz
|  3>
|  4>                          ****END OF INPUT****

CARTESIAN COORDINATES (ANGSTROEM)
---------------------------------
  C     -2.921817   -0.007989   -0.001238
  C     -1.418712    0.004940    0.003054
  C     -0.697728    1.199588    0.001724
  C      0.697749    1.199576   -0.001783
  C      1.418711    0.004917   -0.003302
  C      0.694704   -1.194446   -0.001968
  C     -0.694721   -1.194437    0.001794
  C      2.921810   -0.007993    0.001103
  H     -3.314055   -0.587342    0.841613
  H     -3.326690    1.005214    0.062115
  H     -3.308681   -0.472063   -0.915557
  H     -1.233018    2.145687    0.002754
  H      1.233061    2.145664   -0.003000
  H      1.232145   -2.139807   -0.003086
  H     -1.232167   -2.139796    0.002712
  H      3.326721    1.004538   -0.072121
  H      3.308677   -0.462909    0.920050
  H      3.314017   -0.595741   -0.835884

 Total Charge           Charge          ....    0
 Multiplicity           Mult            ....    1
 Number of Electrons    NEL             ....   58
 Basis Dimension        Dim             ....  308

ORBITAL ENERGIES
----------------

  NO   OCC          E(Eh)            E(eV)
   0   2.0000     -10.040752      -273.2227
   1   2.0000     -10.040739      -273.2224
   2   2.0000     -10.029346      -272.9124
   3   2.0000     -10.029072      -272.9049
   4   2.0000     -10.028899      -272.9002
   5   2.0000     -10.028651      -272.8935
   6   2.0000     -10.026636      -272.8386
   7   2.0000     -10.026633      -272.8386
   8   2.0000      -0.821109       -22.3435
   9   2.0000      -0.750958       -20.4346
  10   2.0000      -0.706482       -19.2244
  11   2.0000      -0.684221       -18.6186
  12   2.0000      -0.620061       -16.8727
  13   2.0000      -0.571577       -15.5534
  14   2.0000      -0.537771       -14.6335
  15   2.0000      -0.457320       -12.4443
  16   2.0000      -0.435569       -11.8524
  17   2.0000      -0.416767       -11.3408
  18   2.0000      -0.392349       -10.6764
  19   2.0000      -0.383104       -10.4248
  20   2.0000      -0.380879       -10.3642
  21   2.0000      -0.367452        -9.9989
  22   2.0000      -0.363387        -9.8883
  23   2.0000      -0.339014        -9.2250
  24   2.0000      -0.316328        -8.6077
  25   2.0000      -0.306974        -8.3532
  26   2.0000      -0.299743        -8.1564
  27   2.0000      -0.231048        -6.2871
  28   2.0000      -0.213345        -5.8054
  29   0.0000      -0.031301        -0.8517
  30   0.0000      -0.024969        -0.6794
  31   0.0000       0.058614         1.5950
  32   0.0000       0.066644         1.8135
  33   0.0000       0.080237         2.1834

MULLIKEN ATOMIC CHARGES
-----------------------
   0 C :   -0.346964
   1 C :    0.162323
   2 C :   -0.172689
   3 C :   -0.172646
   4 C :    0.162243
   5 C :   -0.175865
   6 C :   -0.175926
   7 C :   -0.347000
   8 H :    0.115688
   9 H :    0.107317
  10 H :    0.116857
  11 H :    0.095240
  12 H :    0.095253
  13 H :    0.098135
  14 H :    0.098138
  15 H :    0.107358
  16 H :    0.116938
  17 H :    0.115600
Sum of atomic charges:    0.0000000

LOEWDIN ATOMIC CHARGES
----------------------
   0 C :   -0.256168
   1 C :   -0.177441
   2 C :   -0.120389
   3 C :   -0.120379
   4 C :   -0.177442
   5 C :   -0.116291
   6 C :   -0.116277
   7 C :   -0.256168
   8 H :    0.128656
   9 H :    0.125052
  10 H :    0.129217
  11 H :    0.143052
  12 H :    0.143055
  13 H :    0.144296
  14 H :    0.144301
  15 H :    0.125062
  16 H :    0.129246
  17 H :    0.128617

  Mayer bond orders larger than 0.100000
B(  0-C ,  1-C ) :   0.9066 B(  0-C ,  8-H ) :   0.9691 B(  0-C ,  9-H ) :   0.9900
B(  0-C , 10-H ) :   0.9642 B(  1-C ,  2-C ) :   1.3704 B(  1-C ,  6-C ) :   1.3022
B(  2-C ,  3-C ) :   1.3992 B(  2-C , 11-H ) :   0.9766 B(  3-C ,  4-C ) :   1.3703
B(  3-C , 12-H ) :   0.9766 B(  4-C ,  5-C ) :   1.3023 B(  4-C ,  7-C ) :   0.9066
B(  5-C ,  6-C ) :   1.4395 B(  5-C , 13-H ) :   0.9860 B(  6-C , 14-H ) :   0.9860
B(  7-C , 15-H ) :   0.9900 B(  7-C , 16-H ) :   0.9638 B(  7-C , 17-H ) :   0.9695

Dispersion correction           -0.005544032
FINAL SINGLE POINT ENERGY      -310.809069674398

DIPOLE MOMENT
-------------

Method             : SCF
Type of density    : Electron Density
Multiplicity       :   1
Irrep              :   0
Energy             :  -310.8093244563160624 Eh
Relativity type    :
Basis              : AO
                                X                 Y                 Z
Electronic contribution:     -0.000016561       0.048472110       0.000011060
Nuclear contribution   :      0.000013663      -0.086395975       0.000312177
                        -----------------------------------------
Total Dipole Moment    :     -0.000002897      -0.037923865       0.000323238
                        -----------------------------------------
Magnitude (a.u.)       :      0.037925243
Magnitude (Debye)      :      0.096398307

VIBRATIONAL FREQUENCIES
-----------------------

Scaling factor for frequencies =  1.000000000  (already applied!)

     0:       0.00 cm**-1
     1:       0.00 cm**-1
     2:       0.00 cm**-1
     3:       0.00 cm**-1
     4:       0.00 cm**-1
     5:       0.00 cm**-1
     6:      77.52 cm**-1
     7:      79.14 cm**-1
     8:     138.40 cm**-1
     9:     291.13 cm**-1
    10:     311.81 cm**-1
    11:     392.73 cm**-1
    12:     417.51 cm**-1
    13:     465.50 cm**-1
    14:     490.91 cm**-1
    15:     661.83 cm**-1
    16:     724.97 cm**-1
    17:     734.71 cm**-1
    18:     800.72 cm**-1
    19:     837.41 cm**-1
    20:     841.44 cm**-1
    21:     937.85 cm**-1
    22:     941.73 cm**-1
    23:     988.56 cm**-1
    24:    1021.63 cm**-1
    25:    1044.34 cm**-1
    26:    1053.69 cm**-1
    27:    1058.65 cm**-1
    28:    1136.37 cm**-1
    29:    1203.72 cm**-1
    30:    1221.55 cm**-1
    31:    1239.72 cm**-1
    32:    1332.13 cm**-1
    33:    1334.64 cm**-1
    34:    1402.01 cm**-1
    35:    1402.10 cm**-1
    36:    1430.76 cm**-1
    37:    1477.38 cm**-1
    38:    1478.28 cm**-1
    39:    1481.67 cm**-1
    40:    1496.67 cm**-1
    41:    1539.74 cm**-1
    42:    1604.84 cm**-1
    43:    1644.06 cm**-1
    44:    3004.81 cm**-1
    45:    3004.96 cm**-1
    46:    3065.52 cm**-1
    47:    3065.70 cm**-1
    48:    3098.89 cm**-1
    49:    3098.95 cm**-1
    50:    3136.22 cm**-1
    51:    3141.03 cm**-1
    52:    3153.31 cm**-1
    53:    3158.96 cm**-1

IR SPECTRUM
-----------

 Mode   freq       eps      Int      T**2         TX        TY        TZ
       cm**-1   L/(mol*cm) km/mol    a.u.
----------------------------------------------------------------------------
  6:     77.52   0.000105    0.53  0.000424  (-0.000324  0.000661  0.020586)
  7:     79.14   0.000005    0.03  0.000020  ( 0.000292  0.003760 -0.002369)
  8:    138.40   0.000356    1.80  0.000803  ( 0.000461  0.000019 -0.028339)
  9:    291.13   0.000152    0.77  0.000163  (-0.000089 -0.012765 -0.000139)
 10:    311.81   0.000000    0.00  0.000000  (-0.000029  0.000014 -0.000036)
 11:    392.73   0.000042    0.21  0.000034  ( 0.005789  0.000027 -0.000048)
 12:    417.51   0.000000    0.00  0.000000  (-0.000007  0.000129  0.000024)
 13:    465.50   0.000002    0.01  0.000001  (-0.000006  0.001006 -0.000115)
 14:    490.91   0.003832   19.37  0.002436  (-0.000906  0.000004 -0.049350)
 15:    661.83   0.000001    0.01  0.000001  (-0.000737 -0.000005  0.000030)
 16:    724.97   0.000000    0.00  0.000000  ( 0.000086 -0.000096 -0.000006)
 17:    734.71   0.000017    0.09  0.000007  ( 0.002284  0.000007 -0.001454)
 18:    800.72   0.007447   37.63  0.002902  (-0.000099  0.000005  0.053872)
 19:    837.41   0.000002    0.01  0.000001  (-0.000002 -0.000898  0.000110)
 20:    841.44   0.000003    0.01  0.000001  ( 0.000081  0.000011 -0.000965)
 21:    937.85   0.000000    0.00  0.000000  ( 0.000056  0.000205 -0.000019)
 22:    941.73   0.000000    0.00  0.000000  ( 0.000026 -0.000286  0.000001)
 23:    988.56   0.000002    0.01  0.000001  (-0.000093 -0.000840 -0.000062)
 24:   1021.63   0.001063    5.37  0.000325  ( 0.018018  0.000017  0.000158)
 25:   1044.34   0.000689    3.48  0.000206  ( 0.014286  0.000005 -0.001331)
 26:   1053.69   0.000001    0.00  0.000000  ( 0.000464 -0.000151  0.000050)
 27:   1058.65   0.001401    7.08  0.000413  (-0.006421  0.000009 -0.019282)
 28:   1136.37   0.001643    8.30  0.000451  ( 0.000024  0.021241  0.000013)
 29:   1203.72   0.000001    0.00  0.000000  ( 0.000000  0.000476 -0.000014)
 30:   1221.55   0.000009    0.04  0.000002  ( 0.000002  0.001475 -0.000043)
 31:   1239.72   0.000937    4.73  0.000236  ( 0.015339  0.000005  0.000692)
 32:   1332.13   0.000019    0.09  0.000004  ( 0.000048 -0.002096  0.000030)
 33:   1334.64   0.000171    0.87  0.000040  ( 0.006328  0.000009 -0.000009)
 34:   1402.01   0.000011    0.06  0.000003  (-0.000379  0.001544 -0.000042)
 35:   1402.10   0.000317    1.60  0.000071  (-0.008397 -0.000077 -0.000345)
 36:   1430.76   0.000001    0.00  0.000000  (-0.000043 -0.000340 -0.000069)
 37:   1477.38   0.000003    0.02  0.000001  ( 0.000024  0.000830  0.000072)
 38:   1478.28   0.002625   13.26  0.000554  ( 0.000208 -0.000047 -0.023538)
 39:   1481.67   0.000100    0.50  0.000021  (-0.000050 -0.000029 -0.004582)
 40:   1496.67   0.004058   20.51  0.000846  ( 0.000047  0.029088  0.000053)
 41:   1539.74   0.006083   30.74  0.001233  ( 0.035111  0.000004  0.000352)
 42:   1604.84   0.000266    1.34  0.000052  ( 0.007185 -0.000005  0.000039)
 43:   1644.06   0.000000    0.00  0.000000  (-0.000001 -0.000001 -0.000011)
 44:   3004.81   0.013642   68.94  0.001417  ( 0.037607 -0.000619  0.001482)
 45:   3004.96   0.000578    2.92  0.000060  ( 0.006987  0.003342  0.000139)
 46:   3065.52   0.000035    0.18  0.000004  ( 0.000241 -0.000465 -0.001821)
 47:   3065.70   0.006329   31.98  0.000644  (-0.002008 -0.000008  0.025302)
 48:   3098.89   0.005879   29.71  0.000592  (-0.001827 -0.024262  0.000087)
 49:   3098.95   0.000892    4.51  0.000090  ( 0.006622 -0.006779 -0.000169)
 50:   3136.22   0.001998   10.10  0.000199  ( 0.014101 -0.000016 -0.000026)
 51:   3141.03   0.002536   12.82  0.000252  ( 0.015874 -0.000052 -0.000029)
 52:   3153.31   0.007331   37.05  0.000726  (-0.000025 -0.026936 -0.000002)
 53:   3158.96   0.001520    7.68  0.000150  (-0.000024 -0.012253 -0.000000)

--------------------------
THERMOCHEMISTRY AT 298.15K
--------------------------

Temperature         ...   298.15 K
Pressure            ...     1.00 atm
Total Mass          ...   106.17 AMU
Quasi RRHO          ...     True
Cut-Off Frequency   ...     1.00 cm^-1

Throughout the following assumptions are being made:
  (1) The electronic state is orbitally nondegenerate
  (2) There are no thermally accessible electronically excited states
  (3) Hindered rotations indicated by low frequency modes are not
      treated as such but are treated as vibrations and this may
      cause some error
  (4) All equations used are the standard statistical mechanics
      equations for an ideal gas
  (5) All vibrations are strictly harmonic

freq.      77.52  E(vib)   ...       0.49
freq.      79.14  E(vib)   ...       0.49
freq.     138.40  E(vib)   ...       0.42
freq.     291.13  E(vib)   ...       0.27
freq.     311.81  E(vib)   ...       0.25
freq.     392.73  E(vib)   ...       0.20
freq.     417.51  E(vib)   ...       0.18
freq.     465.50  E(vib)   ...       0.16
freq.     490.91  E(vib)   ...       0.14
freq.     661.83  E(vib)   ...       0.08
freq.     724.97  E(vib)   ...       0.06
freq.     734.71  E(vib)   ...       0.06
freq.     800.72  E(vib)   ...       0.05
freq.     837.41  E(vib)   ...       0.04
freq.     841.44  E(vib)   ...       0.04
freq.     937.85  E(vib)   ...       0.03
freq.     941.73  E(vib)   ...       0.03
freq.     988.56  E(vib)   ...       0.02
freq.    1021.63  E(vib)   ...       0.02
freq.    1044.34  E(vib)   ...       0.02
freq.    1053.69  E(vib)   ...       0.02
freq.    1058.65  E(vib)   ...       0.02
freq.    1136.37  E(vib)   ...       0.01
freq.    1203.72  E(vib)   ...       0.01
freq.    1221.55  E(vib)   ...       0.01
freq.    1239.72  E(vib)   ...       0.01
freq.    1332.13  E(vib)   ...       0.01
freq.    1334.64  E(vib)   ...       0.01
freq.    1402.01  E(vib)   ...       0.00
freq.    1402.10  E(vib)   ...       0.00
freq.    1430.76  E(vib)   ...       0.00
freq.    1477.38  E(vib)   ...       0.00
freq.    1478.28  E(vib)   ...       0.00
freq.    1481.67  E(vib)   ...       0.00
freq.    1496.67  E(vib)   ...       0.00
freq.    1539.74  E(vib)   ...       0.00
freq.    1604.84  E(vib)   ...       0.00
freq.    1644.06  E(vib)   ...       0.00
freq.    3004.81  E(vib)   ...       0.00
freq.    3004.96  E(vib)   ...       0.00
freq.    3065.52  E(vib)   ...       0.00
freq.    3065.70  E(vib)   ...       0.00
freq.    3098.89  E(vib)   ...       0.00
freq.    3098.95  E(vib)   ...       0.00
freq.    3136.22  E(vib)   ...       0.00
freq.    3141.03  E(vib)   ...       0.00
freq.    3153.31  E(vib)   ...       0.00
freq.    3158.96  E(vib)   ...       0.00

------------
INNER ENERGY
------------

The inner energy is: U= E(el) + E(ZPE) + E(vib) + E(rot) + E(trans)
    E(el)   - is the total energy from the electronic structure calculation
              = E(kin-el) + E(nuc-el) + E(el-el) + E(nuc-nuc)
    E(ZPE)  - the the zero temperature vibrational energy from the frequency calculation
    E(vib)  - the the finite temperature correction to E(ZPE) due to population
              of excited vibrational states
    E(rot)  - is the rotational thermal energy
    E(trans)- is the translational thermal energy

Summary of contributions to the inner energy U:
Electronic energy                ...   -310.80906967 Eh
Zero point energy                ...      0.15415480 Eh      96.73 kcal/mol
Thermal vibrational correction   ...      0.00508628 Eh       3.19 kcal/mol
Thermal rotational correction    ...      0.00141627 Eh       0.89 kcal/mol
Thermal translational correction ...      0.00141627 Eh       0.89 kcal/mol
-----------------------------------------------------------------------
Total thermal energy                   -310.64699605 Eh

Summary of corrections to the electronic energy:
(perhaps to be used in another calculation)
Total thermal correction                  0.00791882 Eh       4.97 kcal/mol
Non-thermal (ZPE) correction              0.15415480 Eh      96.73 kcal/mol
-----------------------------------------------------------------------
Total correction                          0.16207362 Eh     101.70 kcal/mol

--------
ENTHALPY
--------

The enthalpy is H = U + kB*T
                kB is Boltzmann's constant
Total thermal energy              ...   -310.64699605 Eh
Thermal Enthalpy correction       ...      0.00094421 Eh       0.59 kcal/mol
-----------------------------------------------------------------------
Total Enthalpy                    ...   -310.64605184 Eh

Note: Only C1 symmetry has been detected, increase convergence thresholds
      if your molecule has a higher symmetry. Symmetry factor of 1.0 is
      used for the rotational entropy correction.

Note: Rotational entropy computed according to Herzberg
Infrared and Raman Spectra, Chapter V,1, Van Nostrand Reinhold, 1945
Point Group:  C1, Symmetry Number:   1
Rotational constants in cm-1:     0.179984     0.047825     0.038322

Vibrational entropy computed according to the QRRHO of S. Grimme
Chem.Eur.J. 2012 18 9955 using a reference frequency of 100.0 cm-1

-------
ENTROPY
-------

The entropy contributions are T*S = T*(S(el)+S(vib)+S(rot)+S(trans))
     S(el)   - electronic entropy
     S(vib)  - vibrational entropy
     S(rot)  - rotational entropy
     S(trans)- translational entropy
The entropies will be listed as multiplied by the temperature to get
units of energy

Electronic entropy                ...      0.00000000 Eh      0.00 kcal/mol
Vibrational entropy               ...      0.00856382 Eh      5.37 kcal/mol
Rotational entropy                ...      0.01329548 Eh      8.34 kcal/mol
Translational entropy             ...      0.01895601 Eh     11.90 kcal/mol
-----------------------------------------------------------------------
Final entropy term                ...      0.04081531 Eh     25.61 kcal/mol

In case the symmetry of your molecule has not been determined correctly
or in case you have a reason to use a different symmetry number we print
out the resulting rotational entropy values for sn=1,12:

 non-linear molecules -----------------------------------
|  sn= 1 | S(rot)=       0.01329548 Eh      8.34 kcal/mol|
|  sn= 2 | S(rot)=       0.01264103 Eh      7.93 kcal/mol|
|  sn= 3 | S(rot)=       0.01225819 Eh      7.69 kcal/mol|
|  sn= 4 | S(rot)=       0.01198657 Eh      7.52 kcal/mol|
|  sn= 5 | S(rot)=       0.01177588 Eh      7.39 kcal/mol|
|  sn= 6 | S(rot)=       0.01160374 Eh      7.28 kcal/mol|
|  sn= 7 | S(rot)=       0.01145819 Eh      7.19 kcal/mol|
|  sn= 8 | S(rot)=       0.01133211 Eh      7.11 kcal/mol|
|  sn= 9 | S(rot)=       0.01122091 Eh      7.04 kcal/mol|
|  sn=10 | S(rot)=       0.01112143 Eh      6.98 kcal/mol|
|  sn=11 | S(rot)=       0.01103144 Eh      6.92 kcal/mol|
|  sn=12 | S(rot)=       0.01094928 Eh      6.87 kcal/mol|

                             ****ORCA TERMINATED NORMALLY****
TOTAL RUN TIME: 0 days 0 hours 13 minutes 35 seconds 881 msec
