                         Program Version 6.0.0  -   RELEASE  -
|  1> ! r2SCAN-3c DEF2-TZVP FREQ
|  2> * xyzfile 0 1 vacuum_censo.xyz
|  3>
|  4>                          ****END OF INPUT****

CARTESIAN COORDINATES (ANGSTROEM)
---------------------------------
  C     -2.920828   -0.003062    0.006338
  C     -1.416429    0.001284   -0.014164
  C     -0.696006    1.195978   -0.008128
  C      0.695434    1.196304    0.007593
  C      1.416403    0.001976    0.013673
  C      0.694975   -1.194384    0.007950
  C     -0.694437   -1.194722   -0.008243
  C      2.920798   -0.002929   -0.006174
  H     -3.323651   -0.839450   -0.572206
  H     -3.298090   -0.102445    1.031132
  H     -3.326831    0.924794   -0.405385
  H     -1.231306    2.141972   -0.012965
  H      1.230263    2.142533    0.012112
  H      1.231045   -2.140145    0.012633
  H     -1.230015   -2.140732   -0.013202
  H      3.323549   -0.813945    0.607720
  H      3.298493   -0.146521   -1.025533
  H      3.326565    0.941533    0.365839

 Total Charge           Charge          ....    0
 Multiplicity           Mult            ....    1
 Number of Electrons    NEL             ....   58
 Basis Dimension        Dim             ....  308

ORBITAL ENERGIES
----------------

  NO   OCC          E(Eh)            E(eV)
   0   2.0000     -10.040328      -273.2112
   1   2.0000     -10.040315      -273.2109
   2   2.0000     -10.028746      -272.8961
   3   2.0000     -10.028636      -272.8930
   4   2.0000     -10.028297      -272.8838
   5   2.0000     -10.028198      -272.8811
   6   2.0000     -10.026518      -272.8354
   7   2.0000     -10.026515      -272.8353
   8   2.0000      -0.821958       -22.3666
   9   2.0000      -0.750974       -20.4350
  10   2.0000      -0.706986       -19.2381
  11   2.0000      -0.684119       -18.6158
  12   2.0000      -0.620295       -16.8791
  13   2.0000      -0.571720       -15.5573
  14   2.0000      -0.538197       -14.6451
  15   2.0000      -0.457685       -12.4543
  16   2.0000      -0.435690       -11.8557
  17   2.0000      -0.416507       -11.3337
  18   2.0000      -0.392401       -10.6778
  19   2.0000      -0.383230       -10.4282
  20   2.0000      -0.381120       -10.3708
  21   2.0000      -0.366700        -9.9784
  22   2.0000      -0.363632        -9.8949
  23   2.0000      -0.338814        -9.2196
  24   2.0000      -0.316921        -8.6238
  25   2.0000      -0.306701        -8.3458
  26   2.0000      -0.299852        -8.1594
  27   2.0000      -0.231330        -6.2948
  28   2.0000      -0.213703        -5.8152
  29   0.0000      -0.031179        -0.8484
  30   0.0000      -0.024617        -0.6699
  31   0.0000       0.058505         1.5920
  32   0.0000       0.067097         1.8258
  33   0.0000       0.080657         2.1948

MULLIKEN ATOMIC CHARGES
-----------------------
   0 C :   -0.348853
   1 C :    0.154071
   2 C :   -0.170185
   3 C :   -0.170217
   4 C :    0.154650
   5 C :   -0.171859
   6 C :   -0.171206
   7 C :   -0.348726
   8 H :    0.112403
   9 H :    0.119436
  10 H :    0.110355
  11 H :    0.096633
  12 H :    0.096418
  13 H :    0.097582
  14 H :    0.097463
  15 H :    0.112861
  16 H :    0.119317
  17 H :    0.109858
Sum of atomic charges:   -0.0000000

LOEWDIN ATOMIC CHARGES
----------------------
   0 C :   -0.255708
   1 C :   -0.177240
   2 C :   -0.119146
   3 C :   -0.119369
   4 C :   -0.177265
   5 C :   -0.117714
   6 C :   -0.117960
   7 C :   -0.255721
   8 H :    0.126660
   9 H :    0.129886
  10 H :    0.125784
  11 H :    0.143680
  12 H :    0.143610
  13 H :    0.144120
  14 H :    0.144040
  15 H :    0.126882
  16 H :    0.129860
  17 H :    0.125600

  Mayer bond orders larger than 0.100000
B(  0-C ,  1-C ) :   0.9091 B(  0-C ,  8-H ) :   0.9815 B(  0-C ,  9-H ) :   0.9552
B(  0-C , 10-H ) :   0.9860 B(  1-C ,  2-C ) :   1.3469 B(  1-C ,  6-C ) :   1.3258
B(  2-C ,  3-C ) :   1.4153 B(  2-C , 11-H ) :   0.9803 B(  3-C ,  4-C ) :   1.3485
B(  3-C , 12-H ) :   0.9797 B(  4-C ,  5-C ) :   1.3243 B(  4-C ,  7-C ) :   0.9089
B(  5-C ,  6-C ) :   1.4295 B(  5-C , 13-H ) :   0.9832 B(  6-C , 14-H ) :   0.9827
B(  7-C , 15-H ) :   0.9803 B(  7-C , 16-H ) :   0.9557 B(  7-C , 17-H ) :   0.9868

Dispersion correction           -0.005546978
FINAL SINGLE POINT ENERGY      -310.809122314848

DIPOLE MOMENT
-------------

Method             : SCF
Type of density    : Electron Density
Multiplicity       :   1
Irrep              :   0
Energy             :  -310.8093789050016085 Eh
Relativity type    :
Basis              : AO
                                X                 Y                 Z
Electronic contribution:     -0.000042501       0.015468044      -0.000768671
Nuclear contribution   :      0.000113661      -0.027986780       0.001348138
                        -----------------------------------------
Total Dipole Moment    :      0.000071160      -0.012518736       0.000579467
                        -----------------------------------------
Magnitude (a.u.)       :      0.012532342
Magnitude (Debye)      :      0.031854683

VIBRATIONAL FREQUENCIES
-----------------------

Scaling factor for frequencies =  1.000000000  (already applied!)

     0:       0.00 cm**-1
     1:       0.00 cm**-1
     2:       0.00 cm**-1
     3:       0.00 cm**-1
     4:       0.00 cm**-1
     5:       0.00 cm**-1
     6:      63.07 cm**-1
     7:      71.87 cm**-1
     8:     136.57 cm**-1
     9:     291.77 cm**-1
    10:     309.19 cm**-1
    11:     392.10 cm**-1
    12:     414.36 cm**-1
    13:     466.06 cm**-1
    14:     489.30 cm**-1
    15:     662.59 cm**-1
    16:     723.83 cm**-1
    17:     733.52 cm**-1
    18:     800.96 cm**-1
    19:     839.18 cm**-1
    20:     841.77 cm**-1
    21:     939.82 cm**-1
    22:     943.39 cm**-1
    23:     988.36 cm**-1
    24:    1021.99 cm**-1
    25:    1043.95 cm**-1
    26:    1053.88 cm**-1
    27:    1058.87 cm**-1
    28:    1139.21 cm**-1
    29:    1205.48 cm**-1
    30:    1224.07 cm**-1
    31:    1238.85 cm**-1
    32:    1335.66 cm**-1
    33:    1339.79 cm**-1
    34:    1401.19 cm**-1
    35:    1401.36 cm**-1
    36:    1433.37 cm**-1
    37:    1477.51 cm**-1
    38:    1481.78 cm**-1
    39:    1483.24 cm**-1
    40:    1494.29 cm**-1
    41:    1543.31 cm**-1
    42:    1611.24 cm**-1
    43:    1649.95 cm**-1
    44:    3004.92 cm**-1
    45:    3005.13 cm**-1
    46:    3069.88 cm**-1
    47:    3070.12 cm**-1
    48:    3099.49 cm**-1
    49:    3099.58 cm**-1
    50:    3139.34 cm**-1
    51:    3141.29 cm**-1
    52:    3155.88 cm**-1
    53:    3159.96 cm**-1

IR SPECTRUM
-----------

 Mode   freq       eps      Int      T**2         TX        TY        TZ
       cm**-1   L/(mol*cm) km/mol    a.u.
----------------------------------------------------------------------------
  6:     63.07   0.000086    0.44  0.000427  ( 0.000112 -0.020565  0.002109)
  7:     71.87   0.000017    0.09  0.000076  ( 0.000663  0.002080  0.008414)
  8:    136.57   0.000407    2.06  0.000931  ( 0.001412  0.000194  0.030473)
  9:    291.77   0.000139    0.70  0.000149  ( 0.000218 -0.012192 -0.000000)
 10:    309.19   0.000000    0.00  0.000000  ( 0.000018  0.000145  0.000016)
 11:    392.10   0.000004    0.02  0.000004  (-0.001884  0.000002  0.000098)
 12:    414.36   0.000002    0.01  0.000002  (-0.000024  0.001258  0.000177)
 13:    466.06   0.000000    0.00  0.000000  (-0.000020 -0.000351  0.000202)
 14:    489.30   0.003785   19.13  0.002414  (-0.002102  0.000020  0.049084)
 15:    662.59   0.000000    0.00  0.000000  ( 0.000246 -0.000001  0.000038)
 16:    723.83   0.000000    0.00  0.000000  (-0.000099 -0.000055 -0.000063)
 17:    733.52   0.000103    0.52  0.000044  ( 0.002606 -0.000127  0.006074)
 18:    800.96   0.007310   36.94  0.002848  (-0.002656  0.000010 -0.053303)
 19:    839.18   0.000000    0.00  0.000000  (-0.000007  0.000335 -0.000155)
 20:    841.77   0.000001    0.00  0.000000  ( 0.000020 -0.000055  0.000473)
 21:    939.82   0.000000    0.00  0.000000  (-0.000101  0.000069 -0.000001)
 22:    943.39   0.000001    0.00  0.000000  (-0.000023 -0.000545 -0.000051)
 23:    988.36   0.000005    0.03  0.000002  (-0.001208  0.000487  0.000072)
 24:   1021.99   0.000144    0.73  0.000044  (-0.006613  0.000015  0.000431)
 25:   1043.95   0.000171    0.86  0.000051  (-0.003922 -0.000031 -0.005981)
 26:   1053.88   0.000001    0.00  0.000000  (-0.000148 -0.000176 -0.000357)
 27:   1058.87   0.003541   17.89  0.001043  (-0.026404  0.000028  0.018610)
 28:   1139.21   0.001596    8.06  0.000437  ( 0.000305 -0.020904 -0.000001)
 29:   1205.48   0.000000    0.00  0.000000  ( 0.000009  0.000169 -0.000026)
 30:   1224.07   0.000001    0.01  0.000000  (-0.000014 -0.000546  0.000063)
 31:   1238.85   0.000989    5.00  0.000249  (-0.015476  0.000112  0.003091)
 32:   1335.66   0.000019    0.09  0.000004  (-0.002081  0.000013 -0.000005)
 33:   1339.79   0.000023    0.12  0.000005  ( 0.000573  0.002256  0.000005)
 34:   1401.19   0.000001    0.01  0.000000  (-0.000137  0.000451  0.000007)
 35:   1401.36   0.000283    1.43  0.000063  (-0.007776  0.000077  0.001579)
 36:   1433.37   0.000016    0.08  0.000003  (-0.000287  0.001834 -0.000040)
 37:   1477.51   0.000131    0.66  0.000028  (-0.000061  0.000034 -0.005258)
 38:   1481.78   0.000044    0.22  0.000009  ( 0.000057 -0.002441  0.001816)
 39:   1483.24   0.002513   12.70  0.000529  ( 0.001031 -0.000316  0.022968)
 40:   1494.29   0.004023   20.33  0.000840  (-0.000112 -0.028983 -0.000401)
 41:   1543.31   0.006216   31.41  0.001257  (-0.035413  0.000025  0.001699)
 42:   1611.24   0.000031    0.16  0.000006  (-0.002454 -0.000000  0.000062)
 43:   1649.95   0.000000    0.00  0.000000  ( 0.000016 -0.000021  0.000011)
 44:   3004.92   0.013428   67.86  0.001395  (-0.036879 -0.000045  0.005876)
 45:   3005.13   0.000634    3.20  0.000066  ( 0.007966 -0.001001 -0.001175)
 46:   3069.88   0.000920    4.65  0.000094  ( 0.003260 -0.000893  0.009061)
 47:   3070.12   0.006053   30.59  0.000615  (-0.008935 -0.000243 -0.023137)
 48:   3099.49   0.004778   24.14  0.000481  (-0.001048  0.021905 -0.000279)
 49:   3099.58   0.001721    8.70  0.000173  (-0.002618 -0.012890 -0.000557)
 50:   3139.34   0.001760    8.89  0.000175  (-0.013226  0.000138 -0.000104)
 51:   3141.29   0.002737   13.83  0.000272  (-0.016486  0.000198 -0.000139)
 52:   3155.88   0.008487   42.89  0.000839  ( 0.000179  0.028969  0.000002)
 53:   3159.96   0.000427    2.16  0.000042  (-0.000056 -0.006497  0.000004)

--------------------------
THERMOCHEMISTRY AT 298.15K
--------------------------

Temperature         ...   298.15 K
Pressure            ...     1.00 atm
Total Mass          ...   106.17 AMU
Quasi RRHO          ...     True
Cut-Off Frequency   ...     1.00 cm^-1

Throughout the following assumptions are being made:
  (1) The electronic state is orbitally nondegenerate
  (2) There are no thermally accessible electronically excited states
  (3) Hindered rotations indicated by low frequency modes are not
      treated as such but are treated as vibrations and this may
      cause some error
  (4) All equations used are the standard statistical mechanics
      equations for an ideal gas
  (5) All vibrations are strictly harmonic

freq.      63.07  E(vib)   ...       0.51
freq.      71.87  E(vib)   ...       0.50
freq.     136.57  E(vib)   ...       0.42
freq.     291.77  E(vib)   ...       0.27
freq.     309.19  E(vib)   ...       0.26
freq.     392.10  E(vib)   ...       0.20
freq.     414.36  E(vib)   ...       0.19
freq.     466.06  E(vib)   ...       0.16
freq.     489.30  E(vib)   ...       0.15
freq.     662.59  E(vib)   ...       0.08
freq.     723.83  E(vib)   ...       0.06
freq.     733.52  E(vib)   ...       0.06
freq.     800.96  E(vib)   ...       0.05
freq.     839.18  E(vib)   ...       0.04
freq.     841.77  E(vib)   ...       0.04
freq.     939.82  E(vib)   ...       0.03
freq.     943.39  E(vib)   ...       0.03
freq.     988.36  E(vib)   ...       0.02
freq.    1021.99  E(vib)   ...       0.02
freq.    1043.95  E(vib)   ...       0.02
freq.    1053.88  E(vib)   ...       0.02
freq.    1058.87  E(vib)   ...       0.02
freq.    1139.21  E(vib)   ...       0.01
freq.    1205.48  E(vib)   ...       0.01
freq.    1224.07  E(vib)   ...       0.01
freq.    1238.85  E(vib)   ...       0.01
freq.    1335.66  E(vib)   ...       0.01
freq.    1339.79  E(vib)   ...       0.01
freq.    1401.19  E(vib)   ...       0.00
freq.    1401.36  E(vib)   ...       0.00
freq.    1433.37  E(vib)   ...       0.00
freq.    1477.51  E(vib)   ...       0.00
freq.    1481.78  E(vib)   ...       0.00
freq.    1483.24  E(vib)   ...       0.00
freq.    1494.29  E(vib)   ...       0.00
freq.    1543.31  E(vib)   ...       0.00
freq.    1611.24  E(vib)   ...       0.00
freq.    1649.95  E(vib)   ...       0.00
freq.    3004.92  E(vib)   ...       0.00
freq.    3005.13  E(vib)   ...       0.00
freq.    3069.88  E(vib)   ...       0.00
freq.    3070.12  E(vib)   ...       0.00
freq.    3099.49  E(vib)   ...       0.00
freq.    3099.58  E(vib)   ...       0.00
freq.    3139.34  E(vib)   ...       0.00
freq.    3141.29  E(vib)   ...       0.00
freq.    3155.88  E(vib)   ...       0.00
freq.    3159.96  E(vib)   ...       0.00

------------
INNER ENERGY
------------

The inner energy is: U= E(el) + E(ZPE) + E(vib) + E(rot) + E(trans)
    E(el)   - is the total energy from the electronic structure calculation
              = E(kin-el) + E(nuc-el) + E(el-el) + E(nuc-nuc)
    E(ZPE)  - the the zero temperature vibrational energy from the frequency calculation
    E(vib)  - the the finite temperature correction to E(ZPE) due to population
              of excited vibrational states
    E(rot)  - is the rotational thermal energy
    E(trans)- is the translational thermal energy

Summary of contributions to the inner energy U:
Electronic energy                ...   -310.80912231 Eh
Zero point energy                ...      0.15421444 Eh      96.77 kcal/mol
Thermal vibrational correction   ...      0.00513816 Eh       3.22 kcal/mol
Thermal rotational correction    ...      0.00141627 Eh       0.89 kcal/mol
Thermal translational correction ...      0.00141627 Eh       0.89 kcal/mol
-----------------------------------------------------------------------
Total thermal energy                   -310.64693717 Eh

Summary of corrections to the electronic energy:
(perhaps to be used in another calculation)
Total thermal correction                  0.00797070 Eh       5.00 kcal/mol
Non-thermal (ZPE) correction              0.15421444 Eh      96.77 kcal/mol
-----------------------------------------------------------------------
Total correction                          0.16218514 Eh     101.77 kcal/mol

--------
ENTHALPY
--------

The enthalpy is H = U + kB*T
                kB is Boltzmann's constant
Total thermal energy              ...   -310.64693717 Eh
Thermal Enthalpy correction       ...      0.00094421 Eh       0.59 kcal/mol
-----------------------------------------------------------------------
Total Enthalpy                    ...   -310.64599296 Eh

Note: Only C1 symmetry has been detected, increase convergence thresholds
      if your molecule has a higher symmetry. Symmetry factor of 1.0 is
      used for the rotational entropy correction.

Note: Rotational entropy computed according to Herzberg
Infrared and Raman Spectra, Chapter V,1, Van Nostrand Reinhold, 1945
Point Group:  C1, Symmetry Number:   1
Rotational constants in cm-1:     0.180399     0.047876     0.038376

Vibrational entropy computed according to the QRRHO of S. Grimme
Chem.Eur.J. 2012 18 9955 using a reference frequency of 100.0 cm-1

-------
ENTROPY
-------

The entropy contributions are T*S = T*(S(el)+S(vib)+S(rot)+S(trans))
     S(el)   - electronic entropy
     S(vib)  - vibrational entropy
     S(rot)  - rotational entropy
     S(trans)- translational entropy
The entropies will be listed as multiplied by the temperature to get
units of energy

Electronic entropy                ...      0.00000000 Eh      0.00 kcal/mol
Vibrational entropy               ...      0.00866918 Eh      5.44 kcal/mol
Rotational entropy                ...      0.01329322 Eh      8.34 kcal/mol
Translational entropy             ...      0.01895601 Eh     11.90 kcal/mol
-----------------------------------------------------------------------
Final entropy term                ...      0.04091841 Eh     25.68 kcal/mol

In case the symmetry of your molecule has not been determined correctly
or in case you have a reason to use a different symmetry number we print
out the resulting rotational entropy values for sn=1,12:

 non-linear molecules -----------------------------------
|  sn= 1 | S(rot)=       0.01329322 Eh      8.34 kcal/mol|
|  sn= 2 | S(rot)=       0.01263876 Eh      7.93 kcal/mol|
|  sn= 3 | S(rot)=       0.01225593 Eh      7.69 kcal/mol|
|  sn= 4 | S(rot)=       0.01198431 Eh      7.52 kcal/mol|
|  sn= 5 | S(rot)=       0.01177362 Eh      7.39 kcal/mol|
|  sn= 6 | S(rot)=       0.01160147 Eh      7.28 kcal/mol|
|  sn= 7 | S(rot)=       0.01145593 Eh      7.19 kcal/mol|
|  sn= 8 | S(rot)=       0.01132985 Eh      7.11 kcal/mol|
|  sn= 9 | S(rot)=       0.01121864 Eh      7.04 kcal/mol|
|  sn=10 | S(rot)=       0.01111916 Eh      6.98 kcal/mol|
|  sn=11 | S(rot)=       0.01102917 Eh      6.92 kcal/mol|
|  sn=12 | S(rot)=       0.01094702 Eh      6.87 kcal/mol|

                             ****ORCA TERMINATED NORMALLY****
TOTAL RUN TIME: 0 days 0 hours 13 minutes 38 seconds 586 msec
