                         Program Version 6.0.1  -  RELEASE   -
|  1> ! pbe def2-sv(p) def2/J RI DEFGRID1 loosescf d4 GCP(DFT/SV(P)) printgap
|  2> %output
|  3>     printlevel normal
|  4> end
|  5> * xyz 0 1
|  6> C -2.7354252126 -0.6838812233 -1.0297216771
|  7> C -1.3303884109 -0.5419714731 -0.4513225784
|  8> H -0.6003578191 -0.8089948113 -1.226356847
|  9> C -1.0969116648 -1.4428904065 0.7598407102
| 10> C 0.378221408 -1.4497251824 1.1661275234
| 11> C 1.049499205 -0.0624093232 1.0180478267
| 12> H 1.6910028564 0.0950011838 1.8941682239
| 13> C -0.0156365137 1.0363082532 1.0370703721
| 14> C -1.0420539287 0.8959086071 -0.0626419491
| 15> O -1.5967417864 1.8440244037 -0.5615366937
| 16> C 1.9727584944 0.0048425685 -0.1901491797
| 17> C 2.921560354 -0.9048007715 -0.3606356962
| 18> C 1.8502785089 1.1595673451 -1.1371547438
| 19> H -3.4799845776 -0.5048339808 -0.2567979459
| 20> H -2.8858332292 0.0455732329 -1.8213447315
| 21> H -2.8850540355 -1.682033533 -1.4341868515
| 22> H -1.7219749218 -1.0954646543 1.585640056
| 23> H -1.410554001 -2.4615723482 0.5242886192
| 24> H 0.4582418221 -1.7922300943 2.1992458248
| 25> H 0.9097795322 -2.1683974525 0.5426321906
| 26> H -0.5658036542 0.9723340955 1.9810707332
| 27> H 0.4271283998 2.0319344201 0.995744263
| 28> H 3.5992640726 -0.8647535725 -1.1959431653
| 29> H 3.0723361107 -1.7208193144 0.3258880567
| 30> H 2.1149847819 2.0892653582 -0.6336808544
| 31> H 2.5250516129 1.027204037 -1.979159147
| 32> H 0.8379053437 1.2689956833 -1.5185922805
| 33> *
| 34>
| 35>                          ****END OF INPUT****

CARTESIAN COORDINATES (ANGSTROEM)
---------------------------------
  C     -2.735425   -0.683881   -1.029722
  C     -1.330388   -0.541971   -0.451323
  H     -0.600358   -0.808995   -1.226357
  C     -1.096912   -1.442890    0.759841
  C      0.378221   -1.449725    1.166128
  C      1.049499   -0.062409    1.018048
  H      1.691003    0.095001    1.894168
  C     -0.015637    1.036308    1.037070
  C     -1.042054    0.895909   -0.062642
  O     -1.596742    1.844024   -0.561537
  C      1.972758    0.004843   -0.190149
  C      2.921560   -0.904801   -0.360636
  C      1.850279    1.159567   -1.137155
  H     -3.479985   -0.504834   -0.256798
  H     -2.885833    0.045573   -1.821345
  H     -2.885054   -1.682034   -1.434187
  H     -1.721975   -1.095465    1.585640
  H     -1.410554   -2.461572    0.524289
  H      0.458242   -1.792230    2.199246
  H      0.909780   -2.168397    0.542632
  H     -0.565804    0.972334    1.981071
  H      0.427128    2.031934    0.995744
  H      3.599264   -0.864754   -1.195943
  H      3.072336   -1.720819    0.325888
  H      2.114985    2.089265   -0.633681
  H      2.525052    1.027204   -1.979159
  H      0.837905    1.268996   -1.518592

 Total Charge           Charge          ....    0
 Multiplicity           Mult            ....    1
 Number of Electrons    NEL             ....   84
 Basis Dimension        Dim             ....  186

ORBITAL ENERGIES
----------------

  NO   OCC          E(Eh)            E(eV)
   0   2.0000     -18.741068      -509.9704
   1   2.0000      -9.971496      -271.3382
   2   2.0000      -9.909245      -269.6443
   3   2.0000      -9.903982      -269.5011
   4   2.0000      -9.900939      -269.4182
   5   2.0000      -9.895353      -269.2663
   6   2.0000      -9.893776      -269.2233
   7   2.0000      -9.891626      -269.1648
   8   2.0000      -9.884299      -268.9654
   9   2.0000      -9.876590      -268.7557
  10   2.0000      -9.874320      -268.6939
  11   2.0000      -0.941246       -25.6126
  12   2.0000      -0.774015       -21.0620
  13   2.0000      -0.726690       -19.7742
  14   2.0000      -0.684310       -18.6210
  15   2.0000      -0.661525       -18.0010
  16   2.0000      -0.620896       -16.8954
  17   2.0000      -0.600342       -16.3361
  18   2.0000      -0.556545       -15.1444
  19   2.0000      -0.531149       -14.4533
  20   2.0000      -0.475000       -12.9254
  21   2.0000      -0.466861       -12.7039
  22   2.0000      -0.437839       -11.9142
  23   2.0000      -0.428272       -11.6539
  24   2.0000      -0.416441       -11.3319
  25   2.0000      -0.396235       -10.7821
  26   2.0000      -0.384607       -10.4657
  27   2.0000      -0.377282       -10.2664
  28   2.0000      -0.375350       -10.2138
  29   2.0000      -0.362099        -9.8532
  30   2.0000      -0.353943        -9.6313
  31   2.0000      -0.341305        -9.2874
  32   2.0000      -0.336910        -9.1678
  33   2.0000      -0.328034        -8.9263
  34   2.0000      -0.322937        -8.7876
  35   2.0000      -0.315799        -8.5933
  36   2.0000      -0.302411        -8.2290
  37   2.0000      -0.291662        -7.9365
  38   2.0000      -0.283117        -7.7040
  39   2.0000      -0.272946        -7.4272
  40   2.0000      -0.218546        -5.9469
  41   2.0000      -0.193082        -5.2540
  42   0.0000      -0.051645        -1.4053
  43   0.0000      -0.023750        -0.6463
  44   0.0000       0.025222         0.6863
  45   0.0000       0.050914         1.3854
  46   0.0000       0.057859         1.5744

MULLIKEN ATOMIC CHARGES
-----------------------
   0 C :   -0.207204
   1 C :   -0.181648
   2 H :    0.100192
   3 C :   -0.135807
   4 C :   -0.097673
   5 C :   -0.149392
   6 H :    0.089952
   7 C :   -0.044450
   8 C :   -0.041535
   9 O :   -0.155954
  10 C :   -0.085436
  11 C :   -0.237987
  12 C :   -0.217457
  13 H :    0.095109
  14 H :    0.116143
  15 H :    0.095908
  16 H :    0.077724
  17 H :    0.089862
  18 H :    0.078463
  19 H :    0.089689
  20 H :    0.107068
  21 H :    0.091355
  22 H :    0.086447
  23 H :    0.090890
  24 H :    0.115495
  25 H :    0.100311
  26 H :    0.129936
Sum of atomic charges:    0.0000000

LOEWDIN ATOMIC CHARGES
----------------------
   0 C :   -0.323744
   1 C :   -0.180154
   2 H :    0.142269
   3 C :   -0.214731
   4 C :   -0.214567
   5 C :   -0.133512
   6 H :    0.136816
   7 C :   -0.239942
   8 C :    0.045296
   9 O :   -0.121079
  10 C :   -0.056487
  11 C :   -0.267957
  12 C :   -0.325325
  13 H :    0.120493
  14 H :    0.127063
  15 H :    0.118431
  16 H :    0.115501
  17 H :    0.123446
  18 H :    0.118903
  19 H :    0.122908
  20 H :    0.146685
  21 H :    0.131982
  22 H :    0.118821
  23 H :    0.116696
  24 H :    0.133589
  25 H :    0.127022
  26 H :    0.131579

  Mayer bond orders larger than 0.100000
B(  0-C ,  1-C ) :   1.1294 B(  0-C , 13-H ) :   0.9517 B(  0-C , 14-H ) :   0.9386
B(  0-C , 15-H ) :   0.9473 B(  1-C ,  2-H ) :   0.8440 B(  1-C ,  3-C ) :   1.1182
B(  1-C ,  8-C ) :   0.9255 B(  3-C ,  4-C ) :   1.1655 B(  3-C , 16-H ) :   0.8973
B(  3-C , 17-H ) :   0.9144 B(  4-C ,  5-C ) :   1.0601 B(  4-C , 18-H ) :   0.9094
B(  4-C , 19-H ) :   0.9088 B(  5-C ,  6-H ) :   0.8692 B(  5-C ,  7-C ) :   1.1356
B(  5-C , 10-C ) :   0.9877 B(  7-C ,  8-C ) :   1.0280 B(  7-C , 20-H ) :   0.8591
B(  7-C , 21-H ) :   0.8790 B(  8-C ,  9-O ) :   2.1801 B( 10-C , 11-C ) :   2.0356
B( 10-C , 12-C ) :   1.1528 B( 11-C , 22-H ) :   0.9065 B( 11-C , 23-H ) :   0.9082
B( 12-C , 24-H ) :   0.9178 B( 12-C , 25-H ) :   0.9311 B( 12-C , 26-H ) :   0.9087

Dispersion correction           -0.029689424
FINAL SINGLE POINT ENERGY      -464.819783359287

DIPOLE MOMENT
-------------

Method             : SCF
Type of density    : Electron Density
Multiplicity       :   1
Irrep              :   0
Energy             :  -464.9057961750095274 Eh
Relativity type    :
Basis              : AO
                                X                 Y                 Z
Electronic contribution:     -1.529411037       4.528177287       0.483456855
Nuclear contribution   :      1.933461801      -5.197109497      -0.024635854
                        -----------------------------------------
Total Dipole Moment    :      0.404050764      -0.668932210       0.458821000
                        -----------------------------------------
Magnitude (a.u.)       :      0.906225155
Magnitude (Debye)      :      2.303441288

Rotational constants in cm-1:             0.053807             0.030232             0.024945
Rotational constants in MHz :          1613.106587           906.327405           747.823931

                             ****ORCA TERMINATED NORMALLY****
TOTAL RUN TIME: 0 days 0 hours 0 minutes 26 seconds 447 msec
