                         Program Version 6.0.0  -   RELEASE  -
|  1> ! r2SCAN-3c DEF2-TZVP FREQ
|  2> * xyzfile 0 1 censo.xyz
|  3>
|  4>                          ****END OF INPUT****

CARTESIAN COORDINATES (ANGSTROEM)
---------------------------------
  C     -3.550212    0.000545   -0.000232
  C     -2.848170    1.141754    0.381694
  C     -1.457226    1.142535    0.382228
  C     -0.739306    0.000047    0.000781
  C     -1.457369   -1.142239   -0.381016
  C     -2.848312   -1.140964   -0.381500
  C      0.739306   -0.000113    0.000788
  C      1.457350    1.142199   -0.380973
  C      2.848290    1.140955   -0.381449
  C      3.550213   -0.000523   -0.000140
  C      2.848194   -1.141764    0.381732
  C      1.457248   -1.142600    0.382199
  H     -4.635560    0.000771   -0.000726
  H     -3.385471    2.033504    0.689449
  H     -0.921942    2.031266    0.702109
  H     -0.922171   -2.031147   -0.700531
  H     -3.385707   -2.032513   -0.689681
  H      0.922131    2.031091   -0.700496
  H      3.385667    2.032539   -0.689571
  H      4.635561   -0.000717   -0.000610
  H      3.385515   -2.033511    0.689465
  H      0.921985   -2.031345    0.702067

 Total Charge           Charge          ....    0
 Multiplicity           Mult            ....    1
 Number of Electrons    NEL             ....   82
 Basis Dimension        Dim             ....  432

ORBITAL ENERGIES
----------------

  NO   OCC          E(Eh)            E(eV)
   0   2.0000     -10.050081      -273.4766
   1   2.0000     -10.049882      -273.4712
   2   2.0000     -10.039556      -273.1902
   3   2.0000     -10.039545      -273.1899
   4   2.0000     -10.039512      -273.1890
   5   2.0000     -10.039511      -273.1890
   6   2.0000     -10.038896      -273.1722
   7   2.0000     -10.038893      -273.1722
   8   2.0000     -10.038889      -273.1721
   9   2.0000     -10.038887      -273.1720
  10   2.0000     -10.037980      -273.1473
  11   2.0000     -10.037979      -273.1473
  12   2.0000      -0.837428       -22.7876
  13   2.0000      -0.814924       -22.1752
  14   2.0000      -0.746531       -20.3141
  15   2.0000      -0.719951       -19.5909
  16   2.0000      -0.712346       -19.3839
  17   2.0000      -0.689655       -18.7665
  18   2.0000      -0.594671       -16.1818
  19   2.0000      -0.588584       -16.0162
  20   2.0000      -0.560856       -15.2617
  21   2.0000      -0.547504       -14.8983
  22   2.0000      -0.501637       -13.6502
  23   2.0000      -0.468080       -12.7371
  24   2.0000      -0.441271       -12.0076
  25   2.0000      -0.433952       -11.8084
  26   2.0000      -0.410954       -11.1826
  27   2.0000      -0.406590       -11.0639
  28   2.0000      -0.395053       -10.7499
  29   2.0000      -0.390047       -10.6137
  30   2.0000      -0.387099       -10.5335
  31   2.0000      -0.355810        -9.6821
  32   2.0000      -0.338117        -9.2006
  33   2.0000      -0.335557        -9.1310
  34   2.0000      -0.322517        -8.7761
  35   2.0000      -0.307886        -8.3780
  36   2.0000      -0.305683        -8.3181
  37   2.0000      -0.261343        -7.1115
  38   2.0000      -0.240132        -6.5343
  39   2.0000      -0.239014        -6.5039
  40   2.0000      -0.213691        -5.8148
  41   0.0000      -0.060236        -1.6391
  42   0.0000      -0.039730        -1.0811
  43   0.0000      -0.034395        -0.9359
  44   0.0000      -0.005780        -0.1573
  45   0.0000       0.055885         1.5207

MULLIKEN ATOMIC CHARGES
-----------------------
   0 C :   -0.115685
   1 C :   -0.101748
   2 C :   -0.217997
   3 C :    0.205259
   4 C :   -0.217973
   5 C :   -0.101780
   6 C :    0.205299
   7 C :   -0.218028
   8 C :   -0.101734
   9 C :   -0.115708
  10 C :   -0.101738
  11 C :   -0.218029
  12 H :    0.109753
  13 H :    0.107516
  14 H :    0.112589
  15 H :    0.112564
  16 H :    0.107506
  17 H :    0.112571
  18 H :    0.107507
  19 H :    0.109754
  20 H :    0.107508
  21 H :    0.112591
Sum of atomic charges:    0.0000000

LOEWDIN ATOMIC CHARGES
----------------------
   0 C :   -0.142105
   1 C :   -0.139062
   2 C :   -0.101406
   3 C :   -0.102267
   4 C :   -0.101395
   5 C :   -0.139063
   6 C :   -0.102266
   7 C :   -0.101396
   8 C :   -0.139065
   9 C :   -0.142106
  10 C :   -0.139061
  11 C :   -0.101405
  12 H :    0.142389
  13 H :    0.143393
  14 H :    0.148062
  15 H :    0.148062
  16 H :    0.143394
  17 H :    0.148062
  18 H :    0.143395
  19 H :    0.142389
  20 H :    0.143393
  21 H :    0.148061

  Mayer bond orders larger than 0.100000
B(  0-C ,  1-C ) :   1.3861 B(  0-C ,  5-C ) :   1.3860 B(  0-C , 12-H ) :   0.9694
B(  1-C ,  2-C ) :   1.4329 B(  1-C , 13-H ) :   0.9715 B(  2-C ,  3-C ) :   1.3360
B(  2-C , 14-H ) :   0.9647 B(  3-C ,  4-C ) :   1.3360 B(  3-C ,  6-C ) :   0.8452
B(  4-C ,  5-C ) :   1.4329 B(  4-C , 15-H ) :   0.9647 B(  5-C , 16-H ) :   0.9715
B(  6-C ,  7-C ) :   1.3360 B(  6-C , 11-C ) :   1.3360 B(  7-C ,  8-C ) :   1.4329
B(  7-C , 17-H ) :   0.9647 B(  8-C ,  9-C ) :   1.3861 B(  8-C , 18-H ) :   0.9715
B(  9-C , 10-C ) :   1.3861 B(  9-C , 19-H ) :   0.9694 B( 10-C , 11-C ) :   1.4329
B( 10-C , 20-H ) :   0.9715 B( 11-C , 21-H ) :   0.9647

Dispersion correction           -0.008746857
FINAL SINGLE POINT ENERGY      -463.212433760405

DIPOLE MOMENT
-------------

Method             : SCF
Type of density    : Electron Density
Multiplicity       :   1
Irrep              :   0
Energy             :  -463.2080614881469955 Eh
Relativity type    :
Basis              : AO
                                X                 Y                 Z
Electronic contribution:      0.000000316      -0.000063406       0.001433676
Nuclear contribution   :      0.000003143       0.000068564      -0.001710525
                        -----------------------------------------
Total Dipole Moment    :      0.000003459       0.000005158      -0.000276848
                        -----------------------------------------
Magnitude (a.u.)       :      0.000276918
Magnitude (Debye)      :      0.000703870

VIBRATIONAL FREQUENCIES
-----------------------

Scaling factor for frequencies =  1.000000000  (already applied!)

     0:       0.00 cm**-1
     1:       0.00 cm**-1
     2:       0.00 cm**-1
     3:       0.00 cm**-1
     4:       0.00 cm**-1
     5:       0.00 cm**-1
     6:      81.37 cm**-1
     7:      97.93 cm**-1
     8:     134.48 cm**-1
     9:     269.87 cm**-1
    10:     316.71 cm**-1
    11:     373.40 cm**-1
    12:     411.32 cm**-1
    13:     418.68 cm**-1
    14:     496.94 cm**-1
    15:     557.12 cm**-1
    16:     626.81 cm**-1
    17:     629.98 cm**-1
    18:     642.98 cm**-1
    19:     708.38 cm**-1
    20:     712.79 cm**-1
    21:     750.04 cm**-1
    22:     759.41 cm**-1
    23:     795.26 cm**-1
    24:     848.53 cm**-1
    25:     849.23 cm**-1
    26:     908.57 cm**-1
    27:     928.07 cm**-1
    28:     957.87 cm**-1
    29:     959.54 cm**-1
    30:     977.45 cm**-1
    31:     977.57 cm**-1
    32:    1009.47 cm**-1
    33:    1023.25 cm**-1
    34:    1034.63 cm**-1
    35:    1051.58 cm**-1
    36:    1062.00 cm**-1
    37:    1101.96 cm**-1
    38:    1103.14 cm**-1
    39:    1180.79 cm**-1
    40:    1182.15 cm**-1
    41:    1198.38 cm**-1
    42:    1208.07 cm**-1
    43:    1300.50 cm**-1
    44:    1304.84 cm**-1
    45:    1337.65 cm**-1
    46:    1346.85 cm**-1
    47:    1359.20 cm**-1
    48:    1456.56 cm**-1
    49:    1485.99 cm**-1
    50:    1508.64 cm**-1
    51:    1530.86 cm**-1
    52:    1599.29 cm**-1
    53:    1615.62 cm**-1
    54:    1628.35 cm**-1
    55:    1634.22 cm**-1
    56:    3153.35 cm**-1
    57:    3154.05 cm**-1
    58:    3157.53 cm**-1
    59:    3160.51 cm**-1
    60:    3166.93 cm**-1
    61:    3169.79 cm**-1
    62:    3173.24 cm**-1
    63:    3175.37 cm**-1
    64:    3182.42 cm**-1
    65:    3183.36 cm**-1

IR SPECTRUM
-----------

 Mode   freq       eps      Int      T**2         TX        TY        TZ
       cm**-1   L/(mol*cm) km/mol    a.u.
----------------------------------------------------------------------------
  6:     81.37   0.000000    0.00  0.000000  (-0.000000 -0.000001 -0.000008)
  7:     97.93   0.000182    0.92  0.000580  ( 0.000001  0.000000 -0.024089)
  8:    134.48   0.000022    0.11  0.000050  (-0.000005 -0.007083  0.000000)
  9:    269.87   0.000004    0.02  0.000005  (-0.000002  0.002158 -0.000001)
 10:    316.71   0.000000    0.00  0.000000  ( 0.000000 -0.000000  0.000003)
 11:    373.40   0.000102    0.51  0.000085  (-0.000000 -0.000000 -0.009216)
 12:    411.32   0.000099    0.50  0.000075  (-0.008654 -0.000003  0.000001)
 13:    418.68   0.000000    0.00  0.000000  ( 0.000001  0.000001 -0.000010)
 14:    496.94   0.001718    8.68  0.001079  (-0.000000 -0.000000 -0.032842)
 15:    557.12   0.000577    2.92  0.000323  (-0.000004  0.017979 -0.000000)
 16:    626.81   0.001534    7.75  0.000764  ( 0.027633  0.000003  0.000001)
 17:    629.98   0.000001    0.00  0.000000  (-0.000001 -0.000000  0.000591)
 18:    642.98   0.000010    0.05  0.000005  ( 0.000004  0.002255  0.000002)
 19:    708.38   0.001852    9.36  0.000816  ( 0.000012  0.028562  0.000014)
 20:    712.79   0.016923   85.52  0.007409  ( 0.000001  0.000009 -0.086075)
 21:    750.04   0.010490   53.01  0.004365  (-0.000000 -0.000001 -0.066065)
 22:    759.41   0.000000    0.00  0.000000  ( 0.000000 -0.000000 -0.000118)
 23:    795.26   0.001055    5.33  0.000414  ( 0.000060  0.020348  0.000003)
 24:    848.53   0.000091    0.46  0.000033  ( 0.005779 -0.000005 -0.000002)
 25:    849.23   0.000000    0.00  0.000000  ( 0.000004  0.000001  0.000001)
 26:    908.57   0.000454    2.29  0.000156  (-0.000003  0.000004  0.012482)
 27:    928.07   0.000191    0.96  0.000064  (-0.000020 -0.008012  0.000003)
 28:    957.87   0.000137    0.69  0.000045  (-0.006674  0.000002  0.000000)
 29:    959.54   0.000000    0.00  0.000000  ( 0.000024  0.000001 -0.000006)
 30:    977.45   0.000006    0.03  0.000002  (-0.000011  0.001330  0.000059)
 31:    977.57   0.000016    0.08  0.000005  ( 0.000007 -0.000029  0.002292)
 32:   1009.47   0.000394    1.99  0.000122  (-0.011040 -0.000001  0.000000)
 33:   1023.25   0.000000    0.00  0.000000  (-0.000000 -0.000000  0.000002)
 34:   1034.63   0.001333    6.74  0.000402  ( 0.020049 -0.000003  0.000000)
 35:   1051.58   0.000000    0.00  0.000000  (-0.000000 -0.000001 -0.000004)
 36:   1062.00   0.000537    2.71  0.000158  ( 0.012562 -0.000007  0.000001)
 37:   1101.96   0.001790    9.05  0.000507  ( 0.000000  0.022518  0.000002)
 38:   1103.14   0.000158    0.80  0.000045  ( 0.000001  0.000004 -0.006689)
 39:   1180.79   0.000000    0.00  0.000000  (-0.000000 -0.000002 -0.000194)
 40:   1182.15   0.000010    0.05  0.000003  (-0.000005  0.001601 -0.000000)
 41:   1198.38   0.000059    0.30  0.000015  ( 0.003935  0.000003 -0.000001)
 42:   1208.07   0.000000    0.00  0.000000  ( 0.000000  0.000000  0.000005)
 43:   1300.50   0.000406    2.05  0.000097  ( 0.000004  0.009865  0.000000)
 44:   1304.84   0.000000    0.00  0.000000  (-0.000000  0.000005  0.000011)
 45:   1337.65   0.000003    0.02  0.000001  ( 0.000000  0.000000 -0.000857)
 46:   1346.85   0.000012    0.06  0.000003  (-0.000000 -0.000000  0.001665)
 47:   1359.20   0.000109    0.55  0.000025  (-0.000010 -0.004996 -0.000000)
 48:   1456.56   0.001407    7.11  0.000301  (-0.000010 -0.017363 -0.000000)
 49:   1485.99   0.000206    1.04  0.000043  (-0.000002  0.000000 -0.006576)
 50:   1508.64   0.005869   29.66  0.001214  ( 0.034842 -0.000004 -0.000000)
 51:   1530.86   0.000000    0.00  0.000000  ( 0.000001  0.000001 -0.000004)
 52:   1599.29   0.000906    4.58  0.000177  (-0.000000  0.013295  0.000000)
 53:   1615.62   0.000039    0.20  0.000008  ( 0.000001  0.000001 -0.002742)
 54:   1628.35   0.000000    0.00  0.000000  ( 0.000002  0.000000 -0.000009)
 55:   1634.22   0.002892   14.62  0.000552  (-0.023500  0.000001  0.000000)
 56:   3153.35   0.001488    7.52  0.000147  (-0.012135 -0.000024 -0.000000)
 57:   3154.05   0.000000    0.00  0.000000  (-0.000074  0.000003 -0.000010)
 58:   3157.53   0.000000    0.00  0.000000  (-0.000003  0.000019 -0.000051)
 59:   3160.51   0.000769    3.89  0.000076  ( 0.000028 -0.008716  0.000009)
 60:   3166.93   0.004082   20.63  0.000402  (-0.020055 -0.000049 -0.000007)
 61:   3169.79   0.000000    0.00  0.000000  ( 0.000041 -0.000023 -0.000042)
 62:   3173.24   0.001269    6.41  0.000125  (-0.000020 -0.000004  0.011171)
 63:   3175.37   0.008519   43.05  0.000837  (-0.000024  0.028934  0.000004)
 64:   3182.42   0.006337   32.02  0.000621  ( 0.024928 -0.000016  0.000004)
 65:   3183.36   0.000000    0.00  0.000000  ( 0.000097  0.000012  0.000001)

--------------------------
THERMOCHEMISTRY AT 298.15K
--------------------------

Temperature         ...   298.15 K
Pressure            ...     1.00 atm
Total Mass          ...   154.21 AMU
Quasi RRHO          ...     True
Cut-Off Frequency   ...     1.00 cm^-1

Throughout the following assumptions are being made:
  (1) The electronic state is orbitally nondegenerate
  (2) There are no thermally accessible electronically excited states
  (3) Hindered rotations indicated by low frequency modes are not
      treated as such but are treated as vibrations and this may
      cause some error
  (4) All equations used are the standard statistical mechanics
      equations for an ideal gas
  (5) All vibrations are strictly harmonic

freq.      81.37  E(vib)   ...       0.48
freq.      97.93  E(vib)   ...       0.46
freq.     134.48  E(vib)   ...       0.42
freq.     269.87  E(vib)   ...       0.29
freq.     316.71  E(vib)   ...       0.25
freq.     373.40  E(vib)   ...       0.21
freq.     411.32  E(vib)   ...       0.19
freq.     418.68  E(vib)   ...       0.18
freq.     496.94  E(vib)   ...       0.14
freq.     557.12  E(vib)   ...       0.12
freq.     626.81  E(vib)   ...       0.09
freq.     629.98  E(vib)   ...       0.09
freq.     642.98  E(vib)   ...       0.09
freq.     708.38  E(vib)   ...       0.07
freq.     712.79  E(vib)   ...       0.07
freq.     750.04  E(vib)   ...       0.06
freq.     759.41  E(vib)   ...       0.06
freq.     795.26  E(vib)   ...       0.05
freq.     848.53  E(vib)   ...       0.04
freq.     849.23  E(vib)   ...       0.04
freq.     908.57  E(vib)   ...       0.03
freq.     928.07  E(vib)   ...       0.03
freq.     957.87  E(vib)   ...       0.03
freq.     959.54  E(vib)   ...       0.03
freq.     977.45  E(vib)   ...       0.03
freq.     977.57  E(vib)   ...       0.03
freq.    1009.47  E(vib)   ...       0.02
freq.    1023.25  E(vib)   ...       0.02
freq.    1034.63  E(vib)   ...       0.02
freq.    1051.58  E(vib)   ...       0.02
freq.    1062.00  E(vib)   ...       0.02
freq.    1101.96  E(vib)   ...       0.02
freq.    1103.14  E(vib)   ...       0.02
freq.    1180.79  E(vib)   ...       0.01
freq.    1182.15  E(vib)   ...       0.01
freq.    1198.38  E(vib)   ...       0.01
freq.    1208.07  E(vib)   ...       0.01
freq.    1300.50  E(vib)   ...       0.01
freq.    1304.84  E(vib)   ...       0.01
freq.    1337.65  E(vib)   ...       0.01
freq.    1346.85  E(vib)   ...       0.01
freq.    1359.20  E(vib)   ...       0.01
freq.    1456.56  E(vib)   ...       0.00
freq.    1485.99  E(vib)   ...       0.00
freq.    1508.64  E(vib)   ...       0.00
freq.    1530.86  E(vib)   ...       0.00
freq.    1599.29  E(vib)   ...       0.00
freq.    1615.62  E(vib)   ...       0.00
freq.    1628.35  E(vib)   ...       0.00
freq.    1634.22  E(vib)   ...       0.00
freq.    3153.35  E(vib)   ...       0.00
freq.    3154.05  E(vib)   ...       0.00
freq.    3157.53  E(vib)   ...       0.00
freq.    3160.51  E(vib)   ...       0.00
freq.    3166.93  E(vib)   ...       0.00
freq.    3169.79  E(vib)   ...       0.00
freq.    3173.24  E(vib)   ...       0.00
freq.    3175.37  E(vib)   ...       0.00
freq.    3182.42  E(vib)   ...       0.00
freq.    3183.36  E(vib)   ...       0.00

------------
INNER ENERGY
------------

The inner energy is: U= E(el) + E(ZPE) + E(vib) + E(rot) + E(trans)
    E(el)   - is the total energy from the electronic structure calculation
              = E(kin-el) + E(nuc-el) + E(el-el) + E(nuc-nuc)
    E(ZPE)  - the the zero temperature vibrational energy from the frequency calculation
    E(vib)  - the the finite temperature correction to E(ZPE) due to population
              of excited vibrational states
    E(rot)  - is the rotational thermal energy
    E(trans)- is the translational thermal energy

Summary of contributions to the inner energy U:
Electronic energy                ...   -463.21243376 Eh
Zero point energy                ...      0.18027329 Eh     113.12 kcal/mol
Thermal vibrational correction   ...      0.00604619 Eh       3.79 kcal/mol
Thermal rotational correction    ...      0.00141627 Eh       0.89 kcal/mol
Thermal translational correction ...      0.00141627 Eh       0.89 kcal/mol
-----------------------------------------------------------------------
Total thermal energy                   -463.02328174 Eh

Summary of corrections to the electronic energy:
(perhaps to be used in another calculation)
Total thermal correction                  0.00887873 Eh       5.57 kcal/mol
Non-thermal (ZPE) correction              0.18027329 Eh     113.12 kcal/mol
-----------------------------------------------------------------------
Total correction                          0.18915202 Eh     118.69 kcal/mol

--------
ENTHALPY
--------

The enthalpy is H = U + kB*T
                kB is Boltzmann's constant
Total thermal energy              ...   -463.02328174 Eh
Thermal Enthalpy correction       ...      0.00094421 Eh       0.59 kcal/mol
-----------------------------------------------------------------------
Total Enthalpy                    ...   -463.02233753 Eh

Note: Rotational entropy computed according to Herzberg
Infrared and Raman Spectra, Chapter V,1, Van Nostrand Reinhold, 1945
Point Group:  C2, Symmetry Number:   2
Rotational constants in cm-1:     0.095522     0.018352     0.015915

Vibrational entropy computed according to the QRRHO of S. Grimme
Chem.Eur.J. 2012 18 9955 using a reference frequency of 100.0 cm-1

-------
ENTROPY
-------

The entropy contributions are T*S = T*(S(el)+S(vib)+S(rot)+S(trans))
     S(el)   - electronic entropy
     S(vib)  - vibrational entropy
     S(rot)  - rotational entropy
     S(trans)- translational entropy
The entropies will be listed as multiplied by the temperature to get
units of energy

Electronic entropy                ...      0.00000000 Eh      0.00 kcal/mol
Vibrational entropy               ...      0.00984093 Eh      6.18 kcal/mol
Rotational entropy                ...      0.01380712 Eh      8.66 kcal/mol
Translational entropy             ...      0.01948471 Eh     12.23 kcal/mol
-----------------------------------------------------------------------
Final entropy term                ...      0.04313276 Eh     27.07 kcal/mol

In case the symmetry of your molecule has not been determined correctly
or in case you have a reason to use a different symmetry number we print
out the resulting rotational entropy values for sn=1,12:

 non-linear molecules -----------------------------------
|  sn= 1 | S(rot)=       0.01446157 Eh      9.07 kcal/mol|
|  sn= 2 | S(rot)=       0.01380712 Eh      8.66 kcal/mol|
|  sn= 3 | S(rot)=       0.01342429 Eh      8.42 kcal/mol|
|  sn= 4 | S(rot)=       0.01315266 Eh      8.25 kcal/mol|
|  sn= 5 | S(rot)=       0.01294197 Eh      8.12 kcal/mol|

                             ****ORCA TERMINATED NORMALLY****
TOTAL RUN TIME: 0 days 0 hours 27 minutes 23 seconds 874 msec
