                         Program Version 6.0.0  -   RELEASE  -
|  1> ! r2SCAN-3c DEF2-TZVP FREQ
|  2> * xyzfile 0 1 vacuum_censo.xyz
|  3>
|  4>                          ****END OF INPUT****

CARTESIAN COORDINATES (ANGSTROEM)
---------------------------------
  C     -3.546293    0.000217    0.000768
  C     -2.845209    1.123120    0.431555
  C     -1.455283    1.123844    0.429679
  C     -0.738674    0.000024   -0.000547
  C     -1.455821   -1.123644   -0.430268
  C     -2.845754   -1.122729   -0.430810
  C      0.738680   -0.000144   -0.000597
  C      1.455732    1.123530   -0.430470
  C      2.845661    1.122726   -0.431068
  C      3.546299   -0.000110    0.000636
  C      2.845314   -1.123022    0.431556
  C      1.455384   -1.123873    0.429702
  H     -4.631486    0.000249    0.001385
  H     -3.383276    1.999146    0.780132
  H     -0.913751    1.992431    0.791878
  H     -0.914763   -1.992343   -0.792915
  H     -3.384287   -1.998689   -0.778835
  H      0.914585    1.992137   -0.793203
  H      3.384108    1.998709   -0.779169
  H      4.631492   -0.000041    0.001263
  H      3.383468   -1.998978    0.780177
  H      0.913940   -1.992482    0.791981

 Total Charge           Charge          ....    0
 Multiplicity           Mult            ....    1
 Number of Electrons    NEL             ....   82
 Basis Dimension        Dim             ....  432

ORBITAL ENERGIES
----------------

  NO   OCC          E(Eh)            E(eV)
   0   2.0000     -10.049134      -273.4508
   1   2.0000     -10.048931      -273.4453
   2   2.0000     -10.039207      -273.1807
   3   2.0000     -10.039198      -273.1805
   4   2.0000     -10.039160      -273.1794
   5   2.0000     -10.039159      -273.1794
   6   2.0000     -10.038453      -273.1602
   7   2.0000     -10.038450      -273.1601
   8   2.0000     -10.038449      -273.1601
   9   2.0000     -10.038446      -273.1600
  10   2.0000     -10.037638      -273.1380
  11   2.0000     -10.037638      -273.1380
  12   2.0000      -0.837926       -22.8011
  13   2.0000      -0.815442       -22.1893
  14   2.0000      -0.746868       -20.3233
  15   2.0000      -0.719664       -19.5830
  16   2.0000      -0.712673       -19.3928
  17   2.0000      -0.689986       -18.7755
  18   2.0000      -0.594420       -16.1750
  19   2.0000      -0.587839       -15.9959
  20   2.0000      -0.562230       -15.2991
  21   2.0000      -0.547323       -14.8934
  22   2.0000      -0.501248       -13.6396
  23   2.0000      -0.468859       -12.7583
  24   2.0000      -0.439909       -11.9705
  25   2.0000      -0.433649       -11.8002
  26   2.0000      -0.411321       -11.1926
  27   2.0000      -0.408708       -11.1215
  28   2.0000      -0.394002       -10.7213
  29   2.0000      -0.389717       -10.6047
  30   2.0000      -0.387926       -10.5560
  31   2.0000      -0.354456        -9.6452
  32   2.0000      -0.338867        -9.2210
  33   2.0000      -0.336283        -9.1507
  34   2.0000      -0.321121        -8.7381
  35   2.0000      -0.307346        -8.3633
  36   2.0000      -0.306498        -8.3402
  37   2.0000      -0.259382        -7.0581
  38   2.0000      -0.239646        -6.5211
  39   2.0000      -0.239572        -6.5191
  40   2.0000      -0.215117        -5.8536
  41   0.0000      -0.058121        -1.5816
  42   0.0000      -0.037543        -1.0216
  43   0.0000      -0.036172        -0.9843
  44   0.0000      -0.007752        -0.2109
  45   0.0000       0.057455         1.5634

MULLIKEN ATOMIC CHARGES
-----------------------
   0 C :   -0.114083
   1 C :   -0.102437
   2 C :   -0.224097
   3 C :    0.208840
   4 C :   -0.224099
   5 C :   -0.102423
   6 C :    0.208816
   7 C :   -0.224077
   8 C :   -0.102442
   9 C :   -0.114051
  10 C :   -0.102470
  11 C :   -0.224065
  12 H :    0.109666
  13 H :    0.107424
  14 H :    0.116884
  15 H :    0.116895
  16 H :    0.107424
  17 H :    0.116899
  18 H :    0.107421
  19 H :    0.109668
  20 H :    0.107425
  21 H :    0.116880
Sum of atomic charges:    0.0000000

LOEWDIN ATOMIC CHARGES
----------------------
   0 C :   -0.142309
   1 C :   -0.139025
   2 C :   -0.101526
   3 C :   -0.103643
   4 C :   -0.101538
   5 C :   -0.139024
   6 C :   -0.103643
   7 C :   -0.101539
   8 C :   -0.139024
   9 C :   -0.142309
  10 C :   -0.139024
  11 C :   -0.101525
  12 H :    0.142496
  13 H :    0.143524
  14 H :    0.148762
  15 H :    0.148758
  16 H :    0.143524
  17 H :    0.148760
  18 H :    0.143524
  19 H :    0.142496
  20 H :    0.143524
  21 H :    0.148760

  Mayer bond orders larger than 0.100000
B(  0-C ,  1-C ) :   1.3863 B(  0-C ,  5-C ) :   1.3863 B(  0-C , 12-H ) :   0.9693
B(  1-C ,  2-C ) :   1.4315 B(  1-C , 13-H ) :   0.9718 B(  2-C ,  3-C ) :   1.3348
B(  2-C , 14-H ) :   0.9657 B(  3-C ,  4-C ) :   1.3347 B(  3-C ,  6-C ) :   0.8253
B(  4-C ,  5-C ) :   1.4315 B(  4-C , 15-H ) :   0.9657 B(  5-C , 16-H ) :   0.9718
B(  6-C ,  7-C ) :   1.3346 B(  6-C , 11-C ) :   1.3347 B(  7-C ,  8-C ) :   1.4315
B(  7-C , 17-H ) :   0.9657 B(  8-C ,  9-C ) :   1.3864 B(  8-C , 18-H ) :   0.9718
B(  9-C , 10-C ) :   1.3864 B(  9-C , 19-H ) :   0.9693 B( 10-C , 11-C ) :   1.4316
B( 10-C , 20-H ) :   0.9718 B( 11-C , 21-H ) :   0.9657

Dispersion correction           -0.008752247
FINAL SINGLE POINT ENERGY      -463.212489728098

DIPOLE MOMENT
-------------

Method             : SCF
Type of density    : Electron Density
Multiplicity       :   1
Irrep              :   0
Energy             :  -463.2080565206914571 Eh
Relativity type    :
Basis              : AO
                                X                 Y                 Z
Electronic contribution:      0.000002339      -0.000153072      -0.001900165
Nuclear contribution   :     -0.000000312       0.000167081       0.002265338
                        -----------------------------------------
Total Dipole Moment    :      0.000002027       0.000014009       0.000365173
                        -----------------------------------------
Magnitude (a.u.)       :      0.000365448
Magnitude (Debye)      :      0.000928894

VIBRATIONAL FREQUENCIES
-----------------------

Scaling factor for frequencies =  1.000000000  (already applied!)

     0:       0.00 cm**-1
     1:       0.00 cm**-1
     2:       0.00 cm**-1
     3:       0.00 cm**-1
     4:       0.00 cm**-1
     5:       0.00 cm**-1
     6:      72.80 cm**-1
     7:      93.92 cm**-1
     8:     124.50 cm**-1
     9:     269.95 cm**-1
    10:     313.92 cm**-1
    11:     365.26 cm**-1
    12:     409.03 cm**-1
    13:     416.74 cm**-1
    14:     503.34 cm**-1
    15:     555.34 cm**-1
    16:     627.30 cm**-1
    17:     630.95 cm**-1
    18:     642.57 cm**-1
    19:     709.90 cm**-1
    20:     712.00 cm**-1
    21:     751.87 cm**-1
    22:     760.63 cm**-1
    23:     794.00 cm**-1
    24:     849.26 cm**-1
    25:     851.29 cm**-1
    26:     909.34 cm**-1
    27:     929.01 cm**-1
    28:     957.98 cm**-1
    29:     960.35 cm**-1
    30:     978.20 cm**-1
    31:     978.47 cm**-1
    32:    1013.11 cm**-1
    33:    1024.62 cm**-1
    34:    1035.90 cm**-1
    35:    1053.06 cm**-1
    36:    1064.95 cm**-1
    37:    1100.31 cm**-1
    38:    1104.49 cm**-1
    39:    1181.90 cm**-1
    40:    1182.37 cm**-1
    41:    1199.41 cm**-1
    42:    1205.81 cm**-1
    43:    1304.90 cm**-1
    44:    1309.29 cm**-1
    45:    1343.40 cm**-1
    46:    1348.32 cm**-1
    47:    1360.60 cm**-1
    48:    1459.14 cm**-1
    49:    1486.87 cm**-1
    50:    1510.68 cm**-1
    51:    1532.65 cm**-1
    52:    1603.44 cm**-1
    53:    1619.26 cm**-1
    54:    1634.08 cm**-1
    55:    1638.25 cm**-1
    56:    3153.96 cm**-1
    57:    3154.47 cm**-1
    58:    3157.61 cm**-1
    59:    3160.10 cm**-1
    60:    3167.17 cm**-1
    61:    3169.13 cm**-1
    62:    3173.47 cm**-1
    63:    3174.72 cm**-1
    64:    3183.24 cm**-1
    65:    3183.85 cm**-1

IR SPECTRUM
-----------

 Mode   freq       eps      Int      T**2         TX        TY        TZ
       cm**-1   L/(mol*cm) km/mol    a.u.
----------------------------------------------------------------------------
  6:     72.80   0.000000    0.00  0.000000  (-0.000000 -0.000003 -0.000009)
  7:     93.92   0.000178    0.90  0.000592  ( 0.000001 -0.000001 -0.024340)
  8:    124.50   0.000025    0.13  0.000063  (-0.000008  0.007947 -0.000001)
  9:    269.95   0.000007    0.04  0.000009  (-0.000004 -0.002920  0.000000)
 10:    313.92   0.000000    0.00  0.000000  (-0.000000  0.000000  0.000003)
 11:    365.26   0.000084    0.43  0.000072  (-0.000002 -0.000000 -0.008496)
 12:    409.03   0.000104    0.53  0.000080  (-0.008921  0.000005  0.000002)
 13:    416.74   0.000000    0.00  0.000000  (-0.000001  0.000002  0.000008)
 14:    503.34   0.001880    9.50  0.001166  (-0.000001 -0.000002 -0.034141)
 15:    555.34   0.000755    3.81  0.000424  (-0.000010 -0.020594  0.000001)
 16:    627.30   0.001458    7.37  0.000726  ( 0.026936 -0.000011 -0.000001)
 17:    630.95   0.000001    0.00  0.000000  ( 0.000006  0.000000 -0.000528)
 18:    642.57   0.000011    0.06  0.000005  ( 0.000010 -0.002336 -0.000001)
 19:    709.90   0.002347   11.86  0.001032  (-0.000010  0.032122 -0.000010)
 20:    712.00   0.016258   82.16  0.007126  (-0.000002 -0.000005 -0.084415)
 21:    751.87   0.009846   49.76  0.004086  ( 0.000005 -0.000003 -0.063926)
 22:    760.63   0.000000    0.00  0.000000  ( 0.000000  0.000002 -0.000171)
 23:    794.00   0.001333    6.74  0.000524  (-0.000074  0.022891 -0.000001)
 24:    849.26   0.000088    0.44  0.000032  ( 0.005675  0.000005  0.000000)
 25:    851.29   0.000000    0.00  0.000000  ( 0.000004 -0.000001 -0.000005)
 26:    909.34   0.000430    2.18  0.000148  ( 0.000002  0.000001  0.012154)
 27:    929.01   0.000266    1.34  0.000089  ( 0.000024 -0.009448 -0.000000)
 28:    957.98   0.000159    0.81  0.000052  (-0.007204 -0.000007  0.000001)
 29:    960.35   0.000000    0.00  0.000000  (-0.000010  0.000002  0.000005)
 30:    978.20   0.000016    0.08  0.000005  (-0.000001 -0.000007  0.002294)
 31:    978.47   0.000012    0.06  0.000004  ( 0.000013  0.001922  0.000012)
 32:   1013.11   0.000358    1.81  0.000110  (-0.010506  0.000005  0.000001)
 33:   1024.62   0.000000    0.00  0.000000  ( 0.000000  0.000000  0.000001)
 34:   1035.90   0.001401    7.08  0.000422  ( 0.020542 -0.000001 -0.000001)
 35:   1053.06   0.000000    0.00  0.000000  (-0.000000 -0.000002  0.000005)
 36:   1064.95   0.000534    2.70  0.000156  ( 0.012506  0.000007  0.000000)
 37:   1100.31   0.001808    9.14  0.000513  ( 0.000008  0.022647 -0.000001)
 38:   1104.49   0.000210    1.06  0.000059  ( 0.000001 -0.000000 -0.007702)
 39:   1181.90   0.000000    0.00  0.000000  (-0.000000 -0.000000 -0.000200)
 40:   1182.37   0.000007    0.04  0.000002  ( 0.000006  0.001378 -0.000000)
 41:   1199.41   0.000060    0.30  0.000016  (-0.003944  0.000004  0.000001)
 42:   1205.81   0.000000    0.00  0.000000  ( 0.000000 -0.000000 -0.000006)
 43:   1304.90   0.000398    2.01  0.000095  (-0.000005  0.009750 -0.000000)
 44:   1309.29   0.000000    0.00  0.000000  (-0.000000  0.000011 -0.000014)
 45:   1343.40   0.000000    0.00  0.000000  ( 0.000000  0.000000  0.000158)
 46:   1348.32   0.000017    0.09  0.000004  ( 0.000000  0.000000 -0.001977)
 47:   1360.60   0.000078    0.39  0.000018  ( 0.000009 -0.004222  0.000000)
 48:   1459.14   0.001428    7.22  0.000305  (-0.000010  0.017475 -0.000001)
 49:   1486.87   0.000263    1.33  0.000055  ( 0.000003  0.000000  0.007436)
 50:   1510.68   0.005479   27.69  0.001132  (-0.033642  0.000005  0.000002)
 51:   1532.65   0.000000    0.00  0.000000  (-0.000001 -0.000002 -0.000005)
 52:   1603.44   0.000804    4.06  0.000156  (-0.000010 -0.012507  0.000000)
 53:   1619.26   0.000048    0.24  0.000009  ( 0.000001 -0.000000  0.003027)
 54:   1634.08   0.000000    0.00  0.000000  (-0.000003 -0.000000 -0.000010)
 55:   1638.25   0.002733   13.81  0.000521  ( 0.022819 -0.000007 -0.000002)
 56:   3153.96   0.001614    8.16  0.000160  (-0.012638  0.000001  0.000000)
 57:   3154.47   0.000000    0.00  0.000000  (-0.000004 -0.000001  0.000004)
 58:   3157.61   0.000002    0.01  0.000000  ( 0.000003  0.000003  0.000390)
 59:   3160.10   0.000334    1.69  0.000033  (-0.000007 -0.005739  0.000002)
 60:   3167.17   0.003672   18.56  0.000362  (-0.019022  0.000031  0.000001)
 61:   3169.13   0.000000    0.00  0.000000  ( 0.000010  0.000008  0.000027)
 62:   3173.47   0.001610    8.13  0.000158  ( 0.000006 -0.000017  0.012582)
 63:   3174.72   0.008740   44.17  0.000859  ( 0.000034  0.029311  0.000006)
 64:   3183.24   0.006656   33.64  0.000652  ( 0.025544 -0.000015 -0.000002)
 65:   3183.85   0.000000    0.00  0.000000  (-0.000009 -0.000004 -0.000012)

--------------------------
THERMOCHEMISTRY AT 298.15K
--------------------------

Temperature         ...   298.15 K
Pressure            ...     1.00 atm
Total Mass          ...   154.21 AMU
Quasi RRHO          ...     True
Cut-Off Frequency   ...     1.00 cm^-1

Throughout the following assumptions are being made:
  (1) The electronic state is orbitally nondegenerate
  (2) There are no thermally accessible electronically excited states
  (3) Hindered rotations indicated by low frequency modes are not
      treated as such but are treated as vibrations and this may
      cause some error
  (4) All equations used are the standard statistical mechanics
      equations for an ideal gas
  (5) All vibrations are strictly harmonic

freq.      72.80  E(vib)   ...       0.49
freq.      93.92  E(vib)   ...       0.47
freq.     124.50  E(vib)   ...       0.43
freq.     269.95  E(vib)   ...       0.29
freq.     313.92  E(vib)   ...       0.25
freq.     365.26  E(vib)   ...       0.22
freq.     409.03  E(vib)   ...       0.19
freq.     416.74  E(vib)   ...       0.18
freq.     503.34  E(vib)   ...       0.14
freq.     555.34  E(vib)   ...       0.12
freq.     627.30  E(vib)   ...       0.09
freq.     630.95  E(vib)   ...       0.09
freq.     642.57  E(vib)   ...       0.09
freq.     709.90  E(vib)   ...       0.07
freq.     712.00  E(vib)   ...       0.07
freq.     751.87  E(vib)   ...       0.06
freq.     760.63  E(vib)   ...       0.06
freq.     794.00  E(vib)   ...       0.05
freq.     849.26  E(vib)   ...       0.04
freq.     851.29  E(vib)   ...       0.04
freq.     909.34  E(vib)   ...       0.03
freq.     929.01  E(vib)   ...       0.03
freq.     957.98  E(vib)   ...       0.03
freq.     960.35  E(vib)   ...       0.03
freq.     978.20  E(vib)   ...       0.03
freq.     978.47  E(vib)   ...       0.03
freq.    1013.11  E(vib)   ...       0.02
freq.    1024.62  E(vib)   ...       0.02
freq.    1035.90  E(vib)   ...       0.02
freq.    1053.06  E(vib)   ...       0.02
freq.    1064.95  E(vib)   ...       0.02
freq.    1100.31  E(vib)   ...       0.02
freq.    1104.49  E(vib)   ...       0.02
freq.    1181.90  E(vib)   ...       0.01
freq.    1182.37  E(vib)   ...       0.01
freq.    1199.41  E(vib)   ...       0.01
freq.    1205.81  E(vib)   ...       0.01
freq.    1304.90  E(vib)   ...       0.01
freq.    1309.29  E(vib)   ...       0.01
freq.    1343.40  E(vib)   ...       0.01
freq.    1348.32  E(vib)   ...       0.01
freq.    1360.60  E(vib)   ...       0.01
freq.    1459.14  E(vib)   ...       0.00
freq.    1486.87  E(vib)   ...       0.00
freq.    1510.68  E(vib)   ...       0.00
freq.    1532.65  E(vib)   ...       0.00
freq.    1603.44  E(vib)   ...       0.00
freq.    1619.26  E(vib)   ...       0.00
freq.    1634.08  E(vib)   ...       0.00
freq.    1638.25  E(vib)   ...       0.00
freq.    3153.96  E(vib)   ...       0.00
freq.    3154.47  E(vib)   ...       0.00
freq.    3157.61  E(vib)   ...       0.00
freq.    3160.10  E(vib)   ...       0.00
freq.    3167.17  E(vib)   ...       0.00
freq.    3169.13  E(vib)   ...       0.00
freq.    3173.47  E(vib)   ...       0.00
freq.    3174.72  E(vib)   ...       0.00
freq.    3183.24  E(vib)   ...       0.00
freq.    3183.85  E(vib)   ...       0.00

------------
INNER ENERGY
------------

The inner energy is: U= E(el) + E(ZPE) + E(vib) + E(rot) + E(trans)
    E(el)   - is the total energy from the electronic structure calculation
              = E(kin-el) + E(nuc-el) + E(el-el) + E(nuc-nuc)
    E(ZPE)  - the the zero temperature vibrational energy from the frequency calculation
    E(vib)  - the the finite temperature correction to E(ZPE) due to population
              of excited vibrational states
    E(rot)  - is the rotational thermal energy
    E(trans)- is the translational thermal energy

Summary of contributions to the inner energy U:
Electronic energy                ...   -463.21248973 Eh
Zero point energy                ...      0.18034525 Eh     113.17 kcal/mol
Thermal vibrational correction   ...      0.00609598 Eh       3.83 kcal/mol
Thermal rotational correction    ...      0.00141627 Eh       0.89 kcal/mol
Thermal translational correction ...      0.00141627 Eh       0.89 kcal/mol
-----------------------------------------------------------------------
Total thermal energy                   -463.02321595 Eh

Summary of corrections to the electronic energy:
(perhaps to be used in another calculation)
Total thermal correction                  0.00892853 Eh       5.60 kcal/mol
Non-thermal (ZPE) correction              0.18034525 Eh     113.17 kcal/mol
-----------------------------------------------------------------------
Total correction                          0.18927378 Eh     118.77 kcal/mol

--------
ENTHALPY
--------

The enthalpy is H = U + kB*T
                kB is Boltzmann's constant
Total thermal energy              ...   -463.02321595 Eh
Thermal Enthalpy correction       ...      0.00094421 Eh       0.59 kcal/mol
-----------------------------------------------------------------------
Total Enthalpy                    ...   -463.02227174 Eh

Note: Only C1 symmetry has been detected, increase convergence thresholds
      if your molecule has a higher symmetry. Symmetry factor of 1.0 is
      used for the rotational entropy correction.

Note: Rotational entropy computed according to Herzberg
Infrared and Raman Spectra, Chapter V,1, Van Nostrand Reinhold, 1945
Point Group:  C1, Symmetry Number:   1
Rotational constants in cm-1:     0.095693     0.018292     0.016022

Vibrational entropy computed according to the QRRHO of S. Grimme
Chem.Eur.J. 2012 18 9955 using a reference frequency of 100.0 cm-1

-------
ENTROPY
-------

The entropy contributions are T*S = T*(S(el)+S(vib)+S(rot)+S(trans))
     S(el)   - electronic entropy
     S(vib)  - vibrational entropy
     S(rot)  - rotational entropy
     S(trans)- translational entropy
The entropies will be listed as multiplied by the temperature to get
units of energy

Electronic entropy                ...      0.00000000 Eh      0.00 kcal/mol
Vibrational entropy               ...      0.00995667 Eh      6.25 kcal/mol
Rotational entropy                ...      0.01445911 Eh      9.07 kcal/mol
Translational entropy             ...      0.01948471 Eh     12.23 kcal/mol
-----------------------------------------------------------------------
Final entropy term                ...      0.04390049 Eh     27.55 kcal/mol

In case the symmetry of your molecule has not been determined correctly
or in case you have a reason to use a different symmetry number we print
out the resulting rotational entropy values for sn=1,12:

 non-linear molecules -----------------------------------

                             ****ORCA TERMINATED NORMALLY****
TOTAL RUN TIME: 0 days 0 hours 27 minutes 49 seconds 744 msec
