                         Program Version 6.0.0  -   RELEASE  -
|  1> ! r2SCAN-3c DEF2-TZVP FREQ
|  2> * xyzfile 0 1 censo.xyz
|  3>
|  4>                          ****END OF INPUT****

CARTESIAN COORDINATES (ANGSTROEM)
---------------------------------
  C     -1.796745   -0.749359   -0.543353
  C     -0.707605    0.312104   -0.374276
  C     -0.996610    1.166953    0.861723
  C      0.707631   -0.312121   -0.374189
  C      1.796796    0.749321   -0.543237
  C      0.996547   -1.166876    0.861903
  H     -1.841556   -1.416204    0.324920
  H     -2.781870   -0.281603   -0.647675
  H     -1.619530   -1.364086   -1.432915
  H     -0.750625    0.971244   -1.253756
  H     -1.053879    0.548975    1.764867
  H     -0.232806    1.934086    1.024342
  H     -1.959615    1.677529    0.753226
  H      0.750725   -0.971329   -1.253613
  H      2.781915    0.281547   -0.647538
  H      1.619618    1.364063   -1.432797
  H      1.841594    1.416152    0.325047
  H      1.959368   -1.677787    0.753335
  H      0.232517   -1.933729    1.024780
  H      1.054169   -0.548767    1.764937

 Total Charge           Charge          ....    0
 Multiplicity           Mult            ....    1
 Number of Electrons    NEL             ....   50
 Basis Dimension        Dim             ....  270

ORBITAL ENERGIES
----------------

  NO   OCC          E(Eh)            E(eV)
   0   2.0000     -10.031881      -272.9814
   1   2.0000     -10.031773      -272.9784
   2   2.0000     -10.014402      -272.5057
   3   2.0000     -10.014400      -272.5057
   4   2.0000     -10.014347      -272.5042
   5   2.0000     -10.014344      -272.5042
   6   2.0000      -0.783813       -21.3286
   7   2.0000      -0.711863       -19.3708
   8   2.0000      -0.649682       -17.6787
   9   2.0000      -0.642457       -17.4821
  10   2.0000      -0.577215       -15.7068
  11   2.0000      -0.500836       -13.6284
  12   2.0000      -0.438721       -11.9382
  13   2.0000      -0.414417       -11.2769
  14   2.0000      -0.410562       -11.1720
  15   2.0000      -0.375039       -10.2053
  16   2.0000      -0.365652        -9.9499
  17   2.0000      -0.354345        -9.6422
  18   2.0000      -0.341215        -9.2849
  19   2.0000      -0.340360        -9.2617
  20   2.0000      -0.315486        -8.5848
  21   2.0000      -0.313713        -8.5366
  22   2.0000      -0.283659        -7.7187
  23   2.0000      -0.283068        -7.7027
  24   2.0000      -0.275972        -7.5096
  25   0.0000       0.036223         0.9857
  26   0.0000       0.069517         1.8916
  27   0.0000       0.073655         2.0043
  28   0.0000       0.084145         2.2897
  29   0.0000       0.096641         2.6297

MULLIKEN ATOMIC CHARGES
-----------------------
   0 C :   -0.350319
   1 C :    0.058233
   2 C :   -0.384324
   3 C :    0.058267
   4 C :   -0.350343
   5 C :   -0.384328
   6 H :    0.098462
   7 H :    0.105128
   8 H :    0.104660
   9 H :    0.044273
  10 H :    0.107170
  11 H :    0.109960
  12 H :    0.106750
  13 H :    0.044274
  14 H :    0.105131
  15 H :    0.104659
  16 H :    0.098473
  17 H :    0.106755
  18 H :    0.109953
  19 H :    0.107166
Sum of atomic charges:    0.0000000

LOEWDIN ATOMIC CHARGES
----------------------
   0 C :   -0.285164
   1 C :   -0.293865
   2 C :   -0.285421
   3 C :   -0.293862
   4 C :   -0.285165
   5 C :   -0.285424
   6 H :    0.117507
   7 H :    0.119728
   8 H :    0.119107
   9 H :    0.148523
  10 H :    0.120341
  11 H :    0.118583
  12 H :    0.120663
  13 H :    0.148523
  14 H :    0.119729
  15 H :    0.119106
  16 H :    0.117509
  17 H :    0.120663
  18 H :    0.118581
  19 H :    0.120338

  Mayer bond orders larger than 0.100000
B(  0-C ,  1-C ) :   0.9597 B(  0-C ,  6-H ) :   0.9732 B(  0-C ,  7-H ) :   0.9786
B(  0-C ,  8-H ) :   0.9752 B(  1-C ,  2-C ) :   0.9573 B(  1-C ,  3-C ) :   0.9368
B(  1-C ,  9-H ) :   0.9604 B(  2-C , 10-H ) :   0.9711 B(  2-C , 11-H ) :   0.9756
B(  2-C , 12-H ) :   0.9752 B(  3-C ,  4-C ) :   0.9597 B(  3-C ,  5-C ) :   0.9573
B(  3-C , 13-H ) :   0.9604 B(  4-C , 14-H ) :   0.9786 B(  4-C , 15-H ) :   0.9752
B(  4-C , 16-H ) :   0.9732 B(  5-C , 17-H ) :   0.9752 B(  5-C , 18-H ) :   0.9756
B(  5-C , 19-H ) :   0.9711

Dispersion correction           -0.005301046
FINAL SINGLE POINT ENERGY      -237.006941717514

DIPOLE MOMENT
-------------

Method             : SCF
Type of density    : Electron Density
Multiplicity       :   1
Irrep              :   0
Energy             :  -237.0113107162605957 Eh
Relativity type    :
Basis              : AO
                                X                 Y                 Z
Electronic contribution:      0.000015903      -0.000035699      -1.097165962
Nuclear contribution   :     -0.000006580       0.000030290       1.041219707
                        -----------------------------------------
Total Dipole Moment    :      0.000009323      -0.000005408      -0.055946255
                        -----------------------------------------
Magnitude (a.u.)       :      0.055946256
Magnitude (Debye)      :      0.142204081

VIBRATIONAL FREQUENCIES
-----------------------

Scaling factor for frequencies =  1.000000000  (already applied!)

     0:       0.00 cm**-1
     1:       0.00 cm**-1
     2:       0.00 cm**-1
     3:       0.00 cm**-1
     4:       0.00 cm**-1
     5:       0.00 cm**-1
     6:      65.46 cm**-1
     7:     224.93 cm**-1
     8:     258.46 cm**-1
     9:     259.84 cm**-1
    10:     279.62 cm**-1
    11:     284.92 cm**-1
    12:     301.21 cm**-1
    13:     347.73 cm**-1
    14:     403.53 cm**-1
    15:     479.60 cm**-1
    16:     543.59 cm**-1
    17:     735.16 cm**-1
    18:     879.14 cm**-1
    19:     921.90 cm**-1
    20:     931.44 cm**-1
    21:     944.43 cm**-1
    22:     966.83 cm**-1
    23:     967.66 cm**-1
    24:    1042.86 cm**-1
    25:    1050.25 cm**-1
    26:    1150.35 cm**-1
    27:    1181.46 cm**-1
    28:    1193.33 cm**-1
    29:    1220.15 cm**-1
    30:    1322.96 cm**-1
    31:    1323.91 cm**-1
    32:    1364.02 cm**-1
    33:    1372.83 cm**-1
    34:    1385.65 cm**-1
    35:    1392.79 cm**-1
    36:    1407.11 cm**-1
    37:    1417.29 cm**-1
    38:    1476.51 cm**-1
    39:    1479.87 cm**-1
    40:    1482.74 cm**-1
    41:    1496.11 cm**-1
    42:    1501.77 cm**-1
    43:    1505.05 cm**-1
    44:    1507.79 cm**-1
    45:    1509.26 cm**-1
    46:    2979.00 cm**-1
    47:    2986.96 cm**-1
    48:    2996.78 cm**-1
    49:    2998.54 cm**-1
    50:    3001.91 cm**-1
    51:    3006.61 cm**-1
    52:    3069.87 cm**-1
    53:    3071.83 cm**-1
    54:    3073.69 cm**-1
    55:    3074.47 cm**-1
    56:    3075.88 cm**-1
    57:    3079.52 cm**-1
    58:    3084.47 cm**-1
    59:    3084.97 cm**-1

IR SPECTRUM
-----------

 Mode   freq       eps      Int      T**2         TX        TY        TZ
       cm**-1   L/(mol*cm) km/mol    a.u.
----------------------------------------------------------------------------
  6:     65.46   0.000003    0.01  0.000012  (-0.000002  0.000001 -0.003491)
  7:    224.93   0.000000    0.00  0.000001  ( 0.000647  0.000394  0.000000)
  8:    258.46   0.000030    0.15  0.000037  ( 0.005767 -0.001826  0.000004)
  9:    259.84   0.000000    0.00  0.000000  (-0.000080  0.000026  0.000352)
 10:    279.62   0.000004    0.02  0.000004  (-0.002086 -0.000113 -0.000001)
 11:    284.92   0.000001    0.00  0.000001  (-0.000000 -0.000001 -0.000797)
 12:    301.21   0.000009    0.04  0.000009  ( 0.000001 -0.000001 -0.003003)
 13:    347.73   0.000000    0.00  0.000000  (-0.000002  0.000001 -0.000627)
 14:    403.53   0.000003    0.01  0.000002  ( 0.001041 -0.000959  0.000001)
 15:    479.60   0.000110    0.56  0.000072  ( 0.000002 -0.000001  0.008459)
 16:    543.59   0.000272    1.37  0.000156  ( 0.007867 -0.009697  0.000000)
 17:    735.16   0.000101    0.51  0.000043  (-0.000000  0.000000  0.006550)
 18:    879.14   0.000144    0.73  0.000051  ( 0.002924  0.006522  0.000000)
 19:    921.90   0.000225    1.14  0.000076  (-0.007613 -0.004252 -0.000002)
 20:    931.44   0.000023    0.12  0.000008  (-0.000003 -0.000001  0.002766)
 21:    944.43   0.000010    0.05  0.000003  ( 0.000002 -0.000001 -0.001791)
 22:    966.83   0.000002    0.01  0.000001  (-0.000004 -0.000008  0.000781)
 23:    967.66   0.000030    0.15  0.000010  (-0.001460 -0.002769 -0.000003)
 24:   1042.86   0.000228    1.15  0.000068  ( 0.000008 -0.000012  0.008267)
 25:   1050.25   0.000592    2.99  0.000176  ( 0.007626 -0.010850 -0.000008)
 26:   1150.35   0.002818   14.24  0.000764  ( 0.027648  0.000030  0.000002)
 27:   1181.46   0.000059    0.30  0.000015  (-0.000006  0.000000 -0.003933)
 28:   1193.33   0.000005    0.02  0.000001  (-0.001134 -0.000019  0.000001)
 29:   1220.15   0.000007    0.03  0.000002  ( 0.000002 -0.000000  0.001305)
 30:   1322.96   0.000051    0.26  0.000012  (-0.000038 -0.000021  0.003459)
 31:   1323.91   0.000311    1.57  0.000073  (-0.007373 -0.004350 -0.000018)
 32:   1364.02   0.000054    0.27  0.000012  ( 0.000002 -0.000005  0.003528)
 33:   1372.83   0.000142    0.72  0.000032  ( 0.000281 -0.005671  0.000001)
 34:   1385.65   0.000978    4.94  0.000220  (-0.000002 -0.000004 -0.014840)
 35:   1392.79   0.002068   10.45  0.000463  ( 0.002524  0.021375 -0.000000)
 36:   1407.11   0.002446   12.36  0.000542  ( 0.023177 -0.002274 -0.000002)
 37:   1417.29   0.000992    5.01  0.000218  ( 0.000001 -0.000000  0.014778)
 38:   1476.51   0.000074    0.37  0.000016  ( 0.001526  0.003648 -0.000000)
 39:   1479.87   0.000594    3.00  0.000125  (-0.006766 -0.008916 -0.000001)
 40:   1482.74   0.000005    0.03  0.000001  (-0.000008 -0.000005  0.001043)
 41:   1496.11   0.003234   16.34  0.000675  ( 0.000002 -0.000004  0.025973)
 42:   1501.77   0.000273    1.38  0.000057  ( 0.000010 -0.000003  0.007536)
 43:   1505.05   0.002637   13.33  0.000547  (-0.019447  0.012983  0.000009)
 44:   1507.79   0.000001    0.01  0.000000  ( 0.000012 -0.000066 -0.000536)
 45:   1509.26   0.001899    9.60  0.000393  ( 0.001076 -0.019786  0.000003)
 46:   2979.00   0.003521   17.79  0.000369  (-0.001815  0.019118 -0.000004)
 47:   2986.96   0.006954   35.14  0.000727  ( 0.000001 -0.000002 -0.026954)
 48:   2996.78   0.003101   15.67  0.000323  ( 0.000015  0.000023 -0.017971)
 49:   2998.54   0.012783   64.60  0.001330  (-0.026300 -0.025272 -0.000015)
 50:   3001.91   0.003738   18.89  0.000389  ( 0.012544 -0.015207  0.000012)
 51:   3006.61   0.003283   16.59  0.000341  ( 0.000015 -0.000014 -0.018460)
 52:   3069.87   0.001253    6.33  0.000127  ( 0.000027  0.011285 -0.000002)
 53:   3071.83   0.000120    0.61  0.000012  ( 0.000002  0.000006  0.003488)
 54:   3073.69   0.001153    5.83  0.000117  ( 0.003269 -0.010313  0.000013)
 55:   3074.47   0.002691   13.60  0.000273  (-0.000048  0.000029 -0.016526)
 56:   3075.88   0.024022  121.40  0.002437  (-0.039018  0.030245  0.000050)
 57:   3079.52   0.017230   87.07  0.001746  (-0.000037  0.000010 -0.041785)
 58:   3084.47   0.000004    0.02  0.000000  ( 0.000164  0.000171 -0.000596)
 59:   3084.97   0.012168   61.49  0.001231  (-0.023413 -0.026129  0.000017)

--------------------------
THERMOCHEMISTRY AT 298.15K
--------------------------

Temperature         ...   298.15 K
Pressure            ...     1.00 atm
Total Mass          ...    86.18 AMU
Quasi RRHO          ...     True
Cut-Off Frequency   ...     1.00 cm^-1

Throughout the following assumptions are being made:
  (1) The electronic state is orbitally nondegenerate
  (2) There are no thermally accessible electronically excited states
  (3) Hindered rotations indicated by low frequency modes are not
      treated as such but are treated as vibrations and this may
      cause some error
  (4) All equations used are the standard statistical mechanics
      equations for an ideal gas
  (5) All vibrations are strictly harmonic

freq.      65.46  E(vib)   ...       0.50
freq.     224.93  E(vib)   ...       0.33
freq.     258.46  E(vib)   ...       0.30
freq.     259.84  E(vib)   ...       0.30
freq.     279.62  E(vib)   ...       0.28
freq.     284.92  E(vib)   ...       0.28
freq.     301.21  E(vib)   ...       0.26
freq.     347.73  E(vib)   ...       0.23
freq.     403.53  E(vib)   ...       0.19
freq.     479.60  E(vib)   ...       0.15
freq.     543.59  E(vib)   ...       0.12
freq.     735.16  E(vib)   ...       0.06
freq.     879.14  E(vib)   ...       0.04
freq.     921.90  E(vib)   ...       0.03
freq.     931.44  E(vib)   ...       0.03
freq.     944.43  E(vib)   ...       0.03
freq.     966.83  E(vib)   ...       0.03
freq.     967.66  E(vib)   ...       0.03
freq.    1042.86  E(vib)   ...       0.02
freq.    1050.25  E(vib)   ...       0.02
freq.    1150.35  E(vib)   ...       0.01
freq.    1181.46  E(vib)   ...       0.01
freq.    1193.33  E(vib)   ...       0.01
freq.    1220.15  E(vib)   ...       0.01
freq.    1322.96  E(vib)   ...       0.01
freq.    1323.91  E(vib)   ...       0.01
freq.    1364.02  E(vib)   ...       0.01
freq.    1372.83  E(vib)   ...       0.01
freq.    1385.65  E(vib)   ...       0.00
freq.    1392.79  E(vib)   ...       0.00
freq.    1407.11  E(vib)   ...       0.00
freq.    1417.29  E(vib)   ...       0.00
freq.    1476.51  E(vib)   ...       0.00
freq.    1479.87  E(vib)   ...       0.00
freq.    1482.74  E(vib)   ...       0.00
freq.    1496.11  E(vib)   ...       0.00
freq.    1501.77  E(vib)   ...       0.00
freq.    1505.05  E(vib)   ...       0.00
freq.    1507.79  E(vib)   ...       0.00
freq.    1509.26  E(vib)   ...       0.00
freq.    2979.00  E(vib)   ...       0.00
freq.    2986.96  E(vib)   ...       0.00
freq.    2996.78  E(vib)   ...       0.00
freq.    2998.54  E(vib)   ...       0.00
freq.    3001.91  E(vib)   ...       0.00
freq.    3006.61  E(vib)   ...       0.00
freq.    3069.87  E(vib)   ...       0.00
freq.    3071.83  E(vib)   ...       0.00
freq.    3073.69  E(vib)   ...       0.00
freq.    3074.47  E(vib)   ...       0.00
freq.    3075.88  E(vib)   ...       0.00
freq.    3079.52  E(vib)   ...       0.00
freq.    3084.47  E(vib)   ...       0.00
freq.    3084.97  E(vib)   ...       0.00

------------
INNER ENERGY
------------

The inner energy is: U= E(el) + E(ZPE) + E(vib) + E(rot) + E(trans)
    E(el)   - is the total energy from the electronic structure calculation
              = E(kin-el) + E(nuc-el) + E(el-el) + E(nuc-nuc)
    E(ZPE)  - the the zero temperature vibrational energy from the frequency calculation
    E(vib)  - the the finite temperature correction to E(ZPE) due to population
              of excited vibrational states
    E(rot)  - is the rotational thermal energy
    E(trans)- is the translational thermal energy

Summary of contributions to the inner energy U:
Electronic energy                ...   -237.00694172 Eh
Zero point energy                ...      0.18718341 Eh     117.46 kcal/mol
Thermal vibrational correction   ...      0.00530526 Eh       3.33 kcal/mol
Thermal rotational correction    ...      0.00141627 Eh       0.89 kcal/mol
Thermal translational correction ...      0.00141627 Eh       0.89 kcal/mol
-----------------------------------------------------------------------
Total thermal energy                   -236.81162051 Eh

Summary of corrections to the electronic energy:
(perhaps to be used in another calculation)
Total thermal correction                  0.00813780 Eh       5.11 kcal/mol
Non-thermal (ZPE) correction              0.18718341 Eh     117.46 kcal/mol
-----------------------------------------------------------------------
Total correction                          0.19532121 Eh     122.57 kcal/mol

--------
ENTHALPY
--------

The enthalpy is H = U + kB*T
                kB is Boltzmann's constant
Total thermal energy              ...   -236.81162051 Eh
Thermal Enthalpy correction       ...      0.00094421 Eh       0.59 kcal/mol
-----------------------------------------------------------------------
Total Enthalpy                    ...   -236.81067630 Eh

Note: Only C1 symmetry has been detected, increase convergence thresholds
      if your molecule has a higher symmetry. Symmetry factor of 1.0 is
      used for the rotational entropy correction.

Note: Rotational entropy computed according to Herzberg
Infrared and Raman Spectra, Chapter V,1, Van Nostrand Reinhold, 1945
Point Group:  C1, Symmetry Number:   1
Rotational constants in cm-1:     0.142358     0.084885     0.075054

Vibrational entropy computed according to the QRRHO of S. Grimme
Chem.Eur.J. 2012 18 9955 using a reference frequency of 100.0 cm-1

-------
ENTROPY
-------

The entropy contributions are T*S = T*(S(el)+S(vib)+S(rot)+S(trans))
     S(el)   - electronic entropy
     S(vib)  - vibrational entropy
     S(rot)  - rotational entropy
     S(trans)- translational entropy
The entropies will be listed as multiplied by the temperature to get
units of energy

Electronic entropy                ...      0.00000000 Eh      0.00 kcal/mol
Vibrational entropy               ...      0.00862734 Eh      5.41 kcal/mol
Rotational entropy                ...      0.01281800 Eh      8.04 kcal/mol
Translational entropy             ...      0.01866056 Eh     11.71 kcal/mol
-----------------------------------------------------------------------
Final entropy term                ...      0.04010590 Eh     25.17 kcal/mol

In case the symmetry of your molecule has not been determined correctly
or in case you have a reason to use a different symmetry number we print
out the resulting rotational entropy values for sn=1,12:

 non-linear molecules -----------------------------------
|  sn= 1 | S(rot)=       0.01281800 Eh      8.04 kcal/mol|
|  sn= 2 | S(rot)=       0.01216354 Eh      7.63 kcal/mol|
|  sn= 3 | S(rot)=       0.01178071 Eh      7.39 kcal/mol|
|  sn= 4 | S(rot)=       0.01150909 Eh      7.22 kcal/mol|
|  sn= 5 | S(rot)=       0.01129840 Eh      7.09 kcal/mol|
|  sn= 6 | S(rot)=       0.01112625 Eh      6.98 kcal/mol|

                             ****ORCA TERMINATED NORMALLY****
TOTAL RUN TIME: 0 days 0 hours 12 minutes 0 seconds 40 msec
