                         Program Version 6.0.0  -   RELEASE  -
|  1> ! r2SCAN-3c DEF2-TZVP FREQ
|  2> * xyzfile 0 1 vacuum_censo.xyz
|  3>
|  4>                          ****END OF INPUT****

CARTESIAN COORDINATES (ANGSTROEM)
---------------------------------
  C     -1.798429    0.752064    0.534075
  C     -0.708329   -0.311160    0.374429
  C     -0.996218   -1.178182   -0.854181
  C      0.708295    0.311060    0.374596
  C      1.798372   -0.752199    0.534130
  C      0.996300    1.178404   -0.853755
  H     -2.782045    0.285459    0.650372
  H     -1.616997    1.380603    1.412359
  H     -1.850248    1.404789   -0.343865
  H     -0.753862   -0.962632    1.259771
  H     -1.040079   -0.570845   -1.764721
  H     -0.240004   -1.954982   -1.000812
  H     -1.964694   -1.677494   -0.748394
  H      0.753713    0.962305    1.260111
  H      1.617135   -1.380574    1.412571
  H      1.849923   -1.405077   -0.343710
  H      2.782046   -0.285629    0.650088
  H      1.040408    0.571289   -1.764433
  H      1.964690    1.677817   -0.747663
  H      0.240006    1.955138   -1.000335

 Total Charge           Charge          ....    0
 Multiplicity           Mult            ....    1
 Number of Electrons    NEL             ....   50
 Basis Dimension        Dim             ....  270

ORBITAL ENERGIES
----------------

  NO   OCC          E(Eh)            E(eV)
   0   2.0000     -10.032100      -272.9873
   1   2.0000     -10.031992      -272.9844
   2   2.0000     -10.014253      -272.5017
   3   2.0000     -10.014252      -272.5016
   4   2.0000     -10.014233      -272.5011
   5   2.0000     -10.014231      -272.5011
   6   2.0000      -0.783435       -21.3184
   7   2.0000      -0.711773       -19.3683
   8   2.0000      -0.649986       -17.6870
   9   2.0000      -0.642309       -17.4781
  10   2.0000      -0.577485       -15.7142
  11   2.0000      -0.500729       -13.6255
  12   2.0000      -0.438631       -11.9358
  13   2.0000      -0.413878       -11.2622
  14   2.0000      -0.410637       -11.1740
  15   2.0000      -0.375312       -10.2128
  16   2.0000      -0.365572        -9.9477
  17   2.0000      -0.354570        -9.6483
  18   2.0000      -0.341030        -9.2799
  19   2.0000      -0.340489        -9.2652
  20   2.0000      -0.315588        -8.5876
  21   2.0000      -0.313703        -8.5363
  22   2.0000      -0.283834        -7.7235
  23   2.0000      -0.282772        -7.6946
  24   2.0000      -0.276043        -7.5115
  25   0.0000       0.036213         0.9854
  26   0.0000       0.069510         1.8915
  27   0.0000       0.073844         2.0094
  28   0.0000       0.084304         2.2940
  29   0.0000       0.097014         2.6399

MULLIKEN ATOMIC CHARGES
-----------------------
   0 C :   -0.351704
   1 C :    0.059164
   2 C :   -0.385459
   3 C :    0.059171
   4 C :   -0.351706
   5 C :   -0.385453
   6 H :    0.105342
   7 H :    0.104856
   8 H :    0.099119
   9 H :    0.044431
  10 H :    0.106910
  11 H :    0.110622
  12 H :    0.106716
  13 H :    0.044430
  14 H :    0.104859
  15 H :    0.099116
  16 H :    0.105338
  17 H :    0.106906
  18 H :    0.106712
  19 H :    0.110631
Sum of atomic charges:    0.0000000

LOEWDIN ATOMIC CHARGES
----------------------
   0 C :   -0.285132
   1 C :   -0.293384
   2 C :   -0.285304
   3 C :   -0.293390
   4 C :   -0.285130
   5 C :   -0.285304
   6 H :    0.119553
   7 H :    0.119052
   8 H :    0.117452
   9 H :    0.148543
  10 H :    0.120065
  11 H :    0.118570
  12 H :    0.120585
  13 H :    0.148542
  14 H :    0.119052
  15 H :    0.117451
  16 H :    0.119554
  17 H :    0.120065
  18 H :    0.120583
  19 H :    0.118575

  Mayer bond orders larger than 0.100000
B(  0-C ,  1-C ) :   0.9590 B(  0-C ,  6-H ) :   0.9785 B(  0-C ,  7-H ) :   0.9751
B(  0-C ,  8-H ) :   0.9736 B(  1-C ,  2-C ) :   0.9576 B(  1-C ,  3-C ) :   0.9370
B(  1-C ,  9-H ) :   0.9602 B(  2-C , 10-H ) :   0.9713 B(  2-C , 11-H ) :   0.9757
B(  2-C , 12-H ) :   0.9753 B(  3-C ,  4-C ) :   0.9590 B(  3-C ,  5-C ) :   0.9575
B(  3-C , 13-H ) :   0.9602 B(  4-C , 14-H ) :   0.9751 B(  4-C , 15-H ) :   0.9736
B(  4-C , 16-H ) :   0.9785 B(  5-C , 17-H ) :   0.9713 B(  5-C , 18-H ) :   0.9753
B(  5-C , 19-H ) :   0.9757

Dispersion correction           -0.005297988
FINAL SINGLE POINT ENERGY      -237.006956255725

DIPOLE MOMENT
-------------

Method             : SCF
Type of density    : Electron Density
Multiplicity       :   1
Irrep              :   0
Energy             :  -237.0113243660489388 Eh
Relativity type    :
Basis              : AO
                                X                 Y                 Z
Electronic contribution:     -0.000023551      -0.000168282       1.094437077
Nuclear contribution   :      0.000010693       0.000156342      -1.038486639
                        -----------------------------------------
Total Dipole Moment    :     -0.000012859      -0.000011940       0.055950438
                        -----------------------------------------
Magnitude (a.u.)       :      0.055950441
Magnitude (Debye)      :      0.142214718

VIBRATIONAL FREQUENCIES
-----------------------

Scaling factor for frequencies =  1.000000000  (already applied!)

     0:       0.00 cm**-1
     1:       0.00 cm**-1
     2:       0.00 cm**-1
     3:       0.00 cm**-1
     4:       0.00 cm**-1
     5:       0.00 cm**-1
     6:      55.93 cm**-1
     7:     212.00 cm**-1
     8:     250.04 cm**-1
     9:     251.83 cm**-1
    10:     276.23 cm**-1
    11:     278.54 cm**-1
    12:     296.57 cm**-1
    13:     347.32 cm**-1
    14:     401.60 cm**-1
    15:     477.51 cm**-1
    16:     542.09 cm**-1
    17:     732.38 cm**-1
    18:     877.04 cm**-1
    19:     919.63 cm**-1
    20:     929.53 cm**-1
    21:     941.45 cm**-1
    22:     964.80 cm**-1
    23:     965.22 cm**-1
    24:    1041.77 cm**-1
    25:    1048.50 cm**-1
    26:    1148.71 cm**-1
    27:    1180.03 cm**-1
    28:    1192.10 cm**-1
    29:    1219.60 cm**-1
    30:    1323.25 cm**-1
    31:    1324.03 cm**-1
    32:    1363.44 cm**-1
    33:    1372.73 cm**-1
    34:    1384.38 cm**-1
    35:    1391.19 cm**-1
    36:    1405.99 cm**-1
    37:    1415.65 cm**-1
    38:    1475.97 cm**-1
    39:    1479.17 cm**-1
    40:    1481.73 cm**-1
    41:    1495.53 cm**-1
    42:    1501.85 cm**-1
    43:    1504.54 cm**-1
    44:    1506.84 cm**-1
    45:    1508.62 cm**-1
    46:    2976.73 cm**-1
    47:    2985.18 cm**-1
    48:    3001.71 cm**-1
    49:    3003.43 cm**-1
    50:    3006.87 cm**-1
    51:    3011.64 cm**-1
    52:    3074.71 cm**-1
    53:    3076.90 cm**-1
    54:    3078.96 cm**-1
    55:    3080.01 cm**-1
    56:    3081.03 cm**-1
    57:    3083.95 cm**-1
    58:    3090.48 cm**-1
    59:    3090.90 cm**-1

IR SPECTRUM
-----------

 Mode   freq       eps      Int      T**2         TX        TY        TZ
       cm**-1   L/(mol*cm) km/mol    a.u.
----------------------------------------------------------------------------
  6:     55.93   0.000002    0.01  0.000014  (-0.000002 -0.000001  0.003681)
  7:    212.00   0.000001    0.00  0.000001  (-0.000805  0.000308 -0.000001)
  8:    250.04   0.000029    0.14  0.000036  ( 0.005709  0.001733  0.000001)
  9:    251.83   0.000000    0.00  0.000000  (-0.000011 -0.000004  0.000412)
 10:    276.23   0.000002    0.01  0.000002  ( 0.000004 -0.000001 -0.001496)
 11:    278.54   0.000004    0.02  0.000004  (-0.001996  0.000261 -0.000004)
 12:    296.57   0.000007    0.04  0.000008  (-0.000001 -0.000000 -0.002772)
 13:    347.32   0.000001    0.00  0.000000  ( 0.000001  0.000001  0.000675)
 14:    401.60   0.000002    0.01  0.000002  (-0.000902 -0.001021 -0.000001)
 15:    477.51   0.000111    0.56  0.000073  ( 0.000003  0.000000  0.008518)
 16:    542.09   0.000276    1.40  0.000159  ( 0.007939  0.009804  0.000001)
 17:    732.38   0.000102    0.52  0.000044  (-0.000000  0.000002 -0.006601)
 18:    877.04   0.000141    0.71  0.000050  (-0.002816  0.006499  0.000001)
 19:    919.63   0.000221    1.12  0.000075  (-0.007525  0.004281 -0.000000)
 20:    929.53   0.000024    0.12  0.000008  (-0.000000  0.000001  0.002838)
 21:    941.45   0.000008    0.04  0.000003  (-0.000002  0.000003 -0.001619)
 22:    964.80   0.000002    0.01  0.000001  ( 0.000003  0.000000 -0.000754)
 23:    965.22   0.000030    0.15  0.000010  ( 0.001553 -0.002709 -0.000002)
 24:   1041.77   0.000234    1.18  0.000070  ( 0.000004  0.000003  0.008366)
 25:   1048.50   0.000598    3.02  0.000178  ( 0.007536  0.011004 -0.000002)
 26:   1148.71   0.002886   14.58  0.000784  ( 0.027999 -0.000062  0.000001)
 27:   1180.03   0.000060    0.31  0.000016  ( 0.000003 -0.000002  0.003998)
 28:   1192.10   0.000005    0.02  0.000001  ( 0.001089 -0.000030 -0.000000)
 29:   1219.60   0.000008    0.04  0.000002  ( 0.000001 -0.000002  0.001410)
 30:   1323.25   0.000052    0.26  0.000012  (-0.000036  0.000020  0.003495)
 31:   1324.03   0.000312    1.57  0.000073  ( 0.007406 -0.004310  0.000017)
 32:   1363.44   0.000050    0.25  0.000011  ( 0.000000  0.000002  0.003383)
 33:   1372.73   0.000123    0.62  0.000028  ( 0.000241  0.005289  0.000004)
 34:   1384.38   0.000961    4.86  0.000217  ( 0.000004 -0.000004  0.014716)
 35:   1391.19   0.002115   10.69  0.000475  ( 0.002388 -0.021652 -0.000001)
 36:   1405.99   0.002460   12.43  0.000546  (-0.023220 -0.002617  0.000004)
 37:   1415.65   0.000981    4.96  0.000216  (-0.000003  0.000001 -0.014709)
 38:   1475.97   0.000058    0.29  0.000012  ( 0.000995 -0.003348  0.000006)
 39:   1479.17   0.000658    3.32  0.000139  ( 0.006528 -0.009805  0.000003)
 40:   1481.73   0.000011    0.05  0.000002  ( 0.000004 -0.000005 -0.001510)
 41:   1495.53   0.003297   16.66  0.000688  (-0.000002 -0.000009 -0.026228)
 42:   1501.85   0.000256    1.29  0.000053  (-0.000000 -0.000004  0.007295)
 43:   1504.54   0.002886   14.59  0.000599  (-0.019727 -0.014472  0.000004)
 44:   1506.84   0.000002    0.01  0.000000  (-0.000007 -0.000039 -0.000558)
 45:   1508.62   0.001569    7.93  0.000324  (-0.000267  0.018012 -0.000002)
 46:   2976.73   0.003608   18.23  0.000378  ( 0.001402  0.019398  0.000003)
 47:   2985.18   0.007375   37.27  0.000771  (-0.000003 -0.000004  0.027767)
 48:   3001.71   0.002562   12.95  0.000266  ( 0.000022 -0.000013 -0.016319)
 49:   3003.43   0.012635   63.85  0.001313  ( 0.025962 -0.025273  0.000015)
 50:   3006.87   0.003743   18.92  0.000388  ( 0.012647  0.015118 -0.000013)
 51:   3011.64   0.003784   19.12  0.000392  ( 0.000010  0.000016  0.019800)
 52:   3074.71   0.001366    6.90  0.000139  (-0.000390 -0.011768 -0.000019)
 53:   3076.90   0.000563    2.85  0.000057  (-0.000013  0.000007  0.007556)
 54:   3078.96   0.000256    1.29  0.000026  (-0.004765  0.001794  0.000034)
 55:   3080.01   0.002425   12.25  0.000246  (-0.000104 -0.000104  0.015673)
 56:   3081.03   0.024449  123.56  0.002476  (-0.037805 -0.032360 -0.000063)
 57:   3083.95   0.016735   84.57  0.001693  ( 0.000011  0.000016 -0.041151)
 58:   3090.48   0.000005    0.03  0.000001  ( 0.000383 -0.000372  0.000475)
 59:   3090.90   0.012193   61.62  0.001231  (-0.024827  0.024793  0.000008)

--------------------------
THERMOCHEMISTRY AT 298.15K
--------------------------

Temperature         ...   298.15 K
Pressure            ...     1.00 atm
Total Mass          ...    86.18 AMU
Quasi RRHO          ...     True
Cut-Off Frequency   ...     1.00 cm^-1

Throughout the following assumptions are being made:
  (1) The electronic state is orbitally nondegenerate
  (2) There are no thermally accessible electronically excited states
  (3) Hindered rotations indicated by low frequency modes are not
      treated as such but are treated as vibrations and this may
      cause some error
  (4) All equations used are the standard statistical mechanics
      equations for an ideal gas
  (5) All vibrations are strictly harmonic

freq.      55.93  E(vib)   ...       0.52
freq.     212.00  E(vib)   ...       0.34
freq.     250.04  E(vib)   ...       0.31
freq.     251.83  E(vib)   ...       0.30
freq.     276.23  E(vib)   ...       0.28
freq.     278.54  E(vib)   ...       0.28
freq.     296.57  E(vib)   ...       0.27
freq.     347.32  E(vib)   ...       0.23
freq.     401.60  E(vib)   ...       0.19
freq.     477.51  E(vib)   ...       0.15
freq.     542.09  E(vib)   ...       0.12
freq.     732.38  E(vib)   ...       0.06
freq.     877.04  E(vib)   ...       0.04
freq.     919.63  E(vib)   ...       0.03
freq.     929.53  E(vib)   ...       0.03
freq.     941.45  E(vib)   ...       0.03
freq.     964.80  E(vib)   ...       0.03
freq.     965.22  E(vib)   ...       0.03
freq.    1041.77  E(vib)   ...       0.02
freq.    1048.50  E(vib)   ...       0.02
freq.    1148.71  E(vib)   ...       0.01
freq.    1180.03  E(vib)   ...       0.01
freq.    1192.10  E(vib)   ...       0.01
freq.    1219.60  E(vib)   ...       0.01
freq.    1323.25  E(vib)   ...       0.01
freq.    1324.03  E(vib)   ...       0.01
freq.    1363.44  E(vib)   ...       0.01
freq.    1372.73  E(vib)   ...       0.01
freq.    1384.38  E(vib)   ...       0.00
freq.    1391.19  E(vib)   ...       0.00
freq.    1405.99  E(vib)   ...       0.00
freq.    1415.65  E(vib)   ...       0.00
freq.    1475.97  E(vib)   ...       0.00
freq.    1479.17  E(vib)   ...       0.00
freq.    1481.73  E(vib)   ...       0.00
freq.    1495.53  E(vib)   ...       0.00
freq.    1501.85  E(vib)   ...       0.00
freq.    1504.54  E(vib)   ...       0.00
freq.    1506.84  E(vib)   ...       0.00
freq.    1508.62  E(vib)   ...       0.00
freq.    2976.73  E(vib)   ...       0.00
freq.    2985.18  E(vib)   ...       0.00
freq.    3001.71  E(vib)   ...       0.00
freq.    3003.43  E(vib)   ...       0.00
freq.    3006.87  E(vib)   ...       0.00
freq.    3011.64  E(vib)   ...       0.00
freq.    3074.71  E(vib)   ...       0.00
freq.    3076.90  E(vib)   ...       0.00
freq.    3078.96  E(vib)   ...       0.00
freq.    3080.01  E(vib)   ...       0.00
freq.    3081.03  E(vib)   ...       0.00
freq.    3083.95  E(vib)   ...       0.00
freq.    3090.48  E(vib)   ...       0.00
freq.    3090.90  E(vib)   ...       0.00

------------
INNER ENERGY
------------

The inner energy is: U= E(el) + E(ZPE) + E(vib) + E(rot) + E(trans)
    E(el)   - is the total energy from the electronic structure calculation
              = E(kin-el) + E(nuc-el) + E(el-el) + E(nuc-nuc)
    E(ZPE)  - the the zero temperature vibrational energy from the frequency calculation
    E(vib)  - the the finite temperature correction to E(ZPE) due to population
              of excited vibrational states
    E(rot)  - is the rotational thermal energy
    E(trans)- is the translational thermal energy

Summary of contributions to the inner energy U:
Electronic energy                ...   -237.00695626 Eh
Zero point energy                ...      0.18710104 Eh     117.41 kcal/mol
Thermal vibrational correction   ...      0.00539516 Eh       3.39 kcal/mol
Thermal rotational correction    ...      0.00141627 Eh       0.89 kcal/mol
Thermal translational correction ...      0.00141627 Eh       0.89 kcal/mol
-----------------------------------------------------------------------
Total thermal energy                   -236.81162752 Eh

Summary of corrections to the electronic energy:
(perhaps to be used in another calculation)
Total thermal correction                  0.00822770 Eh       5.16 kcal/mol
Non-thermal (ZPE) correction              0.18710104 Eh     117.41 kcal/mol
-----------------------------------------------------------------------
Total correction                          0.19532874 Eh     122.57 kcal/mol

--------
ENTHALPY
--------

The enthalpy is H = U + kB*T
                kB is Boltzmann's constant
Total thermal energy              ...   -236.81162752 Eh
Thermal Enthalpy correction       ...      0.00094421 Eh       0.59 kcal/mol
-----------------------------------------------------------------------
Total Enthalpy                    ...   -236.81068331 Eh

Note: Only C1 symmetry has been detected, increase convergence thresholds
      if your molecule has a higher symmetry. Symmetry factor of 1.0 is
      used for the rotational entropy correction.

Note: Rotational entropy computed according to Herzberg
Infrared and Raman Spectra, Chapter V,1, Van Nostrand Reinhold, 1945
Point Group:  C1, Symmetry Number:   1
Rotational constants in cm-1:     0.142099     0.085112     0.074676

Vibrational entropy computed according to the QRRHO of S. Grimme
Chem.Eur.J. 2012 18 9955 using a reference frequency of 100.0 cm-1

-------
ENTROPY
-------

The entropy contributions are T*S = T*(S(el)+S(vib)+S(rot)+S(trans))
     S(el)   - electronic entropy
     S(vib)  - vibrational entropy
     S(rot)  - rotational entropy
     S(trans)- translational entropy
The entropies will be listed as multiplied by the temperature to get
units of energy

Electronic entropy                ...      0.00000000 Eh      0.00 kcal/mol
Vibrational entropy               ...      0.00883572 Eh      5.54 kcal/mol
Rotational entropy                ...      0.01281998 Eh      8.04 kcal/mol
Translational entropy             ...      0.01866056 Eh     11.71 kcal/mol
-----------------------------------------------------------------------
Final entropy term                ...      0.04031626 Eh     25.30 kcal/mol

In case the symmetry of your molecule has not been determined correctly
or in case you have a reason to use a different symmetry number we print
out the resulting rotational entropy values for sn=1,12:

 non-linear molecules -----------------------------------
|  sn= 1 | S(rot)=       0.01281998 Eh      8.04 kcal/mol|
|  sn= 2 | S(rot)=       0.01216553 Eh      7.63 kcal/mol|
|  sn= 3 | S(rot)=       0.01178270 Eh      7.39 kcal/mol|
|  sn= 4 | S(rot)=       0.01151107 Eh      7.22 kcal/mol|
|  sn= 5 | S(rot)=       0.01130038 Eh      7.09 kcal/mol|
|  sn= 6 | S(rot)=       0.01112824 Eh      6.98 kcal/mol|

                             ****ORCA TERMINATED NORMALLY****
TOTAL RUN TIME: 0 days 0 hours 11 minutes 38 seconds 230 msec
