                         Program Version 6.0.1  -  RELEASE   -
|  1> ! r2scan-3c def2/J RI DEFGRID2 scfconv6 printgap
|  2> %output
|  3>     printlevel normal
|  4> end
|  5> * xyz 0 1
|  6> C -2.4082306067 0.0096408938 2.54335e-05
|  7> C -0.972770978 0.5191853945 -2.69487e-05
|  8> C 0.0299028019 -0.6396579432 -9.3431e-06
|  9> C 1.3955477893 -0.1573003152 -1.32872e-05
| 10> C 2.514667274 0.2659415265 2.02755e-05
| 11> H -2.5994962095 -0.5980118248 0.8825081068
| 12> H -3.1080506861 0.8421132503 -0.000164533
| 13> H -2.5994362311 -0.5983632028 -0.8822289284
| 14> H -0.8017528217 1.140766987 -0.8818632031
| 15> H -0.8017124499 1.1408490118 0.8817451003
| 16> H -0.1262623256 -1.2631184293 -0.8857819088
| 17> H -0.1262780445 -1.2630909705 0.8857787111
| 18> H 3.5000801025 0.6249583808 5.27729e-05
| 19> *
| 20>
| 21>                          ****END OF INPUT****

CARTESIAN COORDINATES (ANGSTROEM)
---------------------------------
  C     -2.408231    0.009641    0.000025
  C     -0.972771    0.519185   -0.000027
  C      0.029903   -0.639658   -0.000009
  C      1.395548   -0.157300   -0.000013
  C      2.514667    0.265942    0.000020
  H     -2.599496   -0.598012    0.882508
  H     -3.108051    0.842113   -0.000165
  H     -2.599436   -0.598363   -0.882229
  H     -0.801753    1.140767   -0.881863
  H     -0.801712    1.140849    0.881745
  H     -0.126262   -1.263118   -0.885782
  H     -0.126278   -1.263091    0.885779
  H      3.500080    0.624958    0.000053

 Total Charge           Charge          ....    0
 Multiplicity           Mult            ....    1
 Number of Electrons    NEL             ....   38
 Basis Dimension        Dim             ....  135

ORBITAL ENERGIES
----------------

  NO   OCC          E(Eh)            E(eV)
   0   2.0000     -10.056243      -273.6443
   1   2.0000     -10.037554      -273.1357
   2   2.0000     -10.029690      -272.9217
   3   2.0000     -10.024288      -272.7748
   4   2.0000     -10.015455      -272.5344
   5   2.0000      -0.781983       -21.2788
   6   2.0000      -0.715819       -19.4784
   7   2.0000      -0.659864       -17.9558
   8   2.0000      -0.570604       -15.5269
   9   2.0000      -0.498309       -13.5597
  10   2.0000      -0.448145       -12.1947
  11   2.0000      -0.438377       -11.9288
  12   2.0000      -0.394742       -10.7415
  13   2.0000      -0.376884       -10.2555
  14   2.0000      -0.338509        -9.2113
  15   2.0000      -0.324617        -8.8333
  16   2.0000      -0.312019        -8.4905
  17   2.0000      -0.243679        -6.6308
  18   2.0000      -0.243211        -6.6181
  19   0.0000       0.025234         0.6867
  20   0.0000       0.029588         0.8051
  21   0.0000       0.090550         2.4640
  22   0.0000       0.110339         3.0025
  23   0.0000       0.132008         3.5921

MULLIKEN ATOMIC CHARGES
-----------------------
   0 C :   -0.469737
   1 C :   -0.201838
   2 C :   -0.507742
   3 C :    0.104372
   4 C :   -0.135567
   5 H :    0.142977
   6 H :    0.151072
   7 H :    0.142967
   8 H :    0.145956
   9 H :    0.145959
  10 H :    0.162693
  11 H :    0.162692
  12 H :    0.156195
Sum of atomic charges:   -0.0000000

LOEWDIN ATOMIC CHARGES
----------------------
   0 C :   -0.423789
   1 C :   -0.296595
   2 C :   -0.279856
   3 C :   -0.080958
   4 C :   -0.219153
   5 H :    0.150415
   6 H :    0.153890
   7 H :    0.150414
   8 H :    0.158185
   9 H :    0.158186
  10 H :    0.175152
  11 H :    0.175153
  12 H :    0.178957

  Mayer bond orders larger than 0.100000
B(  0-C ,  1-C ) :   0.8933 B(  0-C ,  5-H ) :   0.9844 B(  0-C ,  6-H ) :   0.9728
B(  0-C ,  7-H ) :   0.9844 B(  1-C ,  2-C ) :   0.9331 B(  1-C ,  8-H ) :   0.9558
B(  1-C ,  9-H ) :   0.9558 B(  2-C ,  3-C ) :   1.0316 B(  2-C , 10-H ) :   0.9957
B(  2-C , 11-H ) :   0.9957 B(  3-C ,  4-C ) :   2.5884 B(  4-C , 12-H ) :   1.0565

Dispersion correction           -0.002667364
FINAL SINGLE POINT ENERGY      -195.210313578807

DIPOLE MOMENT
-------------

Method             : SCF
Type of density    : Electron Density
Multiplicity       :   1
Irrep              :   0
Energy             :  -195.2123084538767159 Eh
Relativity type    :
Basis              : AO
                                X                 Y                 Z
Electronic contribution:      5.870704961      -0.062973791      -0.000032496
Nuclear contribution   :     -6.250910362       0.024489121       0.000043266
                        -----------------------------------------
Total Dipole Moment    :     -0.380205402      -0.038484669       0.000010770
                        -----------------------------------------
Magnitude (a.u.)       :      0.382148161
Magnitude (Debye)      :      0.971343432

Rotational constants in cm-1:             0.777250             0.075889             0.071923
Rotational constants in MHz :         23301.379371          2275.102448          2156.187316

                             ****ORCA TERMINATED NORMALLY****
TOTAL RUN TIME: 0 days 0 hours 0 minutes 10 seconds 468 msec
