                         Program Version 6.0.1  -  RELEASE   -
|  1> ! r2scan-3c def2/J RI DEFGRID2 scfconv6 printgap
|  2> %output
|  3>     printlevel normal
|  4> end
|  5> * xyz 0 1
|  6> C -1.8566337489 -2.17333379 -5.39886e-05
|  7> C -1.3900093788 -0.7482912993 -2.19028e-05
|  8> C -2.3019487474 0.2756925743 0.000203941
|  9> C -1.8993601632 1.6187660963 0.0001160241
| 10> C -0.5723676483 1.9374639376 -0.0001354835
| 11> C 0.405085776 0.9206343578 -0.0001654356
| 12> C -0.0020578014 -0.4408710421 -0.0001558603
| 13> C 0.9995550878 -1.4358810613 -0.0001132327
| 14> C 2.3259668081 -1.1043963387 0.00013186
| 15> C 2.7236885621 0.2401865128 0.0001850124
| 16> C 1.78152648 1.2290476964 -6.15705e-05
| 17> H -1.4915396267 -2.6986789549 0.8818720473
| 18> H -2.9431411223 -2.2160447636 0.0008854947
| 19> H -1.4928913609 -2.6981695454 -0.8828171989
| 20> H -3.3590912297 0.0490567921 0.0004326708
| 21> H -2.6506666964 2.3951493783 0.0003385221
| 22> H -0.2500154238 2.9689578926 -0.000233935
| 23> H 0.7130234461 -2.4761708478 -0.000130804
| 24> H 3.0786003489 -1.8797661733 0.0003214777
| 25> H 3.7759828351 0.4847737361 0.0003344829
| 26> H 2.0761426317 2.2692048978 -0.0001609919
| 27> *
| 28>
| 29>                          ****END OF INPUT****

CARTESIAN COORDINATES (ANGSTROEM)
---------------------------------
  C     -1.856634   -2.173334   -0.000054
  C     -1.390009   -0.748291   -0.000022
  C     -2.301949    0.275693    0.000204
  C     -1.899360    1.618766    0.000116
  C     -0.572368    1.937464   -0.000135
  C      0.405086    0.920634   -0.000165
  C     -0.002058   -0.440871   -0.000156
  C      0.999555   -1.435881   -0.000113
  C      2.325967   -1.104396    0.000132
  C      2.723689    0.240187    0.000185
  C      1.781526    1.229048   -0.000062
  H     -1.491540   -2.698679    0.881872
  H     -2.943141   -2.216045    0.000885
  H     -1.492891   -2.698170   -0.882817
  H     -3.359091    0.049057    0.000433
  H     -2.650667    2.395149    0.000339
  H     -0.250015    2.968958   -0.000234
  H      0.713023   -2.476171   -0.000131
  H      3.078600   -1.879766    0.000321
  H      3.775983    0.484774    0.000334
  H      2.076143    2.269205   -0.000161

 Total Charge           Charge          ....    0
 Multiplicity           Mult            ....    1
 Number of Electrons    NEL             ....   76
 Basis Dimension        Dim             ....  259

ORBITAL ENERGIES
----------------

  NO   OCC          E(Eh)            E(eV)
   0   2.0000     -10.045498      -273.3519
   1   2.0000     -10.043680      -273.3024
   2   2.0000     -10.042948      -273.2825
   3   2.0000     -10.035860      -273.0896
   4   2.0000     -10.035727      -273.0860
   5   2.0000     -10.035080      -273.0684
   6   2.0000     -10.034930      -273.0643
   7   2.0000     -10.033679      -273.0303
   8   2.0000     -10.032392      -272.9953
   9   2.0000     -10.031238      -272.9639
  10   2.0000     -10.029592      -272.9191
  11   2.0000      -0.847089       -23.0505
  12   2.0000      -0.794818       -21.6281
  13   2.0000      -0.757157       -20.6033
  14   2.0000      -0.711526       -19.3616
  15   2.0000      -0.704633       -19.1741
  16   2.0000      -0.653730       -17.7889
  17   2.0000      -0.592925       -16.1343
  18   2.0000      -0.583214       -15.8701
  19   2.0000      -0.547885       -14.9087
  20   2.0000      -0.484161       -13.1747
  21   2.0000      -0.475859       -12.9488
  22   2.0000      -0.464662       -12.6441
  23   2.0000      -0.420494       -11.4422
  24   2.0000      -0.405906       -11.0453
  25   2.0000      -0.399200       -10.8628
  26   2.0000      -0.389407       -10.5963
  27   2.0000      -0.380592       -10.3564
  28   2.0000      -0.368484       -10.0270
  29   2.0000      -0.358067        -9.7435
  30   2.0000      -0.352729        -9.5982
  31   2.0000      -0.336772        -9.1640
  32   2.0000      -0.306266        -8.3339
  33   2.0000      -0.303852        -8.2682
  34   2.0000      -0.295908        -8.0521
  35   2.0000      -0.260411        -7.0861
  36   2.0000      -0.231437        -6.2977
  37   2.0000      -0.199899        -5.4395
  38   0.0000      -0.065680        -1.7872
  39   0.0000      -0.035538        -0.9670
  40   0.0000       0.002400         0.0653
  41   0.0000       0.066036         1.7969
  42   0.0000       0.076790         2.0896

MULLIKEN ATOMIC CHARGES
-----------------------
   0 C :   -0.578411
   1 C :    0.123504
   2 C :   -0.196694
   3 C :   -0.157697
   4 C :   -0.252988
   5 C :    0.174351
   6 C :    0.182819
   7 C :   -0.260475
   8 C :   -0.156535
   9 C :   -0.153146
  10 C :   -0.223618
  11 H :    0.169090
  12 H :    0.151078
  13 H :    0.169182
  14 H :    0.145447
  15 H :    0.144004
  16 H :    0.143240
  17 H :    0.143116
  18 H :    0.144847
  19 H :    0.145311
  20 H :    0.143572
Sum of atomic charges:    0.0000000

LOEWDIN ATOMIC CHARGES
----------------------
   0 C :   -0.389577
   1 C :   -0.077541
   2 C :   -0.166709
   3 C :   -0.160878
   4 C :   -0.151442
   5 C :   -0.055413
   6 C :   -0.052980
   7 C :   -0.146788
   8 C :   -0.163007
   9 C :   -0.165717
  10 C :   -0.142996
  11 H :    0.164744
  12 H :    0.160560
  13 H :    0.164761
  14 H :    0.167723
  15 H :    0.167693
  16 H :    0.170000
  17 H :    0.172187
  18 H :    0.167328
  19 H :    0.167601
  20 H :    0.170449

  Mayer bond orders larger than 0.100000
B(  0-C ,  1-C ) :   0.7569 B(  0-C , 11-H ) :   0.9793 B(  0-C , 12-H ) :   0.9871
B(  0-C , 13-H ) :   0.9793 B(  1-C ,  2-C ) :   1.4767 B(  1-C ,  6-C ) :   1.2896
B(  2-C ,  3-C ) :   1.3042 B(  2-C , 14-H ) :   0.9240 B(  3-C ,  4-C ) :   1.5159
B(  3-C , 15-H ) :   0.9489 B(  4-C ,  5-C ) :   1.1716 B(  4-C , 16-H ) :   0.9496
B(  5-C ,  6-C ) :   1.4609 B(  5-C , 10-C ) :   1.1761 B(  6-C ,  7-C ) :   1.2478
B(  7-C ,  8-C ) :   1.5127 B(  7-C , 17-H ) :   0.9425 B(  8-C ,  9-C ) :   1.2732
B(  8-C , 18-H ) :   0.9487 B(  9-C , 10-C ) :   1.5059 B(  9-C , 19-H ) :   0.9491
B( 10-C , 20-H ) :   0.9485

Dispersion correction           -0.008329582
FINAL SINGLE POINT ENERGY      -425.086144701783

DIPOLE MOMENT
-------------

Method             : SCF
Type of density    : Electron Density
Multiplicity       :   1
Irrep              :   0
Energy             :  -425.0832034782874871 Eh
Relativity type    :
Basis              : AO
                                X                 Y                 Z
Electronic contribution:      2.329323820       3.418573674      -0.000683158
Nuclear contribution   :     -2.386325184      -3.566628556       0.000789719
                        -----------------------------------------
Total Dipole Moment    :     -0.057001364      -0.148054882       0.000106561
                        -----------------------------------------
Magnitude (a.u.)       :      0.158648716
Magnitude (Debye)      :      0.403252988

Rotational constants in cm-1:             0.064162             0.037986             0.023966
Rotational constants in MHz :          1923.537162          1138.781712           718.496242

                             ****ORCA TERMINATED NORMALLY****
TOTAL RUN TIME: 0 days 0 hours 0 minutes 37 seconds 728 msec
