                         Program Version 6.0.1  -  RELEASE   -
|  1> ! r2scan-3c def2/J RI DEFGRID2 scfconv6 printgap
|  2> %output
|  3>     printlevel normal
|  4> end
|  5> * xyz 0 1
|  6> C -1.3570313565 -0.854643583 0.4125973419
|  7> C -0.5915211368 0.0873432052 -0.5123261588
|  8> C -0.6522571485 1.521691896 0.0051217579
|  9> C 0.8660918822 -0.3672578939 -0.6447649462
| 10> O 1.4895533391 -0.3346466324 0.6216249867
| 11> H -2.3888395653 -0.5285765417 0.5180058529
| 12> H -0.8881877503 -0.8616235216 1.3926707629
| 13> H -1.3524786658 -1.8681959897 0.0174046322
| 14> H -1.0345566326 0.0468508319 -1.5142719468
| 15> H -1.6851829285 1.8436739289 0.1119134259
| 16> H -0.1472483104 2.1987220964 -0.6805272892
| 17> H -0.163519276 1.5794985459 0.9737275952
| 18> H 0.8928035237 -1.3874312884 -1.0563980457
| 19> H 1.3923976595 0.2981311206 -1.3456873145
| 20> H 2.4020322212 -0.6222860417 0.5264804558
| 21> *
| 22>
| 23>                          ****END OF INPUT****

CARTESIAN COORDINATES (ANGSTROEM)
---------------------------------
  C     -1.357031   -0.854644    0.412597
  C     -0.591521    0.087343   -0.512326
  C     -0.652257    1.521692    0.005122
  C      0.866092   -0.367258   -0.644765
  O      1.489553   -0.334647    0.621625
  H     -2.388840   -0.528577    0.518006
  H     -0.888188   -0.861624    1.392671
  H     -1.352479   -1.868196    0.017405
  H     -1.034557    0.046851   -1.514272
  H     -1.685183    1.843674    0.111913
  H     -0.147248    2.198722   -0.680527
  H     -0.163519    1.579499    0.973728
  H      0.892804   -1.387431   -1.056398
  H      1.392398    0.298131   -1.345687
  H      2.402032   -0.622286    0.526480

 Total Charge           Charge          ....    0
 Multiplicity           Mult            ....    1
 Number of Electrons    NEL             ....   42
 Basis Dimension        Dim             ....  150

ORBITAL ENERGIES
----------------

  NO   OCC          E(Eh)            E(eV)
   0   2.0000     -18.947541      -515.5888
   1   2.0000     -10.072136      -274.0767
   2   2.0000     -10.032003      -272.9847
   3   2.0000     -10.008232      -272.3378
   4   2.0000     -10.008214      -272.3373
   5   2.0000      -0.986291       -26.8383
   6   2.0000      -0.762621       -20.7520
   7   2.0000      -0.644062       -17.5258
   8   2.0000      -0.637991       -17.3606
   9   2.0000      -0.523235       -14.2380
  10   2.0000      -0.485669       -13.2157
  11   2.0000      -0.422345       -11.4926
  12   2.0000      -0.409531       -11.1439
  13   2.0000      -0.397944       -10.8286
  14   2.0000      -0.352381        -9.5888
  15   2.0000      -0.338364        -9.2073
  16   2.0000      -0.337825        -9.1927
  17   2.0000      -0.298665        -8.1271
  18   2.0000      -0.296132        -8.0582
  19   2.0000      -0.280709        -7.6385
  20   2.0000      -0.235038        -6.3957
  21   0.0000       0.059009         1.6057
  22   0.0000       0.098438         2.6786
  23   0.0000       0.122136         3.3235
  24   0.0000       0.141959         3.8629
  25   0.0000       0.148237         4.0337

MULLIKEN ATOMIC CHARGES
-----------------------
   0 C :   -0.505209
   1 C :    0.004296
   2 C :   -0.505415
   3 C :   -0.135853
   4 O :   -0.440204
   5 H :    0.142089
   6 H :    0.171085
   7 H :    0.139532
   8 H :    0.138082
   9 H :    0.142068
  10 H :    0.139566
  11 H :    0.171162
  12 H :    0.123848
  13 H :    0.123834
  14 H :    0.291119
Sum of atomic charges:    0.0000000

LOEWDIN ATOMIC CHARGES
----------------------
   0 C :   -0.412306
   1 C :   -0.226982
   2 C :   -0.412292
   3 C :    0.007743
   4 O :   -0.635424
   5 H :    0.151519
   6 H :    0.166280
   7 H :    0.153078
   8 H :    0.158447
   9 H :    0.151509
  10 H :    0.153087
  11 H :    0.166313
  12 H :    0.157155
  13 H :    0.157165
  14 H :    0.264708

  Mayer bond orders larger than 0.100000
B(  0-C ,  1-C ) :   0.9182 B(  0-C ,  5-H ) :   0.9754 B(  0-C ,  6-H ) :   0.9809
B(  0-C ,  7-H ) :   0.9716 B(  1-C ,  2-C ) :   0.9181 B(  1-C ,  3-C ) :   0.9650
B(  1-C ,  8-H ) :   0.9384 B(  2-C ,  9-H ) :   0.9754 B(  2-C , 10-H ) :   0.9715
B(  2-C , 11-H ) :   0.9809 B(  3-C ,  4-O ) :   0.9180 B(  3-C , 12-H ) :   0.9657
B(  3-C , 13-H ) :   0.9656 B(  4-O , 14-H ) :   0.9035

Dispersion correction           -0.003258589
FINAL SINGLE POINT ENERGY      -233.599633346160

DIPOLE MOMENT
-------------

Method             : SCF
Type of density    : Electron Density
Multiplicity       :   1
Irrep              :   0
Energy             :  -233.6048571601489243 Eh
Relativity type    :
Basis              : AO
                                X                 Y                 Z
Electronic contribution:      3.072091362      -0.819263028       0.530014644
Nuclear contribution   :     -2.766849162       0.650588083      -0.982115697
                        -----------------------------------------
Total Dipole Moment    :      0.305242200      -0.168674945      -0.452101053
                        -----------------------------------------
Magnitude (a.u.)       :      0.570981085
Magnitude (Debye)      :      1.451318580

Rotational constants in cm-1:             0.210957             0.134850             0.108225
Rotational constants in MHz :          6324.339438          4042.699343          3244.516353

                             ****ORCA TERMINATED NORMALLY****
TOTAL RUN TIME: 0 days 0 hours 0 minutes 12 seconds 568 msec
