                         Program Version 6.0.1  -  RELEASE   -
|  1> ! pbe def2-sv(p) def2/J RI DEFGRID1 loosescf d4 GCP(DFT/SV(P)) printgap
|  2> %output
|  3>     printlevel normal
|  4> end
|  5> * xyz 0 1
|  6> C -3.3966582996 -0.5606187424 -0.0358383491
|  7> C -1.9173618903 -0.5006985294 -0.3986064589
|  8> H -1.7931884467 -0.7251466085 -1.4644445224
|  9> C -1.0932098841 -1.5142741778 0.4085238329
| 10> C 0.3852526739 -1.4407648915 0.0457252526
| 11> C 0.9351858243 -0.0355704148 0.3055240732
| 12> H 0.7958299499 0.1936082207 1.3676587625
| 13> C 0.1250363311 0.9908906084 -0.5045782529
| 14> C -1.3400734802 0.8813817414 -0.1534378828
| 15> O -1.9752158365 1.7975588786 0.3032419974
| 16> C 2.4116864321 0.0574263716 -0.0146886514
| 17> C 2.8903570028 -0.1465970575 -1.2313380024
| 18> C 3.2983772563 0.3920542676 1.1446583922
| 19> H -3.5339224355 -0.3241170376 1.0164735262
| 20> H -3.9562632845 0.1661964512 -0.6190514538
| 21> H -3.7976201927 -1.5527951889 -0.2292282929
| 22> H -1.2220212653 -1.3061356154 1.473529788
| 23> H -1.4752562824 -2.5195325289 0.2178788842
| 24> H 0.9473367851 -2.1650059941 0.639357608
| 25> H 0.5205866773 -1.6985176697 -1.0062766009
| 26> H 0.4753378261 2.0025351372 -0.2928735371
| 27> H 0.2514940528 0.7939432464 -1.5702622812
| 28> H 3.9439780012 -0.0824020808 -1.442158849
| 29> H 2.2594668649 -0.3857673299 -2.0702821949
| 30> H 3.0135235328 1.3550063899 1.5678410711
| 31> H 3.192042556 -0.3583577197 1.9278195581
| 32> H 4.3412514601 0.4372561117 0.8429402152
| 33> *
| 34>
| 35>                          ****END OF INPUT****

CARTESIAN COORDINATES (ANGSTROEM)
---------------------------------
  C     -3.396658   -0.560619   -0.035838
  C     -1.917362   -0.500699   -0.398606
  H     -1.793188   -0.725147   -1.464445
  C     -1.093210   -1.514274    0.408524
  C      0.385253   -1.440765    0.045725
  C      0.935186   -0.035570    0.305524
  H      0.795830    0.193608    1.367659
  C      0.125036    0.990891   -0.504578
  C     -1.340073    0.881382   -0.153438
  O     -1.975216    1.797559    0.303242
  C      2.411686    0.057426   -0.014689
  C      2.890357   -0.146597   -1.231338
  C      3.298377    0.392054    1.144658
  H     -3.533922   -0.324117    1.016474
  H     -3.956263    0.166196   -0.619051
  H     -3.797620   -1.552795   -0.229228
  H     -1.222021   -1.306136    1.473530
  H     -1.475256   -2.519533    0.217879
  H      0.947337   -2.165006    0.639358
  H      0.520587   -1.698518   -1.006277
  H      0.475338    2.002535   -0.292874
  H      0.251494    0.793943   -1.570262
  H      3.943978   -0.082402   -1.442159
  H      2.259467   -0.385767   -2.070282
  H      3.013524    1.355006    1.567841
  H      3.192043   -0.358358    1.927820
  H      4.341251    0.437256    0.842940

 Total Charge           Charge          ....    0
 Multiplicity           Mult            ....    1
 Number of Electrons    NEL             ....   84
 Basis Dimension        Dim             ....  186

ORBITAL ENERGIES
----------------

  NO   OCC          E(Eh)            E(eV)
   0   2.0000     -18.737562      -509.8750
   1   2.0000      -9.966916      -271.2136
   2   2.0000      -9.911360      -269.7018
   3   2.0000      -9.905107      -269.5317
   4   2.0000      -9.902089      -269.4495
   5   2.0000      -9.898134      -269.3419
   6   2.0000      -9.895440      -269.2686
   7   2.0000      -9.891408      -269.1589
   8   2.0000      -9.885797      -269.0062
   9   2.0000      -9.872885      -268.6549
  10   2.0000      -9.872789      -268.6522
  11   2.0000      -0.939274       -25.5589
  12   2.0000      -0.774352       -21.0712
  13   2.0000      -0.730385       -19.8748
  14   2.0000      -0.684222       -18.6186
  15   2.0000      -0.661309       -17.9951
  16   2.0000      -0.618689       -16.8354
  17   2.0000      -0.604532       -16.4502
  18   2.0000      -0.547200       -14.8901
  19   2.0000      -0.538225       -14.6459
  20   2.0000      -0.483572       -13.1587
  21   2.0000      -0.461738       -12.5645
  22   2.0000      -0.435286       -11.8447
  23   2.0000      -0.425155       -11.5690
  24   2.0000      -0.407946       -11.1008
  25   2.0000      -0.398815       -10.8523
  26   2.0000      -0.394026       -10.7220
  27   2.0000      -0.381455       -10.3799
  28   2.0000      -0.371959       -10.1215
  29   2.0000      -0.367687       -10.0053
  30   2.0000      -0.354075        -9.6349
  31   2.0000      -0.338685        -9.2161
  32   2.0000      -0.334722        -9.1083
  33   2.0000      -0.328629        -8.9424
  34   2.0000      -0.317949        -8.6518
  35   2.0000      -0.314407        -8.5554
  36   2.0000      -0.304944        -8.2980
  37   2.0000      -0.296911        -8.0794
  38   2.0000      -0.285238        -7.7617
  39   2.0000      -0.276281        -7.5180
  40   2.0000      -0.222239        -6.0474
  41   2.0000      -0.190365        -5.1801
  42   0.0000      -0.051109        -1.3907
  43   0.0000      -0.014520        -0.3951
  44   0.0000       0.032169         0.8754
  45   0.0000       0.039134         1.0649
  46   0.0000       0.050154         1.3648

MULLIKEN ATOMIC CHARGES
-----------------------
   0 C :   -0.191055
   1 C :   -0.210284
   2 H :    0.083193
   3 C :   -0.112036
   4 C :   -0.101711
   5 C :   -0.199274
   6 H :    0.062137
   7 C :   -0.039769
   8 C :    0.003096
   9 O :   -0.148111
  10 C :    0.001840
  11 C :   -0.254941
  12 C :   -0.215723
  13 H :    0.100190
  14 H :    0.106670
  15 H :    0.092365
  16 H :    0.080339
  17 H :    0.092529
  18 H :    0.089395
  19 H :    0.079411
  20 H :    0.085325
  21 H :    0.091777
  22 H :    0.086849
  23 H :    0.093844
  24 H :    0.115032
  25 H :    0.111271
  26 H :    0.097643
Sum of atomic charges:    0.0000000

LOEWDIN ATOMIC CHARGES
----------------------
   0 C :   -0.326656
   1 C :   -0.178338
   2 H :    0.130407
   3 C :   -0.208547
   4 C :   -0.210105
   5 C :   -0.127373
   6 H :    0.119963
   7 C :   -0.226419
   8 C :    0.048527
   9 O :   -0.115464
  10 C :   -0.047067
  11 C :   -0.264694
  12 C :   -0.321337
  13 H :    0.123616
  14 H :    0.124954
  15 H :    0.117318
  16 H :    0.119561
  17 H :    0.121302
  18 H :    0.122522
  19 H :    0.117353
  20 H :    0.128888
  21 H :    0.132793
  22 H :    0.120528
  23 H :    0.114877
  24 H :    0.130721
  25 H :    0.128860
  26 H :    0.123810

  Mayer bond orders larger than 0.100000
B(  0-C ,  1-C ) :   1.1210 B(  0-C , 13-H ) :   0.9439 B(  0-C , 14-H ) :   0.9462
B(  0-C , 15-H ) :   0.9450 B(  1-C ,  2-H ) :   0.8697 B(  1-C ,  3-C ) :   1.0788
B(  1-C ,  8-C ) :   0.9292 B(  3-C ,  4-C ) :   1.1282 B(  3-C , 16-H ) :   0.9040
B(  3-C , 17-H ) :   0.9147 B(  4-C ,  5-C ) :   1.0795 B(  4-C , 18-H ) :   0.9112
B(  4-C , 19-H ) :   0.9028 B(  5-C ,  6-H ) :   0.8850 B(  5-C ,  7-C ) :   1.0687
B(  5-C , 10-C ) :   0.9829 B(  7-C ,  8-C ) :   1.0395 B(  7-C , 20-H ) :   0.8935
B(  7-C , 21-H ) :   0.8765 B(  8-C ,  9-O ) :   2.2189 B( 10-C , 11-C ) :   2.0300
B( 10-C , 12-C ) :   1.1362 B( 11-C , 22-H ) :   0.9018 B( 11-C , 23-H ) :   0.9082
B( 12-C , 24-H ) :   0.9274 B( 12-C , 25-H ) :   0.9281 B( 12-C , 26-H ) :   0.9389

Dispersion correction           -0.028055581
FINAL SINGLE POINT ENERGY      -464.830897493038

DIPOLE MOMENT
-------------

Method             : SCF
Type of density    : Electron Density
Multiplicity       :   1
Irrep              :   0
Energy             :  -464.9167701381223878 Eh
Relativity type    :
Basis              : AO
                                X                 Y                 Z
Electronic contribution:     -3.123431636       4.954306233      -0.479600562
Nuclear contribution   :      3.688266016      -5.761111682       0.341225022
                        -----------------------------------------
Total Dipole Moment    :      0.564834380      -0.806805449      -0.138375540
                        -----------------------------------------
Magnitude (a.u.)       :      0.994545474
Magnitude (Debye)      :      2.527933697

Rotational constants in cm-1:             0.073634             0.021765             0.019467
Rotational constants in MHz :          2207.479351           652.490544           583.615584

                             ****ORCA TERMINATED NORMALLY****
TOTAL RUN TIME: 0 days 0 hours 0 minutes 26 seconds 136 msec
