                         Program Version 6.0.1  -  RELEASE   -
|  1> ! r2scan-3c def2/J RI DEFGRID2 scfconv6 printgap
|  2> %output
|  3>     printlevel normal
|  4> end
|  5> * xyz 0 1
|  6> C -1.9451186785 0.0995590807 0.0384760823
|  7> C -0.5600155193 -0.5311191192 -0.0123732759
|  8> C 0.5449922005 0.5224252761 -0.0174351407
|  9> N 1.8475238655 -0.1232310037 0.0403474984
| 10> H -2.1022574235 0.7483487518 -0.8210061679
| 11> H -2.7139986052 -0.6691848743 0.0331903756
| 12> H -2.0600452657 0.6950033438 0.941420197
| 13> H -0.4700344032 -1.1469328783 -0.91074306
| 14> H -0.4118235082 -1.1804855778 0.851399052
| 15> H 0.420306378 1.1728025796 -0.9015356697
| 16> H 0.4524321892 1.151000747 0.8732842109
| 17> H 2.5874866482 0.5702581051 0.0462760769
| 18> H 1.9817845737 -0.7111075166 -0.7762820767
| 19> *
| 20>
| 21>                          ****END OF INPUT****

CARTESIAN COORDINATES (ANGSTROEM)
---------------------------------
  C     -1.945119    0.099559    0.038476
  C     -0.560016   -0.531119   -0.012373
  C      0.544992    0.522425   -0.017435
  N      1.847524   -0.123231    0.040347
  H     -2.102257    0.748349   -0.821006
  H     -2.713999   -0.669185    0.033190
  H     -2.060045    0.695003    0.941420
  H     -0.470034   -1.146933   -0.910743
  H     -0.411824   -1.180486    0.851399
  H      0.420306    1.172803   -0.901536
  H      0.452432    1.151001    0.873284
  H      2.587487    0.570258    0.046276
  H      1.981785   -0.711108   -0.776282

 Total Charge           Charge          ....    0
 Multiplicity           Mult            ....    1
 Number of Electrons    NEL             ....   34
 Basis Dimension        Dim             ....  126

ORBITAL ENERGIES
----------------

  NO   OCC          E(Eh)            E(eV)
   0   2.0000     -14.132842      -384.5742
   1   2.0000     -10.046900      -273.3900
   2   2.0000     -10.021236      -272.6917
   3   2.0000     -10.015925      -272.5472
   4   2.0000      -0.844590       -22.9825
   5   2.0000      -0.732565       -19.9341
   6   2.0000      -0.623416       -16.9640
   7   2.0000      -0.549383       -14.9495
   8   2.0000      -0.452413       -12.3108
   9   2.0000      -0.431095       -11.7307
  10   2.0000      -0.410598       -11.1729
  11   2.0000      -0.374497       -10.1906
  12   2.0000      -0.347332        -9.4514
  13   2.0000      -0.320875        -8.7315
  14   2.0000      -0.301959        -8.2167
  15   2.0000      -0.297936        -8.1072
  16   2.0000      -0.202624        -5.5137
  17   0.0000       0.076919         2.0931
  18   0.0000       0.102388         2.7861
  19   0.0000       0.129507         3.5241
  20   0.0000       0.143925         3.9164
  21   0.0000       0.148568         4.0427

MULLIKEN ATOMIC CHARGES
-----------------------
   0 C :   -0.472334
   1 C :   -0.204464
   2 C :   -0.206892
   3 N :   -0.542822
   4 H :    0.139356
   5 H :    0.145613
   6 H :    0.142012
   7 H :    0.122824
   8 H :    0.151797
   9 H :    0.117728
  10 H :    0.134632
  11 H :    0.236536
  12 H :    0.236013
Sum of atomic charges:   -0.0000000

LOEWDIN ATOMIC CHARGES
----------------------
   0 C :   -0.425452
   1 C :   -0.292069
   2 C :   -0.075903
   3 N :   -0.750098
   4 H :    0.149347
   5 H :    0.151156
   6 H :    0.150290
   7 H :    0.148668
   8 H :    0.159391
   9 H :    0.145293
  10 H :    0.169178
  11 H :    0.235518
  12 H :    0.234682

  Mayer bond orders larger than 0.100000
B(  0-C ,  1-C ) :   0.9095 B(  0-C ,  4-H ) :   0.9793 B(  0-C ,  5-H ) :   0.9715
B(  0-C ,  6-H ) :   0.9839 B(  1-C ,  2-C ) :   0.9311 B(  1-C ,  7-H ) :   0.9548
B(  1-C ,  8-H ) :   0.9663 B(  2-C ,  3-N ) :   0.9294 B(  2-C ,  9-H ) :   0.9676
B(  2-C , 10-H ) :   0.9866 B(  3-N , 11-H ) :   0.9205 B(  3-N , 12-H ) :   0.9217

Dispersion correction           -0.002376078
FINAL SINGLE POINT ENERGY      -174.424225914510

DIPOLE MOMENT
-------------

Method             : SCF
Type of density    : Electron Density
Multiplicity       :   1
Irrep              :   0
Energy             :  -174.4310100541642612 Eh
Relativity type    :
Basis              : AO
                                X                 Y                 Z
Electronic contribution:      2.165935738      -0.355756840       0.231675817
Nuclear contribution   :     -2.162829202       0.590089897      -0.622716444
                        -----------------------------------------
Total Dipole Moment    :      0.003106535       0.234333057      -0.391040627
                        -----------------------------------------
Magnitude (a.u.)       :      0.455888587
Magnitude (Debye)      :      1.158776699

Rotational constants in cm-1:             0.838448             0.126149             0.117824
Rotational constants in MHz :         25136.045045          3781.861545          3532.268555

                             ****ORCA TERMINATED NORMALLY****
TOTAL RUN TIME: 0 days 0 hours 0 minutes 14 seconds 144 msec
