                         Program Version 6.0.1  -  RELEASE   -
|  1> ! pbe def2-sv(p) def2/J RI DEFGRID1 loosescf d4 GCP(DFT/SV(P)) printgap
|  2> %output
|  3>     printlevel normal
|  4> end
|  5> * xyz 0 1
|  6> C -2.7589598708 -0.7936992329 0.000182741
|  7> O -1.8007379515 0.2326385438 -0.0001364616
|  8> C -0.4833107149 -0.1126806434 -8.3896e-05
|  9> C 0.0070294701 -1.4089647869 -0.0001069309
| 10> C 1.3741254156 -1.6498847025 -2.5821e-05
| 11> C 2.2661948094 -0.5989644396 7.93754e-05
| 12> C 1.7895554883 0.7036455489 7.97036e-05
| 13> C 0.430511535 0.9593742627 -7.0619e-06
| 14> O -0.0720468791 2.2249877126 -1.03975e-05
| 15> H -2.6781783739 -1.4221968853 0.893777634
| 16> H -2.6786109479 -1.4223661563 -0.8933332778
| 17> H -3.7256236781 -0.2924111781 0.0003648408
| 18> H -0.6714793763 -2.2470650923 -0.0001948101
| 19> H 1.7312210341 -2.6683793301 -4.32217e-05
| 20> H 3.3297751105 -0.7805839896 0.0001593569
| 21> H 2.4817610643 1.5356363502 0.000158361
| 22> H 0.6562223957 2.857893427 3.4854e-05
| 23> *
| 24>
| 25>                          ****END OF INPUT****

CARTESIAN COORDINATES (ANGSTROEM)
---------------------------------
  C     -2.758960   -0.793699    0.000183
  O     -1.800738    0.232639   -0.000136
  C     -0.483311   -0.112681   -0.000084
  C      0.007029   -1.408965   -0.000107
  C      1.374125   -1.649885   -0.000026
  C      2.266195   -0.598964    0.000079
  C      1.789555    0.703646    0.000080
  C      0.430512    0.959374   -0.000007
  O     -0.072047    2.224988   -0.000010
  H     -2.678178   -1.422197    0.893778
  H     -2.678611   -1.422366   -0.893333
  H     -3.725624   -0.292411    0.000365
  H     -0.671479   -2.247065   -0.000195
  H      1.731221   -2.668379   -0.000043
  H      3.329775   -0.780584    0.000159
  H      2.481761    1.535636    0.000158
  H      0.656222    2.857893    0.000035

 Total Charge           Charge          ....    0
 Multiplicity           Mult            ....    1
 Number of Electrons    NEL             ....   66
 Basis Dimension        Dim             ....  142

ORBITAL ENERGIES
----------------

  NO   OCC          E(Eh)            E(eV)
   0   2.0000     -18.781899      -511.0815
   1   2.0000     -18.777607      -510.9647
   2   2.0000      -9.946433      -270.6562
   3   2.0000      -9.944443      -270.6021
   4   2.0000      -9.937057      -270.4011
   5   2.0000      -9.887743      -269.0592
   6   2.0000      -9.886697      -269.0307
   7   2.0000      -9.883623      -268.9471
   8   2.0000      -9.882419      -268.9143
   9   2.0000      -0.972327       -26.4584
  10   2.0000      -0.952735       -25.9252
  11   2.0000      -0.766258       -20.8509
  12   2.0000      -0.680869       -18.5274
  13   2.0000      -0.663501       -18.0548
  14   2.0000      -0.620573       -16.8867
  15   2.0000      -0.563501       -15.3336
  16   2.0000      -0.527853       -14.3636
  17   2.0000      -0.495948       -13.4954
  18   2.0000      -0.469042       -12.7633
  19   2.0000      -0.435383       -11.8474
  20   2.0000      -0.418164       -11.3788
  21   2.0000      -0.411608       -11.2004
  22   2.0000      -0.388501       -10.5716
  23   2.0000      -0.375699       -10.2233
  24   2.0000      -0.361577        -9.8390
  25   2.0000      -0.342398        -9.3171
  26   2.0000      -0.321376        -8.7451
  27   2.0000      -0.299411        -8.1474
  28   2.0000      -0.296646        -8.0722
  29   2.0000      -0.277549        -7.5525
  30   2.0000      -0.277228        -7.5438
  31   2.0000      -0.210066        -5.7162
  32   2.0000      -0.175429        -4.7737
  33   0.0000      -0.020768        -0.5651
  34   0.0000      -0.011867        -0.3229
  35   0.0000       0.026760         0.7282
  36   0.0000       0.042127         1.1463
  37   0.0000       0.056471         1.5366

MULLIKEN ATOMIC CHARGES
-----------------------
   0 C :   -0.115583
   1 O :   -0.254893
   2 C :    0.209172
   3 C :   -0.223497
   4 C :   -0.046963
   5 C :   -0.049467
   6 C :   -0.191438
   7 C :    0.189093
   8 O :   -0.325394
   9 H :    0.107988
  10 H :    0.107989
  11 H :    0.125016
  12 H :    0.037779
  13 H :    0.045450
  14 H :    0.045907
  15 H :    0.023718
  16 H :    0.315124
Sum of atomic charges:   -0.0000000

LOEWDIN ATOMIC CHARGES
----------------------
   0 C :   -0.203389
   1 O :   -0.080468
   2 C :    0.010736
   3 C :   -0.172211
   4 C :   -0.142051
   5 C :   -0.139654
   6 C :   -0.176520
   7 C :    0.008556
   8 O :   -0.229401
   9 H :    0.107330
  10 H :    0.107327
  11 H :    0.121867
  12 H :    0.127057
  13 H :    0.121789
  14 H :    0.122124
  15 H :    0.120001
  16 H :    0.296908

  Mayer bond orders larger than 0.100000
B(  0-C ,  1-O ) :   0.9974 B(  0-C ,  9-H ) :   0.9404 B(  0-C , 10-H ) :   0.9404
B(  0-C , 11-H ) :   0.9585 B(  1-O ,  2-C ) :   1.1714 B(  2-C ,  3-C ) :   1.3385
B(  2-C ,  7-C ) :   1.3338 B(  3-C ,  4-C ) :   1.3153 B(  3-C , 12-H ) :   0.9685
B(  4-C ,  5-C ) :   1.3939 B(  4-C , 13-H ) :   0.9671 B(  5-C ,  6-C ) :   1.3197
B(  5-C , 14-H ) :   0.9668 B(  6-C ,  7-C ) :   1.3677 B(  6-C , 15-H ) :   0.9626
B(  7-C ,  8-O ) :   1.2143 B(  8-O , 16-H ) :   0.8429

Dispersion correction           -0.016745003
FINAL SINGLE POINT ENERGY      -421.088325339500

DIPOLE MOMENT
-------------

Method             : SCF
Type of density    : Electron Density
Multiplicity       :   1
Irrep              :   0
Energy             :  -421.1466155634675488 Eh
Relativity type    :
Basis              : AO
                                X                 Y                 Z
Electronic contribution:      1.554057213       4.062754768      -0.000700389
Nuclear contribution   :     -1.486515696      -4.128575550       0.000864447
                        -----------------------------------------
Total Dipole Moment    :      0.067541517      -0.065820783       0.000164059
                        -----------------------------------------
Magnitude (a.u.)       :      0.094309378
Magnitude (Debye)      :      0.239715389

Rotational constants in cm-1:             0.086521             0.052244             0.032778
Rotational constants in MHz :          2593.824458          1566.233512           982.670218

                             ****ORCA TERMINATED NORMALLY****
TOTAL RUN TIME: 0 days 0 hours 0 minutes 11 seconds 617 msec
