                         Program Version 6.0.1  -  RELEASE   -
|  1> ! pbe def2-sv(p) def2/J RI DEFGRID1 loosescf d4 GCP(DFT/SV(P)) printgap
|  2> %output
|  3>     printlevel normal
|  4> end
|  5> * xyz 0 1
|  6> C -2.3348889127 -1.0431480156 0.361172703
|  7> C -1.0764674277 -0.2701384666 0.8030817334
|  8> H -1.3144487768 0.1945533563 1.7687328035
|  9> C -0.6863986408 0.8543551143 -0.1633063963
| 10> H -0.6824405543 0.5041008556 -1.2080238264
| 11> C 0.7422258919 1.2934534196 0.1786514203
| 12> H 0.7840007076 1.5378354535 1.2549768308
| 13> C 1.7252841191 0.1419869394 -0.1044711469
| 14> H 2.0678949157 0.2058323322 -1.1422833498
| 15> C 1.0009904072 -1.2147331867 0.0664718934
| 16> H 1.7208252868 -1.9560079187 0.4568231107
| 17> O 0.0122824828 -1.1533531883 1.0574897515
| 18> O 0.5181870361 -1.6130605048 -1.1749355398
| 19> O 2.8744293646 0.2438641823 0.6952256149
| 20> O 1.029693101 2.4456123295 -0.5794378712
| 21> O -1.6027749681 1.9056038021 -0.0113550186
| 22> O -2.2183856098 -1.6829904385 -0.8871469693
| 23> H -3.1782390883 -0.3448968682 0.3708586322
| 24> H -2.5141773652 -1.8404336156 1.0856703775
| 25> H -0.3147822372 -2.105042649 -1.0486332524
| 26> H 2.6426562506 0.0214121289 1.6052187587
| 27> H 1.9720414077 2.6309883242 -0.5001874512
| 28> H -1.1806196604 2.6964354362 -0.3728562124
| 29> H -2.2415816979 -1.0183562577 -1.5854463981
| 30> *
| 31>
| 32>                          ****END OF INPUT****

CARTESIAN COORDINATES (ANGSTROEM)
---------------------------------
  C     -2.334889   -1.043148    0.361173
  C     -1.076467   -0.270138    0.803082
  H     -1.314449    0.194553    1.768733
  C     -0.686399    0.854355   -0.163306
  H     -0.682441    0.504101   -1.208024
  C      0.742226    1.293453    0.178651
  H      0.784001    1.537835    1.254977
  C      1.725284    0.141987   -0.104471
  H      2.067895    0.205832   -1.142283
  C      1.000990   -1.214733    0.066472
  H      1.720825   -1.956008    0.456823
  O      0.012282   -1.153353    1.057490
  O      0.518187   -1.613061   -1.174936
  O      2.874429    0.243864    0.695226
  O      1.029693    2.445612   -0.579438
  O     -1.602775    1.905604   -0.011355
  O     -2.218386   -1.682990   -0.887147
  H     -3.178239   -0.344897    0.370859
  H     -2.514177   -1.840434    1.085670
  H     -0.314782   -2.105043   -1.048633
  H      2.642656    0.021412    1.605219
  H      1.972041    2.630988   -0.500187
  H     -1.180620    2.696435   -0.372856
  H     -2.241582   -1.018356   -1.585446

 Total Charge           Charge          ....    0
 Multiplicity           Mult            ....    1
 Number of Electrons    NEL             ....   96
 Basis Dimension        Dim             ....  192

ORBITAL ENERGIES
----------------

  NO   OCC          E(Eh)            E(eV)
   0   2.0000     -18.777395      -510.9589
   1   2.0000     -18.775995      -510.9208
   2   2.0000     -18.765144      -510.6255
   3   2.0000     -18.758128      -510.4346
   4   2.0000     -18.753775      -510.3162
   5   2.0000     -18.748613      -510.1757
   6   2.0000      -9.984063      -271.6802
   7   2.0000      -9.950779      -270.7745
   8   2.0000      -9.947993      -270.6986
   9   2.0000      -9.947668      -270.6898
  10   2.0000      -9.942366      -270.5455
  11   2.0000      -9.940880      -270.5051
  12   2.0000      -0.986730       -26.8503
  13   2.0000      -0.953028       -25.9332
  14   2.0000      -0.948036       -25.7974
  15   2.0000      -0.935795       -25.4643
  16   2.0000      -0.923366       -25.1261
  17   2.0000      -0.906427       -24.6651
  18   2.0000      -0.710646       -19.3377
  19   2.0000      -0.693654       -18.8753
  20   2.0000      -0.630364       -17.1531
  21   2.0000      -0.585982       -15.9454
  22   2.0000      -0.578017       -15.7286
  23   2.0000      -0.523848       -14.2546
  24   2.0000      -0.505998       -13.7689
  25   2.0000      -0.497208       -13.5297
  26   2.0000      -0.479794       -13.0559
  27   2.0000      -0.455520       -12.3953
  28   2.0000      -0.447546       -12.1784
  29   2.0000      -0.435460       -11.8495
  30   2.0000      -0.422394       -11.4939
  31   2.0000      -0.408959       -11.1283
  32   2.0000      -0.401372       -10.9219
  33   2.0000      -0.378690       -10.3047
  34   2.0000      -0.359912        -9.7937
  35   2.0000      -0.358588        -9.7577
  36   2.0000      -0.332500        -9.0478
  37   2.0000      -0.321366        -8.7448
  38   2.0000      -0.311624        -8.4797
  39   2.0000      -0.304904        -8.2969
  40   2.0000      -0.301330        -8.1996
  41   2.0000      -0.270289        -7.3549
  42   2.0000      -0.260212        -7.0807
  43   2.0000      -0.252700        -6.8763
  44   2.0000      -0.241734        -6.5779
  45   2.0000      -0.224538        -6.1100
  46   2.0000      -0.217853        -5.9281
  47   2.0000      -0.205904        -5.6029
  48   0.0000       0.014167         0.3855
  49   0.0000       0.020275         0.5517
  50   0.0000       0.031951         0.8694
  51   0.0000       0.053347         1.4516
  52   0.0000       0.068469         1.8631

MULLIKEN ATOMIC CHARGES
-----------------------
   0 C :    0.069072
   1 C :    0.033195
   2 H :    0.074538
   3 C :    0.021782
   4 H :    0.049782
   5 C :    0.044103
   6 H :    0.041813
   7 C :    0.079656
   8 H :    0.082227
   9 C :    0.138243
  10 H :    0.062139
  11 O :   -0.313563
  12 O :   -0.419650
  13 O :   -0.420574
  14 O :   -0.426631
  15 O :   -0.418677
  16 O :   -0.434682
  17 H :    0.098113
  18 H :    0.098820
  19 H :    0.298577
  20 H :    0.299912
  21 H :    0.313267
  22 H :    0.311650
  23 H :    0.316885
Sum of atomic charges:    0.0000000

LOEWDIN ATOMIC CHARGES
----------------------
   0 C :   -0.130657
   1 C :   -0.070686
   2 H :    0.122874
   3 C :   -0.083859
   4 H :    0.096824
   5 C :   -0.074947
   6 H :    0.100484
   7 C :   -0.091022
   8 H :    0.125493
   9 C :   -0.006724
  10 H :    0.094480
  11 O :   -0.145502
  12 O :   -0.327131
  13 O :   -0.314360
  14 O :   -0.324533
  15 O :   -0.322081
  16 O :   -0.312230
  17 H :    0.115804
  18 H :    0.121120
  19 H :    0.269091
  20 H :    0.283968
  21 H :    0.294006
  22 H :    0.287891
  23 H :    0.291697

  Mayer bond orders larger than 0.100000
B(  0-C ,  1-C ) :   1.0467 B(  0-C , 16-O ) :   1.0470 B(  0-C , 17-H ) :   0.9159
B(  0-C , 18-H ) :   0.9190 B(  1-C ,  2-H ) :   0.8686 B(  1-C ,  3-C ) :   0.9750
B(  1-C , 11-O ) :   0.9732 B(  3-C ,  4-H ) :   0.8550 B(  3-C ,  5-C ) :   1.0563
B(  3-C , 15-O ) :   1.0756 B(  5-C ,  6-H ) :   0.8593 B(  5-C ,  7-C ) :   1.0057
B(  5-C , 14-O ) :   1.0694 B(  7-C ,  8-H ) :   0.8625 B(  7-C ,  9-C ) :   0.9924
B(  7-C , 13-O ) :   1.0316 B(  9-C , 10-H ) :   0.8974 B(  9-C , 11-O ) :   1.0692
B(  9-C , 12-O ) :   1.0906 B( 12-O , 19-H ) :   0.7772 B( 13-O , 20-H ) :   0.8485
B( 14-O , 21-H ) :   0.8403 B( 15-O , 22-H ) :   0.8301 B( 16-O , 19-H ) :   0.1283
B( 16-O , 23-H ) :   0.8350

Dispersion correction           -0.025188054
FINAL SINGLE POINT ENERGY      -685.697024280047

DIPOLE MOMENT
-------------

Method             : SCF
Type of density    : Electron Density
Multiplicity       :   1
Irrep              :   0
Energy             :  -685.8306905978233772 Eh
Relativity type    :
Basis              : AO
                                X                 Y                 Z
Electronic contribution:      1.960414064      -0.005799386      -0.321113437
Nuclear contribution   :     -2.091354019       0.496030174       0.629170414
                        -----------------------------------------
Total Dipole Moment    :     -0.130939955       0.490230788       0.308056977
                        -----------------------------------------
Magnitude (a.u.)       :      0.593608118
Magnitude (Debye)      :      1.508831928

Rotational constants in cm-1:             0.042411             0.028368             0.020744
Rotational constants in MHz :          1271.452421           850.442769           621.881239

                             ****ORCA TERMINATED NORMALLY****
TOTAL RUN TIME: 0 days 0 hours 0 minutes 10 seconds 84 msec
