                         Program Version 6.0.1  -  RELEASE   -
|  1> ! pbe def2-sv(p) def2/J RI DEFGRID1 loosescf d4 GCP(DFT/SV(P)) printgap
|  2> %output
|  3>     printlevel normal
|  4> end
|  5> * xyz 0 1
|  6> C -1.7365333487 -1.0523004145 -0.6732177676
|  7> C -1.0459889296 -0.5058522575 0.5915888437
|  8> H -1.718867237 -0.6277297671 1.4516168603
|  9> C -0.7339217816 0.9966533204 0.4589891644
| 10> H -1.619527042 1.4789634577 0.0249076205
| 11> C 0.480688407 1.2436227676 -0.4548666151
| 12> H 0.8029088777 2.286902256 -0.2906358781
| 13> C 1.6576035595 0.3516109744 -0.0317571373
| 14> H 2.3972063591 0.3661391155 -0.8430876015
| 15> C 1.2430884622 -1.1175108701 0.1770250859
| 16> H 2.0249101962 -1.6103676493 0.7895713031
| 17> O 0.09212508 -1.2759122715 0.9550481676
| 18> O 1.1588719128 -1.730302554 -1.0707090064
| 19> O 2.1763943134 0.8955796878 1.1617748963
| 20> O 0.2240675453 1.0162921925 -1.8136182063
| 21> O -0.5418937957 1.5972671335 1.7115723172
| 22> O -2.9366819144 -0.3745720281 -0.9494143474
| 23> H -1.9130668711 -2.1291009864 -0.5366019621
| 24> H -1.0952398647 -0.9042669628 -1.5439517106
| 25> H 0.8213706114 -2.626987595 -0.9572952279
| 26> H 2.9606731991 0.4016230004 1.4252062679
| 27> H -0.58859715 1.4738900634 -2.0594913895
| 28> H 0.3387025423 1.3487449888 2.0286081418
| 29> H -3.5452858632 -0.4969192113 -0.2114861776
| 30> *
| 31>
| 32>                          ****END OF INPUT****

CARTESIAN COORDINATES (ANGSTROEM)
---------------------------------
  C     -1.736533   -1.052300   -0.673218
  C     -1.045989   -0.505852    0.591589
  H     -1.718867   -0.627730    1.451617
  C     -0.733922    0.996653    0.458989
  H     -1.619527    1.478963    0.024908
  C      0.480688    1.243623   -0.454867
  H      0.802909    2.286902   -0.290636
  C      1.657604    0.351611   -0.031757
  H      2.397206    0.366139   -0.843088
  C      1.243088   -1.117511    0.177025
  H      2.024910   -1.610368    0.789571
  O      0.092125   -1.275912    0.955048
  O      1.158872   -1.730303   -1.070709
  O      2.176394    0.895580    1.161775
  O      0.224068    1.016292   -1.813618
  O     -0.541894    1.597267    1.711572
  O     -2.936682   -0.374572   -0.949414
  H     -1.913067   -2.129101   -0.536602
  H     -1.095240   -0.904267   -1.543952
  H      0.821371   -2.626988   -0.957295
  H      2.960673    0.401623    1.425206
  H     -0.588597    1.473890   -2.059491
  H      0.338703    1.348745    2.028608
  H     -3.545286   -0.496919   -0.211486

 Total Charge           Charge          ....    0
 Multiplicity           Mult            ....    1
 Number of Electrons    NEL             ....   96
 Basis Dimension        Dim             ....  192

ORBITAL ENERGIES
----------------

  NO   OCC          E(Eh)            E(eV)
   0   2.0000     -18.777054      -510.9496
   1   2.0000     -18.772578      -510.8278
   2   2.0000     -18.762739      -510.5601
   3   2.0000     -18.755331      -510.3585
   4   2.0000     -18.752752      -510.2883
   5   2.0000     -18.734126      -509.7815
   6   2.0000      -9.991145      -271.8729
   7   2.0000      -9.950050      -270.7546
   8   2.0000      -9.943434      -270.5746
   9   2.0000      -9.938335      -270.4358
  10   2.0000      -9.934757      -270.3385
  11   2.0000      -9.924338      -270.0550
  12   2.0000      -0.986342       -26.8397
  13   2.0000      -0.951391       -25.8887
  14   2.0000      -0.935641       -25.4601
  15   2.0000      -0.929292       -25.2873
  16   2.0000      -0.920407       -25.0455
  17   2.0000      -0.908798       -24.7297
  18   2.0000      -0.697356       -18.9760
  19   2.0000      -0.694100       -18.8874
  20   2.0000      -0.614024       -16.7084
  21   2.0000      -0.595496       -16.2043
  22   2.0000      -0.572290       -15.5728
  23   2.0000      -0.529722       -14.4145
  24   2.0000      -0.490542       -13.3483
  25   2.0000      -0.485129       -13.2010
  26   2.0000      -0.480571       -13.0770
  27   2.0000      -0.458270       -12.4702
  28   2.0000      -0.452695       -12.3184
  29   2.0000      -0.428795       -11.6681
  30   2.0000      -0.417105       -11.3500
  31   2.0000      -0.393198       -10.6995
  32   2.0000      -0.383232       -10.4283
  33   2.0000      -0.368281       -10.0214
  34   2.0000      -0.364395        -9.9157
  35   2.0000      -0.344403        -9.3717
  36   2.0000      -0.341860        -9.3025
  37   2.0000      -0.316110        -8.6018
  38   2.0000      -0.314357        -8.5541
  39   2.0000      -0.295496        -8.0409
  40   2.0000      -0.289246        -7.8708
  41   2.0000      -0.258061        -7.0222
  42   2.0000      -0.250934        -6.8283
  43   2.0000      -0.245490        -6.6801
  44   2.0000      -0.232003        -6.3131
  45   2.0000      -0.229328        -6.2403
  46   2.0000      -0.216051        -5.8790
  47   2.0000      -0.195542        -5.3210
  48   0.0000       0.007388         0.2010
  49   0.0000       0.018477         0.5028
  50   0.0000       0.026238         0.7140
  51   0.0000       0.039545         1.0761
  52   0.0000       0.068171         1.8550

MULLIKEN ATOMIC CHARGES
-----------------------
   0 C :   -0.014208
   1 C :    0.019919
   2 H :    0.064146
   3 C :    0.043923
   4 H :    0.061845
   5 C :    0.034267
   6 H :    0.080482
   7 C :    0.032046
   8 H :    0.090077
   9 C :    0.191673
  10 H :    0.042600
  11 O :   -0.311889
  12 O :   -0.381242
  13 O :   -0.421174
  14 O :   -0.391856
  15 O :   -0.425543
  16 O :   -0.428499
  17 H :    0.067012
  18 H :    0.124100
  19 H :    0.301557
  20 H :    0.309710
  21 H :    0.312426
  22 H :    0.300455
  23 H :    0.298175
Sum of atomic charges:   -0.0000000

LOEWDIN ATOMIC CHARGES
----------------------
   0 C :   -0.159374
   1 C :   -0.075945
   2 H :    0.111123
   3 C :   -0.080784
   4 H :    0.110817
   5 C :   -0.070262
   6 H :    0.106685
   7 C :   -0.074570
   8 H :    0.118077
   9 C :   -0.009566
  10 H :    0.086040
  11 O :   -0.140132
  12 O :   -0.300773
  13 O :   -0.305073
  14 O :   -0.300820
  15 O :   -0.319929
  16 O :   -0.330656
  17 H :    0.091528
  18 H :    0.119344
  19 H :    0.284678
  20 H :    0.291369
  21 H :    0.291718
  22 H :    0.272440
  23 H :    0.284064

  Mayer bond orders larger than 0.100000
B(  0-C ,  1-C ) :   1.0301 B(  0-C , 16-O ) :   1.0414 B(  0-C , 17-H ) :   0.9131
B(  0-C , 18-H ) :   0.8883 B(  1-C ,  2-H ) :   0.8962 B(  1-C ,  3-C ) :   0.9890
B(  1-C , 11-O ) :   0.9868 B(  3-C ,  4-H ) :   0.8809 B(  3-C ,  5-C ) :   0.9847
B(  3-C , 15-O ) :   1.0631 B(  5-C ,  6-H ) :   0.9015 B(  5-C ,  7-C ) :   1.0017
B(  5-C , 14-O ) :   1.0921 B(  7-C ,  8-H ) :   0.8874 B(  7-C ,  9-C ) :   0.9753
B(  7-C , 13-O ) :   1.0181 B(  9-C , 10-H ) :   0.9006 B(  9-C , 11-O ) :   1.0744
B(  9-C , 12-O ) :   1.1349 B( 12-O , 19-H ) :   0.8342 B( 13-O , 20-H ) :   0.8414
B( 14-O , 21-H ) :   0.8360 B( 15-O , 22-H ) :   0.8193 B( 16-O , 23-H ) :   0.8503

Dispersion correction           -0.025991204
FINAL SINGLE POINT ENERGY      -685.692307512005

DIPOLE MOMENT
-------------

Method             : SCF
Type of density    : Electron Density
Multiplicity       :   1
Irrep              :   0
Energy             :  -685.8241104166568221 Eh
Relativity type    :
Basis              : AO
                                X                 Y                 Z
Electronic contribution:      1.399937320       0.247226989       0.963914324
Nuclear contribution   :     -1.062085759      -0.972959813      -0.678038224
                        -----------------------------------------
Total Dipole Moment    :      0.337851560      -0.725732824       0.285876100
                        -----------------------------------------
Magnitude (a.u.)       :      0.850033502
Magnitude (Debye)      :      2.160613454

Rotational constants in cm-1:             0.040437             0.029157             0.025116
Rotational constants in MHz :          1212.281432           874.110742           752.965247

                             ****ORCA TERMINATED NORMALLY****
TOTAL RUN TIME: 0 days 0 hours 0 minutes 8 seconds 868 msec
