                         Program Version 6.0.0  -   RELEASE  -
|  1> ! r2SCAN-3c DEF2-TZVP FREQ
|  2> * xyzfile 0 1 censo.xyz
|  3>
|  4>                          ****END OF INPUT****

CARTESIAN COORDINATES (ANGSTROEM)
---------------------------------
  C     -2.521079   -1.053800    0.003733
  C     -1.225968   -0.290747   -0.004767
  C     -1.206256    1.104839   -0.003778
  C      0.007634    1.792674    0.000851
  C      1.210426    1.096632    0.003700
  C      1.218030   -0.304651    0.001512
  C     -0.004478   -0.976647   -0.002978
  C      2.519223   -1.057353    0.000010
  H     -3.375959   -0.385668   -0.127120
  H     -2.542295   -1.803303   -0.794272
  H     -2.652302   -1.590539    0.950352
  H     -2.142914    1.655603   -0.007194
  H      0.011533    2.878866    0.000835
  H      2.153289    1.637460    0.005936
  H     -0.010892   -2.064804   -0.005388
  H      3.129397   -0.788558    0.869228
  H      2.353997   -2.137534    0.019055
  H      3.110042   -0.817818   -0.891071

 Total Charge           Charge          ....    0
 Multiplicity           Mult            ....    1
 Number of Electrons    NEL             ....   58
 Basis Dimension        Dim             ....  308

ORBITAL ENERGIES
----------------

  NO   OCC          E(Eh)            E(eV)
   0   2.0000     -10.042117      -273.2599
   1   2.0000     -10.041783      -273.2508
   2   2.0000     -10.031489      -272.9707
   3   2.0000     -10.028765      -272.8966
   4   2.0000     -10.028621      -272.8927
   5   2.0000     -10.027304      -272.8568
   6   2.0000     -10.026982      -272.8481
   7   2.0000     -10.026875      -272.8451
   8   2.0000      -0.821248       -22.3473
   9   2.0000      -0.746726       -20.3195
  10   2.0000      -0.722668       -19.6648
  11   2.0000      -0.656427       -17.8623
  12   2.0000      -0.644554       -17.5392
  13   2.0000      -0.561817       -15.2878
  14   2.0000      -0.535893       -14.5824
  15   2.0000      -0.467776       -12.7288
  16   2.0000      -0.434734       -11.8297
  17   2.0000      -0.411829       -11.2064
  18   2.0000      -0.394236       -10.7277
  19   2.0000      -0.382825       -10.4172
  20   2.0000      -0.377852       -10.2819
  21   2.0000      -0.369910       -10.0658
  22   2.0000      -0.363622        -9.8946
  23   2.0000      -0.341514        -9.2931
  24   2.0000      -0.317301        -8.6342
  25   2.0000      -0.305012        -8.2998
  26   2.0000      -0.301748        -8.2110
  27   2.0000      -0.226080        -6.1520
  28   2.0000      -0.217536        -5.9195
  29   0.0000      -0.030535        -0.8309
  30   0.0000      -0.025490        -0.6936
  31   0.0000       0.054910         1.4942
  32   0.0000       0.072636         1.9765
  33   0.0000       0.077153         2.0994

MULLIKEN ATOMIC CHARGES
-----------------------
   0 C :   -0.348064
   1 C :    0.227269
   2 C :   -0.221326
   3 C :   -0.059993
   4 C :   -0.238827
   5 C :    0.237475
   6 C :   -0.321315
   7 C :   -0.346673
   8 H :    0.108286
   9 H :    0.115512
  10 H :    0.118214
  11 H :    0.095967
  12 H :    0.104080
  13 H :    0.099251
  14 H :    0.088928
  15 H :    0.116947
  16 H :    0.106926
  17 H :    0.117342
Sum of atomic charges:   -0.0000000

LOEWDIN ATOMIC CHARGES
----------------------
   0 C :   -0.254463
   1 C :   -0.171577
   2 C :   -0.127629
   3 C :   -0.140572
   4 C :   -0.123946
   5 C :   -0.171665
   6 C :   -0.096920
   7 C :   -0.254289
   8 H :    0.125239
   9 H :    0.128687
  10 H :    0.130058
  11 H :    0.142321
  12 H :    0.142023
  13 H :    0.143543
  14 H :    0.145257
  15 H :    0.129482
  16 H :    0.124763
  17 H :    0.129688

  Mayer bond orders larger than 0.100000
B(  0-C ,  1-C ) :   0.9048 B(  0-C ,  8-H ) :   0.9893 B(  0-C ,  9-H ) :   0.9719
B(  0-C , 10-H ) :   0.9615 B(  1-C ,  2-C ) :   1.3651 B(  1-C ,  6-C ) :   1.3213
B(  2-C ,  3-C ) :   1.3786 B(  2-C , 11-H ) :   0.9749 B(  3-C ,  4-C ) :   1.4168
B(  3-C , 12-H ) :   0.9723 B(  4-C ,  5-C ) :   1.3034 B(  4-C , 13-H ) :   0.9837
B(  5-C ,  6-C ) :   1.3888 B(  5-C ,  7-C ) :   0.8995 B(  6-C , 14-H ) :   0.9858
B(  7-C , 15-H ) :   0.9675 B(  7-C , 16-H ) :   0.9904 B(  7-C , 17-H ) :   0.9653

Dispersion correction           -0.005560575
FINAL SINGLE POINT ENERGY      -310.809329697494

DIPOLE MOMENT
-------------

Method             : SCF
Type of density    : Electron Density
Multiplicity       :   1
Irrep              :   0
Energy             :  -310.8095709678381695 Eh
Relativity type    :
Basis              : AO
                                X                 Y                 Z
Electronic contribution:     -0.012313890       3.079155102      -0.013409371
Nuclear contribution   :      0.031401809      -3.230816883       0.019112395
                        -----------------------------------------
Total Dipole Moment    :      0.019087919      -0.151661781       0.005703025
                        -----------------------------------------
Magnitude (a.u.)       :      0.152964601
Magnitude (Debye)      :      0.388805116

VIBRATIONAL FREQUENCIES
-----------------------

Scaling factor for frequencies =  1.000000000  (already applied!)

     0:       0.00 cm**-1
     1:       0.00 cm**-1
     2:       0.00 cm**-1
     3:       0.00 cm**-1
     4:       0.00 cm**-1
     5:       0.00 cm**-1
     6:      77.44 cm**-1
     7:      82.69 cm**-1
     8:     197.68 cm**-1
     9:     223.19 cm**-1
    10:     278.40 cm**-1
    11:     409.91 cm**-1
    12:     440.15 cm**-1
    13:     524.67 cm**-1
    14:     528.93 cm**-1
    15:     545.19 cm**-1
    16:     713.69 cm**-1
    17:     739.76 cm**-1
    18:     774.52 cm**-1
    19:     876.54 cm**-1
    20:     884.35 cm**-1
    21:     921.96 cm**-1
    22:     955.43 cm**-1
    23:     997.77 cm**-1
    24:    1016.37 cm**-1
    25:    1034.77 cm**-1
    26:    1053.10 cm**-1
    27:    1054.70 cm**-1
    28:    1117.98 cm**-1
    29:    1176.86 cm**-1
    30:    1192.06 cm**-1
    31:    1271.40 cm**-1
    32:    1322.76 cm**-1
    33:    1344.55 cm**-1
    34:    1398.50 cm**-1
    35:    1401.15 cm**-1
    36:    1442.02 cm**-1
    37:    1475.46 cm**-1
    38:    1476.40 cm**-1
    39:    1480.87 cm**-1
    40:    1500.86 cm**-1
    41:    1517.82 cm**-1
    42:    1617.31 cm**-1
    43:    1635.52 cm**-1
    44:    3005.36 cm**-1
    45:    3005.93 cm**-1
    46:    3066.66 cm**-1
    47:    3067.46 cm**-1
    48:    3098.85 cm**-1
    49:    3100.81 cm**-1
    50:    3135.40 cm**-1
    51:    3143.95 cm**-1
    52:    3152.54 cm**-1
    53:    3169.20 cm**-1

IR SPECTRUM
-----------

 Mode   freq       eps      Int      T**2         TX        TY        TZ
       cm**-1   L/(mol*cm) km/mol    a.u.
----------------------------------------------------------------------------
  6:     77.44   0.000041    0.21  0.000167  (-0.000573 -0.000650 -0.012883)
  7:     82.69   0.000047    0.24  0.000179  (-0.002454  0.004468  0.012360)
  8:    197.68   0.000854    4.31  0.001348  ( 0.000471 -0.000516  0.036706)
  9:    223.19   0.000004    0.02  0.000005  (-0.000487 -0.000474  0.002207)
 10:    278.40   0.000100    0.51  0.000112  ( 0.002720  0.010243  0.000099)
 11:    409.91   0.000083    0.42  0.000063  (-0.007550  0.002346  0.000843)
 12:    440.15   0.001113    5.63  0.000789  (-0.000134 -0.000282  0.028092)
 13:    524.67   0.000106    0.53  0.000063  ( 0.007822 -0.001066 -0.000702)
 14:    528.93   0.000011    0.06  0.000007  ( 0.002459 -0.000321  0.000603)
 15:    545.19   0.000014    0.07  0.000008  ( 0.001940  0.002121 -0.000173)
 16:    713.69   0.003146   15.90  0.001376  ( 0.000589  0.000155 -0.037084)
 17:    739.76   0.000014    0.07  0.000006  (-0.000977 -0.001750  0.001368)
 18:    774.52   0.006911   34.93  0.002785  ( 0.000289  0.000396  0.052767)
 19:    876.54   0.000442    2.23  0.000157  (-0.000901 -0.000442 -0.012502)
 20:    884.35   0.000006    0.03  0.000002  ( 0.000570  0.000098  0.001345)
 21:    921.96   0.000634    3.20  0.000215  ( 0.014045  0.004024 -0.001041)
 22:    955.43   0.000013    0.07  0.000004  ( 0.000589  0.000067  0.001991)
 23:    997.77   0.000827    4.18  0.000259  (-0.015849  0.002726  0.000187)
 24:   1016.37   0.000085    0.43  0.000026  (-0.003168  0.003968 -0.000425)
 25:   1034.77   0.000265    1.34  0.000080  (-0.006687  0.005862  0.000895)
 26:   1053.10   0.001151    5.82  0.000341  ( 0.003974  0.001551 -0.017971)
 27:   1054.70   0.000126    0.63  0.000037  ( 0.003984  0.003139 -0.003384)
 28:   1117.98   0.000857    4.33  0.000239  ( 0.004068  0.014924 -0.000036)
 29:   1176.86   0.000028    0.14  0.000007  ( 0.002522  0.000768 -0.000666)
 30:   1192.06   0.000303    1.53  0.000079  (-0.008836 -0.001059  0.000147)
 31:   1271.40   0.000150    0.76  0.000037  ( 0.000645 -0.006012  0.000591)
 32:   1322.76   0.000107    0.54  0.000025  ( 0.000672  0.004967 -0.000167)
 33:   1344.55   0.000036    0.18  0.000008  ( 0.001351  0.002575 -0.000072)
 34:   1398.50   0.000480    2.42  0.000107  ( 0.010007  0.002573 -0.000534)
 35:   1401.15   0.000231    1.17  0.000051  ( 0.002399 -0.006746  0.000362)
 36:   1442.02   0.000078    0.40  0.000017  (-0.002989 -0.002737 -0.000746)
 37:   1475.46   0.002430   12.28  0.000514  (-0.000559  0.000338  0.022659)
 38:   1476.40   0.000350    1.77  0.000074  ( 0.002205 -0.000979 -0.008250)
 39:   1480.87   0.000306    1.55  0.000065  ( 0.006646 -0.000437  0.004496)
 40:   1500.86   0.004063   20.53  0.000845  (-0.001564  0.029018 -0.000610)
 41:   1517.82   0.003586   18.12  0.000737  (-0.027056 -0.002264  0.000284)
 42:   1617.31   0.001082    5.47  0.000209  ( 0.002155  0.014287 -0.000096)
 43:   1635.52   0.005097   25.76  0.000973  ( 0.031183 -0.000430 -0.000204)
 44:   3005.36   0.009323   47.12  0.000968  (-0.031082  0.000305  0.001369)
 45:   3005.93   0.003030   15.31  0.000315  (-0.003719 -0.017287  0.001373)
 46:   3066.66   0.002567   12.97  0.000261  ( 0.000293 -0.000338  0.016157)
 47:   3067.46   0.003328   16.82  0.000339  (-0.002760 -0.001639 -0.018117)
 48:   3098.85   0.002972   15.02  0.000299  (-0.004638 -0.016667 -0.000042)
 49:   3100.81   0.003274   16.54  0.000329  ( 0.012647 -0.013019  0.000141)
 50:   3135.40   0.003856   19.49  0.000384  ( 0.000282 -0.019589 -0.000043)
 51:   3143.95   0.000265    1.34  0.000026  ( 0.003924 -0.003296  0.000013)
 52:   3152.54   0.004457   22.53  0.000441  (-0.020945 -0.001587 -0.000085)
 53:   3169.20   0.003879   19.60  0.000382  (-0.001485  0.019487 -0.000006)

--------------------------
THERMOCHEMISTRY AT 298.15K
--------------------------

Temperature         ...   298.15 K
Pressure            ...     1.00 atm
Total Mass          ...   106.17 AMU
Quasi RRHO          ...     True
Cut-Off Frequency   ...     1.00 cm^-1

Throughout the following assumptions are being made:
  (1) The electronic state is orbitally nondegenerate
  (2) There are no thermally accessible electronically excited states
  (3) Hindered rotations indicated by low frequency modes are not
      treated as such but are treated as vibrations and this may
      cause some error
  (4) All equations used are the standard statistical mechanics
      equations for an ideal gas
  (5) All vibrations are strictly harmonic

freq.      77.44  E(vib)   ...       0.49
freq.      82.69  E(vib)   ...       0.48
freq.     197.68  E(vib)   ...       0.35
freq.     223.19  E(vib)   ...       0.33
freq.     278.40  E(vib)   ...       0.28
freq.     409.91  E(vib)   ...       0.19
freq.     440.15  E(vib)   ...       0.17
freq.     524.67  E(vib)   ...       0.13
freq.     528.93  E(vib)   ...       0.13
freq.     545.19  E(vib)   ...       0.12
freq.     713.69  E(vib)   ...       0.07
freq.     739.76  E(vib)   ...       0.06
freq.     774.52  E(vib)   ...       0.05
freq.     876.54  E(vib)   ...       0.04
freq.     884.35  E(vib)   ...       0.04
freq.     921.96  E(vib)   ...       0.03
freq.     955.43  E(vib)   ...       0.03
freq.     997.77  E(vib)   ...       0.02
freq.    1016.37  E(vib)   ...       0.02
freq.    1034.77  E(vib)   ...       0.02
freq.    1053.10  E(vib)   ...       0.02
freq.    1054.70  E(vib)   ...       0.02
freq.    1117.98  E(vib)   ...       0.01
freq.    1176.86  E(vib)   ...       0.01
freq.    1192.06  E(vib)   ...       0.01
freq.    1271.40  E(vib)   ...       0.01
freq.    1322.76  E(vib)   ...       0.01
freq.    1344.55  E(vib)   ...       0.01
freq.    1398.50  E(vib)   ...       0.00
freq.    1401.15  E(vib)   ...       0.00
freq.    1442.02  E(vib)   ...       0.00
freq.    1475.46  E(vib)   ...       0.00
freq.    1476.40  E(vib)   ...       0.00
freq.    1480.87  E(vib)   ...       0.00
freq.    1500.86  E(vib)   ...       0.00
freq.    1517.82  E(vib)   ...       0.00
freq.    1617.31  E(vib)   ...       0.00
freq.    1635.52  E(vib)   ...       0.00
freq.    3005.36  E(vib)   ...       0.00
freq.    3005.93  E(vib)   ...       0.00
freq.    3066.66  E(vib)   ...       0.00
freq.    3067.46  E(vib)   ...       0.00
freq.    3098.85  E(vib)   ...       0.00
freq.    3100.81  E(vib)   ...       0.00
freq.    3135.40  E(vib)   ...       0.00
freq.    3143.95  E(vib)   ...       0.00
freq.    3152.54  E(vib)   ...       0.00
freq.    3169.20  E(vib)   ...       0.00

------------
INNER ENERGY
------------

The inner energy is: U= E(el) + E(ZPE) + E(vib) + E(rot) + E(trans)
    E(el)   - is the total energy from the electronic structure calculation
              = E(kin-el) + E(nuc-el) + E(el-el) + E(nuc-nuc)
    E(ZPE)  - the the zero temperature vibrational energy from the frequency calculation
    E(vib)  - the the finite temperature correction to E(ZPE) due to population
              of excited vibrational states
    E(rot)  - is the rotational thermal energy
    E(trans)- is the translational thermal energy

Summary of contributions to the inner energy U:
Electronic energy                ...   -310.80932970 Eh
Zero point energy                ...      0.15411556 Eh      96.71 kcal/mol
Thermal vibrational correction   ...      0.00506779 Eh       3.18 kcal/mol
Thermal rotational correction    ...      0.00141627 Eh       0.89 kcal/mol
Thermal translational correction ...      0.00141627 Eh       0.89 kcal/mol
-----------------------------------------------------------------------
Total thermal energy                   -310.64731380 Eh

Summary of corrections to the electronic energy:
(perhaps to be used in another calculation)
Total thermal correction                  0.00790033 Eh       4.96 kcal/mol
Non-thermal (ZPE) correction              0.15411556 Eh      96.71 kcal/mol
-----------------------------------------------------------------------
Total correction                          0.16201589 Eh     101.67 kcal/mol

--------
ENTHALPY
--------

The enthalpy is H = U + kB*T
                kB is Boltzmann's constant
Total thermal energy              ...   -310.64731380 Eh
Thermal Enthalpy correction       ...      0.00094421 Eh       0.59 kcal/mol
-----------------------------------------------------------------------
Total Enthalpy                    ...   -310.64636960 Eh

Note: Only C1 symmetry has been detected, increase convergence thresholds
      if your molecule has a higher symmetry. Symmetry factor of 1.0 is
      used for the rotational entropy correction.

Note: Rotational entropy computed according to Herzberg
Infrared and Raman Spectra, Chapter V,1, Van Nostrand Reinhold, 1945
Point Group:  C1, Symmetry Number:   1
Rotational constants in cm-1:     0.119401     0.058892     0.040025

Vibrational entropy computed according to the QRRHO of S. Grimme
Chem.Eur.J. 2012 18 9955 using a reference frequency of 100.0 cm-1

-------
ENTROPY
-------

The entropy contributions are T*S = T*(S(el)+S(vib)+S(rot)+S(trans))
     S(el)   - electronic entropy
     S(vib)  - vibrational entropy
     S(rot)  - rotational entropy
     S(trans)- translational entropy
The entropies will be listed as multiplied by the temperature to get
units of energy

Electronic entropy                ...      0.00000000 Eh      0.00 kcal/mol
Vibrational entropy               ...      0.00848504 Eh      5.32 kcal/mol
Rotational entropy                ...      0.01337042 Eh      8.39 kcal/mol
Translational entropy             ...      0.01895601 Eh     11.90 kcal/mol
-----------------------------------------------------------------------
Final entropy term                ...      0.04081146 Eh     25.61 kcal/mol

In case the symmetry of your molecule has not been determined correctly
or in case you have a reason to use a different symmetry number we print
out the resulting rotational entropy values for sn=1,12:

 non-linear molecules -----------------------------------
|  sn= 1 | S(rot)=       0.01337042 Eh      8.39 kcal/mol|
|  sn= 2 | S(rot)=       0.01271596 Eh      7.98 kcal/mol|
|  sn= 3 | S(rot)=       0.01233313 Eh      7.74 kcal/mol|
|  sn= 4 | S(rot)=       0.01206150 Eh      7.57 kcal/mol|
|  sn= 5 | S(rot)=       0.01185082 Eh      7.44 kcal/mol|
|  sn= 6 | S(rot)=       0.01167867 Eh      7.33 kcal/mol|
|  sn= 7 | S(rot)=       0.01153313 Eh      7.24 kcal/mol|
|  sn= 8 | S(rot)=       0.01140705 Eh      7.16 kcal/mol|
|  sn= 9 | S(rot)=       0.01129584 Eh      7.09 kcal/mol|
|  sn=10 | S(rot)=       0.01119636 Eh      7.03 kcal/mol|
|  sn=11 | S(rot)=       0.01110637 Eh      6.97 kcal/mol|
|  sn=12 | S(rot)=       0.01102422 Eh      6.92 kcal/mol|

                             ****ORCA TERMINATED NORMALLY****
TOTAL RUN TIME: 0 days 0 hours 14 minutes 42 seconds 62 msec
