                         Program Version 6.0.0  -   RELEASE  -
|  1> ! r2SCAN-3c DEF2-TZVP FREQ
|  2> * xyzfile 0 1 vacuum_censo.xyz
|  3>
|  4>                          ****END OF INPUT****

CARTESIAN COORDINATES (ANGSTROEM)
---------------------------------
  C     -2.519331    1.057062   -0.000037
  C     -1.216633    0.303983    0.000221
  C     -1.208794   -1.095351    0.000754
  C     -0.007842   -1.791009    0.000232
  C      1.204164   -1.103416   -0.000779
  C      1.224281    0.289999   -0.001069
  C      0.004236    0.974701   -0.000751
  C      2.520313    1.054557    0.000787
  H     -3.117961    0.806557   -0.882536
  H     -3.119585    0.804394    0.880721
  H     -2.355475    2.137404    0.001396
  H     -2.151241   -1.636567    0.001148
  H     -0.011741   -2.876769    0.000209
  H      2.140232   -1.654638   -0.001504
  H      0.010689    2.062893   -0.001452
  H      2.609196    1.675219    0.899143
  H      3.379652    0.380408   -0.029901
  H      2.583351    1.724421   -0.863472

 Total Charge           Charge          ....    0
 Multiplicity           Mult            ....    1
 Number of Electrons    NEL             ....   58
 Basis Dimension        Dim             ....  308

ORBITAL ENERGIES
----------------

  NO   OCC          E(Eh)            E(eV)
   0   2.0000     -10.041709      -273.2488
   1   2.0000     -10.041370      -273.2396
   2   2.0000     -10.030934      -272.9556
   3   2.0000     -10.028706      -272.8950
   4   2.0000     -10.028572      -272.8913
   5   2.0000     -10.026832      -272.8440
   6   2.0000     -10.026476      -272.8343
   7   2.0000     -10.026389      -272.8319
   8   2.0000      -0.822016       -22.3682
   9   2.0000      -0.746703       -20.3188
  10   2.0000      -0.722914       -19.6715
  11   2.0000      -0.656571       -17.8662
  12   2.0000      -0.644746       -17.5444
  13   2.0000      -0.562034       -15.2937
  14   2.0000      -0.536212       -14.5911
  15   2.0000      -0.468102       -12.7377
  16   2.0000      -0.434802       -11.8316
  17   2.0000      -0.411498       -11.1974
  18   2.0000      -0.394528       -10.7356
  19   2.0000      -0.383061       -10.4236
  20   2.0000      -0.377763       -10.2795
  21   2.0000      -0.369943       -10.0667
  22   2.0000      -0.363169        -9.8823
  23   2.0000      -0.341247        -9.2858
  24   2.0000      -0.317971        -8.6524
  25   2.0000      -0.304837        -8.2950
  26   2.0000      -0.301699        -8.2096
  27   2.0000      -0.226313        -6.1583
  28   2.0000      -0.217930        -5.9302
  29   0.0000      -0.030296        -0.8244
  30   0.0000      -0.024937        -0.6786
  31   0.0000       0.054952         1.4953
  32   0.0000       0.072743         1.9794
  33   0.0000       0.076921         2.0931

MULLIKEN ATOMIC CHARGES
-----------------------
   0 C :   -0.347180
   1 C :    0.237028
   2 C :   -0.237997
   3 C :   -0.060404
   4 C :   -0.219922
   5 C :    0.226777
   6 C :   -0.320147
   7 C :   -0.348179
   8 H :    0.117197
   9 H :    0.117161
  10 H :    0.106858
  11 H :    0.099030
  12 H :    0.103912
  13 H :    0.095493
  14 H :    0.088737
  15 H :    0.117213
  16 H :    0.107867
  17 H :    0.116556
Sum of atomic charges:    0.0000000

LOEWDIN ATOMIC CHARGES
----------------------
   0 C :   -0.253872
   1 C :   -0.171736
   2 C :   -0.124003
   3 C :   -0.140641
   4 C :   -0.127841
   5 C :   -0.171643
   6 C :   -0.096923
   7 C :   -0.254082
   8 H :    0.129413
   9 H :    0.129394
  10 H :    0.124557
  11 H :    0.143740
  12 H :    0.142152
  13 H :    0.142466
  14 H :    0.145585
  15 H :    0.129394
  16 H :    0.124947
  17 H :    0.129091

  Mayer bond orders larger than 0.100000
B(  0-C ,  1-C ) :   0.8994 B(  0-C ,  8-H ) :   0.9663 B(  0-C ,  9-H ) :   0.9666
B(  0-C , 10-H ) :   0.9906 B(  1-C ,  2-C ) :   1.3036 B(  1-C ,  6-C ) :   1.3896
B(  2-C ,  3-C ) :   1.4176 B(  2-C , 11-H ) :   0.9839 B(  3-C ,  4-C ) :   1.3784
B(  3-C , 12-H ) :   0.9725 B(  4-C ,  5-C ) :   1.3678 B(  4-C , 13-H ) :   0.9746
B(  5-C ,  6-C ) :   1.3204 B(  5-C ,  7-C ) :   0.9049 B(  6-C , 14-H ) :   0.9869
B(  7-C , 15-H ) :   0.9655 B(  7-C , 16-H ) :   0.9899 B(  7-C , 17-H ) :   0.9679

Dispersion correction           -0.005562750
FINAL SINGLE POINT ENERGY      -310.809373048827

DIPOLE MOMENT
-------------

Method             : SCF
Type of density    : Electron Density
Multiplicity       :   1
Irrep              :   0
Energy             :  -310.8096165436427896 Eh
Relativity type    :
Basis              : AO
                                X                 Y                 Z
Electronic contribution:      0.009563608      -3.084241331      -0.002527645
Nuclear contribution   :     -0.028339446       3.235218240       0.003865475
                        -----------------------------------------
Total Dipole Moment    :     -0.018775838       0.150976909       0.001337830
                        -----------------------------------------
Magnitude (a.u.)       :      0.152145815
Magnitude (Debye)      :      0.386723928

VIBRATIONAL FREQUENCIES
-----------------------

Scaling factor for frequencies =  1.000000000  (already applied!)

     0:       0.00 cm**-1
     1:       0.00 cm**-1
     2:       0.00 cm**-1
     3:       0.00 cm**-1
     4:       0.00 cm**-1
     5:       0.00 cm**-1
     6:      63.09 cm**-1
     7:      65.01 cm**-1
     8:     197.97 cm**-1
     9:     221.81 cm**-1
    10:     278.10 cm**-1
    11:     408.56 cm**-1
    12:     437.74 cm**-1
    13:     525.03 cm**-1
    14:     527.58 cm**-1
    15:     545.11 cm**-1
    16:     712.76 cm**-1
    17:     740.33 cm**-1
    18:     773.80 cm**-1
    19:     877.79 cm**-1
    20:     884.83 cm**-1
    21:     921.47 cm**-1
    22:     955.24 cm**-1
    23:     996.57 cm**-1
    24:    1017.93 cm**-1
    25:    1035.08 cm**-1
    26:    1053.16 cm**-1
    27:    1054.62 cm**-1
    28:    1120.51 cm**-1
    29:    1176.80 cm**-1
    30:    1193.76 cm**-1
    31:    1271.04 cm**-1
    32:    1325.71 cm**-1
    33:    1351.95 cm**-1
    34:    1397.98 cm**-1
    35:    1400.60 cm**-1
    36:    1444.11 cm**-1
    37:    1476.21 cm**-1
    38:    1477.06 cm**-1
    39:    1480.36 cm**-1
    40:    1501.60 cm**-1
    41:    1520.60 cm**-1
    42:    1624.06 cm**-1
    43:    1641.64 cm**-1
    44:    3007.17 cm**-1
    45:    3007.94 cm**-1
    46:    3069.35 cm**-1
    47:    3070.09 cm**-1
    48:    3099.83 cm**-1
    49:    3101.58 cm**-1
    50:    3134.82 cm**-1
    51:    3146.08 cm**-1
    52:    3154.45 cm**-1
    53:    3172.33 cm**-1

IR SPECTRUM
-----------

 Mode   freq       eps      Int      T**2         TX        TY        TZ
       cm**-1   L/(mol*cm) km/mol    a.u.
----------------------------------------------------------------------------
  6:     63.09   0.000040    0.20  0.000199  (-0.000211 -0.000014  0.014105)
  7:     65.01   0.000046    0.23  0.000219  (-0.001349  0.001072 -0.014683)
  8:    197.97   0.000833    4.21  0.001313  (-0.000253  0.000020  0.036235)
  9:    221.81   0.000002    0.01  0.000002  ( 0.000414  0.000004  0.001484)
 10:    278.10   0.000103    0.52  0.000116  ( 0.002860  0.010372 -0.000034)
 11:    408.56   0.000081    0.41  0.000062  ( 0.007472 -0.002487  0.000183)
 12:    437.74   0.001106    5.59  0.000788  (-0.000038  0.000057 -0.028077)
 13:    525.03   0.000115    0.58  0.000068  (-0.008185  0.001126 -0.000185)
 14:    527.58   0.000003    0.01  0.000002  ( 0.001028 -0.000163 -0.000702)
 15:    545.11   0.000014    0.07  0.000008  (-0.001926 -0.002120 -0.000046)
 16:    712.76   0.003106   15.70  0.001360  (-0.000078 -0.000154 -0.036876)
 17:    740.33   0.000009    0.05  0.000004  ( 0.001037  0.001670  0.000325)
 18:    773.80   0.006781   34.27  0.002735  ( 0.000012 -0.000068  0.052295)
 19:    877.79   0.000445    2.25  0.000158  ( 0.000181  0.000146 -0.012572)
 20:    884.83   0.000005    0.03  0.000002  ( 0.000162 -0.000038 -0.001343)
 21:    921.47   0.000673    3.40  0.000228  ( 0.014492  0.004227  0.000243)
 22:    955.24   0.000011    0.06  0.000004  (-0.000093 -0.000065  0.001930)
 23:    996.57   0.000845    4.27  0.000265  (-0.016139  0.002009 -0.000048)
 24:   1017.93   0.000120    0.61  0.000037  ( 0.004133 -0.004446 -0.000110)
 25:   1035.08   0.000223    1.13  0.000067  ( 0.005644 -0.005941  0.000228)
 26:   1053.16   0.001071    5.41  0.000317  ( 0.000769  0.000429  0.017792)
 27:   1054.62   0.000043    0.22  0.000013  ( 0.000935  0.000686  0.003389)
 28:   1120.51   0.000890    4.50  0.000248  ( 0.003976  0.015235  0.000007)
 29:   1176.80   0.000024    0.12  0.000006  (-0.002393 -0.000799 -0.000142)
 30:   1193.76   0.000278    1.41  0.000073  ( 0.008472  0.001012  0.000028)
 31:   1271.04   0.000163    0.82  0.000040  ( 0.000722 -0.006286 -0.000156)
 32:   1325.71   0.000089    0.45  0.000021  ( 0.000695  0.004530  0.000033)
 33:   1351.95   0.000056    0.28  0.000013  ( 0.001571  0.003231  0.000021)
 34:   1397.98   0.000458    2.31  0.000102  ( 0.009783  0.002554  0.000108)
 35:   1400.60   0.000230    1.16  0.000051  (-0.002275  0.006795  0.000091)
 36:   1444.11   0.000104    0.53  0.000023  (-0.002897 -0.003751  0.000192)
 37:   1476.21   0.002690   13.59  0.000569  (-0.000251  0.000135 -0.023845)
 38:   1477.06   0.000127    0.64  0.000027  ( 0.000512 -0.000284  0.005152)
 39:   1480.36   0.000296    1.50  0.000062  (-0.007731  0.000439  0.001582)
 40:   1501.60   0.004031   20.37  0.000838  (-0.001615  0.028898  0.000140)
 41:   1520.60   0.003560   17.99  0.000731  ( 0.026948  0.002103  0.000076)
 42:   1624.06   0.001063    5.37  0.000204  ( 0.001953  0.014158  0.000026)
 43:   1641.64   0.005001   25.27  0.000951  ( 0.030830 -0.000301  0.000045)
 44:   3007.17   0.008386   42.38  0.000870  (-0.029181  0.004324 -0.000191)
 45:   3007.94   0.003942   19.92  0.000409  ( 0.011167  0.016856  0.000395)
 46:   3069.35   0.002510   12.69  0.000255  (-0.000003 -0.000047 -0.015975)
 47:   3070.09   0.003311   16.73  0.000337  ( 0.000607  0.000388 -0.018331)
 48:   3099.83   0.003001   15.17  0.000302  ( 0.004537  0.016780 -0.000014)
 49:   3101.58   0.003353   16.95  0.000337  (-0.013157  0.012818  0.000062)
 50:   3134.82   0.003916   19.79  0.000390  ( 0.000325 -0.019740  0.000011)
 51:   3146.08   0.000323    1.63  0.000032  (-0.005294  0.001998  0.000004)
 52:   3154.45   0.004387   22.17  0.000434  ( 0.020767  0.001665 -0.000018)
 53:   3172.33   0.003961   20.02  0.000390  ( 0.001649 -0.019672 -0.000001)

--------------------------
THERMOCHEMISTRY AT 298.15K
--------------------------

Temperature         ...   298.15 K
Pressure            ...     1.00 atm
Total Mass          ...   106.17 AMU
Quasi RRHO          ...     True
Cut-Off Frequency   ...     1.00 cm^-1

Throughout the following assumptions are being made:
  (1) The electronic state is orbitally nondegenerate
  (2) There are no thermally accessible electronically excited states
  (3) Hindered rotations indicated by low frequency modes are not
      treated as such but are treated as vibrations and this may
      cause some error
  (4) All equations used are the standard statistical mechanics
      equations for an ideal gas
  (5) All vibrations are strictly harmonic

freq.      63.09  E(vib)   ...       0.51
freq.      65.01  E(vib)   ...       0.50
freq.     197.97  E(vib)   ...       0.35
freq.     221.81  E(vib)   ...       0.33
freq.     278.10  E(vib)   ...       0.28
freq.     408.56  E(vib)   ...       0.19
freq.     437.74  E(vib)   ...       0.17
freq.     525.03  E(vib)   ...       0.13
freq.     527.58  E(vib)   ...       0.13
freq.     545.11  E(vib)   ...       0.12
freq.     712.76  E(vib)   ...       0.07
freq.     740.33  E(vib)   ...       0.06
freq.     773.80  E(vib)   ...       0.05
freq.     877.79  E(vib)   ...       0.04
freq.     884.83  E(vib)   ...       0.04
freq.     921.47  E(vib)   ...       0.03
freq.     955.24  E(vib)   ...       0.03
freq.     996.57  E(vib)   ...       0.02
freq.    1017.93  E(vib)   ...       0.02
freq.    1035.08  E(vib)   ...       0.02
freq.    1053.16  E(vib)   ...       0.02
freq.    1054.62  E(vib)   ...       0.02
freq.    1120.51  E(vib)   ...       0.01
freq.    1176.80  E(vib)   ...       0.01
freq.    1193.76  E(vib)   ...       0.01
freq.    1271.04  E(vib)   ...       0.01
freq.    1325.71  E(vib)   ...       0.01
freq.    1351.95  E(vib)   ...       0.01
freq.    1397.98  E(vib)   ...       0.00
freq.    1400.60  E(vib)   ...       0.00
freq.    1444.11  E(vib)   ...       0.00
freq.    1476.21  E(vib)   ...       0.00
freq.    1477.06  E(vib)   ...       0.00
freq.    1480.36  E(vib)   ...       0.00
freq.    1501.60  E(vib)   ...       0.00
freq.    1520.60  E(vib)   ...       0.00
freq.    1624.06  E(vib)   ...       0.00
freq.    1641.64  E(vib)   ...       0.00
freq.    3007.17  E(vib)   ...       0.00
freq.    3007.94  E(vib)   ...       0.00
freq.    3069.35  E(vib)   ...       0.00
freq.    3070.09  E(vib)   ...       0.00
freq.    3099.83  E(vib)   ...       0.00
freq.    3101.58  E(vib)   ...       0.00
freq.    3134.82  E(vib)   ...       0.00
freq.    3146.08  E(vib)   ...       0.00
freq.    3154.45  E(vib)   ...       0.00
freq.    3172.33  E(vib)   ...       0.00

------------
INNER ENERGY
------------

The inner energy is: U= E(el) + E(ZPE) + E(vib) + E(rot) + E(trans)
    E(el)   - is the total energy from the electronic structure calculation
              = E(kin-el) + E(nuc-el) + E(el-el) + E(nuc-nuc)
    E(ZPE)  - the the zero temperature vibrational energy from the frequency calculation
    E(vib)  - the the finite temperature correction to E(ZPE) due to population
              of excited vibrational states
    E(rot)  - is the rotational thermal energy
    E(trans)- is the translational thermal energy

Summary of contributions to the inner energy U:
Electronic energy                ...   -310.80937305 Eh
Zero point energy                ...      0.15414365 Eh      96.73 kcal/mol
Thermal vibrational correction   ...      0.00513752 Eh       3.22 kcal/mol
Thermal rotational correction    ...      0.00141627 Eh       0.89 kcal/mol
Thermal translational correction ...      0.00141627 Eh       0.89 kcal/mol
-----------------------------------------------------------------------
Total thermal energy                   -310.64725934 Eh

Summary of corrections to the electronic energy:
(perhaps to be used in another calculation)
Total thermal correction                  0.00797006 Eh       5.00 kcal/mol
Non-thermal (ZPE) correction              0.15414365 Eh      96.73 kcal/mol
-----------------------------------------------------------------------
Total correction                          0.16211371 Eh     101.73 kcal/mol

--------
ENTHALPY
--------

The enthalpy is H = U + kB*T
                kB is Boltzmann's constant
Total thermal energy              ...   -310.64725934 Eh
Thermal Enthalpy correction       ...      0.00094421 Eh       0.59 kcal/mol
-----------------------------------------------------------------------
Total Enthalpy                    ...   -310.64631513 Eh

Note: Only C1 symmetry has been detected, increase convergence thresholds
      if your molecule has a higher symmetry. Symmetry factor of 1.0 is
      used for the rotational entropy correction.

Note: Rotational entropy computed according to Herzberg
Infrared and Raman Spectra, Chapter V,1, Van Nostrand Reinhold, 1945
Point Group:  C1, Symmetry Number:   1
Rotational constants in cm-1:     0.119574     0.058943     0.040069

Vibrational entropy computed according to the QRRHO of S. Grimme
Chem.Eur.J. 2012 18 9955 using a reference frequency of 100.0 cm-1

-------
ENTROPY
-------

The entropy contributions are T*S = T*(S(el)+S(vib)+S(rot)+S(trans))
     S(el)   - electronic entropy
     S(vib)  - vibrational entropy
     S(rot)  - rotational entropy
     S(trans)- translational entropy
The entropies will be listed as multiplied by the temperature to get
units of energy

Electronic entropy                ...      0.00000000 Eh      0.00 kcal/mol
Vibrational entropy               ...      0.00862249 Eh      5.41 kcal/mol
Rotational entropy                ...      0.01336880 Eh      8.39 kcal/mol
Translational entropy             ...      0.01895601 Eh     11.90 kcal/mol
-----------------------------------------------------------------------
Final entropy term                ...      0.04094730 Eh     25.69 kcal/mol

In case the symmetry of your molecule has not been determined correctly
or in case you have a reason to use a different symmetry number we print
out the resulting rotational entropy values for sn=1,12:

 non-linear molecules -----------------------------------
|  sn= 1 | S(rot)=       0.01336880 Eh      8.39 kcal/mol|
|  sn= 2 | S(rot)=       0.01271435 Eh      7.98 kcal/mol|
|  sn= 3 | S(rot)=       0.01233151 Eh      7.74 kcal/mol|
|  sn= 4 | S(rot)=       0.01205989 Eh      7.57 kcal/mol|
|  sn= 5 | S(rot)=       0.01184920 Eh      7.44 kcal/mol|
|  sn= 6 | S(rot)=       0.01167706 Eh      7.33 kcal/mol|
|  sn= 7 | S(rot)=       0.01153151 Eh      7.24 kcal/mol|
|  sn= 8 | S(rot)=       0.01140543 Eh      7.16 kcal/mol|
|  sn= 9 | S(rot)=       0.01129422 Eh      7.09 kcal/mol|
|  sn=10 | S(rot)=       0.01119474 Eh      7.02 kcal/mol|
|  sn=11 | S(rot)=       0.01110475 Eh      6.97 kcal/mol|
|  sn=12 | S(rot)=       0.01102260 Eh      6.92 kcal/mol|

                             ****ORCA TERMINATED NORMALLY****
TOTAL RUN TIME: 0 days 0 hours 14 minutes 29 seconds 416 msec
