                         Program Version 6.0.1  -  RELEASE   -
|  1> ! r2scan-3c def2/J RI DEFGRID2 scfconv6 printgap
|  2> %output
|  3>     printlevel normal
|  4> end
|  5> * xyz 0 1
|  6> C -1.5417283834 0.9136258078 0.2597287208
|  7> C -1.3235201837 -0.5008435782 -0.2611378609
|  8> C 0.0821220482 -1.0141165278 -0.3874342287
|  9> C 1.2645539954 -0.4805683363 -0.1174549073
| 10> C 1.6120362057 0.8678248738 0.4345645974
| 11> H -2.599528769 1.1629475132 0.1904546728
| 12> H -0.9836737147 1.6359435075 -0.3285709071
| 13> H -1.2486671594 0.9974282081 1.30265382
| 14> H -1.8717259464 -1.2015599878 0.3789880031
| 15> H -1.7750023284 -0.5782274396 -1.2572425144
| 16> H 0.0894673672 -2.0203132086 -0.795167467
| 17> H 2.1317857958 -1.0909327244 -0.3420907979
| 18> H 1.6295419404 1.6106550584 -0.3638908972
| 19> H 2.6049647348 0.8374432949 0.8785452539
| 20> H 0.9090447604 1.1977498026 1.1911608131
| 21> *
| 22>
| 23>                          ****END OF INPUT****

CARTESIAN COORDINATES (ANGSTROEM)
---------------------------------
  C     -1.541728    0.913626    0.259729
  C     -1.323520   -0.500844   -0.261138
  C      0.082122   -1.014117   -0.387434
  C      1.264554   -0.480568   -0.117455
  C      1.612036    0.867825    0.434565
  H     -2.599529    1.162948    0.190455
  H     -0.983674    1.635944   -0.328571
  H     -1.248667    0.997428    1.302654
  H     -1.871726   -1.201560    0.378988
  H     -1.775002   -0.578227   -1.257243
  H      0.089467   -2.020313   -0.795167
  H      2.131786   -1.090933   -0.342091
  H      1.629542    1.610655   -0.363891
  H      2.604965    0.837443    0.878545
  H      0.909045    1.197750    1.191161

 Total Charge           Charge          ....    0
 Multiplicity           Mult            ....    1
 Number of Electrons    NEL             ....   40
 Basis Dimension        Dim             ....  145

ORBITAL ENERGIES
----------------

  NO   OCC          E(Eh)            E(eV)
   0   2.0000     -10.031464      -272.9700
   1   2.0000     -10.022682      -272.7310
   2   2.0000     -10.021312      -272.6937
   3   2.0000     -10.019464      -272.6435
   4   2.0000     -10.017816      -272.5986
   5   2.0000      -0.769361       -20.9354
   6   2.0000      -0.715309       -19.4646
   7   2.0000      -0.655366       -17.8334
   8   2.0000      -0.585697       -15.9376
   9   2.0000      -0.485910       -13.2223
  10   2.0000      -0.438728       -11.9384
  11   2.0000      -0.418974       -11.4009
  12   2.0000      -0.387485       -10.5440
  13   2.0000      -0.376690       -10.2503
  14   2.0000      -0.358238        -9.7481
  15   2.0000      -0.350297        -9.5321
  16   2.0000      -0.325035        -8.8446
  17   2.0000      -0.306069        -8.3286
  18   2.0000      -0.284363        -7.7379
  19   2.0000      -0.216079        -5.8798
  20   0.0000       0.001320         0.0359
  21   0.0000       0.085131         2.3165
  22   0.0000       0.119213         3.2439
  23   0.0000       0.128291         3.4910
  24   0.0000       0.138819         3.7775

MULLIKEN ATOMIC CHARGES
-----------------------
   0 C :   -0.504105
   1 C :   -0.212558
   2 C :   -0.157634
   3 C :   -0.136722
   4 C :   -0.473237
   5 H :    0.144421
   6 H :    0.154132
   7 H :    0.150428
   8 H :    0.142426
   9 H :    0.140534
  10 H :    0.144595
  11 H :    0.147578
  12 H :    0.162209
  13 H :    0.142885
  14 H :    0.155049
Sum of atomic charges:   -0.0000000

LOEWDIN ATOMIC CHARGES
----------------------
   0 C :   -0.422829
   1 C :   -0.302647
   2 C :   -0.209405
   3 C :   -0.220034
   4 C :   -0.418598
   5 H :    0.150711
   6 H :    0.154057
   7 H :    0.149364
   8 H :    0.160513
   9 H :    0.160531
  10 H :    0.162157
  11 H :    0.160702
  12 H :    0.161627
  13 H :    0.154168
  14 H :    0.159681

  Mayer bond orders larger than 0.100000
B(  0-C ,  1-C ) :   0.8835 B(  0-C ,  5-H ) :   0.9693 B(  0-C ,  6-H ) :   0.9782
B(  0-C ,  7-H ) :   0.9842 B(  1-C ,  2-C ) :   0.9456 B(  1-C ,  8-H ) :   0.9677
B(  1-C ,  9-H ) :   0.9680 B(  2-C ,  3-C ) :   1.9439 B(  2-C , 10-H ) :   0.9354
B(  3-C ,  4-C ) :   0.8952 B(  3-C , 11-H ) :   0.9455 B(  4-C , 12-H ) :   0.9741
B(  4-C , 13-H ) :   0.9704 B(  4-C , 14-H ) :   0.9852

Dispersion correction           -0.003400926
FINAL SINGLE POINT ENERGY      -196.454051530552

DIPOLE MOMENT
-------------

Method             : SCF
Type of density    : Electron Density
Multiplicity       :   1
Irrep              :   0
Energy             :  -196.4570401853001442 Eh
Relativity type    :
Basis              : AO
                                X                 Y                 Z
Electronic contribution:      0.934925011      -2.296401237      -0.797205499
Nuclear contribution   :     -1.044919726       2.393379651       0.801979273
                        -----------------------------------------
Total Dipole Moment    :     -0.109994715       0.096978414       0.004773774
                        -----------------------------------------
Magnitude (a.u.)       :      0.146718912
Magnitude (Debye)      :      0.372929837

Rotational constants in cm-1:             0.254545             0.123707             0.087299
Rotational constants in MHz :          7631.068517          3708.643031          2617.161221

                             ****ORCA TERMINATED NORMALLY****
TOTAL RUN TIME: 0 days 0 hours 0 minutes 10 seconds 111 msec
