                         Program Version 6.0.1  -  RELEASE   -
|  1> ! pbe def2-sv(p) def2/J RI DEFGRID1 loosescf d4 GCP(DFT/SV(P)) printgap
|  2> %output
|  3>     printlevel normal
|  4> end
|  5> * xyz 0 1
|  6> C -2.4755510897 -0.4726066533 -0.2464623099
|  7> C -1.0432755345 -0.2041757711 0.227657126
|  8> H -0.9766310445 -0.4130467207 1.3090827699
|  9> C -0.6330533071 1.2753764331 -0.0045565459
| 10> H -1.2655010048 1.7187258487 -0.7823238318
| 11> C 0.8273847759 1.3081377699 -0.5001917235
| 12> H 1.2249345056 2.3201581235 -0.3750376557
| 13> C 1.6668805435 0.3220174976 0.3381424329
| 14> H 2.7061554265 0.3469355418 -0.0179930341
| 15> C 1.1207087667 -1.1188023014 0.1124242853
| 16> H 1.0785033732 -1.6417950804 1.0845892547
| 17> O -0.1662964865 -1.0789595597 -0.4634425111
| 18> O 1.9466279912 -1.8727986239 -0.6943648047
| 19> O 1.5903353124 0.7128250919 1.692440041
| 20> O 0.9239971218 1.0007556443 -1.8646094907
| 21> O -0.827466377 2.0514453039 1.1417427387
| 22> O -2.9764754568 -1.7171199287 0.1503170204
| 23> H -2.4963199241 -0.4814283846 -1.3380470003
| 24> H -3.1077418976 0.3476464937 0.1226204999
| 25> H 1.8966025723 -1.5369252307 -1.598964628
| 26> H 2.2292801288 0.2061920995 2.2054448669
| 27> H 0.3921374384 0.2057566526 -2.021724046
| 28> H -0.126561951 1.830370641 1.7723119092
| 29> H -2.9463479914 -1.7819255051 1.1117077534
| 30> *
| 31>
| 32>                          ****END OF INPUT****

CARTESIAN COORDINATES (ANGSTROEM)
---------------------------------
  C     -2.475551   -0.472607   -0.246462
  C     -1.043276   -0.204176    0.227657
  H     -0.976631   -0.413047    1.309083
  C     -0.633053    1.275376   -0.004557
  H     -1.265501    1.718726   -0.782324
  C      0.827385    1.308138   -0.500192
  H      1.224935    2.320158   -0.375038
  C      1.666881    0.322017    0.338142
  H      2.706155    0.346936   -0.017993
  C      1.120709   -1.118802    0.112424
  H      1.078503   -1.641795    1.084589
  O     -0.166296   -1.078960   -0.463443
  O      1.946628   -1.872799   -0.694365
  O      1.590335    0.712825    1.692440
  O      0.923997    1.000756   -1.864609
  O     -0.827466    2.051445    1.141743
  O     -2.976475   -1.717120    0.150317
  H     -2.496320   -0.481428   -1.338047
  H     -3.107742    0.347646    0.122620
  H      1.896603   -1.536925   -1.598965
  H      2.229280    0.206192    2.205445
  H      0.392137    0.205757   -2.021724
  H     -0.126562    1.830371    1.772312
  H     -2.946348   -1.781926    1.111708

 Total Charge           Charge          ....    0
 Multiplicity           Mult            ....    1
 Number of Electrons    NEL             ....   96
 Basis Dimension        Dim             ....  192

ORBITAL ENERGIES
----------------

  NO   OCC          E(Eh)            E(eV)
   0   2.0000     -18.787157      -511.2245
   1   2.0000     -18.785380      -511.1762
   2   2.0000     -18.768696      -510.7222
   3   2.0000     -18.760153      -510.4897
   4   2.0000     -18.748215      -510.1649
   5   2.0000     -18.745676      -510.0958
   6   2.0000      -9.998053      -272.0609
   7   2.0000      -9.952452      -270.8200
   8   2.0000      -9.949911      -270.7508
   9   2.0000      -9.948404      -270.7098
  10   2.0000      -9.944132      -270.5936
  11   2.0000      -9.938202      -270.4322
  12   2.0000      -0.999604       -27.2006
  13   2.0000      -0.959686       -26.1144
  14   2.0000      -0.942799       -25.6549
  15   2.0000      -0.933907       -25.4129
  16   2.0000      -0.925244       -25.1772
  17   2.0000      -0.921189       -25.0668
  18   2.0000      -0.702716       -19.1219
  19   2.0000      -0.695788       -18.9334
  20   2.0000      -0.622225       -16.9316
  21   2.0000      -0.597439       -16.2572
  22   2.0000      -0.574170       -15.6240
  23   2.0000      -0.542780       -14.7698
  24   2.0000      -0.509894       -13.8749
  25   2.0000      -0.502749       -13.6805
  26   2.0000      -0.493250       -13.4220
  27   2.0000      -0.475550       -12.9404
  28   2.0000      -0.451925       -12.2975
  29   2.0000      -0.431182       -11.7331
  30   2.0000      -0.412093       -11.2136
  31   2.0000      -0.403143       -10.9701
  32   2.0000      -0.393206       -10.6997
  33   2.0000      -0.381256       -10.3745
  34   2.0000      -0.367693       -10.0054
  35   2.0000      -0.354829        -9.6554
  36   2.0000      -0.344514        -9.3747
  37   2.0000      -0.324940        -8.8421
  38   2.0000      -0.318016        -8.6537
  39   2.0000      -0.309205        -8.4139
  40   2.0000      -0.283245        -7.7075
  41   2.0000      -0.277462        -7.5501
  42   2.0000      -0.267062        -7.2671
  43   2.0000      -0.263938        -7.1821
  44   2.0000      -0.247576        -6.7369
  45   2.0000      -0.224874        -6.1191
  46   2.0000      -0.215575        -5.8661
  47   2.0000      -0.202332        -5.5057
  48   0.0000      -0.002014        -0.0548
  49   0.0000       0.021247         0.5782
  50   0.0000       0.022304         0.6069
  51   0.0000       0.050742         1.3808
  52   0.0000       0.052573         1.4306

MULLIKEN ATOMIC CHARGES
-----------------------
   0 C :    0.076412
   1 C :   -0.005293
   2 H :    0.039363
   3 C :    0.045725
   4 H :    0.075770
   5 C :    0.027624
   6 H :    0.085895
   7 C :    0.009605
   8 H :    0.082629
   9 C :    0.181306
  10 H :    0.054010
  11 O :   -0.296278
  12 O :   -0.373166
  13 O :   -0.427004
  14 O :   -0.420705
  15 O :   -0.424623
  16 O :   -0.422983
  17 H :    0.084720
  18 H :    0.093269
  19 H :    0.296429
  20 H :    0.316133
  21 H :    0.300944
  22 H :    0.306061
  23 H :    0.294156
Sum of atomic charges:    0.0000000

LOEWDIN ATOMIC CHARGES
----------------------
   0 C :   -0.127203
   1 C :   -0.081539
   2 H :    0.099080
   3 C :   -0.076644
   4 H :    0.117254
   5 C :   -0.072929
   6 H :    0.121565
   7 C :   -0.099930
   8 H :    0.112015
   9 C :   -0.004708
  10 H :    0.095512
  11 O :   -0.150355
  12 O :   -0.286935
  13 O :   -0.315790
  14 O :   -0.312104
  15 O :   -0.315092
  16 O :   -0.328377
  17 H :    0.118277
  18 H :    0.106406
  19 H :    0.281781
  20 H :    0.295447
  21 H :    0.267550
  22 H :    0.274227
  23 H :    0.282493

  Mayer bond orders larger than 0.100000
B(  0-C ,  1-C ) :   1.0401 B(  0-C , 16-O ) :   1.0861 B(  0-C , 17-H ) :   0.9043
B(  0-C , 18-H ) :   0.9191 B(  1-C ,  2-H ) :   0.8603 B(  1-C ,  3-C ) :   0.9454
B(  1-C , 11-O ) :   0.9933 B(  3-C ,  4-H ) :   0.8957 B(  3-C ,  5-C ) :   0.9986
B(  3-C , 15-O ) :   1.0527 B(  5-C ,  6-H ) :   0.8901 B(  5-C ,  7-C ) :   0.9861
B(  5-C , 14-O ) :   1.0445 B(  7-C ,  8-H ) :   0.8993 B(  7-C ,  9-C ) :   0.9187
B(  7-C , 13-O ) :   1.0210 B(  9-C , 10-H ) :   0.8976 B(  9-C , 11-O ) :   1.0151
B(  9-C , 12-O ) :   1.1504 B( 12-O , 19-H ) :   0.8366 B( 13-O , 20-H ) :   0.8397
B( 14-O , 21-H ) :   0.8175 B( 15-O , 22-H ) :   0.8207 B( 16-O , 23-H ) :   0.8537

Dispersion correction           -0.024944436
FINAL SINGLE POINT ENERGY      -685.688978094446

DIPOLE MOMENT
-------------

Method             : SCF
Type of density    : Electron Density
Multiplicity       :   1
Irrep              :   0
Energy             :  -685.8216852571511026 Eh
Relativity type    :
Basis              : AO
                                X                 Y                 Z
Electronic contribution:      1.911778612      -1.157701367      -0.557539818
Nuclear contribution   :     -1.298184885       1.037983818       1.380112149
                        -----------------------------------------
Total Dipole Moment    :      0.613593728      -0.119717549       0.822572331
                        -----------------------------------------
Magnitude (a.u.)       :      1.033177039
Magnitude (Debye)      :      2.626127332

Rotational constants in cm-1:             0.038064             0.027231             0.021820
Rotational constants in MHz :          1141.129780           816.374781           654.155746

                             ****ORCA TERMINATED NORMALLY****
TOTAL RUN TIME: 0 days 0 hours 0 minutes 7 seconds 882 msec
