                         Program Version 6.0.0  -   RELEASE  -
|  1> ! r2SCAN-3c DEF2-TZVP FREQ
|  2> * xyzfile 0 1 censo.xyz
|  3>
|  4>                          ****END OF INPUT****

CARTESIAN COORDINATES (ANGSTROEM)
---------------------------------
  C      2.394781   -0.000064    0.054116
  N      0.998815   -0.000027   -0.387005
  C      0.322407    1.192812    0.147484
  C     -1.153647    1.200267   -0.221837
  N     -1.878207    0.000007    0.236623
  C     -1.153689   -1.200256   -0.221896
  C      0.322366   -1.192870    0.147422
  H      2.908592    0.887197   -0.330615
  H      2.908595   -0.887265   -0.330754
  H      2.488607   -0.000150    1.155874
  H      0.417637    1.233659    1.252049
  H      0.811369    2.088491   -0.254978
  H     -1.625816    2.089179    0.209379
  H     -1.262008    1.272124   -1.311405
  H     -1.820809   -0.000019    1.254512
  H     -1.625886   -2.089172    0.209281
  H     -1.262057   -1.272059   -1.311467
  H      0.417597   -1.233775    1.251985
  H      0.811298   -2.088545   -0.255084

 Total Charge           Charge          ....    0
 Multiplicity           Mult            ....    1
 Number of Electrons    NEL             ....   56
 Basis Dimension        Dim             ....  289

ORBITAL ENERGIES
----------------

  NO   OCC          E(Eh)            E(eV)
   0   2.0000     -14.159305      -385.2943
   1   2.0000     -14.146720      -384.9518
   2   2.0000     -10.052427      -273.5405
   3   2.0000     -10.052425      -273.5404
   4   2.0000     -10.050903      -273.4990
   5   2.0000     -10.050899      -273.4989
   6   2.0000     -10.048880      -273.4439
   7   2.0000      -0.903316       -24.5805
   8   2.0000      -0.853130       -23.2148
   9   2.0000      -0.725510       -19.7421
  10   2.0000      -0.678560       -18.4646
  11   2.0000      -0.601808       -16.3760
  12   2.0000      -0.600346       -16.3362
  13   2.0000      -0.539491       -14.6803
  14   2.0000      -0.462811       -12.5937
  15   2.0000      -0.431765       -11.7489
  16   2.0000      -0.427732       -11.6392
  17   2.0000      -0.423296       -11.5185
  18   2.0000      -0.413675       -11.2567
  19   2.0000      -0.379301       -10.3213
  20   2.0000      -0.362346        -9.8599
  21   2.0000      -0.340290        -9.2598
  22   2.0000      -0.338011        -9.1978
  23   2.0000      -0.321245        -8.7415
  24   2.0000      -0.314717        -8.5639
  25   2.0000      -0.301337        -8.1998
  26   2.0000      -0.203535        -5.5385
  27   2.0000      -0.194614        -5.2957
  28   0.0000       0.034685         0.9438
  29   0.0000       0.059865         1.6290
  30   0.0000       0.071152         1.9361
  31   0.0000       0.074166         2.0182
  32   0.0000       0.091381         2.4866

MULLIKEN ATOMIC CHARGES
-----------------------
   0 C :   -0.234433
   1 N :   -0.151445
   2 C :   -0.128492
   3 C :   -0.086557
   4 N :   -0.296537
   5 C :   -0.086565
   6 C :   -0.128486
   7 H :    0.107555
   8 H :    0.107557
   9 H :    0.079117
  10 H :    0.057733
  11 H :    0.088867
  12 H :    0.098939
  13 H :    0.078780
  14 H :    0.169648
  15 H :    0.098939
  16 H :    0.078781
  17 H :    0.057732
  18 H :    0.088868
Sum of atomic charges:    0.0000000

LOEWDIN ATOMIC CHARGES
----------------------
   0 C :   -0.322446
   1 N :    0.058140
   2 C :   -0.296914
   3 C :   -0.308098
   4 N :   -0.024293
   5 C :   -0.308098
   6 C :   -0.296914
   7 H :    0.113576
   8 H :    0.113576
   9 H :    0.097540
  10 H :    0.112911
  11 H :    0.131279
  12 H :    0.129540
  13 H :    0.131998
  14 H :    0.162476
  15 H :    0.129540
  16 H :    0.131998
  17 H :    0.112910
  18 H :    0.131279

  Mayer bond orders larger than 0.100000
B(  0-C ,  1-N ) :   0.9629 B(  0-C ,  7-H ) :   0.9740 B(  0-C ,  8-H ) :   0.9740
B(  0-C ,  9-H ) :   0.9652 B(  1-N ,  2-C ) :   0.9473 B(  1-N ,  6-C ) :   0.9473
B(  2-C ,  3-C ) :   0.9834 B(  2-C , 10-H ) :   0.9492 B(  2-C , 11-H ) :   0.9517
B(  3-C ,  4-N ) :   1.0169 B(  3-C , 12-H ) :   0.9753 B(  3-C , 13-H ) :   0.9596
B(  4-N ,  5-C ) :   1.0169 B(  4-N , 14-H ) :   0.9283 B(  5-C ,  6-C ) :   0.9834
B(  5-C , 15-H ) :   0.9753 B(  5-C , 16-H ) :   0.9596 B(  6-C , 17-H ) :   0.9492
B(  6-C , 18-H ) :   0.9517

Dispersion correction           -0.005435204
FINAL SINGLE POINT ENERGY      -307.160480612155

DIPOLE MOMENT
-------------

Method             : SCF
Type of density    : Electron Density
Multiplicity       :   1
Irrep              :   0
Energy             :  -307.1739312177922443 Eh
Relativity type    :
Basis              : AO
                                X                 Y                 Z
Electronic contribution:     -2.558527042       0.000079633      -1.236500004
Nuclear contribution   :      3.003658333      -0.000095478       1.633277124
                        -----------------------------------------
Total Dipole Moment    :      0.445131290      -0.000015845       0.396777120
                        -----------------------------------------
Magnitude (a.u.)       :      0.596300217
Magnitude (Debye)      :      1.515674699

VIBRATIONAL FREQUENCIES
-----------------------

Scaling factor for frequencies =  1.000000000  (already applied!)

     0:       0.00 cm**-1
     1:       0.00 cm**-1
     2:       0.00 cm**-1
     3:       0.00 cm**-1
     4:       0.00 cm**-1
     5:       0.00 cm**-1
     6:     179.57 cm**-1
     7:     242.61 cm**-1
     8:     274.73 cm**-1
     9:     347.83 cm**-1
    10:     361.16 cm**-1
    11:     423.07 cm**-1
    12:     448.50 cm**-1
    13:     498.47 cm**-1
    14:     605.71 cm**-1
    15:     769.66 cm**-1
    16:     823.46 cm**-1
    17:     830.49 cm**-1
    18:     905.51 cm**-1
    19:     925.36 cm**-1
    20:    1007.48 cm**-1
    21:    1024.05 cm**-1
    22:    1042.84 cm**-1
    23:    1063.86 cm**-1
    24:    1104.08 cm**-1
    25:    1109.31 cm**-1
    26:    1141.90 cm**-1
    27:    1189.59 cm**-1
    28:    1190.18 cm**-1
    29:    1206.56 cm**-1
    30:    1294.89 cm**-1
    31:    1306.92 cm**-1
    32:    1341.37 cm**-1
    33:    1346.97 cm**-1
    34:    1368.05 cm**-1
    35:    1385.49 cm**-1
    36:    1389.65 cm**-1
    37:    1445.46 cm**-1
    38:    1461.88 cm**-1
    39:    1466.88 cm**-1
    40:    1475.19 cm**-1
    41:    1477.52 cm**-1
    42:    1487.12 cm**-1
    43:    1489.76 cm**-1
    44:    1493.15 cm**-1
    45:    2869.98 cm**-1
    46:    2880.34 cm**-1
    47:    2914.62 cm**-1
    48:    3011.98 cm**-1
    49:    3014.07 cm**-1
    50:    3033.94 cm**-1
    51:    3035.15 cm**-1
    52:    3038.51 cm**-1
    53:    3067.15 cm**-1
    54:    3067.99 cm**-1
    55:    3085.50 cm**-1
    56:    3434.60 cm**-1

IR SPECTRUM
-----------

 Mode   freq       eps      Int      T**2         TX        TY        TZ
       cm**-1   L/(mol*cm) km/mol    a.u.
----------------------------------------------------------------------------
  6:    179.57   0.000116    0.58  0.000201  ( 0.003470 -0.000000  0.013737)
  7:    242.61   0.000003    0.01  0.000004  ( 0.000001  0.001943  0.000000)
  8:    274.73   0.000028    0.14  0.000031  ( 0.000002  0.005601  0.000000)
  9:    347.83   0.002864   14.47  0.002570  (-0.020188 -0.000001  0.046499)
 10:    361.16   0.000018    0.09  0.000015  ( 0.000002  0.003909 -0.000002)
 11:    423.07   0.000483    2.44  0.000356  (-0.017205  0.000001 -0.007767)
 12:    448.50   0.000151    0.76  0.000105  (-0.009835  0.000001 -0.002872)
 13:    498.47   0.000501    2.53  0.000314  (-0.000001 -0.017717 -0.000001)
 14:    605.71   0.001043    5.27  0.000537  (-0.015148  0.000000  0.017542)
 15:    769.66   0.004080   20.62  0.001654  ( 0.017936  0.000001 -0.036503)
 16:    823.46   0.016766   84.73  0.006354  ( 0.074322 -0.000001 -0.028812)
 17:    830.49   0.000064    0.32  0.000024  (-0.000002  0.004908  0.000001)
 18:    905.51   0.001209    6.11  0.000417  ( 0.000002  0.020416  0.000000)
 19:    925.36   0.007206   36.42  0.002430  ( 0.049136 -0.000002 -0.003965)
 20:   1007.48   0.002734   13.82  0.000847  (-0.027946  0.000001 -0.008110)
 21:   1024.05   0.002160   10.92  0.000658  ( 0.000000  0.025657  0.000001)
 22:   1042.84   0.000735    3.71  0.000220  ( 0.000835 -0.000001  0.014808)
 23:   1063.86   0.000241    1.22  0.000071  ( 0.000001 -0.008413  0.000000)
 24:   1104.08   0.006468   32.69  0.001828  ( 0.000001 -0.042756 -0.000001)
 25:   1109.31   0.001716    8.67  0.000483  ( 0.021247  0.000002  0.005586)
 26:   1141.90   0.006561   33.16  0.001793  ( 0.040110 -0.000000  0.013571)
 27:   1189.59   0.004841   24.47  0.001270  ( 0.023516 -0.000004 -0.026778)
 28:   1190.18   0.001751    8.85  0.000459  (-0.000004 -0.021424  0.000005)
 29:   1206.56   0.000038    0.19  0.000010  (-0.000000 -0.003128  0.000001)
 30:   1294.89   0.003303   16.69  0.000796  ( 0.000000  0.028215 -0.000000)
 31:   1306.92   0.001683    8.51  0.000402  ( 0.008842  0.000001  0.017994)
 32:   1341.37   0.000860    4.35  0.000200  (-0.013506  0.000001 -0.004210)
 33:   1346.97   0.000204    1.03  0.000047  (-0.000000 -0.006883 -0.000000)
 34:   1368.05   0.000610    3.08  0.000139  (-0.000000 -0.011792 -0.000000)
 35:   1385.49   0.000858    4.34  0.000193  (-0.012651  0.000000  0.005759)
 36:   1389.65   0.000884    4.47  0.000198  (-0.013934  0.000001 -0.002068)
 37:   1445.46   0.000023    0.12  0.000005  ( 0.000176 -0.000001 -0.002239)
 38:   1461.88   0.000042    0.21  0.000009  ( 0.000000 -0.003011 -0.000000)
 39:   1466.88   0.000525    2.66  0.000112  ( 0.000001  0.010572 -0.000000)
 40:   1475.19   0.002531   12.79  0.000535  ( 0.019532 -0.000001  0.012404)
 41:   1477.52   0.002368   11.97  0.000500  ( 0.014298 -0.000001 -0.017197)
 42:   1487.12   0.002134   10.78  0.000448  ( 0.000002  0.021161  0.000003)
 43:   1489.76   0.002357   11.91  0.000494  ( 0.001585 -0.000002  0.022164)
 44:   1493.15   0.000303    1.53  0.000063  ( 0.000002  0.007952 -0.000005)
 45:   2869.98   0.006280   31.74  0.000683  (-0.000000 -0.026131 -0.000002)
 46:   2880.34   0.019245   97.26  0.002085  ( 0.005045  0.000002 -0.045383)
 47:   2914.62   0.024466  123.64  0.002620  (-0.029516  0.000003 -0.041813)
 48:   3011.98   0.003730   18.85  0.000386  ( 0.000002 -0.019658  0.000002)
 49:   3014.07   0.007615   38.48  0.000788  ( 0.021768  0.000002  0.017737)
 50:   3033.94   0.017294   87.40  0.001779  ( 0.000001  0.042176  0.000000)
 51:   3035.15   0.001747    8.83  0.000180  ( 0.001019 -0.000003 -0.013364)
 52:   3038.51   0.012657   63.96  0.001300  (-0.025305  0.000001  0.025683)
 53:   3067.15   0.005947   30.06  0.000605  ( 0.000003  0.024599 -0.000006)
 54:   3067.99   0.007043   35.59  0.000716  (-0.010157  0.000006  0.024763)
 55:   3085.50   0.005687   28.74  0.000575  ( 0.000002  0.023982  0.000000)
 56:   3434.60   0.000333    1.68  0.000030  ( 0.000062  0.000000 -0.005497)

--------------------------
THERMOCHEMISTRY AT 298.15K
--------------------------

Temperature         ...   298.15 K
Pressure            ...     1.00 atm
Total Mass          ...   100.16 AMU
Quasi RRHO          ...     True
Cut-Off Frequency   ...     1.00 cm^-1

Throughout the following assumptions are being made:
  (1) The electronic state is orbitally nondegenerate
  (2) There are no thermally accessible electronically excited states
  (3) Hindered rotations indicated by low frequency modes are not
      treated as such but are treated as vibrations and this may
      cause some error
  (4) All equations used are the standard statistical mechanics
      equations for an ideal gas
  (5) All vibrations are strictly harmonic

freq.     179.57  E(vib)   ...       0.37
freq.     242.61  E(vib)   ...       0.31
freq.     274.73  E(vib)   ...       0.28
freq.     347.83  E(vib)   ...       0.23
freq.     361.16  E(vib)   ...       0.22
freq.     423.07  E(vib)   ...       0.18
freq.     448.50  E(vib)   ...       0.17
freq.     498.47  E(vib)   ...       0.14
freq.     605.71  E(vib)   ...       0.10
freq.     769.66  E(vib)   ...       0.05
freq.     823.46  E(vib)   ...       0.05
freq.     830.49  E(vib)   ...       0.04
freq.     905.51  E(vib)   ...       0.03
freq.     925.36  E(vib)   ...       0.03
freq.    1007.48  E(vib)   ...       0.02
freq.    1024.05  E(vib)   ...       0.02
freq.    1042.84  E(vib)   ...       0.02
freq.    1063.86  E(vib)   ...       0.02
freq.    1104.08  E(vib)   ...       0.02
freq.    1109.31  E(vib)   ...       0.02
freq.    1141.90  E(vib)   ...       0.01
freq.    1189.59  E(vib)   ...       0.01
freq.    1190.18  E(vib)   ...       0.01
freq.    1206.56  E(vib)   ...       0.01
freq.    1294.89  E(vib)   ...       0.01
freq.    1306.92  E(vib)   ...       0.01
freq.    1341.37  E(vib)   ...       0.01
freq.    1346.97  E(vib)   ...       0.01
freq.    1368.05  E(vib)   ...       0.01
freq.    1385.49  E(vib)   ...       0.00
freq.    1389.65  E(vib)   ...       0.00
freq.    1445.46  E(vib)   ...       0.00
freq.    1461.88  E(vib)   ...       0.00
freq.    1466.88  E(vib)   ...       0.00
freq.    1475.19  E(vib)   ...       0.00
freq.    1477.52  E(vib)   ...       0.00
freq.    1487.12  E(vib)   ...       0.00
freq.    1489.76  E(vib)   ...       0.00
freq.    1493.15  E(vib)   ...       0.00
freq.    2869.98  E(vib)   ...       0.00
freq.    2880.34  E(vib)   ...       0.00
freq.    2914.62  E(vib)   ...       0.00
freq.    3011.98  E(vib)   ...       0.00
freq.    3014.07  E(vib)   ...       0.00
freq.    3033.94  E(vib)   ...       0.00
freq.    3035.15  E(vib)   ...       0.00
freq.    3038.51  E(vib)   ...       0.00
freq.    3067.15  E(vib)   ...       0.00
freq.    3067.99  E(vib)   ...       0.00
freq.    3085.50  E(vib)   ...       0.00
freq.    3434.60  E(vib)   ...       0.00

------------
INNER ENERGY
------------

The inner energy is: U= E(el) + E(ZPE) + E(vib) + E(rot) + E(trans)
    E(el)   - is the total energy from the electronic structure calculation
              = E(kin-el) + E(nuc-el) + E(el-el) + E(nuc-nuc)
    E(ZPE)  - the the zero temperature vibrational energy from the frequency calculation
    E(vib)  - the the finite temperature correction to E(ZPE) due to population
              of excited vibrational states
    E(rot)  - is the rotational thermal energy
    E(trans)- is the translational thermal energy

Summary of contributions to the inner energy U:
Electronic energy                ...   -307.16048061 Eh
Zero point energy                ...      0.17405220 Eh     109.22 kcal/mol
Thermal vibrational correction   ...      0.00388159 Eh       2.44 kcal/mol
Thermal rotational correction    ...      0.00141627 Eh       0.89 kcal/mol
Thermal translational correction ...      0.00141627 Eh       0.89 kcal/mol
-----------------------------------------------------------------------
Total thermal energy                   -306.97971428 Eh

Summary of corrections to the electronic energy:
(perhaps to be used in another calculation)
Total thermal correction                  0.00671413 Eh       4.21 kcal/mol
Non-thermal (ZPE) correction              0.17405220 Eh     109.22 kcal/mol
-----------------------------------------------------------------------
Total correction                          0.18076634 Eh     113.43 kcal/mol

--------
ENTHALPY
--------

The enthalpy is H = U + kB*T
                kB is Boltzmann's constant
Total thermal energy              ...   -306.97971428 Eh
Thermal Enthalpy correction       ...      0.00094421 Eh       0.59 kcal/mol
-----------------------------------------------------------------------
Total Enthalpy                    ...   -306.97877007 Eh

Note: Only C1 symmetry has been detected, increase convergence thresholds
      if your molecule has a higher symmetry. Symmetry factor of 1.0 is
      used for the rotational entropy correction.

Note: Rotational entropy computed according to Herzberg
Infrared and Raman Spectra, Chapter V,1, Van Nostrand Reinhold, 1945
Point Group:  C1, Symmetry Number:   1
Rotational constants in cm-1:     0.154817     0.077262     0.056589

Vibrational entropy computed according to the QRRHO of S. Grimme
Chem.Eur.J. 2012 18 9955 using a reference frequency of 100.0 cm-1

-------
ENTROPY
-------

The entropy contributions are T*S = T*(S(el)+S(vib)+S(rot)+S(trans))
     S(el)   - electronic entropy
     S(vib)  - vibrational entropy
     S(rot)  - rotational entropy
     S(trans)- translational entropy
The entropies will be listed as multiplied by the temperature to get
units of energy

Electronic entropy                ...      0.00000000 Eh      0.00 kcal/mol
Vibrational entropy               ...      0.00595616 Eh      3.74 kcal/mol
Rotational entropy                ...      0.01295613 Eh      8.13 kcal/mol
Translational entropy             ...      0.01887358 Eh     11.84 kcal/mol
-----------------------------------------------------------------------
Final entropy term                ...      0.03778587 Eh     23.71 kcal/mol

In case the symmetry of your molecule has not been determined correctly
or in case you have a reason to use a different symmetry number we print
out the resulting rotational entropy values for sn=1,12:

 non-linear molecules -----------------------------------
|  sn= 1 | S(rot)=       0.01295613 Eh      8.13 kcal/mol|
|  sn= 2 | S(rot)=       0.01230167 Eh      7.72 kcal/mol|
|  sn= 3 | S(rot)=       0.01191884 Eh      7.48 kcal/mol|
|  sn= 4 | S(rot)=       0.01164722 Eh      7.31 kcal/mol|
|  sn= 5 | S(rot)=       0.01143653 Eh      7.18 kcal/mol|
|  sn= 6 | S(rot)=       0.01126438 Eh      7.07 kcal/mol|
|  sn= 7 | S(rot)=       0.01111884 Eh      6.98 kcal/mol|
|  sn= 8 | S(rot)=       0.01099276 Eh      6.90 kcal/mol|
|  sn= 9 | S(rot)=       0.01088155 Eh      6.83 kcal/mol|

                             ****ORCA TERMINATED NORMALLY****
TOTAL RUN TIME: 0 days 0 hours 13 minutes 20 seconds 559 msec
