                         Program Version 6.0.0  -   RELEASE  -
|  1> ! r2SCAN-3c DEF2-TZVP FREQ
|  2> * xyzfile 0 1 vacuum_censo.xyz
|  3>
|  4>                          ****END OF INPUT****

CARTESIAN COORDINATES (ANGSTROEM)
---------------------------------
  C      2.395903    0.000078    0.063536
  N      0.989613    0.000040   -0.315243
  C      0.315661    1.198205    0.188615
  C     -1.145406    1.200288   -0.237894
  N     -1.798284   -0.000067    0.291590
  C     -1.145323   -1.200359   -0.237936
  C      0.315744   -1.198189    0.188570
  H      2.890856   -0.886772   -0.347025
  H      2.545355    0.000024    1.161737
  H      2.890782    0.887014   -0.346927
  H      0.368217    1.256902    1.295522
  H      0.820383    2.082050   -0.220566
  H     -1.641435    2.088540    0.170188
  H     -1.186733    1.257174   -1.342491
  H     -2.777242   -0.000096    0.028884
  H     -1.641290   -2.088660    0.170117
  H     -1.186650   -1.257211   -1.342536
  H      0.368306   -1.256923    1.295475
  H      0.820527   -2.081984   -0.220643

 Total Charge           Charge          ....    0
 Multiplicity           Mult            ....    1
 Number of Electrons    NEL             ....   56
 Basis Dimension        Dim             ....  289

ORBITAL ENERGIES
----------------

  NO   OCC          E(Eh)            E(eV)
   0   2.0000     -14.152672      -385.1138
   1   2.0000     -14.145372      -384.9151
   2   2.0000     -10.050790      -273.4959
   3   2.0000     -10.050786      -273.4958
   4   2.0000     -10.049009      -273.4474
   5   2.0000     -10.049006      -273.4474
   6   2.0000     -10.045471      -273.3512
   7   2.0000      -0.901561       -24.5327
   8   2.0000      -0.852575       -23.1997
   9   2.0000      -0.723786       -19.6952
  10   2.0000      -0.679903       -18.5011
  11   2.0000      -0.599507       -16.3134
  12   2.0000      -0.596972       -16.2444
  13   2.0000      -0.517406       -14.0793
  14   2.0000      -0.481173       -13.0934
  15   2.0000      -0.428300       -11.6546
  16   2.0000      -0.427808       -11.6413
  17   2.0000      -0.413974       -11.2648
  18   2.0000      -0.409937       -11.1550
  19   2.0000      -0.389098       -10.5879
  20   2.0000      -0.363015        -9.8782
  21   2.0000      -0.344025        -9.3614
  22   2.0000      -0.335305        -9.1241
  23   2.0000      -0.316005        -8.5989
  24   2.0000      -0.300775        -8.1845
  25   2.0000      -0.296252        -8.0614
  26   2.0000      -0.198407        -5.3989
  27   2.0000      -0.189358        -5.1527
  28   0.0000       0.040550         1.1034
  29   0.0000       0.054421         1.4809
  30   0.0000       0.077933         2.1207
  31   0.0000       0.084302         2.2940
  32   0.0000       0.087946         2.3931

MULLIKEN ATOMIC CHARGES
-----------------------
   0 C :   -0.239875
   1 N :   -0.167950
   2 C :   -0.096200
   3 C :   -0.059611
   4 N :   -0.336727
   5 C :   -0.059613
   6 C :   -0.096202
   7 H :    0.105935
   8 H :    0.078874
   9 H :    0.105934
  10 H :    0.054905
  11 H :    0.086960
  12 H :    0.087711
  13 H :    0.062296
  14 H :    0.181689
  15 H :    0.087710
  16 H :    0.062298
  17 H :    0.054905
  18 H :    0.086961
Sum of atomic charges:   -0.0000000

LOEWDIN ATOMIC CHARGES
----------------------
   0 C :   -0.323741
   1 N :    0.059454
   2 C :   -0.286521
   3 C :   -0.306806
   4 N :   -0.022401
   5 C :   -0.306805
   6 C :   -0.286521
   7 H :    0.113712
   8 H :    0.097910
   9 H :    0.113712
  10 H :    0.118303
  11 H :    0.131011
  12 H :    0.128197
  13 H :    0.115802
  14 H :    0.161381
  15 H :    0.128197
  16 H :    0.115802
  17 H :    0.118303
  18 H :    0.131012

  Mayer bond orders larger than 0.100000
B(  0-C ,  1-N ) :   0.9721 B(  0-C ,  7-H ) :   0.9745 B(  0-C ,  8-H ) :   0.9639
B(  0-C ,  9-H ) :   0.9745 B(  1-N ,  2-C ) :   0.9710 B(  1-N ,  6-C ) :   0.9710
B(  2-C ,  3-C ) :   1.0134 B(  2-C , 10-H ) :   0.9403 B(  2-C , 11-H ) :   0.9561
B(  3-C ,  4-N ) :   1.0023 B(  3-C , 12-H ) :   0.9550 B(  3-C , 13-H ) :   0.9565
B(  4-N ,  5-C ) :   1.0023 B(  4-N , 14-H ) :   0.9340 B(  5-C ,  6-C ) :   1.0134
B(  5-C , 15-H ) :   0.9550 B(  5-C , 16-H ) :   0.9565 B(  6-C , 17-H ) :   0.9403
B(  6-C , 18-H ) :   0.9561

Dispersion correction           -0.005400885
FINAL SINGLE POINT ENERGY      -307.162002786171

DIPOLE MOMENT
-------------

Method             : SCF
Type of density    : Electron Density
Multiplicity       :   1
Irrep              :   0
Energy             :  -307.1754354600450370 Eh
Relativity type    :
Basis              : AO
                                X                 Y                 Z
Electronic contribution:     -2.265432780      -0.000060538      -0.483640322
Nuclear contribution   :      2.147678338       0.000060913       0.333450162
                        -----------------------------------------
Total Dipole Moment    :     -0.117754442       0.000000375      -0.150190159
                        -----------------------------------------
Magnitude (a.u.)       :      0.190848612
Magnitude (Debye)      :      0.485098620

VIBRATIONAL FREQUENCIES
-----------------------

Scaling factor for frequencies =  1.000000000  (already applied!)

     0:       0.00 cm**-1
     1:       0.00 cm**-1
     2:       0.00 cm**-1
     3:       0.00 cm**-1
     4:       0.00 cm**-1
     5:       0.00 cm**-1
     6:     173.50 cm**-1
     7:     252.56 cm**-1
     8:     287.28 cm**-1
     9:     335.08 cm**-1
    10:     363.89 cm**-1
    11:     415.44 cm**-1
    12:     454.72 cm**-1
    13:     490.41 cm**-1
    14:     591.34 cm**-1
    15:     780.61 cm**-1
    16:     802.56 cm**-1
    17:     861.04 cm**-1
    18:     906.12 cm**-1
    19:     914.14 cm**-1
    20:    1023.29 cm**-1
    21:    1060.27 cm**-1
    22:    1074.31 cm**-1
    23:    1074.35 cm**-1
    24:    1104.27 cm**-1
    25:    1139.17 cm**-1
    26:    1160.08 cm**-1
    27:    1171.11 cm**-1
    28:    1187.47 cm**-1
    29:    1213.40 cm**-1
    30:    1295.01 cm**-1
    31:    1297.88 cm**-1
    32:    1328.32 cm**-1
    33:    1339.04 cm**-1
    34:    1365.35 cm**-1
    35:    1393.00 cm**-1
    36:    1414.51 cm**-1
    37:    1448.21 cm**-1
    38:    1468.83 cm**-1
    39:    1474.90 cm**-1
    40:    1476.90 cm**-1
    41:    1480.63 cm**-1
    42:    1487.73 cm**-1
    43:    1494.13 cm**-1
    44:    1496.67 cm**-1
    45:    2875.79 cm**-1
    46:    2880.31 cm**-1
    47:    2893.76 cm**-1
    48:    2907.08 cm**-1
    49:    2910.31 cm**-1
    50:    3031.30 cm**-1
    51:    3034.78 cm**-1
    52:    3036.89 cm**-1
    53:    3045.72 cm**-1
    54:    3047.06 cm**-1
    55:    3080.58 cm**-1
    56:    3510.00 cm**-1

IR SPECTRUM
-----------

 Mode   freq       eps      Int      T**2         TX        TY        TZ
       cm**-1   L/(mol*cm) km/mol    a.u.
----------------------------------------------------------------------------
  6:    173.50   0.000688    3.48  0.001237  (-0.032612 -0.000001  0.013181)
  7:    252.56   0.000009    0.05  0.000011  ( 0.000000  0.003373 -0.000000)
  8:    287.28   0.000165    0.84  0.000180  (-0.000000  0.013407  0.000000)
  9:    335.08   0.000865    4.37  0.000805  (-0.015714 -0.000000 -0.023632)
 10:    363.89   0.000026    0.13  0.000022  ( 0.000000 -0.004739 -0.000000)
 11:    415.44   0.000266    1.35  0.000200  (-0.013132 -0.000000  0.005258)
 12:    454.72   0.001416    7.16  0.000972  (-0.019652 -0.000001  0.024199)
 13:    490.41   0.000015    0.07  0.000009  ( 0.000000  0.003053 -0.000000)
 14:    591.34   0.005434   27.46  0.002868  ( 0.036030  0.000002 -0.039617)
 15:    780.61   0.000840    4.25  0.000336  ( 0.006495 -0.000000  0.017140)
 16:    802.56   0.018669   94.35  0.007259  ( 0.045277  0.000003 -0.072175)
 17:    861.04   0.000019    0.09  0.000007  ( 0.000000 -0.002597  0.000000)
 18:    906.12   0.000069    0.35  0.000024  ( 0.004055  0.000001 -0.002709)
 19:    914.14   0.000666    3.37  0.000227  (-0.000001  0.015082  0.000000)
 20:   1023.29   0.002441   12.34  0.000744  (-0.027234 -0.000001 -0.001659)
 21:   1060.27   0.002410   12.18  0.000709  ( 0.000002 -0.026632 -0.000001)
 22:   1074.31   0.000233    1.18  0.000068  ( 0.000044  0.008224 -0.000057)
 23:   1074.35   0.001898    9.59  0.000551  ( 0.014373 -0.000024 -0.018567)
 24:   1104.27   0.002477   12.52  0.000700  ( 0.023572  0.000001 -0.012015)
 25:   1139.17   0.007789   39.36  0.002134  ( 0.000001 -0.046191 -0.000001)
 26:   1160.08   0.006555   33.13  0.001763  (-0.036777 -0.000001 -0.020267)
 27:   1171.11   0.001512    7.64  0.000403  (-0.009408  0.000000 -0.017734)
 28:   1187.47   0.000357    1.81  0.000094  (-0.000001  0.009691 -0.000001)
 29:   1213.40   0.000003    0.01  0.000001  ( 0.000000 -0.000837  0.000000)
 30:   1295.01   0.002638   13.33  0.000636  ( 0.000001 -0.025211  0.000003)
 31:   1297.88   0.002755   13.92  0.000662  (-0.001181 -0.000002 -0.025710)
 32:   1328.32   0.000632    3.19  0.000148  (-0.004296 -0.000001  0.011400)
 33:   1339.04   0.005626   28.43  0.001311  (-0.000001  0.036208  0.000001)
 34:   1365.35   0.001304    6.59  0.000298  ( 0.000001 -0.017263 -0.000000)
 35:   1393.00   0.002018   10.20  0.000452  (-0.021153 -0.000001 -0.002138)
 36:   1414.51   0.000071    0.36  0.000016  ( 0.002757 -0.000000  0.002854)
 37:   1448.21   0.000033    0.17  0.000007  ( 0.002653 -0.000000  0.000108)
 38:   1468.83   0.000024    0.12  0.000005  ( 0.000001 -0.002277 -0.000001)
 39:   1474.90   0.000047    0.24  0.000010  (-0.000000 -0.003148  0.000000)
 40:   1476.90   0.003193   16.14  0.000675  ( 0.023091  0.000001 -0.011897)
 41:   1480.63   0.000339    1.72  0.000072  ( 0.000000  0.008459 -0.000001)
 42:   1487.73   0.003987   20.15  0.000836  ( 0.016274  0.000000  0.023906)
 43:   1494.13   0.000611    3.09  0.000128  (-0.000415 -0.000002 -0.011288)
 44:   1496.67   0.001428    7.22  0.000298  ( 0.000000  0.017256 -0.000002)
 45:   2875.79   0.010300   52.05  0.001118  ( 0.000000 -0.033431  0.000003)
 46:   2880.31   0.004580   23.14  0.000496  ( 0.016489 -0.000004 -0.014977)
 47:   2893.76   0.022523  113.82  0.002429  ( 0.026908  0.000001  0.041290)
 48:   2907.08   0.004145   20.95  0.000445  (-0.000004  0.021094 -0.000017)
 49:   2910.31   0.043784  221.26  0.004695  (-0.012262 -0.000005 -0.067412)
 50:   3031.30   0.006372   32.20  0.000656  (-0.020413 -0.000001  0.015469)
 51:   3034.78   0.007080   35.78  0.000728  (-0.000005  0.026982  0.000005)
 52:   3036.89   0.010515   53.14  0.001081  ( 0.022471  0.000006 -0.023991)
 53:   3045.72   0.013974   70.62  0.001432  (-0.000001  0.037839  0.000000)
 54:   3047.06   0.002420   12.23  0.000248  (-0.011783 -0.000001  0.010438)
 55:   3080.58   0.005942   30.03  0.000602  (-0.000001  0.024533  0.000001)
 56:   3510.00   0.000018    0.09  0.000002  ( 0.000600  0.000000 -0.001130)

--------------------------
THERMOCHEMISTRY AT 298.15K
--------------------------

Temperature         ...   298.15 K
Pressure            ...     1.00 atm
Total Mass          ...   100.16 AMU
Quasi RRHO          ...     True
Cut-Off Frequency   ...     1.00 cm^-1

Throughout the following assumptions are being made:
  (1) The electronic state is orbitally nondegenerate
  (2) There are no thermally accessible electronically excited states
  (3) Hindered rotations indicated by low frequency modes are not
      treated as such but are treated as vibrations and this may
      cause some error
  (4) All equations used are the standard statistical mechanics
      equations for an ideal gas
  (5) All vibrations are strictly harmonic

freq.     173.50  E(vib)   ...       0.38
freq.     252.56  E(vib)   ...       0.30
freq.     287.28  E(vib)   ...       0.27
freq.     335.08  E(vib)   ...       0.24
freq.     363.89  E(vib)   ...       0.22
freq.     415.44  E(vib)   ...       0.18
freq.     454.72  E(vib)   ...       0.16
freq.     490.41  E(vib)   ...       0.15
freq.     591.34  E(vib)   ...       0.10
freq.     780.61  E(vib)   ...       0.05
freq.     802.56  E(vib)   ...       0.05
freq.     861.04  E(vib)   ...       0.04
freq.     906.12  E(vib)   ...       0.03
freq.     914.14  E(vib)   ...       0.03
freq.    1023.29  E(vib)   ...       0.02
freq.    1060.27  E(vib)   ...       0.02
freq.    1074.31  E(vib)   ...       0.02
freq.    1074.35  E(vib)   ...       0.02
freq.    1104.27  E(vib)   ...       0.02
freq.    1139.17  E(vib)   ...       0.01
freq.    1160.08  E(vib)   ...       0.01
freq.    1171.11  E(vib)   ...       0.01
freq.    1187.47  E(vib)   ...       0.01
freq.    1213.40  E(vib)   ...       0.01
freq.    1295.01  E(vib)   ...       0.01
freq.    1297.88  E(vib)   ...       0.01
freq.    1328.32  E(vib)   ...       0.01
freq.    1339.04  E(vib)   ...       0.01
freq.    1365.35  E(vib)   ...       0.01
freq.    1393.00  E(vib)   ...       0.00
freq.    1414.51  E(vib)   ...       0.00
freq.    1448.21  E(vib)   ...       0.00
freq.    1468.83  E(vib)   ...       0.00
freq.    1474.90  E(vib)   ...       0.00
freq.    1476.90  E(vib)   ...       0.00
freq.    1480.63  E(vib)   ...       0.00
freq.    1487.73  E(vib)   ...       0.00
freq.    1494.13  E(vib)   ...       0.00
freq.    1496.67  E(vib)   ...       0.00
freq.    2875.79  E(vib)   ...       0.00
freq.    2880.31  E(vib)   ...       0.00
freq.    2893.76  E(vib)   ...       0.00
freq.    2907.08  E(vib)   ...       0.00
freq.    2910.31  E(vib)   ...       0.00
freq.    3031.30  E(vib)   ...       0.00
freq.    3034.78  E(vib)   ...       0.00
freq.    3036.89  E(vib)   ...       0.00
freq.    3045.72  E(vib)   ...       0.00
freq.    3047.06  E(vib)   ...       0.00
freq.    3080.58  E(vib)   ...       0.00
freq.    3510.00  E(vib)   ...       0.00

------------
INNER ENERGY
------------

The inner energy is: U= E(el) + E(ZPE) + E(vib) + E(rot) + E(trans)
    E(el)   - is the total energy from the electronic structure calculation
              = E(kin-el) + E(nuc-el) + E(el-el) + E(nuc-nuc)
    E(ZPE)  - the the zero temperature vibrational energy from the frequency calculation
    E(vib)  - the the finite temperature correction to E(ZPE) due to population
              of excited vibrational states
    E(rot)  - is the rotational thermal energy
    E(trans)- is the translational thermal energy

Summary of contributions to the inner energy U:
Electronic energy                ...   -307.16200279 Eh
Zero point energy                ...      0.17394064 Eh     109.15 kcal/mol
Thermal vibrational correction   ...      0.00387046 Eh       2.43 kcal/mol
Thermal rotational correction    ...      0.00141627 Eh       0.89 kcal/mol
Thermal translational correction ...      0.00141627 Eh       0.89 kcal/mol
-----------------------------------------------------------------------
Total thermal energy                   -306.98135914 Eh

Summary of corrections to the electronic energy:
(perhaps to be used in another calculation)
Total thermal correction                  0.00670300 Eh       4.21 kcal/mol
Non-thermal (ZPE) correction              0.17394064 Eh     109.15 kcal/mol
-----------------------------------------------------------------------
Total correction                          0.18064365 Eh     113.36 kcal/mol

--------
ENTHALPY
--------

The enthalpy is H = U + kB*T
                kB is Boltzmann's constant
Total thermal energy              ...   -306.98135914 Eh
Thermal Enthalpy correction       ...      0.00094421 Eh       0.59 kcal/mol
-----------------------------------------------------------------------
Total Enthalpy                    ...   -306.98041493 Eh

Note: Rotational entropy computed according to Herzberg
Infrared and Raman Spectra, Chapter V,1, Van Nostrand Reinhold, 1945
Point Group:  Cs, Symmetry Number:   1
Rotational constants in cm-1:     0.155824     0.077849     0.056657

Vibrational entropy computed according to the QRRHO of S. Grimme
Chem.Eur.J. 2012 18 9955 using a reference frequency of 100.0 cm-1

-------
ENTROPY
-------

The entropy contributions are T*S = T*(S(el)+S(vib)+S(rot)+S(trans))
     S(el)   - electronic entropy
     S(vib)  - vibrational entropy
     S(rot)  - rotational entropy
     S(trans)- translational entropy
The entropies will be listed as multiplied by the temperature to get
units of energy

Electronic entropy                ...      0.00000000 Eh      0.00 kcal/mol
Vibrational entropy               ...      0.00594021 Eh      3.73 kcal/mol
Rotational entropy                ...      0.01294892 Eh      8.13 kcal/mol
Translational entropy             ...      0.01887358 Eh     11.84 kcal/mol
-----------------------------------------------------------------------
Final entropy term                ...      0.03776271 Eh     23.70 kcal/mol

In case the symmetry of your molecule has not been determined correctly
or in case you have a reason to use a different symmetry number we print
out the resulting rotational entropy values for sn=1,12:

 non-linear molecules -----------------------------------
|  sn= 1 | S(rot)=       0.01294892 Eh      8.13 kcal/mol|
|  sn= 2 | S(rot)=       0.01229447 Eh      7.71 kcal/mol|
|  sn= 3 | S(rot)=       0.01191163 Eh      7.47 kcal/mol|
|  sn= 4 | S(rot)=       0.01164001 Eh      7.30 kcal/mol|
|  sn= 5 | S(rot)=       0.01142932 Eh      7.17 kcal/mol|
|  sn= 6 | S(rot)=       0.01125718 Eh      7.06 kcal/mol|
|  sn= 7 | S(rot)=       0.01111163 Eh      6.97 kcal/mol|
|  sn= 8 | S(rot)=       0.01098555 Eh      6.89 kcal/mol|
|  sn= 9 | S(rot)=       0.01087435 Eh      6.82 kcal/mol|
|  sn=10 | S(rot)=       0.01077487 Eh      6.76 kcal/mol|
|  sn=11 | S(rot)=       0.01068488 Eh      6.70 kcal/mol|
|  sn=12 | S(rot)=       0.01060272 Eh      6.65 kcal/mol|
 linear molecules ---------------------------------------
|  Dinfh | S(rot)=       0.00803630 Eh      5.04 kcal/mol|

                             ****ORCA TERMINATED NORMALLY****
TOTAL RUN TIME: 0 days 0 hours 13 minutes 10 seconds 523 msec
