                         Program Version 6.0.1  -  RELEASE   -
|  1> ! r2scan-3c def2/J RI DEFGRID2 scfconv6 printgap
|  2> %output
|  3>     printlevel normal
|  4> end
|  5> * xyz 0 1
|  6> C -2.7817365133 0.1983880123 -1.0058805702
|  7> C -1.7541428393 -0.0479444016 0.0689612684
|  8> O -2.0482023158 -0.397937499 1.1839790924
|  9> C -0.3118210433 0.1650208067 -0.3587581388
| 10> C 0.4057874444 -1.1920215014 -0.3554977065
| 11> C 1.8787838867 -1.0248753756 -0.7127439074
| 12> C 2.5616335399 -0.073667994 0.2645986106
| 13> C 1.8579126031 1.2794822132 0.2633558082
| 14> C 0.3844074768 1.1173457502 0.6196794823
| 15> H -3.7803956997 -0.0168780614 -0.6353610997
| 16> H -2.7275466324 1.2379448089 -1.3234803044
| 17> H -2.565772621 -0.4292565197 -1.8680365258
| 18> H -0.278593546 0.5875890484 -1.367478259
| 19> H 0.3136939831 -1.6316105077 0.6395352871
| 20> H -0.0774520078 -1.8658647282 -1.0675004302
| 21> H 2.3718640838 -1.9988369192 -0.6929084462
| 22> H 1.9647113424 -0.626922251 -1.7270132403
| 23> H 2.5238044918 -0.499652176 1.2693818233
| 24> H 3.6114737626 0.0512362357 -0.0084482737
| 25> H 2.3357620297 1.9498569818 0.9803753329
| 26> H 1.9450323398 1.7328194867 -0.7274016788
| 27> H 0.2869977484 0.7110608546 1.6280197824
| 28> H -0.1140104676 2.089705434 0.6001333613
| 29> *
| 30>
| 31>                          ****END OF INPUT****

CARTESIAN COORDINATES (ANGSTROEM)
---------------------------------
  C     -2.781737    0.198388   -1.005881
  C     -1.754143   -0.047944    0.068961
  O     -2.048202   -0.397937    1.183979
  C     -0.311821    0.165021   -0.358758
  C      0.405787   -1.192022   -0.355498
  C      1.878784   -1.024875   -0.712744
  C      2.561634   -0.073668    0.264599
  C      1.857913    1.279482    0.263356
  C      0.384407    1.117346    0.619679
  H     -3.780396   -0.016878   -0.635361
  H     -2.727547    1.237945   -1.323480
  H     -2.565773   -0.429257   -1.868037
  H     -0.278594    0.587589   -1.367478
  H      0.313694   -1.631611    0.639535
  H     -0.077452   -1.865865   -1.067500
  H      2.371864   -1.998837   -0.692908
  H      1.964711   -0.626922   -1.727013
  H      2.523804   -0.499652    1.269382
  H      3.611474    0.051236   -0.008448
  H      2.335762    1.949857    0.980375
  H      1.945032    1.732819   -0.727402
  H      0.286998    0.711061    1.628020
  H     -0.114010    2.089705    0.600133

 Total Charge           Charge          ....    0
 Multiplicity           Mult            ....    1
 Number of Electrons    NEL             ....   70
 Basis Dimension        Dim             ....  246

ORBITAL ENERGIES
----------------

  NO   OCC          E(Eh)            E(eV)
   0   2.0000     -18.935736      -515.2676
   1   2.0000     -10.113839      -275.2116
   2   2.0000     -10.039457      -273.1875
   3   2.0000     -10.032748      -273.0050
   4   2.0000     -10.032091      -272.9871
   5   2.0000     -10.028284      -272.8835
   6   2.0000     -10.027895      -272.8729
   7   2.0000     -10.026496      -272.8348
   8   2.0000     -10.025091      -272.7966
   9   2.0000      -1.007230       -27.4081
  10   2.0000      -0.808518       -22.0009
  11   2.0000      -0.737536       -20.0694
  12   2.0000      -0.713275       -19.4092
  13   2.0000      -0.699417       -19.0321
  14   2.0000      -0.593600       -16.1527
  15   2.0000      -0.580168       -15.7872
  16   2.0000      -0.529350       -14.4043
  17   2.0000      -0.496763       -13.5176
  18   2.0000      -0.448028       -12.1915
  19   2.0000      -0.435769       -11.8579
  20   2.0000      -0.421143       -11.4599
  21   2.0000      -0.418222       -11.3804
  22   2.0000      -0.407285       -11.0828
  23   2.0000      -0.393526       -10.7084
  24   2.0000      -0.377958       -10.2848
  25   2.0000      -0.358228        -9.7479
  26   2.0000      -0.351791        -9.5727
  27   2.0000      -0.347093        -9.4449
  28   2.0000      -0.322696        -8.7810
  29   2.0000      -0.317897        -8.6504
  30   2.0000      -0.313440        -8.5291
  31   2.0000      -0.294933        -8.0255
  32   2.0000      -0.282591        -7.6897
  33   2.0000      -0.271116        -7.3774
  34   2.0000      -0.208889        -5.6842
  35   0.0000      -0.041756        -1.1362
  36   0.0000       0.073262         1.9936
  37   0.0000       0.092287         2.5113
  38   0.0000       0.105625         2.8742
  39   0.0000       0.113584         3.0908

MULLIKEN ATOMIC CHARGES
-----------------------
   0 C :   -0.495058
   1 C :    0.260947
   2 O :   -0.350093
   3 C :   -0.068162
   4 C :   -0.347071
   5 C :   -0.268684
   6 C :   -0.289984
   7 C :   -0.264149
   8 C :   -0.363666
   9 H :    0.175125
  10 H :    0.163375
  11 H :    0.159099
  12 H :    0.167721
  13 H :    0.179888
  14 H :    0.142211
  15 H :    0.148402
  16 H :    0.141060
  17 H :    0.146896
  18 H :    0.147661
  19 H :    0.147944
  20 H :    0.140404
  21 H :    0.182125
  22 H :    0.144011
Sum of atomic charges:   -0.0000000

LOEWDIN ATOMIC CHARGES
----------------------
   0 C :   -0.385402
   1 C :    0.223251
   2 O :   -0.459532
   3 C :   -0.209771
   4 C :   -0.271062
   5 C :   -0.300618
   6 C :   -0.303342
   7 C :   -0.301116
   8 C :   -0.273085
   9 H :    0.171329
  10 H :    0.173317
  11 H :    0.172141
  12 H :    0.165482
  13 H :    0.171093
  14 H :    0.159045
  15 H :    0.157054
  16 H :    0.154784
  17 H :    0.156553
  18 H :    0.155428
  19 H :    0.156921
  20 H :    0.154375
  21 H :    0.173282
  22 H :    0.159873

  Mayer bond orders larger than 0.100000
B(  0-C ,  1-C ) :   0.9082 B(  0-C ,  9-H ) :   0.9910 B(  0-C , 10-H ) :   0.9468
B(  0-C , 11-H ) :   0.9420 B(  1-C ,  2-O ) :   2.0011 B(  1-C ,  3-C ) :   0.8414
B(  3-C ,  4-C ) :   0.8996 B(  3-C ,  8-C ) :   0.8971 B(  3-C , 12-H ) :   0.9489
B(  4-C ,  5-C ) :   0.9031 B(  4-C , 13-H ) :   1.0017 B(  4-C , 14-H ) :   0.9372
B(  5-C ,  6-C ) :   0.9237 B(  5-C , 15-H ) :   0.9434 B(  5-C , 16-H ) :   0.9863
B(  6-C ,  7-C ) :   0.9216 B(  6-C , 17-H ) :   0.9964 B(  6-C , 18-H ) :   0.9479
B(  7-C ,  8-C ) :   0.9007 B(  7-C , 19-H ) :   0.9437 B(  7-C , 20-H ) :   0.9854
B(  8-C , 21-H ) :   1.0012 B(  8-C , 22-H ) :   0.9432

Dispersion correction           -0.007272642
FINAL SINGLE POINT ENERGY      -388.408519485077

DIPOLE MOMENT
-------------

Method             : SCF
Type of density    : Electron Density
Multiplicity       :   1
Irrep              :   0
Energy             :  -388.4109116369491517 Eh
Relativity type    :
Basis              : AO
                                X                 Y                 Z
Electronic contribution:     -4.998091295      -0.915026691       3.056316008
Nuclear contribution   :      5.419963073       1.205450335      -4.016725597
                        -----------------------------------------
Total Dipole Moment    :      0.421871778       0.290423644      -0.960409589
                        -----------------------------------------
Magnitude (a.u.)       :      1.088443048
Magnitude (Debye)      :      2.766602362

Rotational constants in cm-1:             0.104622             0.034407             0.031486
Rotational constants in MHz :          3136.494781          1031.500910           943.931554

                             ****ORCA TERMINATED NORMALLY****
TOTAL RUN TIME: 0 days 0 hours 0 minutes 41 seconds 754 msec
