                         Program Version 6.0.1  -  RELEASE   -
|  1> ! pbe def2-sv(p) def2/J RI DEFGRID1 loosescf d4 GCP(DFT/SV(P)) printgap
|  2> %output
|  3>     printlevel normal
|  4> end
|  5> * xyz 0 1
|  6> C -2.4908391472 -0.3322990013 -0.4697181678
|  7> C -1.1726512399 -0.2036158343 0.3035432395
|  8> H -1.3225812997 -0.5628493504 1.3361657073
|  9> C -0.6393717803 1.2494545427 0.3550300712
| 10> H -1.3880403357 1.9306531438 -0.0730678826
| 11> C 0.6420271804 1.3505561996 -0.5006549617
| 12> H 1.0464097688 2.3639261247 -0.4142830554
| 13> C 1.6994398085 0.3571929313 0.0305144112
| 14> H 2.4828986859 0.2475221662 -0.7299194209
| 15> C 1.0369562027 -1.0312395309 0.2666659816
| 16> H 0.9358463832 -1.201944091 1.3497401718
| 17> O -0.2488100357 -1.0644059946 -0.3418755335
| 18> O 1.7683412113 -2.091388903 -0.2177124341
| 19> O 2.339002714 0.8348251675 1.1766459367
| 20> O 0.3579273595 1.1507910996 -1.8565635099
| 21> O -0.3108987258 1.6415905688 1.6711048689
| 22> O -2.9832509146 -1.6398599412 -0.4278749473
| 23> H -2.327999786 -0.0035556138 -1.5069398515
| 24> H -3.2545443594 0.3018811178 -0.0138847426
| 25> H 1.887286659 -1.9958078748 -1.1709372203
| 26> H 1.6633169258 1.1688206272 1.7842424103
| 27> H 0.0341932267 0.2437701799 -1.9589935587
| 28> H -1.1158919499 1.7245877034 2.193679968
| 29> H -2.2652572597 -2.234084448 -0.6807057202
| 30> *
| 31>
| 32>                          ****END OF INPUT****

CARTESIAN COORDINATES (ANGSTROEM)
---------------------------------
  C     -2.490839   -0.332299   -0.469718
  C     -1.172651   -0.203616    0.303543
  H     -1.322581   -0.562849    1.336166
  C     -0.639372    1.249455    0.355030
  H     -1.388040    1.930653   -0.073068
  C      0.642027    1.350556   -0.500655
  H      1.046410    2.363926   -0.414283
  C      1.699440    0.357193    0.030514
  H      2.482899    0.247522   -0.729919
  C      1.036956   -1.031240    0.266666
  H      0.935846   -1.201944    1.349740
  O     -0.248810   -1.064406   -0.341876
  O      1.768341   -2.091389   -0.217712
  O      2.339003    0.834825    1.176646
  O      0.357927    1.150791   -1.856564
  O     -0.310899    1.641591    1.671105
  O     -2.983251   -1.639860   -0.427875
  H     -2.328000   -0.003556   -1.506940
  H     -3.254544    0.301881   -0.013885
  H      1.887287   -1.995808   -1.170937
  H      1.663317    1.168821    1.784242
  H      0.034193    0.243770   -1.958994
  H     -1.115892    1.724588    2.193680
  H     -2.265257   -2.234084   -0.680706

 Total Charge           Charge          ....    0
 Multiplicity           Mult            ....    1
 Number of Electrons    NEL             ....   96
 Basis Dimension        Dim             ....  192

ORBITAL ENERGIES
----------------

  NO   OCC          E(Eh)            E(eV)
   0   2.0000     -18.795009      -511.4382
   1   2.0000     -18.786847      -511.2161
   2   2.0000     -18.767956      -510.7020
   3   2.0000     -18.757508      -510.4178
   4   2.0000     -18.753390      -510.3057
   5   2.0000     -18.743084      -510.0252
   6   2.0000      -9.993043      -271.9245
   7   2.0000      -9.960546      -271.0402
   8   2.0000      -9.959547      -271.0131
   9   2.0000      -9.949025      -270.7267
  10   2.0000      -9.947739      -270.6917
  11   2.0000      -9.941215      -270.5142
  12   2.0000      -1.000628       -27.2285
  13   2.0000      -0.963098       -26.2072
  14   2.0000      -0.942333       -25.6422
  15   2.0000      -0.938249       -25.5310
  16   2.0000      -0.925550       -25.1855
  17   2.0000      -0.920762       -25.0552
  18   2.0000      -0.712831       -19.3971
  19   2.0000      -0.690022       -18.7765
  20   2.0000      -0.628643       -17.1062
  21   2.0000      -0.596889       -16.2422
  22   2.0000      -0.578329       -15.7371
  23   2.0000      -0.545257       -14.8372
  24   2.0000      -0.511094       -13.9076
  25   2.0000      -0.507467       -13.8089
  26   2.0000      -0.493924       -13.4404
  27   2.0000      -0.467859       -12.7311
  28   2.0000      -0.450179       -12.2500
  29   2.0000      -0.444324       -12.0907
  30   2.0000      -0.427549       -11.6342
  31   2.0000      -0.405120       -11.0239
  32   2.0000      -0.390634       -10.6297
  33   2.0000      -0.380565       -10.3557
  34   2.0000      -0.373779       -10.1710
  35   2.0000      -0.356910        -9.7120
  36   2.0000      -0.339064        -9.2264
  37   2.0000      -0.336950        -9.1689
  38   2.0000      -0.315593        -8.5877
  39   2.0000      -0.310934        -8.4609
  40   2.0000      -0.289291        -7.8720
  41   2.0000      -0.279674        -7.6103
  42   2.0000      -0.263335        -7.1657
  43   2.0000      -0.260769        -7.0959
  44   2.0000      -0.249827        -6.7981
  45   2.0000      -0.231391        -6.2965
  46   2.0000      -0.222146        -6.0449
  47   2.0000      -0.201986        -5.4963
  48   0.0000      -0.005150        -0.1401
  49   0.0000       0.015428         0.4198
  50   0.0000       0.032263         0.8779
  51   0.0000       0.047166         1.2835
  52   0.0000       0.052184         1.4200

MULLIKEN ATOMIC CHARGES
-----------------------
   0 C :    0.086767
   1 C :   -0.025306
   2 H :    0.063325
   3 C :    0.023942
   4 H :    0.081043
   5 C :    0.026798
   6 H :    0.087406
   7 C :    0.047733
   8 H :    0.064264
   9 C :    0.198386
  10 H :    0.058174
  11 O :   -0.329073
  12 O :   -0.370693
  13 O :   -0.421740
  14 O :   -0.417030
  15 O :   -0.425032
  16 O :   -0.427190
  17 H :    0.072505
  18 H :    0.086543
  19 H :    0.300481
  20 H :    0.304970
  21 H :    0.297061
  22 H :    0.314693
  23 H :    0.301975
Sum of atomic charges:    0.0000000

LOEWDIN ATOMIC CHARGES
----------------------
   0 C :   -0.128003
   1 C :   -0.086651
   2 H :    0.107099
   3 C :   -0.078605
   4 H :    0.111482
   5 C :   -0.073908
   6 H :    0.123025
   7 C :   -0.092350
   8 H :    0.115642
   9 C :   -0.001378
  10 H :    0.103904
  11 O :   -0.169147
  12 O :   -0.279710
  13 O :   -0.312318
  14 O :   -0.311609
  15 O :   -0.313983
  16 O :   -0.330558
  17 H :    0.099058
  18 H :    0.116456
  19 H :    0.284929
  20 H :    0.273518
  21 H :    0.266447
  22 H :    0.294192
  23 H :    0.282468

  Mayer bond orders larger than 0.100000
B(  0-C ,  1-C ) :   1.0474 B(  0-C , 16-O ) :   1.0844 B(  0-C , 17-H ) :   0.8969
B(  0-C , 18-H ) :   0.9180 B(  1-C ,  2-H ) :   0.8769 B(  1-C ,  3-C ) :   0.9440
B(  1-C , 11-O ) :   0.9809 B(  3-C ,  4-H ) :   0.9025 B(  3-C ,  5-C ) :   0.9920
B(  3-C , 15-O ) :   1.0196 B(  5-C ,  6-H ) :   0.8886 B(  5-C ,  7-C ) :   0.9746
B(  5-C , 14-O ) :   1.0519 B(  7-C ,  8-H ) :   0.8940 B(  7-C ,  9-C ) :   0.9610
B(  7-C , 13-O ) :   1.0699 B(  9-C , 10-H ) :   0.8747 B(  9-C , 11-O ) :   0.9724
B(  9-C , 12-O ) :   1.1558 B( 12-O , 19-H ) :   0.8439 B( 13-O , 20-H ) :   0.8186
B( 14-O , 21-H ) :   0.8193 B( 15-O , 22-H ) :   0.8411 B( 16-O , 23-H ) :   0.8401

Dispersion correction           -0.024963324
FINAL SINGLE POINT ENERGY      -685.691784672454

DIPOLE MOMENT
-------------

Method             : SCF
Type of density    : Electron Density
Multiplicity       :   1
Irrep              :   0
Energy             :  -685.8244930805889226 Eh
Relativity type    :
Basis              : AO
                                X                 Y                 Z
Electronic contribution:      2.609669471      -1.566147414       0.046116121
Nuclear contribution   :     -3.386605806       1.843006032       0.108035558
                        -----------------------------------------
Total Dipole Moment    :     -0.776936335       0.276858618       0.154151679
                        -----------------------------------------
Magnitude (a.u.)       :      0.839073002
Magnitude (Debye)      :      2.132754078

Rotational constants in cm-1:             0.040538             0.026302             0.021570
Rotational constants in MHz :          1215.302262           788.506141           646.655125

                             ****ORCA TERMINATED NORMALLY****
TOTAL RUN TIME: 0 days 0 hours 0 minutes 9 seconds 179 msec
