                         Program Version 6.0.1  -  RELEASE   -
|  1> ! pbe def2-sv(p) def2/J RI DEFGRID1 loosescf d4 GCP(DFT/SV(P)) printgap
|  2> %output
|  3>     printlevel normal
|  4> end
|  5> * xyz 0 1
|  6> C -2.5578336392 -0.8840486352 0.2592844024
|  7> C -1.1422482042 -0.4283952314 0.637371695
|  8> H -1.056649735 -0.3471638657 1.7314038356
|  9> C -0.8334899942 0.9453985497 0.0279374199
| 10> H -1.0614171379 0.9194361527 -1.048953813
| 11> C 0.6513811248 1.2888543917 0.2009712754
| 12> H 0.865841157 1.420584477 1.2751691058
| 13> C 1.5184294597 0.1442247125 -0.322683617
| 14> H 1.3491051478 0.0184176208 -1.4036934427
| 15> C 1.096042002 -1.1550625187 0.3762574826
| 16> H 1.279798553 -1.0520679304 1.4680840004
| 17> O -0.2608351165 -1.42935918 0.1540804871
| 18> O 1.8469327879 -2.1944264739 -0.1533423892
| 19> O 2.8644006649 0.4533197058 -0.0647317486
| 20> O 0.9025329202 2.4891555307 -0.4864719606
| 21> O -1.6386918718 1.8910006041 0.6801442794
| 22> O -2.678035801 -1.1048401038 -1.11717126
| 23> H -3.2646927201 -0.096801192 0.5232076723
| 24> H -2.7958280211 -1.7978549731 0.8217804033
| 25> H 1.4026799217 -3.0253628803 0.0519439609
| 26> H 3.38889703 -0.3325698101 -0.2595971692
| 27> H 1.8596649876 2.6071216819 -0.5174200829
| 28> H -1.3636522892 2.7604737298 0.3626245175
| 29> H -1.9467964354 -1.6776601017 -1.3807226673
| 30> *
| 31>
| 32>                          ****END OF INPUT****

CARTESIAN COORDINATES (ANGSTROEM)
---------------------------------
  C     -2.557834   -0.884049    0.259284
  C     -1.142248   -0.428395    0.637372
  H     -1.056650   -0.347164    1.731404
  C     -0.833490    0.945399    0.027937
  H     -1.061417    0.919436   -1.048954
  C      0.651381    1.288854    0.200971
  H      0.865841    1.420584    1.275169
  C      1.518429    0.144225   -0.322684
  H      1.349105    0.018418   -1.403693
  C      1.096042   -1.155063    0.376257
  H      1.279799   -1.052068    1.468084
  O     -0.260835   -1.429359    0.154080
  O      1.846933   -2.194426   -0.153342
  O      2.864401    0.453320   -0.064732
  O      0.902533    2.489156   -0.486472
  O     -1.638692    1.891001    0.680144
  O     -2.678036   -1.104840   -1.117171
  H     -3.264693   -0.096801    0.523208
  H     -2.795828   -1.797855    0.821780
  H      1.402680   -3.025363    0.051944
  H      3.388897   -0.332570   -0.259597
  H      1.859665    2.607122   -0.517420
  H     -1.363652    2.760474    0.362625
  H     -1.946796   -1.677660   -1.380723

 Total Charge           Charge          ....    0
 Multiplicity           Mult            ....    1
 Number of Electrons    NEL             ....   96
 Basis Dimension        Dim             ....  192

ORBITAL ENERGIES
----------------

  NO   OCC          E(Eh)            E(eV)
   0   2.0000     -18.789025      -511.2754
   1   2.0000     -18.776380      -510.9313
   2   2.0000     -18.764333      -510.6035
   3   2.0000     -18.756264      -510.3839
   4   2.0000     -18.751083      -510.2429
   5   2.0000     -18.745078      -510.0795
   6   2.0000      -9.997666      -272.0503
   7   2.0000      -9.949549      -270.7410
   8   2.0000      -9.945413      -270.6284
   9   2.0000      -9.943169      -270.5674
  10   2.0000      -9.940589      -270.4972
  11   2.0000      -9.929775      -270.2029
  12   2.0000      -1.000006       -27.2115
  13   2.0000      -0.951222       -25.8841
  14   2.0000      -0.944573       -25.7032
  15   2.0000      -0.930215       -25.3124
  16   2.0000      -0.920050       -25.0358
  17   2.0000      -0.917496       -24.9663
  18   2.0000      -0.707833       -19.2611
  19   2.0000      -0.697648       -18.9840
  20   2.0000      -0.620031       -16.8719
  21   2.0000      -0.586690       -15.9646
  22   2.0000      -0.564277       -15.3548
  23   2.0000      -0.533054       -14.5051
  24   2.0000      -0.521443       -14.1892
  25   2.0000      -0.488294       -13.2872
  26   2.0000      -0.471898       -12.8410
  27   2.0000      -0.462912       -12.5965
  28   2.0000      -0.444437       -12.0938
  29   2.0000      -0.441805       -12.0221
  30   2.0000      -0.423582       -11.5262
  31   2.0000      -0.413349       -11.2478
  32   2.0000      -0.385360       -10.4862
  33   2.0000      -0.374586       -10.1930
  34   2.0000      -0.363838        -9.9005
  35   2.0000      -0.356776        -9.7084
  36   2.0000      -0.336663        -9.1611
  37   2.0000      -0.330306        -8.9881
  38   2.0000      -0.311422        -8.4742
  39   2.0000      -0.300189        -8.1686
  40   2.0000      -0.285429        -7.7669
  41   2.0000      -0.276285        -7.5181
  42   2.0000      -0.260779        -7.0962
  43   2.0000      -0.250674        -6.8212
  44   2.0000      -0.232075        -6.3151
  45   2.0000      -0.222907        -6.0656
  46   2.0000      -0.215610        -5.8671
  47   2.0000      -0.214576        -5.8389
  48   0.0000       0.014358         0.3907
  49   0.0000       0.024388         0.6636
  50   0.0000       0.041496         1.1292
  51   0.0000       0.045141         1.2283
  52   0.0000       0.060069         1.6346

MULLIKEN ATOMIC CHARGES
-----------------------
   0 C :    0.101259
   1 C :   -0.025626
   2 H :    0.061020
   3 C :    0.068062
   4 H :    0.057866
   5 C :    0.069237
   6 H :    0.053194
   7 C :    0.038059
   8 H :    0.060128
   9 C :    0.176294
  10 H :    0.042541
  11 O :   -0.327716
  12 O :   -0.391787
  13 O :   -0.424310
  14 O :   -0.423839
  15 O :   -0.418852
  16 O :   -0.435938
  17 H :    0.100358
  18 H :    0.075200
  19 H :    0.310142
  20 H :    0.312956
  21 H :    0.312866
  22 H :    0.312419
  23 H :    0.296467
Sum of atomic charges:    0.0000000

LOEWDIN ATOMIC CHARGES
----------------------
   0 C :   -0.121630
   1 C :   -0.068216
   2 H :    0.109352
   3 C :   -0.067926
   4 H :    0.107594
   5 C :   -0.076951
   6 H :    0.103199
   7 C :   -0.092265
   8 H :    0.107926
   9 C :   -0.002129
  10 H :    0.082944
  11 O :   -0.153648
  12 O :   -0.306512
  13 O :   -0.321579
  14 O :   -0.323706
  15 O :   -0.315463
  16 O :   -0.328988
  17 H :    0.125657
  18 H :    0.097921
  19 H :    0.292766
  20 H :    0.291853
  21 H :    0.291342
  22 H :    0.291753
  23 H :    0.276708

  Mayer bond orders larger than 0.100000
B(  0-C ,  1-C ) :   1.0547 B(  0-C , 16-O ) :   1.0660 B(  0-C , 17-H ) :   0.9133
B(  0-C , 18-H ) :   0.9144 B(  1-C ,  2-H ) :   0.8703 B(  1-C ,  3-C ) :   1.0131
B(  1-C , 11-O ) :   0.9733 B(  3-C ,  4-H ) :   0.8625 B(  3-C ,  5-C ) :   1.0271
B(  3-C , 15-O ) :   1.0629 B(  5-C ,  6-H ) :   0.8719 B(  5-C ,  7-C ) :   1.0077
B(  5-C , 14-O ) :   1.0855 B(  7-C ,  8-H ) :   0.8640 B(  7-C ,  9-C ) :   0.9976
B(  7-C , 13-O ) :   1.0661 B(  9-C , 10-H ) :   0.8861 B(  9-C , 11-O ) :   1.0101
B(  9-C , 12-O ) :   1.1548 B( 12-O , 19-H ) :   0.8382 B( 13-O , 20-H ) :   0.8368
B( 14-O , 21-H ) :   0.8365 B( 15-O , 22-H ) :   0.8376 B( 16-O , 23-H ) :   0.8386

Dispersion correction           -0.024005201
FINAL SINGLE POINT ENERGY      -685.704866214595

DIPOLE MOMENT
-------------

Method             : SCF
Type of density    : Electron Density
Multiplicity       :   1
Irrep              :   0
Energy             :  -685.8362612030841774 Eh
Relativity type    :
Basis              : AO
                                X                 Y                 Z
Electronic contribution:      2.125626643      -0.094041404      -1.185658715
Nuclear contribution   :     -1.244656636      -0.564582728       1.508796131
                        -----------------------------------------
Total Dipole Moment    :      0.880970006      -0.658624132       0.323137415
                        -----------------------------------------
Magnitude (a.u.)       :      1.146434337
Magnitude (Debye)      :      2.914004504

Rotational constants in cm-1:             0.038882             0.027566             0.017982
Rotational constants in MHz :          1165.645000           826.416245           539.091652

                             ****ORCA TERMINATED NORMALLY****
TOTAL RUN TIME: 0 days 0 hours 0 minutes 7 seconds 798 msec
