                         Program Version 6.0.1  -  RELEASE   -
|  1> ! r2scan-3c def2/J RI DEFGRID2 scfconv6 printgap
|  2> %output
|  3>     printlevel normal
|  4> end
|  5> * xyz 0 1
|  6> C -2.5484609495 -0.8955710175 0.3210093321
|  7> C -1.1265865218 -0.4201594536 0.6525078283
|  8> H -1.011477865 -0.3092521328 1.7410548481
|  9> C -0.8411476977 0.9338100808 -0.0082987732
| 10> H -1.074404177 0.8508640053 -1.0846072647
| 11> C 0.6381571606 1.2932294954 0.1637360787
| 12> H 0.8313808664 1.5015928857 1.2233928607
| 13> C 1.5600896015 0.1539526468 -0.289317021
| 14> H 1.4906351705 0.0305980165 -1.3839297161
| 15> C 1.1229323278 -1.1709747957 0.3513637886
| 16> H 1.3419134139 -1.118369987 1.4377359735
| 17> O -0.2527918651 -1.4164407623 0.1600684719
| 18> O 1.8087674199 -2.1969561396 -0.2611664384
| 19> O 2.8807906958 0.414464162 0.096692247
| 20> O 0.9545752011 2.4962490756 -0.5052116523
| 21> O -1.6577640616 1.903462955 0.5955852502
| 22> O -2.6885606973 -1.1689680193 -1.0443349691
| 23> H -3.2549088982 -0.1018374022 0.5662828616
| 24> H -2.7714141019 -1.7877456301 0.9220790239
| 25> H 1.4794955918 -3.0384484991 0.0772619272
| 26> H 3.0756192178 1.3367683879 -0.118860645
| 27> H 0.8019485711 2.3786829444 -1.4519177521
| 28> H -1.2911095331 2.7721147686 0.3825528149
| 29> H -1.9654329415 -1.7601721227 -1.2909212955
| 30> *
| 31>
| 32>                          ****END OF INPUT****

CARTESIAN COORDINATES (ANGSTROEM)
---------------------------------
  C     -2.548461   -0.895571    0.321009
  C     -1.126587   -0.420159    0.652508
  H     -1.011478   -0.309252    1.741055
  C     -0.841148    0.933810   -0.008299
  H     -1.074404    0.850864   -1.084607
  C      0.638157    1.293229    0.163736
  H      0.831381    1.501593    1.223393
  C      1.560090    0.153953   -0.289317
  H      1.490635    0.030598   -1.383930
  C      1.122932   -1.170975    0.351364
  H      1.341913   -1.118370    1.437736
  O     -0.252792   -1.416441    0.160068
  O      1.808767   -2.196956   -0.261166
  O      2.880791    0.414464    0.096692
  O      0.954575    2.496249   -0.505212
  O     -1.657764    1.903463    0.595585
  O     -2.688561   -1.168968   -1.044335
  H     -3.254909   -0.101837    0.566283
  H     -2.771414   -1.787746    0.922079
  H      1.479496   -3.038448    0.077262
  H      3.075619    1.336768   -0.118861
  H      0.801949    2.378683   -1.451918
  H     -1.291110    2.772115    0.382553
  H     -1.965433   -1.760172   -1.290921

 Total Charge           Charge          ....    0
 Multiplicity           Mult            ....    1
 Number of Electrons    NEL             ....   96
 Basis Dimension        Dim             ....  318

ORBITAL ENERGIES
----------------

  NO   OCC          E(Eh)            E(eV)
   0   2.0000     -18.983581      -516.5695
   1   2.0000     -18.981688      -516.5180
   2   2.0000     -18.971491      -516.2405
   3   2.0000     -18.963246      -516.0162
   4   2.0000     -18.961135      -515.9587
   5   2.0000     -18.950828      -515.6783
   6   2.0000     -10.148219      -276.1471
   7   2.0000     -10.101098      -274.8649
   8   2.0000     -10.099345      -274.8171
   9   2.0000     -10.097903      -274.7779
  10   2.0000     -10.095306      -274.7073
  11   2.0000     -10.080965      -274.3170
  12   2.0000      -1.061415       -28.8826
  13   2.0000      -1.029954       -28.0265
  14   2.0000      -1.009070       -27.4582
  15   2.0000      -0.997262       -27.1369
  16   2.0000      -0.995043       -27.0765
  17   2.0000      -0.983352       -26.7584
  18   2.0000      -0.757668       -20.6172
  19   2.0000      -0.743530       -20.2325
  20   2.0000      -0.665938       -18.1211
  21   2.0000      -0.624757       -17.0005
  22   2.0000      -0.601811       -16.3761
  23   2.0000      -0.566830       -15.4242
  24   2.0000      -0.531065       -14.4510
  25   2.0000      -0.514704       -14.0058
  26   2.0000      -0.507170       -13.8008
  27   2.0000      -0.480219       -13.0674
  28   2.0000      -0.474299       -12.9063
  29   2.0000      -0.463590       -12.6149
  30   2.0000      -0.452906       -12.3242
  31   2.0000      -0.441740       -12.0203
  32   2.0000      -0.407051       -11.0764
  33   2.0000      -0.396294       -10.7837
  34   2.0000      -0.391162       -10.6441
  35   2.0000      -0.386047       -10.5049
  36   2.0000      -0.352480        -9.5915
  37   2.0000      -0.346829        -9.4377
  38   2.0000      -0.333734        -9.0814
  39   2.0000      -0.322170        -8.7667
  40   2.0000      -0.314766        -8.5652
  41   2.0000      -0.299413        -8.1474
  42   2.0000      -0.284728        -7.7478
  43   2.0000      -0.276397        -7.5211
  44   2.0000      -0.264371        -7.1939
  45   2.0000      -0.248945        -6.7741
  46   2.0000      -0.238066        -6.4781
  47   2.0000      -0.235859        -6.4180
  48   0.0000       0.023275         0.6333
  49   0.0000       0.050389         1.3711
  50   0.0000       0.053928         1.4675
  51   0.0000       0.067276         1.8307
  52   0.0000       0.080606         2.1934

MULLIKEN ATOMIC CHARGES
-----------------------
   0 C :   -0.239239
   1 C :    0.047562
   2 H :    0.168170
   3 C :   -0.044744
   4 H :    0.191810
   5 C :   -0.133372
   6 H :    0.180864
   7 C :    0.079887
   8 H :    0.167439
   9 C :   -0.087902
  10 H :    0.144904
  11 O :   -0.230866
  12 O :   -0.377831
  13 O :   -0.414742
  14 O :   -0.435109
  15 O :   -0.432316
  16 O :   -0.425407
  17 H :    0.158796
  18 H :    0.137399
  19 H :    0.306442
  20 H :    0.311746
  21 H :    0.304607
  22 H :    0.311307
  23 H :    0.310594
Sum of atomic charges:   -0.0000000

LOEWDIN ATOMIC CHARGES
----------------------
   0 C :    0.045237
   1 C :    0.117012
   2 H :    0.187606
   3 C :    0.100912
   4 H :    0.186404
   5 C :    0.093550
   6 H :    0.204224
   7 C :    0.116824
   8 H :    0.184272
   9 C :    0.310695
  10 H :    0.182844
  11 O :   -0.694240
  12 O :   -0.476345
  13 O :   -0.558924
  14 O :   -0.579900
  15 O :   -0.578497
  16 O :   -0.589250
  17 H :    0.195537
  18 H :    0.164161
  19 H :    0.280216
  20 H :    0.280330
  21 H :    0.271915
  22 H :    0.280162
  23 H :    0.275251

  Mayer bond orders larger than 0.100000
B(  0-C ,  1-C ) :   0.9493 B(  0-C , 16-O ) :   1.0215 B(  0-C , 17-H ) :   0.9611
B(  0-C , 18-H ) :   0.9793 B(  1-C ,  2-H ) :   0.9249 B(  1-C ,  3-C ) :   0.8419
B(  1-C , 11-O ) :   0.7711 B(  1-C , 16-O ) :  -0.1031 B(  3-C ,  4-H ) :   1.0015
B(  3-C ,  5-C ) :   0.8502 B(  3-C , 15-O ) :   0.8507 B(  5-C ,  6-H ) :   0.9652
B(  5-C ,  7-C ) :   0.8855 B(  5-C , 14-O ) :   1.0491 B(  7-C ,  8-H ) :   0.9607
B(  7-C ,  9-C ) :   0.8469 B(  7-C , 13-O ) :   0.8813 B(  9-C , 10-H ) :   1.0153
B(  9-C , 11-O ) :   0.9203 B(  9-C , 12-O ) :   1.0790 B( 12-O , 19-H ) :   0.8825
B( 13-O , 20-H ) :   0.8741 B( 14-O , 21-H ) :   0.8868 B( 15-O , 22-H ) :   0.8760
B( 16-O , 23-H ) :   0.8694

Dispersion correction           -0.008086053
FINAL SINGLE POINT ENERGY      -687.075839173439

DIPOLE MOMENT
-------------

Method             : SCF
Type of density    : Electron Density
Multiplicity       :   1
Irrep              :   0
Energy             :  -687.0873828890287314 Eh
Relativity type    :
Basis              : AO
                                X                 Y                 Z
Electronic contribution:      2.350136787      -0.557910204      -0.853561865
Nuclear contribution   :     -2.187111899       0.708597602       0.942851792
                        -----------------------------------------
Total Dipole Moment    :      0.163024887       0.150687398       0.089289927
                        -----------------------------------------
Magnitude (a.u.)       :      0.239283298
Magnitude (Debye)      :      0.608209809

Rotational constants in cm-1:             0.038752             0.027585             0.017915
Rotational constants in MHz :          1161.757640           826.979396           537.074583

                             ****ORCA TERMINATED NORMALLY****
TOTAL RUN TIME: 0 days 0 hours 0 minutes 38 seconds 76 msec
