                         Program Version 6.0.1  -  RELEASE   -
|  1> ! r2scan-3c def2/J RI DEFGRID2 scfconv6 printgap
|  2> %output
|  3>     printlevel normal
|  4> end
|  5> * xyz 0 1
|  6> C 4.4848299134 -0.2806706454 0.0410216025
|  7> C 3.9388505974 0.8577917517 0.6111130058
|  8> C 2.5740220088 1.0679947822 0.5709342529
|  9> C 1.747583373 0.1354662433 -0.0470679331
| 10> C 2.2916708468 -0.9998921169 -0.6330757978
| 11> C 3.6595644688 -1.2028360332 -0.5792168531
| 12> N 0.3512149951 0.3908440512 -0.0841761498
| 13> C -0.5815084818 -0.6531094234 0.0742311178
| 14> O -0.2318168959 -1.8033608256 0.2489356003
| 15> C -1.9474256715 -0.1964915405 0.0276685793
| 16> C -2.2965795143 1.1235667423 -0.1284802237
| 17> C -1.2018983172 2.0360693499 -0.2357333386
| 18> N 0.0306603011 1.666354484 -0.2072724693
| 19> N -3.5805510675 1.5437471929 -0.2243539276
| 20> Cl -3.1664696653 -1.4123603041 0.2053573944
| 21> H 5.5509632793 -0.4472836382 0.079490002
| 22> H 4.5772934671 1.5825715061 1.0938457816
| 23> H 2.1342375184 1.9496331168 1.0102580087
| 24> H 1.6548567421 -1.7200618242 -1.1182408804
| 25> H 4.0815147335 -2.0875744048 -1.0316052135
| 26> H -1.3741230666 3.0949718469 -0.3504570144
| 27> H -3.7884810317 2.5209011333 -0.1258665287
| 28> H -4.2996991534 0.8735834318 -0.0059931618
| 29> *
| 30>
| 31>                          ****END OF INPUT****

CARTESIAN COORDINATES (ANGSTROEM)
---------------------------------
  C      4.484830   -0.280671    0.041022
  C      3.938851    0.857792    0.611113
  C      2.574022    1.067995    0.570934
  C      1.747583    0.135466   -0.047068
  C      2.291671   -0.999892   -0.633076
  C      3.659564   -1.202836   -0.579217
  N      0.351215    0.390844   -0.084176
  C     -0.581508   -0.653109    0.074231
  O     -0.231817   -1.803361    0.248936
  C     -1.947426   -0.196492    0.027669
  C     -2.296580    1.123567   -0.128480
  C     -1.201898    2.036069   -0.235733
  N      0.030660    1.666354   -0.207272
  N     -3.580551    1.543747   -0.224354
  Cl    -3.166470   -1.412360    0.205357
  H      5.550963   -0.447284    0.079490
  H      4.577293    1.582572    1.093846
  H      2.134238    1.949633    1.010258
  H      1.654857   -1.720062   -1.118241
  H      4.081515   -2.087574   -1.031605
  H     -1.374123    3.094972   -0.350457
  H     -3.788481    2.520901   -0.125867
  H     -4.299699    0.873583   -0.005993

 Total Charge           Charge          ....    0
 Multiplicity           Mult            ....    1
 Number of Electrons    NEL             ....  114
 Basis Dimension        Dim             ....  353

ORBITAL ENERGIES
----------------

  NO   OCC          E(Eh)            E(eV)
   0   2.0000    -101.231455     -2754.6479
   1   2.0000     -18.914035      -514.6771
   2   2.0000     -14.261074      -388.0635
   3   2.0000     -14.217229      -386.8705
   4   2.0000     -14.208128      -386.6228
   5   2.0000     -10.141528      -275.9650
   6   2.0000     -10.118744      -275.3450
   7   2.0000     -10.103525      -274.9309
   8   2.0000     -10.090893      -274.5871
   9   2.0000     -10.082630      -274.3623
  10   2.0000     -10.039434      -273.1869
  11   2.0000     -10.038494      -273.1613
  12   2.0000     -10.037491      -273.1340
  13   2.0000     -10.036889      -273.1176
  14   2.0000     -10.036235      -273.0998
  15   2.0000      -9.386711      -255.4254
  16   2.0000      -7.133037      -194.0998
  17   2.0000      -7.123039      -193.8277
  18   2.0000      -7.122467      -193.8122
  19   2.0000      -1.048377       -28.5278
  20   2.0000      -0.989457       -26.9245
  21   2.0000      -0.935325       -25.4515
  22   2.0000      -0.856871       -23.3166
  23   2.0000      -0.842254       -22.9189
  24   2.0000      -0.813932       -22.1482
  25   2.0000      -0.751929       -20.4610
  26   2.0000      -0.722045       -19.6478
  27   2.0000      -0.720588       -19.6082
  28   2.0000      -0.644638       -17.5415
  29   2.0000      -0.640620       -17.4321
  30   2.0000      -0.583399       -15.8751
  31   2.0000      -0.580680       -15.8011
  32   2.0000      -0.556470       -15.1423
  33   2.0000      -0.522903       -14.2289
  34   2.0000      -0.509547       -13.8655
  35   2.0000      -0.480658       -13.0794
  36   2.0000      -0.468250       -12.7417
  37   2.0000      -0.460526       -12.5316
  38   2.0000      -0.438595       -11.9348
  39   2.0000      -0.421288       -11.4638
  40   2.0000      -0.408426       -11.1138
  41   2.0000      -0.404301       -11.0016
  42   2.0000      -0.395676       -10.7669
  43   2.0000      -0.390248       -10.6192
  44   2.0000      -0.377568       -10.2741
  45   2.0000      -0.360285        -9.8039
  46   2.0000      -0.346401        -9.4261
  47   2.0000      -0.334012        -9.0889
  48   2.0000      -0.319363        -8.6903
  49   2.0000      -0.310135        -8.4392
  50   2.0000      -0.297256        -8.0888
  51   2.0000      -0.286613        -7.7991
  52   2.0000      -0.266922        -7.2633
  53   2.0000      -0.240389        -6.5413
  54   2.0000      -0.226604        -6.1662
  55   2.0000      -0.217994        -5.9319
  56   2.0000      -0.208410        -5.6711
  57   0.0000      -0.086723        -2.3598
  58   0.0000      -0.036957        -1.0056
  59   0.0000      -0.032633        -0.8880
  60   0.0000      -0.017135        -0.4663
  61   0.0000       0.003557         0.0968

MULLIKEN ATOMIC CHARGES
-----------------------
   0 C :   -0.150820
   1 C :   -0.136867
   2 C :   -0.242762
   3 C :    0.079125
   4 C :   -0.228759
   5 C :   -0.153422
   6 N :    0.517573
   7 C :    0.130281
   8 O :   -0.428386
   9 C :   -0.179079
  10 C :    0.636990
  11 C :   -0.415967
  12 N :   -0.276642
  13 N :   -0.497467
  14 Cl:   -0.120082
  15 H :    0.147118
  16 H :    0.148112
  17 H :    0.163028
  18 H :    0.178776
  19 H :    0.148852
  20 H :    0.137011
  21 H :    0.263900
  22 H :    0.279487
Sum of atomic charges:    0.0000000

LOEWDIN ATOMIC CHARGES
----------------------
   0 C :   -0.162190
   1 C :   -0.160263
   2 C :   -0.101642
   3 C :    0.191594
   4 C :   -0.089351
   5 C :   -0.156927
   6 N :   -0.513641
   7 C :    0.372642
   8 O :   -0.465375
   9 C :   -0.115333
  10 C :    0.154415
  11 C :    0.146807
  12 N :   -0.344636
  13 N :   -0.561676
  14 Cl:    0.192377
  15 H :    0.167491
  16 H :    0.168965
  17 H :    0.188604
  18 H :    0.196976
  19 H :    0.169953
  20 H :    0.198895
  21 H :    0.259636
  22 H :    0.262679

  Mayer bond orders larger than 0.100000
B(  0-C ,  1-C ) :   1.4083 B(  0-C ,  5-C ) :   1.4108 B(  0-C , 15-H ) :   0.9456
B(  1-C ,  2-C ) :   1.3756 B(  1-C , 16-H ) :   0.9486 B(  2-C ,  3-C ) :   1.3603
B(  2-C , 17-H ) :   0.9417 B(  3-C ,  4-C ) :   1.4690 B(  3-C ,  6-N ) :   0.9908
B(  4-C ,  5-C ) :   1.3982 B(  4-C , 18-H ) :   0.9175 B(  5-C , 19-H ) :   0.9534
B(  6-N ,  7-C ) :   1.0081 B(  6-N , 11-C ) :   0.1619 B(  6-N , 12-N ) :   1.2840
B(  7-C ,  8-O ) :   1.9114 B(  7-C ,  9-C ) :   0.9621 B(  9-C , 10-C ) :   1.3178
B(  9-C , 13-N ) :   0.1262 B(  9-C , 14-Cl) :   1.0992 B( 10-C , 11-C ) :   0.9180
B( 10-C , 13-N ) :   0.9916 B( 11-C , 12-N ) :   1.5982 B( 11-C , 20-H ) :   1.0005
B( 13-N , 21-H ) :   0.9243 B( 13-N , 22-H ) :   0.9056

Dispersion correction           -0.010505286
FINAL SINGLE POINT ENERGY     -1085.384639933111

DIPOLE MOMENT
-------------

Method             : SCF
Type of density    : Electron Density
Multiplicity       :   1
Irrep              :   0
Energy             : -1085.3906359855357096 Eh
Relativity type    :
Basis              : AO
                                X                 Y                 Z
Electronic contribution:    -13.067641160      -5.584035098       0.628903185
Nuclear contribution   :     12.237818731       7.298993333      -0.695619489
                        -----------------------------------------
Total Dipole Moment    :     -0.829822429       1.714958235      -0.066716304
                        -----------------------------------------
Magnitude (a.u.)       :      1.906341542
Magnitude (Debye)      :      4.845535119

Rotational constants in cm-1:             0.044550             0.010708             0.008877
Rotational constants in MHz :          1335.569147           321.027796           266.132528

                             ****ORCA TERMINATED NORMALLY****
TOTAL RUN TIME: 0 days 0 hours 1 minutes 9 seconds 937 msec
