                         Program Version 6.0.1  -  RELEASE   -
|  1> ! pbe def2-sv(p) def2/J RI DEFGRID1 loosescf d4 GCP(DFT/SV(P)) printgap
|  2> %output
|  3>     printlevel normal
|  4> end
|  5> * xyz 0 1
|  6> C -1.8394690738 -1.0106928341 -0.7884521572
|  7> C -1.298277888 -0.1685033257 0.3858515854
|  8> H -2.10170083 -0.0529879455 1.1215508562
|  9> C -0.8253435667 1.2349967954 -0.0767079291
| 10> H -1.0015673727 1.3400220986 -1.1557927937
| 11> C 0.6807023693 1.3683933695 0.1881963979
| 12> H 0.8670406912 1.4277790821 1.2685570853
| 13> C 1.384324658 0.1137831956 -0.3557526168
| 14> H 1.1000460222 -0.0287164902 -1.4137616275
| 15> C 0.9082823381 -1.101245281 0.4675689332
| 16> H 1.6408450755 -1.2802313727 1.2700217615
| 17> O -0.2906220876 -0.8527285884 1.1227699312
| 18> O 0.7754514934 -2.2531635701 -0.3296689532
| 19> O 2.7778176032 0.2268392646 -0.2535885575
| 20> O 1.250462967 2.5309211031 -0.3580262003
| 21> O -1.564076194 2.2764425107 0.4991495671
| 22> O -2.1633927692 -2.3071839542 -0.3913604387
| 23> H -1.1007231366 -1.0279209134 -1.6030626227
| 24> H -2.7594761738 -0.5491110022 -1.1544094387
| 25> H 1.6429400966 -2.4985666582 -0.6674890571
| 26> H 2.9942370931 1.1683802649 -0.3289254149
| 27> H 0.8159963089 2.7417808897 -1.1928889114
| 28> H -1.4228269624 2.2801449936 1.4535406599
| 29> H -1.3509922497 -2.7108127156 -0.0526538457
| 30> *
| 31>
| 32>                          ****END OF INPUT****

CARTESIAN COORDINATES (ANGSTROEM)
---------------------------------
  C     -1.839469   -1.010693   -0.788452
  C     -1.298278   -0.168503    0.385852
  H     -2.101701   -0.052988    1.121551
  C     -0.825344    1.234997   -0.076708
  H     -1.001567    1.340022   -1.155793
  C      0.680702    1.368393    0.188196
  H      0.867041    1.427779    1.268557
  C      1.384325    0.113783   -0.355753
  H      1.100046   -0.028716   -1.413762
  C      0.908282   -1.101245    0.467569
  H      1.640845   -1.280231    1.270022
  O     -0.290622   -0.852729    1.122770
  O      0.775451   -2.253164   -0.329669
  O      2.777818    0.226839   -0.253589
  O      1.250463    2.530921   -0.358026
  O     -1.564076    2.276443    0.499150
  O     -2.163393   -2.307184   -0.391360
  H     -1.100723   -1.027921   -1.603063
  H     -2.759476   -0.549111   -1.154409
  H      1.642940   -2.498567   -0.667489
  H      2.994237    1.168380   -0.328925
  H      0.815996    2.741781   -1.192889
  H     -1.422827    2.280145    1.453541
  H     -1.350992   -2.710813   -0.052654

 Total Charge           Charge          ....    0
 Multiplicity           Mult            ....    1
 Number of Electrons    NEL             ....   96
 Basis Dimension        Dim             ....  192

ORBITAL ENERGIES
----------------

  NO   OCC          E(Eh)            E(eV)
   0   2.0000     -18.781152      -511.0611
   1   2.0000     -18.774392      -510.8772
   2   2.0000     -18.773614      -510.8560
   3   2.0000     -18.760680      -510.5041
   4   2.0000     -18.757143      -510.4078
   5   2.0000     -18.733586      -509.7668
   6   2.0000      -9.995722      -271.9974
   7   2.0000      -9.957405      -270.9548
   8   2.0000      -9.955759      -270.9100
   9   2.0000      -9.947988      -270.6985
  10   2.0000      -9.947776      -270.6928
  11   2.0000      -9.929746      -270.2021
  12   2.0000      -0.994063       -27.0498
  13   2.0000      -0.961900       -26.1746
  14   2.0000      -0.942710       -25.6525
  15   2.0000      -0.928540       -25.2669
  16   2.0000      -0.926134       -25.2014
  17   2.0000      -0.911838       -24.8124
  18   2.0000      -0.714822       -19.4513
  19   2.0000      -0.695912       -18.9367
  20   2.0000      -0.622799       -16.9472
  21   2.0000      -0.597278       -16.2528
  22   2.0000      -0.577983       -15.7277
  23   2.0000      -0.527944       -14.3661
  24   2.0000      -0.516846       -14.0641
  25   2.0000      -0.503623       -13.7043
  26   2.0000      -0.475277       -12.9329
  27   2.0000      -0.460029       -12.5180
  28   2.0000      -0.449598       -12.2342
  29   2.0000      -0.436171       -11.8688
  30   2.0000      -0.428051       -11.6479
  31   2.0000      -0.406860       -11.0712
  32   2.0000      -0.405294       -11.0286
  33   2.0000      -0.382925       -10.4199
  34   2.0000      -0.368000       -10.0138
  35   2.0000      -0.355779        -9.6812
  36   2.0000      -0.328258        -8.9323
  37   2.0000      -0.327650        -8.9158
  38   2.0000      -0.312853        -8.5132
  39   2.0000      -0.298715        -8.1284
  40   2.0000      -0.287123        -7.8130
  41   2.0000      -0.276198        -7.5157
  42   2.0000      -0.271129        -7.3778
  43   2.0000      -0.252942        -6.8829
  44   2.0000      -0.235162        -6.3991
  45   2.0000      -0.229733        -6.2513
  46   2.0000      -0.220672        -6.0048
  47   2.0000      -0.200738        -5.4624
  48   0.0000       0.012079         0.3287
  49   0.0000       0.022553         0.6137
  50   0.0000       0.024075         0.6551
  51   0.0000       0.037932         1.0322
  52   0.0000       0.053844         1.4652

MULLIKEN ATOMIC CHARGES
-----------------------
   0 C :    0.024226
   1 C :    0.025923
   2 H :    0.072231
   3 C :    0.041654
   4 H :    0.055345
   5 C :    0.038390
   6 H :    0.062649
   7 C :   -0.004810
   8 H :    0.046141
   9 C :    0.240957
  10 H :    0.072373
  11 O :   -0.299617
  12 O :   -0.416706
  13 O :   -0.417027
  14 O :   -0.408883
  15 O :   -0.403787
  16 O :   -0.436511
  17 H :    0.076928
  18 H :    0.095267
  19 H :    0.314191
  20 H :    0.306138
  21 H :    0.306631
  22 H :    0.303386
  23 H :    0.304912
Sum of atomic charges:    0.0000000

LOEWDIN ATOMIC CHARGES
----------------------
   0 C :   -0.143254
   1 C :   -0.075719
   2 H :    0.121547
   3 C :   -0.078999
   4 H :    0.111108
   5 C :   -0.087051
   6 H :    0.116904
   7 C :   -0.102579
   8 H :    0.095713
   9 C :    0.007822
  10 H :    0.106581
  11 O :   -0.124194
  12 O :   -0.321126
  13 O :   -0.325248
  14 O :   -0.306194
  15 O :   -0.308442
  16 O :   -0.330452
  17 H :    0.092747
  18 H :    0.119283
  19 H :    0.298466
  20 H :    0.282115
  21 H :    0.290397
  22 H :    0.287440
  23 H :    0.273133

  Mayer bond orders larger than 0.100000
B(  0-C ,  1-C ) :   1.0320 B(  0-C , 16-O ) :   1.0959 B(  0-C , 17-H ) :   0.9014
B(  0-C , 18-H ) :   0.9128 B(  1-C ,  2-H ) :   0.8870 B(  1-C ,  3-C ) :   0.9467
B(  1-C , 11-O ) :   1.0262 B(  3-C ,  4-H ) :   0.8714 B(  3-C ,  5-C ) :   1.0183
B(  3-C , 15-O ) :   1.0561 B(  5-C ,  6-H ) :   0.8582 B(  5-C ,  7-C ) :   0.9981
B(  5-C , 14-O ) :   1.0540 B(  7-C ,  8-H ) :   0.8642 B(  7-C ,  9-C ) :   0.9759
B(  7-C , 13-O ) :   1.1008 B(  9-C , 10-H ) :   0.8901 B(  9-C , 11-O ) :   1.0841
B(  9-C , 12-O ) :   1.0278 B( 12-O , 19-H ) :   0.8373 B( 13-O , 20-H ) :   0.8216
B( 14-O , 21-H ) :   0.8444 B( 15-O , 22-H ) :   0.8505 B( 16-O , 23-H ) :   0.8253

Dispersion correction           -0.024982378
FINAL SINGLE POINT ENERGY      -685.689467874965

DIPOLE MOMENT
-------------

Method             : SCF
Type of density    : Electron Density
Multiplicity       :   1
Irrep              :   0
Energy             :  -685.8212684353891291 Eh
Relativity type    :
Basis              : AO
                                X                 Y                 Z
Electronic contribution:      1.378628100      -0.207919753       2.028459040
Nuclear contribution   :     -0.622734347       0.754080037      -2.299216147
                        -----------------------------------------
Total Dipole Moment    :      0.755893753       0.546160284      -0.270757106
                        -----------------------------------------
Magnitude (a.u.)       :      0.971069427
Magnitude (Debye)      :      2.468262328

Rotational constants in cm-1:             0.039876             0.028993             0.019039
Rotational constants in MHz :          1195.460670           869.192321           570.782922

                             ****ORCA TERMINATED NORMALLY****
TOTAL RUN TIME: 0 days 0 hours 0 minutes 8 seconds 154 msec
