                         Program Version 6.0.1  -  RELEASE   -
|  1> ! pbe def2-sv(p) def2/J RI DEFGRID1 loosescf d4 GCP(DFT/SV(P)) printgap
|  2> %output
|  3>     printlevel normal
|  4> end
|  5> * xyz 0 1
|  6> C -2.2761760428 -0.321394988 -0.0826576849
|  7> C -1.8520133036 0.9967998647 -0.1101736865
|  8> C -0.5047855737 1.2951710997 -0.0147121581
|  9> C 0.4321718161 0.27816663 0.1159592058
| 10> C -0.0002207834 -1.0408862985 0.1476047866
| 11> C -1.3474743352 -1.3394679025 0.0463617769
| 12> C 1.9019330002 0.6024106208 0.2309279295
| 13> O 2.7515256831 -0.4184957015 -0.2352341568
| 14> H -3.3280411671 -0.5533249732 -0.1611743299
| 15> H -2.5730291619 1.7948606371 -0.2105870319
| 16> H -0.1750186047 2.3243117054 -0.0398419414
| 17> H 0.7285006084 -1.8312340218 0.2565867744
| 18> H -1.6724396154 -2.3693255929 0.0712475264
| 19> H 2.1122371303 1.5487980446 -0.2906967347
| 20> H 2.1651188774 0.7356836349 1.2861936548
| 21> H 2.5205614775 -0.6170151678 -1.1496315531
| 22> *
| 23>
| 24>                          ****END OF INPUT****

CARTESIAN COORDINATES (ANGSTROEM)
---------------------------------
  C     -2.276176   -0.321395   -0.082658
  C     -1.852013    0.996800   -0.110174
  C     -0.504786    1.295171   -0.014712
  C      0.432172    0.278167    0.115959
  C     -0.000221   -1.040886    0.147605
  C     -1.347474   -1.339468    0.046362
  C      1.901933    0.602411    0.230928
  O      2.751526   -0.418496   -0.235234
  H     -3.328041   -0.553325   -0.161174
  H     -2.573029    1.794861   -0.210587
  H     -0.175019    2.324312   -0.039842
  H      0.728501   -1.831234    0.256587
  H     -1.672440   -2.369326    0.071248
  H      2.112237    1.548798   -0.290697
  H      2.165119    0.735684    1.286194
  H      2.520561   -0.617015   -1.149632

 Total Charge           Charge          ....    0
 Multiplicity           Mult            ....    1
 Number of Electrons    NEL             ....   58
 Basis Dimension        Dim             ....  128

ORBITAL ENERGIES
----------------

  NO   OCC          E(Eh)            E(eV)
   0   2.0000     -18.748206      -510.1646
   1   2.0000      -9.936608      -270.3888
   2   2.0000      -9.900639      -269.4101
   3   2.0000      -9.894354      -269.2391
   4   2.0000      -9.893879      -269.2261
   5   2.0000      -9.893532      -269.2167
   6   2.0000      -9.892943      -269.2007
   7   2.0000      -9.890944      -269.1463
   8   2.0000      -0.927064       -25.2267
   9   2.0000      -0.778363       -21.1803
  10   2.0000      -0.689150       -18.7527
  11   2.0000      -0.671291       -18.2667
  12   2.0000      -0.608417       -16.5559
  13   2.0000      -0.544824       -14.8254
  14   2.0000      -0.529313       -14.4033
  15   2.0000      -0.478537       -13.0216
  16   2.0000      -0.446242       -12.1429
  17   2.0000      -0.411918       -11.2088
  18   2.0000      -0.397271       -10.8103
  19   2.0000      -0.394762       -10.7420
  20   2.0000      -0.376926       -10.2567
  21   2.0000      -0.372100       -10.1253
  22   2.0000      -0.329002        -8.9526
  23   2.0000      -0.317292        -8.6340
  24   2.0000      -0.301906        -8.2153
  25   2.0000      -0.277511        -7.5514
  26   2.0000      -0.234727        -6.3873
  27   2.0000      -0.231346        -6.2953
  28   2.0000      -0.215383        -5.8609
  29   0.0000      -0.037990        -1.0337
  30   0.0000      -0.036557        -0.9948
  31   0.0000       0.037185         1.0118
  32   0.0000       0.046572         1.2673
  33   0.0000       0.067608         1.8397

MULLIKEN ATOMIC CHARGES
-----------------------
   0 C :   -0.049751
   1 C :   -0.047378
   2 C :   -0.107470
   3 C :   -0.022347
   4 C :   -0.113156
   5 C :   -0.043470
   6 C :    0.089414
   7 O :   -0.427200
   8 H :    0.053717
   9 H :    0.052584
  10 H :    0.038132
  11 H :    0.044363
  12 H :    0.053663
  13 H :    0.077451
  14 H :    0.105676
  15 H :    0.295770
Sum of atomic charges:    0.0000000

LOEWDIN ATOMIC CHARGES
----------------------
   0 C :   -0.126614
   1 C :   -0.120217
   2 C :   -0.123534
   3 C :   -0.073357
   4 C :   -0.125944
   5 C :   -0.119695
   6 C :   -0.108604
   7 O :   -0.328735
   8 H :    0.123220
   9 H :    0.123449
  10 H :    0.120834
  11 H :    0.123791
  12 H :    0.123660
  13 H :    0.101333
  14 H :    0.126897
  15 H :    0.283514

  Mayer bond orders larger than 0.100000
B(  0-C ,  1-C ) :   1.3799 B(  0-C ,  5-C ) :   1.3799 B(  0-C ,  8-H ) :   0.9654
B(  1-C ,  2-C ) :   1.3779 B(  1-C ,  9-H ) :   0.9634 B(  2-C ,  3-C ) :   1.3779
B(  2-C , 10-H ) :   0.9620 B(  3-C ,  4-C ) :   1.4008 B(  3-C ,  6-C ) :   1.0281
B(  4-C ,  5-C ) :   1.3612 B(  4-C , 11-H ) :   0.9570 B(  5-C , 12-H ) :   0.9658
B(  6-C ,  7-O ) :   1.0756 B(  6-C , 13-H ) :   0.9204 B(  6-C , 14-H ) :   0.9027
B(  7-O , 15-H ) :   0.8501

Dispersion correction           -0.015393130
FINAL SINGLE POINT ENERGY      -346.006424861960

DIPOLE MOMENT
-------------

Method             : SCF
Type of density    : Electron Density
Multiplicity       :   1
Irrep              :   0
Energy             :  -346.0585853076397029 Eh
Relativity type    :
Basis              : AO
                                X                 Y                 Z
Electronic contribution:     -0.180004196      -0.753530325      -0.124965560
Nuclear contribution   :     -0.167607576       0.962697616      -0.226679417
                        -----------------------------------------
Total Dipole Moment    :     -0.347611772       0.209167291      -0.351644977
                        -----------------------------------------
Magnitude (a.u.)       :      0.536879026
Magnitude (Debye)      :      1.364638036

Rotational constants in cm-1:             0.163988             0.049964             0.039265
Rotational constants in MHz :          4916.231444          1497.879841          1177.145382

                             ****ORCA TERMINATED NORMALLY****
TOTAL RUN TIME: 0 days 0 hours 1 minutes 12 seconds 661 msec
