                         Program Version 6.0.1  -  RELEASE   -
|  1> ! pbe def2-sv(p) def2/J RI DEFGRID1 loosescf d4 GCP(DFT/SV(P)) printgap
|  2> %output
|  3>     printlevel normal
|  4> end
|  5> * xyz 0 1
|  6> C 1.7402443948 0.2750407332 1.6972662406
|  7> C 3.1151021325 0.2164967525 1.8183564486
|  8> C 3.908621971 0.0602387678 0.6912564167
|  9> C 3.3107719316 -0.0344092609 -0.5638066934
| 10> C 1.9318859095 0.0164688021 -0.6817648853
| 11> C 1.1347349725 0.1662762354 0.4479465151
| 12> C -0.333491406 0.2322618726 0.3326579545
| 13> C -1.017178134 1.292048282 0.9192402918
| 14> C -2.394955093 1.3910184087 0.8306778665
| 15> C -3.1271413164 0.4177646714 0.1522247304
| 16> C -2.4553591887 -0.6579299014 -0.4275115322
| 17> C -1.0669320318 -0.7490758677 -0.3382188951
| 18> Cl -0.282767588 -2.11979301 -1.0177582006
| 19> Cl -3.3473852119 -1.8716865461 -1.2463136705
| 20> Cl -4.8327921332 0.5319523354 0.0345926682
| 21> Cl -3.2057545172 2.7177212009 1.5581781438
| 22> Cl 4.277884915 -0.212721365 -1.9762672643
| 23> Cl 5.6198049655 -0.0116838173 0.8486901536
| 24> H 1.1282495711 0.3853110614 2.5787977026
| 25> H 3.5839325968 0.2900885869 2.7866670367
| 26> H 1.4853764745 -0.0432658212 -1.661138906
| 27> H -0.4631174952 2.0584144512 1.4371293593
| 28> *
| 29>
| 30>                          ****END OF INPUT****

CARTESIAN COORDINATES (ANGSTROEM)
---------------------------------
  C      1.740244    0.275041    1.697266
  C      3.115102    0.216497    1.818356
  C      3.908622    0.060239    0.691256
  C      3.310772   -0.034409   -0.563807
  C      1.931886    0.016469   -0.681765
  C      1.134735    0.166276    0.447947
  C     -0.333491    0.232262    0.332658
  C     -1.017178    1.292048    0.919240
  C     -2.394955    1.391018    0.830678
  C     -3.127141    0.417765    0.152225
  C     -2.455359   -0.657930   -0.427512
  C     -1.066932   -0.749076   -0.338219
  Cl    -0.282768   -2.119793   -1.017758
  Cl    -3.347385   -1.871687   -1.246314
  Cl    -4.832792    0.531952    0.034593
  Cl    -3.205755    2.717721    1.558178
  Cl     4.277885   -0.212721   -1.976267
  Cl     5.619805   -0.011684    0.848690
  H      1.128250    0.385311    2.578798
  H      3.583933    0.290089    2.786667
  H      1.485376   -0.043266   -1.661139
  H     -0.463117    2.058414    1.437129

 Total Charge           Charge          ....    0
 Multiplicity           Mult            ....    1
 Number of Electrons    NEL             ....  178
 Basis Dimension        Dim             ....  284

ORBITAL ENERGIES
----------------

  NO   OCC          E(Eh)            E(eV)
   0   2.0000    -100.662518     -2739.1664
   1   2.0000    -100.662121     -2739.1556
   2   2.0000    -100.661849     -2739.1482
   3   2.0000    -100.660718     -2739.1174
   4   2.0000    -100.654459     -2738.9471
   5   2.0000    -100.653146     -2738.9114
   6   2.0000      -9.983326      -271.6601
   7   2.0000      -9.982777      -271.6452
   8   2.0000      -9.979135      -271.5461
   9   2.0000      -9.979056      -271.5439
  10   2.0000      -9.969823      -271.2927
  11   2.0000      -9.969075      -271.2723
  12   2.0000      -9.942721      -270.5552
  13   2.0000      -9.931810      -270.2583
  14   2.0000      -9.929243      -270.1884
  15   2.0000      -9.921349      -269.9736
  16   2.0000      -9.921282      -269.9718
  17   2.0000      -9.917979      -269.8819
  18   2.0000      -9.198339      -250.2995
  19   2.0000      -9.197943      -250.2887
  20   2.0000      -9.197505      -250.2768
  21   2.0000      -9.196608      -250.2524
  22   2.0000      -9.190251      -250.0795
  23   2.0000      -9.188943      -250.0439
  24   2.0000      -7.030073      -191.2980
  25   2.0000      -7.029666      -191.2869
  26   2.0000      -7.029088      -191.2712
  27   2.0000      -7.028193      -191.2469
  28   2.0000      -7.021760      -191.0718
  29   2.0000      -7.020488      -191.0372
  30   2.0000      -7.018407      -190.9806
  31   2.0000      -7.018017      -190.9700
  32   2.0000      -7.017594      -190.9584
  33   2.0000      -7.017215      -190.9481
  34   2.0000      -7.016832      -190.9377
  35   2.0000      -7.016612      -190.9317
  36   2.0000      -7.016516      -190.9291
  37   2.0000      -7.015711      -190.9072
  38   2.0000      -7.010350      -190.7613
  39   2.0000      -7.009380      -190.7349
  40   2.0000      -7.008992      -190.7244
  41   2.0000      -7.008092      -190.6999
  42   2.0000      -0.874696       -23.8017
  43   2.0000      -0.848905       -23.0999
  44   2.0000      -0.835276       -22.7290
  45   2.0000      -0.816042       -22.2056
  46   2.0000      -0.793255       -21.5856
  47   2.0000      -0.788563       -21.4579
  48   2.0000      -0.782429       -21.2910
  49   2.0000      -0.762104       -20.7379
  50   2.0000      -0.706444       -19.2233
  51   2.0000      -0.685172       -18.6445
  52   2.0000      -0.668301       -18.1854
  53   2.0000      -0.653123       -17.7724
  54   2.0000      -0.585161       -15.9231
  55   2.0000      -0.579217       -15.7613
  56   2.0000      -0.561152       -15.2697
  57   2.0000      -0.538276       -14.6472
  58   2.0000      -0.495794       -13.4912
  59   2.0000      -0.488892       -13.3034
  60   2.0000      -0.469909       -12.7869
  61   2.0000      -0.453889       -12.3509
  62   2.0000      -0.441027       -12.0009
  63   2.0000      -0.428652       -11.6642
  64   2.0000      -0.420889       -11.4530
  65   2.0000      -0.414433       -11.2773
  66   2.0000      -0.413494       -11.2517
  67   2.0000      -0.405189       -11.0257
  68   2.0000      -0.390496       -10.6259
  69   2.0000      -0.385953       -10.5023
  70   2.0000      -0.373855       -10.1731
  71   2.0000      -0.357302        -9.7227
  72   2.0000      -0.350615        -9.5407
  73   2.0000      -0.347149        -9.4464
  74   2.0000      -0.334242        -9.0952
  75   2.0000      -0.316287        -8.6066
  76   2.0000      -0.312586        -8.5059
  77   2.0000      -0.305685        -8.3181
  78   2.0000      -0.303704        -8.2642
  79   2.0000      -0.298220        -8.1150
  80   2.0000      -0.289963        -7.8903
  81   2.0000      -0.287191        -7.8149
  82   2.0000      -0.283222        -7.7069
  83   2.0000      -0.268466        -7.3053
  84   2.0000      -0.264728        -7.2036
  85   2.0000      -0.245569        -6.6823
  86   2.0000      -0.236237        -6.4283
  87   2.0000      -0.229742        -6.2516
  88   2.0000      -0.219203        -5.9648
  89   0.0000      -0.085527        -2.3273
  90   0.0000      -0.071995        -1.9591
  91   0.0000      -0.061640        -1.6773
  92   0.0000      -0.048979        -1.3328
  93   0.0000      -0.045667        -1.2427

MULLIKEN ATOMIC CHARGES
-----------------------
   0 C :   -0.092613
   1 C :   -0.095374
   2 C :    0.078373
   3 C :    0.084982
   4 C :   -0.136196
   5 C :    0.087295
   6 C :    0.084935
   7 C :   -0.192032
   8 C :    0.090142
   9 C :    0.026163
  10 C :    0.009209
  11 C :    0.016657
  12 Cl:   -0.021000
  13 Cl:   -0.013495
  14 Cl:   -0.012744
  15 Cl:   -0.039218
  16 Cl:   -0.048430
  17 Cl:   -0.047076
  18 H :    0.059889
  19 H :    0.057281
  20 H :    0.051114
  21 H :    0.052138
Sum of atomic charges:   -0.0000000

LOEWDIN ATOMIC CHARGES
----------------------
   0 C :   -0.111289
   1 C :   -0.129979
   2 C :   -0.156486
   3 C :   -0.155750
   4 C :   -0.123991
   5 C :   -0.036569
   6 C :   -0.040559
   7 C :   -0.126855
   8 C :   -0.159261
   9 C :   -0.181354
  10 C :   -0.176189
  11 C :   -0.154136
  12 Cl:    0.183301
  13 Cl:    0.176405
  14 Cl:    0.176859
  15 Cl:    0.163553
  16 Cl:    0.153821
  17 Cl:    0.155397
  18 H :    0.133051
  19 H :    0.136475
  20 H :    0.132762
  21 H :    0.140794

  Mayer bond orders larger than 0.100000
B(  0-C ,  1-C ) :   1.3359 B(  0-C ,  5-C ) :   1.3592 B(  0-C , 18-H ) :   0.9614
B(  1-C ,  2-C ) :   1.3788 B(  1-C , 19-H ) :   0.9655 B(  2-C ,  3-C ) :   1.3971
B(  2-C , 17-Cl) :   1.0456 B(  3-C ,  4-C ) :   1.3737 B(  3-C , 16-Cl) :   1.0406
B(  4-C ,  5-C ) :   1.3221 B(  4-C , 20-H ) :   0.9607 B(  5-C ,  6-C ) :   0.9580
B(  6-C ,  7-C ) :   1.3146 B(  6-C , 11-C ) :   1.3964 B(  7-C ,  8-C ) :   1.3194
B(  7-C , 21-H ) :   0.9751 B(  8-C ,  9-C ) :   1.3945 B(  8-C , 15-Cl) :   1.0387
B(  9-C , 10-C ) :   1.4113 B(  9-C , 14-Cl) :   1.1223 B( 10-C , 11-C ) :   1.3849
B( 10-C , 13-Cl) :   1.1223 B( 11-C , 12-Cl) :   1.1017

Dispersion correction           -0.045116898
FINAL SINGLE POINT ENERGY     -3217.959400808421

DIPOLE MOMENT
-------------

Method             : SCF
Type of density    : Electron Density
Multiplicity       :   1
Irrep              :   0
Energy             : -3217.9843447024813941 Eh
Relativity type    :
Basis              : AO
                                X                 Y                 Z
Electronic contribution:     -7.805751769      -3.610373038      -6.777516135
Nuclear contribution   :      7.756986512       3.821068019       7.238065810
                        -----------------------------------------
Total Dipole Moment    :     -0.048765256       0.210694981       0.460549676
                        -----------------------------------------
Magnitude (a.u.)       :      0.508799007
Magnitude (Debye)      :      1.293264298

Rotational constants in cm-1:             0.015567             0.003857             0.003288
Rotational constants in MHz :           466.686167           115.640045            98.563236

                             ****ORCA TERMINATED NORMALLY****
TOTAL RUN TIME: 0 days 0 hours 0 minutes 20 seconds 556 msec
