                         Program Version 6.0.1  -  RELEASE   -
|  1> ! pbe def2-sv(p) def2/J RI DEFGRID1 loosescf d4 GCP(DFT/SV(P)) printgap
|  2> %output
|  3>     printlevel normal
|  4> end
|  5> * xyz 0 1
|  6> C -2.3718299095 0.1088888491 0.1959750155
|  7> C -0.9637309313 0.3960564444 -0.3145439569
|  8> C -0.0031793258 -0.6922450196 0.0663953029
|  9> C 1.3132843507 -0.586889598 0.1600861901
| 10> C 2.1335660566 0.6349632836 -0.0972398583
| 11> H -3.0518958883 0.9095745961 -0.0869490114
| 12> H -2.3723474889 0.0250366049 1.2807474317
| 13> H -2.7477854118 -0.8231777897 -0.2209487366
| 14> H -0.9890579391 0.4859257717 -1.405958857
| 15> H -0.6252008543 1.3546543968 0.0840136391
| 16> H -0.4635577505 -1.6510497155 0.2671038977
| 17> H 1.8891703595 -1.4591550875 0.4439401263
| 18> H 2.7191928963 0.8853018776 0.7874968433
| 19> H 1.5191236674 1.4884292813 -0.3663734138
| 20> H 2.83402415 0.443596857 -0.9102568778
| 21> *
| 22>
| 23>                          ****END OF INPUT****

CARTESIAN COORDINATES (ANGSTROEM)
---------------------------------
  C     -2.371830    0.108889    0.195975
  C     -0.963731    0.396056   -0.314544
  C     -0.003179   -0.692245    0.066395
  C      1.313284   -0.586890    0.160086
  C      2.133566    0.634963   -0.097240
  H     -3.051896    0.909575   -0.086949
  H     -2.372347    0.025037    1.280747
  H     -2.747785   -0.823178   -0.220949
  H     -0.989058    0.485926   -1.405959
  H     -0.625201    1.354654    0.084014
  H     -0.463558   -1.651050    0.267104
  H      1.889170   -1.459155    0.443940
  H      2.719193    0.885302    0.787497
  H      1.519124    1.488429   -0.366373
  H      2.834024    0.443597   -0.910257

 Total Charge           Charge          ....    0
 Multiplicity           Mult            ....    1
 Number of Electrons    NEL             ....   40
 Basis Dimension        Dim             ....   90

ORBITAL ENERGIES
----------------

  NO   OCC          E(Eh)            E(eV)
   0   2.0000      -9.885040      -268.9856
   1   2.0000      -9.879757      -268.8418
   2   2.0000      -9.877402      -268.7778
   3   2.0000      -9.877049      -268.7682
   4   2.0000      -9.873358      -268.6677
   5   2.0000      -0.722181       -19.6515
   6   2.0000      -0.673466       -18.3259
   7   2.0000      -0.605579       -16.4787
   8   2.0000      -0.545790       -14.8517
   9   2.0000      -0.467337       -12.7169
  10   2.0000      -0.422042       -11.4843
  11   2.0000      -0.395753       -10.7690
  12   2.0000      -0.380946       -10.3661
  13   2.0000      -0.364422        -9.9164
  14   2.0000      -0.334083        -9.0909
  15   2.0000      -0.324368        -8.8265
  16   2.0000      -0.311784        -8.4841
  17   2.0000      -0.302562        -8.2331
  18   2.0000      -0.278976        -7.5913
  19   2.0000      -0.208205        -5.6655
  20   0.0000      -0.005085        -0.1384
  21   0.0000       0.046277         1.2592
  22   0.0000       0.064344         1.7509
  23   0.0000       0.066877         1.8198
  24   0.0000       0.099731         2.7138

MULLIKEN ATOMIC CHARGES
-----------------------
   0 C :   -0.292552
   1 C :   -0.141435
   2 C :   -0.142507
   3 C :   -0.154024
   4 C :   -0.231476
   5 H :    0.101019
   6 H :    0.104914
   7 H :    0.103038
   8 H :    0.103071
   9 H :    0.099956
  10 H :    0.059176
  11 H :    0.063253
  12 H :    0.110666
  13 H :    0.105432
  14 H :    0.111468
Sum of atomic charges:    0.0000000

LOEWDIN ATOMIC CHARGES
----------------------
   0 C :   -0.338730
   1 C :   -0.234760
   2 C :   -0.155232
   3 C :   -0.153037
   4 C :   -0.338031
   5 H :    0.118318
   6 H :    0.118953
   7 H :    0.117544
   8 H :    0.126478
   9 H :    0.122292
  10 H :    0.117578
  11 H :    0.117249
  12 H :    0.129045
  13 H :    0.121897
  14 H :    0.130438

  Mayer bond orders larger than 0.100000
B(  0-C ,  1-C ) :   1.1418 B(  0-C ,  5-H ) :   0.9528 B(  0-C ,  6-H ) :   0.9600
B(  0-C ,  7-H ) :   0.9541 B(  1-C ,  2-C ) :   1.0637 B(  1-C ,  8-H ) :   0.9102
B(  1-C ,  9-H ) :   0.9128 B(  2-C ,  3-C ) :   1.9978 B(  2-C , 10-H ) :   0.9328
B(  3-C ,  4-C ) :   1.1223 B(  3-C , 11-H ) :   0.9279 B(  4-C , 12-H ) :   0.9371
B(  4-C , 13-H ) :   0.9391 B(  4-C , 14-H ) :   0.9351

Dispersion correction           -0.009655467
FINAL SINGLE POINT ENERGY      -196.029642248629

DIPOLE MOMENT
-------------

Method             : SCF
Type of density    : Electron Density
Multiplicity       :   1
Irrep              :   0
Energy             :  -196.0778628203599112 Eh
Relativity type    :
Basis              : AO
                                X                 Y                 Z
Electronic contribution:      1.253283956      -1.451865603       0.069785836
Nuclear contribution   :     -1.208667585       1.556540816      -0.119320227
                        -----------------------------------------
Total Dipole Moment    :      0.044616371       0.104675213      -0.049534392
                        -----------------------------------------
Magnitude (a.u.)       :      0.124101478
Magnitude (Debye)      :      0.315440889

Rotational constants in cm-1:             0.466685             0.081738             0.073384
Rotational constants in MHz :         13990.867191          2450.447499          2199.997849

                             ****ORCA TERMINATED NORMALLY****
TOTAL RUN TIME: 0 days 0 hours 0 minutes 57 seconds 942 msec
