                         Program Version 6.0.1  -  RELEASE   -
|  1> ! r2scan-3c def2/J RI DEFGRID2 scfconv6 printgap
|  2> %output
|  3>     printlevel normal
|  4> end
|  5> * xyz 0 1
|  6> C -2.1892085007 -0.9145895742 -0.11954248
|  7> C -1.1066068164 -0.3354023395 0.814773546
|  8> H -1.5443703487 -0.3156558473 1.8209821253
|  9> C -0.7299094702 1.1294100591 0.4769957014
| 10> H -1.5973276433 1.5996247551 -0.003440147
| 11> C 0.4709219214 1.2361988595 -0.4773966838
| 12> H 0.8265617067 2.2751491958 -0.4509630047
| 13> C 1.6153120799 0.3271152135 0.0218189532
| 14> H 2.4406343359 0.3652113715 -0.706773189
| 15> C 1.0970917645 -1.117978348 0.0934302746
| 16> H 1.8414799145 -1.7747190649 0.5703161551
| 17> O -0.0024497972 -1.227281928 0.9545191071
| 18> O 0.8679143627 -1.6261773387 -1.1897006256
| 19> O 2.033804264 0.7947130977 1.2815362116
| 20> O 0.1517325452 0.9183658105 -1.8129316612
| 21> O -0.5048400501 1.8709214751 1.6440669503
| 22> O -1.8151531605 -0.9583215751 -1.4755670997
| 23> H -3.0777561873 -0.2821313328 -0.0630923995
| 24> H -2.443875165 -1.9187005053 0.2376170761
| 25> H 0.7819671874 -0.8749331317 -1.8079316799
| 26> H 2.6763293859 0.1802396285 1.6541658526
| 27> H -0.7290315569 0.4886183023 -1.8451468856
| 28> H 0.3637179695 1.6206508997 1.9939888952
| 29> H -1.1036013256 -1.6176136939 -1.5594485422
| 30> *
| 31>
| 32>                          ****END OF INPUT****

CARTESIAN COORDINATES (ANGSTROEM)
---------------------------------
  C     -2.189209   -0.914590   -0.119542
  C     -1.106607   -0.335402    0.814774
  H     -1.544370   -0.315656    1.820982
  C     -0.729909    1.129410    0.476996
  H     -1.597328    1.599625   -0.003440
  C      0.470922    1.236199   -0.477397
  H      0.826562    2.275149   -0.450963
  C      1.615312    0.327115    0.021819
  H      2.440634    0.365211   -0.706773
  C      1.097092   -1.117978    0.093430
  H      1.841480   -1.774719    0.570316
  O     -0.002450   -1.227282    0.954519
  O      0.867914   -1.626177   -1.189701
  O      2.033804    0.794713    1.281536
  O      0.151733    0.918366   -1.812932
  O     -0.504840    1.870921    1.644067
  O     -1.815153   -0.958322   -1.475567
  H     -3.077756   -0.282131   -0.063092
  H     -2.443875   -1.918701    0.237617
  H      0.781967   -0.874933   -1.807932
  H      2.676329    0.180240    1.654166
  H     -0.729032    0.488618   -1.845147
  H      0.363718    1.620651    1.993989
  H     -1.103601   -1.617614   -1.559449

 Total Charge           Charge          ....    0
 Multiplicity           Mult            ....    1
 Number of Electrons    NEL             ....   96
 Basis Dimension        Dim             ....  318

ORBITAL ENERGIES
----------------

  NO   OCC          E(Eh)            E(eV)
   0   2.0000     -18.988374      -516.6999
   1   2.0000     -18.972515      -516.2684
   2   2.0000     -18.972289      -516.2622
   3   2.0000     -18.970971      -516.2264
   4   2.0000     -18.967418      -516.1297
   5   2.0000     -18.948173      -515.6060
   6   2.0000     -10.147428      -276.1256
   7   2.0000     -10.106613      -275.0149
   8   2.0000     -10.101691      -274.8810
   9   2.0000     -10.098079      -274.7827
  10   2.0000     -10.095036      -274.6999
  11   2.0000     -10.090907      -274.5875
  12   2.0000      -1.057110       -28.7654
  13   2.0000      -1.024745       -27.8847
  14   2.0000      -1.012529       -27.5523
  15   2.0000      -1.004076       -27.3223
  16   2.0000      -0.996406       -27.1136
  17   2.0000      -0.982321       -26.7303
  18   2.0000      -0.753149       -20.4942
  19   2.0000      -0.745724       -20.2922
  20   2.0000      -0.666098       -18.1254
  21   2.0000      -0.642427       -17.4813
  22   2.0000      -0.612274       -16.6608
  23   2.0000      -0.556124       -15.1329
  24   2.0000      -0.531474       -14.4621
  25   2.0000      -0.525610       -14.3026
  26   2.0000      -0.499212       -13.5843
  27   2.0000      -0.488147       -13.2831
  28   2.0000      -0.476284       -12.9603
  29   2.0000      -0.463953       -12.6248
  30   2.0000      -0.448644       -12.2082
  31   2.0000      -0.423735       -11.5304
  32   2.0000      -0.422759       -11.5039
  33   2.0000      -0.404172       -10.9981
  34   2.0000      -0.395289       -10.7564
  35   2.0000      -0.377607       -10.2752
  36   2.0000      -0.368206       -10.0194
  37   2.0000      -0.351938        -9.5767
  38   2.0000      -0.341727        -9.2989
  39   2.0000      -0.332964        -9.0604
  40   2.0000      -0.319035        -8.6814
  41   2.0000      -0.300845        -8.1864
  42   2.0000      -0.288645        -7.8544
  43   2.0000      -0.277638        -7.5549
  44   2.0000      -0.269920        -7.3449
  45   2.0000      -0.250401        -6.8138
  46   2.0000      -0.244614        -6.6563
  47   2.0000      -0.225543        -6.1373
  48   0.0000       0.016645         0.4529
  49   0.0000       0.046564         1.2671
  50   0.0000       0.069817         1.8998
  51   0.0000       0.074629         2.0308
  52   0.0000       0.082368         2.2413

MULLIKEN ATOMIC CHARGES
-----------------------
   0 C :   -0.247003
   1 C :    0.082668
   2 H :    0.174860
   3 C :   -0.214999
   4 H :    0.178316
   5 C :    0.033471
   6 H :    0.171382
   7 C :   -0.062126
   8 H :    0.165462
   9 C :   -0.118587
  10 H :    0.139705
  11 O :   -0.145963
  12 O :   -0.406994
  13 O :   -0.402299
  14 O :   -0.488520
  15 O :   -0.400287
  16 O :   -0.469832
  17 H :    0.146348
  18 H :    0.150954
  19 H :    0.352923
  20 H :    0.300672
  21 H :    0.374457
  22 H :    0.329910
  23 H :    0.355481
Sum of atomic charges:    0.0000000

LOEWDIN ATOMIC CHARGES
----------------------
   0 C :    0.027259
   1 C :    0.101546
   2 H :    0.211116
   3 C :    0.107173
   4 H :    0.198063
   5 C :    0.124347
   6 H :    0.198928
   7 C :    0.121110
   8 H :    0.186430
   9 C :    0.279494
  10 H :    0.204066
  11 O :   -0.648004
  12 O :   -0.530870
  13 O :   -0.575822
  14 O :   -0.598246
  15 O :   -0.571656
  16 O :   -0.615112
  17 H :    0.184044
  18 H :    0.175372
  19 H :    0.287718
  20 H :    0.276879
  21 H :    0.288517
  22 H :    0.283812
  23 H :    0.283835

  Mayer bond orders larger than 0.100000
B(  0-C ,  1-C ) :   0.8783 B(  0-C , 16-O ) :   1.0045 B(  0-C , 17-H ) :   0.9808
B(  0-C , 18-H ) :   0.9757 B(  1-C ,  2-H ) :   0.9459 B(  1-C ,  3-C ) :   0.7906
B(  1-C , 11-O ) :   0.8900 B(  1-C , 16-O ) :  -0.1149 B(  3-C ,  4-H ) :   1.0080
B(  3-C ,  5-C ) :   0.8712 B(  3-C , 15-O ) :   0.9897 B(  5-C ,  6-H ) :   0.9683
B(  5-C ,  7-C ) :   0.8671 B(  5-C , 14-O ) :   0.9366 B(  7-C ,  8-H ) :   0.9712
B(  7-C ,  9-C ) :   0.9389 B(  7-C , 13-O ) :   0.9297 B(  9-C , 10-H ) :   0.9852
B(  9-C , 11-O ) :   0.9680 B(  9-C , 12-O ) :   0.9875 B( 12-O , 19-H ) :   0.8027
B( 13-O , 20-H ) :   0.8945 B( 14-O , 21-H ) :   0.7864 B( 15-O , 22-H ) :   0.8363
B( 16-O , 23-H ) :   0.8270

Dispersion correction           -0.008940784
FINAL SINGLE POINT ENERGY      -687.075604786277

DIPOLE MOMENT
-------------

Method             : SCF
Type of density    : Electron Density
Multiplicity       :   1
Irrep              :   0
Energy             :  -687.0902396075337037 Eh
Relativity type    :
Basis              : AO
                                X                 Y                 Z
Electronic contribution:      1.951173651      -0.151929588       0.439245140
Nuclear contribution   :     -1.457661647      -0.241913044      -0.158710128
                        -----------------------------------------
Total Dipole Moment    :      0.493512005      -0.393842633       0.280535012
                        -----------------------------------------
Magnitude (a.u.)       :      0.690916790
Magnitude (Debye)      :      1.756170916

Rotational constants in cm-1:             0.040970             0.032103             0.027519
Rotational constants in MHz :          1228.235747           962.435046           824.995520

                             ****ORCA TERMINATED NORMALLY****
TOTAL RUN TIME: 0 days 0 hours 0 minutes 41 seconds 137 msec
