                         Program Version 6.0.1  -  RELEASE   -
|  1> ! r2scan-3c def2/J RI DEFGRID2 scfconv6 printgap
|  2> %output
|  3>     printlevel normal
|  4> end
|  5> * xyz 0 1
|  6> C -2.3289604064 1.1062984634 0.5632371364
|  7> N -1.6017562156 0.0256416143 -0.0561758221
|  8> C -2.3482242083 -1.1265612006 -0.4906335519
|  9> C -0.2277517797 0.0055682627 -0.0228965705
| 10> C 0.5011802756 1.169041231 0.2605405381
| 11> C 1.8811384445 1.1566771621 0.2764734152
| 12> C 2.584660473 -0.0054328306 0.0098720327
| 13> C 1.8781211953 -1.1614320714 -0.2725403512
| 14> C 0.4974860104 -1.1638071413 -0.2874618321
| 15> H -3.3561013304 0.7958536171 0.7447035307
| 16> H -2.347915718 1.9968531332 -0.0756398706
| 17> H -1.8837351767 1.3774713441 1.524304973
| 18> H -1.91984512 -1.5268194833 -1.4109579295
| 19> H -3.3738761634 -0.8293026095 -0.7033445254
| 20> H -2.3672798365 -1.9243447702 0.2637850119
| 21> H -0.0117651016 2.0971421801 0.4554569412
| 22> H 2.4138121817 2.0714510561 0.4955166086
| 23> H 3.6639499581 -0.0097781075 0.022326067
| 24> H 2.4080434512 -2.080939893 -0.4781104962
| 25> H -0.0149442704 -2.089781897 -0.4934172452
| 26> *
| 27>
| 28>                          ****END OF INPUT****

CARTESIAN COORDINATES (ANGSTROEM)
---------------------------------
  C     -2.328960    1.106298    0.563237
  N     -1.601756    0.025642   -0.056176
  C     -2.348224   -1.126561   -0.490634
  C     -0.227752    0.005568   -0.022897
  C      0.501180    1.169041    0.260541
  C      1.881138    1.156677    0.276473
  C      2.584660   -0.005433    0.009872
  C      1.878121   -1.161432   -0.272540
  C      0.497486   -1.163807   -0.287462
  H     -3.356101    0.795854    0.744704
  H     -2.347916    1.996853   -0.075640
  H     -1.883735    1.377471    1.524305
  H     -1.919845   -1.526819   -1.410958
  H     -3.373876   -0.829303   -0.703345
  H     -2.367280   -1.924345    0.263785
  H     -0.011765    2.097142    0.455457
  H      2.413812    2.071451    0.495517
  H      3.663950   -0.009778    0.022326
  H      2.408043   -2.080940   -0.478110
  H     -0.014944   -2.089782   -0.493417

 Total Charge           Charge          ....    0
 Multiplicity           Mult            ....    1
 Number of Electrons    NEL             ....   66
 Basis Dimension        Dim             ....  231

ORBITAL ENERGIES
----------------

  NO   OCC          E(Eh)            E(eV)
   0   2.0000     -14.177944      -385.8015
   1   2.0000     -10.066405      -273.9208
   2   2.0000     -10.062639      -273.8183
   3   2.0000     -10.062519      -273.8151
   4   2.0000     -10.023024      -272.7404
   5   2.0000     -10.023021      -272.7403
   6   2.0000     -10.018575      -272.6193
   7   2.0000     -10.018430      -272.6153
   8   2.0000     -10.011739      -272.4333
   9   2.0000      -0.918374       -24.9902
  10   2.0000      -0.806621       -21.9493
  11   2.0000      -0.712488       -19.3878
  12   2.0000      -0.710699       -19.3391
  13   2.0000      -0.688032       -18.7223
  14   2.0000      -0.625506       -17.0209
  15   2.0000      -0.563705       -15.3392
  16   2.0000      -0.540302       -14.7024
  17   2.0000      -0.496733       -13.5168
  18   2.0000      -0.448726       -12.2104
  19   2.0000      -0.439896       -11.9702
  20   2.0000      -0.436060       -11.8658
  21   2.0000      -0.410381       -11.1670
  22   2.0000      -0.386649       -10.5213
  23   2.0000      -0.382089       -10.3972
  24   2.0000      -0.377565       -10.2741
  25   2.0000      -0.365310        -9.9406
  26   2.0000      -0.350032        -9.5249
  27   2.0000      -0.335824        -9.1382
  28   2.0000      -0.316881        -8.6228
  29   2.0000      -0.297200        -8.0872
  30   2.0000      -0.257472        -7.0062
  31   2.0000      -0.225750        -6.1430
  32   2.0000      -0.166761        -4.5378
  33   0.0000      -0.020346        -0.5536
  34   0.0000      -0.002205        -0.0600
  35   0.0000       0.075769         2.0618
  36   0.0000       0.082535         2.2459
  37   0.0000       0.103010         2.8030

MULLIKEN ATOMIC CHARGES
-----------------------
   0 C :   -0.442958
   1 N :    0.169674
   2 C :   -0.446501
   3 C :    0.223137
   4 C :   -0.312206
   5 C :   -0.149211
   6 C :   -0.197651
   7 C :   -0.154763
   8 C :   -0.314324
   9 H :    0.139189
  10 H :    0.159353
  11 H :    0.159194
  12 H :    0.156737
  13 H :    0.141790
  14 H :    0.158127
  15 H :    0.140709
  16 H :    0.142944
  17 H :    0.144409
  18 H :    0.142892
  19 H :    0.139460
Sum of atomic charges:   -0.0000000

LOEWDIN ATOMIC CHARGES
----------------------
   0 C :   -0.124291
   1 N :   -0.914303
   2 C :   -0.123808
   3 C :    0.149491
   4 C :   -0.169533
   5 C :   -0.156683
   6 C :   -0.208189
   7 C :   -0.156659
   8 C :   -0.171699
   9 H :    0.178204
  10 H :    0.165424
  11 H :    0.175813
  12 H :    0.177959
  13 H :    0.177720
  14 H :    0.162479
  15 H :    0.171702
  16 H :    0.165654
  17 H :    0.164088
  18 H :    0.165612
  19 H :    0.171018

  Mayer bond orders larger than 0.100000
B(  0-C ,  1-N ) :   0.8892 B(  0-C ,  9-H ) :   0.9615 B(  0-C , 10-H ) :   0.9611
B(  0-C , 11-H ) :   0.9565 B(  1-N ,  2-C ) :   0.8917 B(  1-N ,  3-C ) :   1.2675
B(  2-C , 12-H ) :   0.9606 B(  2-C , 13-H ) :   0.9645 B(  2-C , 14-H ) :   0.9506
B(  3-C ,  4-C ) :   1.3127 B(  3-C ,  8-C ) :   1.2964 B(  4-C ,  5-C ) :   1.4241
B(  4-C , 15-H ) :   0.9372 B(  5-C ,  6-C ) :   1.4093 B(  5-C , 16-H ) :   0.9500
B(  6-C ,  7-C ) :   1.4146 B(  6-C , 17-H ) :   0.9481 B(  7-C ,  8-C ) :   1.4247
B(  7-C , 18-H ) :   0.9499 B(  8-C , 19-H ) :   0.9426

Dispersion correction           -0.006688410
FINAL SINGLE POINT ENERGY      -366.099208333340

DIPOLE MOMENT
-------------

Method             : SCF
Type of density    : Electron Density
Multiplicity       :   1
Irrep              :   0
Energy             :  -366.1051651438921226 Eh
Relativity type    :
Basis              : AO
                                X                 Y                 Z
Electronic contribution:      5.502504766       0.096418091      -0.278938665
Nuclear contribution   :     -6.378617712      -0.114499285       0.323006391
                        -----------------------------------------
Total Dipole Moment    :     -0.876112946      -0.018081195       0.044067727
                        -----------------------------------------
Magnitude (a.u.)       :      0.877406855
Magnitude (Debye)      :      2.230190989

Rotational constants in cm-1:             0.118246             0.041086             0.031017
Rotational constants in MHz :          3544.922239          1231.716067           929.877023

                             ****ORCA TERMINATED NORMALLY****
TOTAL RUN TIME: 0 days 0 hours 0 minutes 23 seconds 496 msec
