                         Program Version 6.0.0  -   RELEASE  -
|  1> ! r2SCAN-3c DEF2-TZVP FREQ
|  2> * xyzfile 0 1 censo.xyz
|  3>
|  4>                          ****END OF INPUT****

CARTESIAN COORDINATES (ANGSTROEM)
---------------------------------
  C     -2.991373    1.240277   -0.000050
  C     -1.755530    0.383824    0.000268
  C     -1.833352   -1.006507   -0.000357
  C     -0.676795   -1.790434   -0.000581
  C      0.569016   -1.188742   -0.000171
  C      0.665375    0.214828    0.000408
  C     -0.488500    0.988481    0.000680
  O      1.949074    0.698368    0.000815
  C      2.114620    2.125130   -0.001673
  O      1.703535   -1.974232   -0.000297
  H     -3.026024    1.886917   -0.883896
  H     -3.894263    0.624587    0.005486
  H     -3.020657    1.895401    0.877660
  H     -2.804249   -1.492562   -0.000698
  H     -0.737545   -2.874345   -0.001069
  H     -0.418530    2.070765    0.001272
  H      3.191296    2.296752   -0.002877
  H      1.670587    2.570191    0.895508
  H      1.669022    2.567112   -0.899594
  H      2.476595   -1.389971   -0.000242

 Total Charge           Charge          ....    0
 Multiplicity           Mult            ....    1
 Number of Electrons    NEL             ....   74
 Basis Dimension        Dim             ....  370

ORBITAL ENERGIES
----------------

  NO   OCC          E(Eh)            E(eV)
   0   2.0000     -18.998852      -516.9850
   1   2.0000     -18.975478      -516.3490
   2   2.0000     -10.096877      -274.7500
   3   2.0000     -10.092636      -274.6346
   4   2.0000     -10.086469      -274.4668
   5   2.0000     -10.038442      -273.1599
   6   2.0000     -10.032397      -272.9954
   7   2.0000     -10.027088      -272.8509
   8   2.0000     -10.027005      -272.8487
   9   2.0000     -10.025413      -272.8054
  10   2.0000      -1.041413       -28.3383
  11   2.0000      -1.006745       -27.3949
  12   2.0000      -0.816141       -22.2083
  13   2.0000      -0.735538       -20.0150
  14   2.0000      -0.717605       -19.5270
  15   2.0000      -0.678076       -18.4514
  16   2.0000      -0.643123       -17.5003
  17   2.0000      -0.574367       -15.6293
  18   2.0000      -0.555027       -15.1031
  19   2.0000      -0.516901       -14.0656
  20   2.0000      -0.485290       -13.2054
  21   2.0000      -0.453987       -12.3536
  22   2.0000      -0.445029       -12.1099
  23   2.0000      -0.414613       -11.2822
  24   2.0000      -0.412358       -11.2208
  25   2.0000      -0.393713       -10.7135
  26   2.0000      -0.389858       -10.6086
  27   2.0000      -0.371048       -10.0967
  28   2.0000      -0.367021        -9.9872
  29   2.0000      -0.345192        -9.3931
  30   2.0000      -0.338083        -9.1997
  31   2.0000      -0.315114        -8.5747
  32   2.0000      -0.313609        -8.5337
  33   2.0000      -0.305931        -8.3248
  34   2.0000      -0.287175        -7.8144
  35   2.0000      -0.218201        -5.9376
  36   2.0000      -0.185701        -5.0532
  37   0.0000      -0.025233        -0.6866
  38   0.0000      -0.008507        -0.2315
  39   0.0000       0.029761         0.8098
  40   0.0000       0.045311         1.2330
  41   0.0000       0.072020         1.9598

MULLIKEN ATOMIC CHARGES
-----------------------
   0 C :   -0.351526
   1 C :    0.177800
   2 C :   -0.206134
   3 C :   -0.180496
   4 C :    0.142368
   5 C :    0.344721
   6 C :   -0.342497
   7 O :   -0.332181
   8 C :   -0.168868
   9 O :   -0.412375
  10 H :    0.112790
  11 H :    0.107854
  12 H :    0.112624
  13 H :    0.094766
  14 H :    0.107869
  15 H :    0.103026
  16 H :    0.126743
  17 H :    0.117957
  18 H :    0.117992
  19 H :    0.327565
Sum of atomic charges:   -0.0000000

LOEWDIN ATOMIC CHARGES
----------------------
   0 C :   -0.257441
   1 C :   -0.186534
   2 C :   -0.134593
   3 C :   -0.121999
   4 C :   -0.243785
   5 C :   -0.240718
   6 C :   -0.123228
   7 O :    0.202919
   8 C :   -0.306605
   9 O :    0.069865
  10 H :    0.126761
  11 H :    0.125889
  12 H :    0.126712
  13 H :    0.143405
  14 H :    0.149735
  15 H :    0.148329
  16 H :    0.113985
  17 H :    0.109119
  18 H :    0.109152
  19 H :    0.189033

  Mayer bond orders larger than 0.100000
B(  0-C ,  1-C ) :   0.9003 B(  0-C , 10-H ) :   0.9679 B(  0-C , 11-H ) :   0.9888
B(  0-C , 12-H ) :   0.9684 B(  1-C ,  2-C ) :   1.3982 B(  1-C ,  6-C ) :   1.2907
B(  2-C ,  3-C ) :   1.3602 B(  2-C , 13-H ) :   0.9818 B(  3-C ,  4-C ) :   1.4466
B(  3-C , 14-H ) :   0.9820 B(  4-C ,  5-C ) :   1.2310 B(  4-C ,  9-O ) :   1.1561
B(  5-C ,  6-C ) :   1.3133 B(  5-C ,  7-O ) :   1.0119 B(  6-C , 15-H ) :   0.9718
B(  7-O ,  8-C ) :   0.9316 B(  8-C , 16-H ) :   0.9751 B(  8-C , 17-H ) :   0.9670
B(  8-C , 18-H ) :   0.9671 B(  9-O , 19-H ) :   0.8654

Dispersion correction           -0.006545135
FINAL SINGLE POINT ENERGY      -461.239402421958

DIPOLE MOMENT
-------------

Method             : SCF
Type of density    : Electron Density
Multiplicity       :   1
Irrep              :   0
Energy             :  -461.2430436225968151 Eh
Relativity type    :
Basis              : AO
                                X                 Y                 Z
Electronic contribution:      4.814785651      -6.564137854       0.005336573
Nuclear contribution   :     -4.584765806       7.671292100      -0.006696022
                        -----------------------------------------
Total Dipole Moment    :      0.230019845       1.107154246      -0.001359449
                        -----------------------------------------
Magnitude (a.u.)       :      1.130796844
Magnitude (Debye)      :      2.874257156

VIBRATIONAL FREQUENCIES
-----------------------

Scaling factor for frequencies =  1.000000000  (already applied!)

     0:       0.00 cm**-1
     1:       0.00 cm**-1
     2:       0.00 cm**-1
     3:       0.00 cm**-1
     4:       0.00 cm**-1
     5:       0.00 cm**-1
     6:      83.71 cm**-1
     7:     111.31 cm**-1
     8:     157.01 cm**-1
     9:     203.33 cm**-1
    10:     214.23 cm**-1
    11:     276.60 cm**-1
    12:     310.85 cm**-1
    13:     364.23 cm**-1
    14:     373.68 cm**-1
    15:     445.00 cm**-1
    16:     455.62 cm**-1
    17:     468.58 cm**-1
    18:     553.76 cm**-1
    19:     563.65 cm**-1
    20:     598.38 cm**-1
    21:     709.70 cm**-1
    22:     724.33 cm**-1
    23:     795.03 cm**-1
    24:     813.33 cm**-1
    25:     831.68 cm**-1
    26:     911.31 cm**-1
    27:     929.55 cm**-1
    28:    1016.86 cm**-1
    29:    1034.63 cm**-1
    30:    1051.27 cm**-1
    31:    1139.26 cm**-1
    32:    1159.48 cm**-1
    33:    1161.85 cm**-1
    34:    1201.21 cm**-1
    35:    1222.23 cm**-1
    36:    1238.33 cm**-1
    37:    1284.53 cm**-1
    38:    1317.05 cm**-1
    39:    1398.64 cm**-1
    40:    1401.91 cm**-1
    41:    1443.09 cm**-1
    42:    1469.04 cm**-1
    43:    1475.14 cm**-1
    44:    1481.84 cm**-1
    45:    1493.91 cm**-1
    46:    1496.78 cm**-1
    47:    1530.77 cm**-1
    48:    1633.99 cm**-1
    49:    1641.10 cm**-1
    50:    2999.26 cm**-1
    51:    3003.48 cm**-1
    52:    3062.17 cm**-1
    53:    3076.43 cm**-1
    54:    3100.05 cm**-1
    55:    3130.33 cm**-1
    56:    3160.13 cm**-1
    57:    3177.39 cm**-1
    58:    3179.72 cm**-1
    59:    3734.66 cm**-1

IR SPECTRUM
-----------

 Mode   freq       eps      Int      T**2         TX        TY        TZ
       cm**-1   L/(mol*cm) km/mol    a.u.
----------------------------------------------------------------------------
  6:     83.71   0.000013    0.07  0.000048  (-0.000536 -0.000062 -0.006935)
  7:    111.31   0.000680    3.44  0.001906  ( 0.000540  0.000175  0.043653)
  8:    157.01   0.000243    1.23  0.000483  (-0.000118 -0.000108  0.021973)
  9:    203.33   0.000000    0.00  0.000001  ( 0.000042 -0.000013 -0.000741)
 10:    214.23   0.000128    0.64  0.000186  (-0.013242 -0.003233 -0.000052)
 11:    276.60   0.000029    0.14  0.000032  (-0.000141  0.000053  0.005681)
 12:    310.85   0.000590    2.98  0.000593  (-0.012382  0.020959 -0.000010)
 13:    364.23   0.000806    4.07  0.000691  (-0.000249  0.000082  0.026280)
 14:    373.68   0.000627    3.17  0.000524  (-0.022108 -0.005892 -0.000212)
 15:    445.00   0.018224   92.10  0.012780  ( 0.000061 -0.000078  0.113048)
 16:    455.62   0.000060    0.30  0.000041  (-0.000076  0.000028 -0.006412)
 17:    468.58   0.000166    0.84  0.000110  (-0.007563  0.007287 -0.000109)
 18:    553.76   0.000718    3.63  0.000404  ( 0.016887  0.010921 -0.000103)
 19:    563.65   0.002676   13.52  0.001481  (-0.031454  0.022181  0.000000)
 20:    598.38   0.001782    9.01  0.000929  ( 0.000040  0.000015  0.030488)
 21:    709.70   0.000152    0.77  0.000067  ( 0.000069  0.000028 -0.008170)
 22:    724.33   0.000211    1.07  0.000091  ( 0.004711  0.008295  0.000057)
 23:    795.03   0.006263   31.65  0.002459  ( 0.044521 -0.021828 -0.000056)
 24:    813.33   0.006552   33.11  0.002514  (-0.000164 -0.000024 -0.050139)
 25:    831.68   0.002184   11.04  0.000819  (-0.000024  0.000090  0.028624)
 26:    911.31   0.000356    1.80  0.000122  ( 0.000039  0.000039  0.011035)
 27:    929.55   0.001858    9.39  0.000624  (-0.022289  0.011265 -0.000057)
 28:   1016.86   0.002887   14.59  0.000886  (-0.015145 -0.025626  0.000046)
 29:   1034.63   0.013765   69.56  0.004152  (-0.029110 -0.057485  0.000074)
 30:   1051.27   0.000490    2.47  0.000145  ( 0.000304 -0.000087  0.012052)
 31:   1139.26   0.006850   34.62  0.001876  ( 0.021068  0.037849 -0.000004)
 32:   1159.48   0.000096    0.48  0.000026  (-0.000123 -0.000339  0.005058)
 33:   1161.85   0.007046   35.61  0.001892  ( 0.022633  0.037151  0.000045)
 34:   1201.21   0.004475   22.62  0.001163  (-0.001853  0.034046  0.000020)
 35:   1222.23   0.018673   94.37  0.004768  (-0.061843  0.030709  0.000024)
 36:   1238.33   0.027716  140.07  0.006985  (-0.061801  0.056261 -0.000017)
 37:   1284.53   0.030274  152.99  0.007355  ( 0.077851  0.035973 -0.000016)
 38:   1317.05   0.001333    6.74  0.000316  ( 0.001945 -0.017668 -0.000011)
 39:   1398.64   0.006554   33.12  0.001462  (-0.002493 -0.038160  0.000007)
 40:   1401.91   0.002714   13.71  0.000604  (-0.003726 -0.024295 -0.000011)
 41:   1443.09   0.003624   18.32  0.000784  (-0.026273  0.009670  0.000015)
 42:   1469.04   0.001314    6.64  0.000279  (-0.009226  0.013925 -0.000176)
 43:   1475.14   0.001256    6.35  0.000266  ( 0.000160 -0.000156 -0.016301)
 44:   1481.84   0.001987   10.04  0.000418  ( 0.000198  0.000027 -0.020455)
 45:   1493.91   0.001337    6.76  0.000279  (-0.016471 -0.002816 -0.000102)
 46:   1496.78   0.012964   65.51  0.002703  ( 0.048286  0.019267  0.000029)
 47:   1530.77   0.032083  162.13  0.006540  ( 0.079599 -0.014301  0.000014)
 48:   1633.99   0.001604    8.11  0.000306  (-0.000613  0.017494 -0.000007)
 49:   1641.10   0.003700   18.70  0.000704  ( 0.022216  0.014491 -0.000003)
 50:   2999.26   0.008968   45.32  0.000933  (-0.011510 -0.028295  0.000010)
 51:   3003.48   0.009301   47.00  0.000966  ( 0.022744 -0.021192  0.000120)
 52:   3062.17   0.003662   18.51  0.000373  (-0.000116  0.000104  0.019318)
 53:   3076.43   0.006112   30.89  0.000620  ( 0.000019  0.000032  0.024899)
 54:   3100.05   0.003284   16.59  0.000331  ( 0.012766  0.012945 -0.000002)
 55:   3130.33   0.003488   17.63  0.000348  ( 0.018403  0.003003 -0.000001)
 56:   3160.13   0.002127   10.75  0.000210  ( 0.014473  0.000732  0.000002)
 57:   3177.39   0.002692   13.61  0.000264  (-0.004463 -0.015637 -0.000006)
 58:   3179.72   0.000113    0.57  0.000011  (-0.000122  0.003323  0.000003)
 59:   3734.66   0.016798   84.89  0.001404  ( 0.036302  0.009261  0.000001)

--------------------------
THERMOCHEMISTRY AT 298.15K
--------------------------

Temperature         ...   298.15 K
Pressure            ...     1.00 atm
Total Mass          ...   138.17 AMU
Quasi RRHO          ...     True
Cut-Off Frequency   ...     1.00 cm^-1

Throughout the following assumptions are being made:
  (1) The electronic state is orbitally nondegenerate
  (2) There are no thermally accessible electronically excited states
  (3) Hindered rotations indicated by low frequency modes are not
      treated as such but are treated as vibrations and this may
      cause some error
  (4) All equations used are the standard statistical mechanics
      equations for an ideal gas
  (5) All vibrations are strictly harmonic

freq.      83.71  E(vib)   ...       0.48
freq.     111.31  E(vib)   ...       0.45
freq.     157.01  E(vib)   ...       0.40
freq.     203.33  E(vib)   ...       0.35
freq.     214.23  E(vib)   ...       0.34
freq.     276.60  E(vib)   ...       0.28
freq.     310.85  E(vib)   ...       0.26
freq.     364.23  E(vib)   ...       0.22
freq.     373.68  E(vib)   ...       0.21
freq.     445.00  E(vib)   ...       0.17
freq.     455.62  E(vib)   ...       0.16
freq.     468.58  E(vib)   ...       0.16
freq.     553.76  E(vib)   ...       0.12
freq.     563.65  E(vib)   ...       0.11
freq.     598.38  E(vib)   ...       0.10
freq.     709.70  E(vib)   ...       0.07
freq.     724.33  E(vib)   ...       0.06
freq.     795.03  E(vib)   ...       0.05
freq.     813.33  E(vib)   ...       0.05
freq.     831.68  E(vib)   ...       0.04
freq.     911.31  E(vib)   ...       0.03
freq.     929.55  E(vib)   ...       0.03
freq.    1016.86  E(vib)   ...       0.02
freq.    1034.63  E(vib)   ...       0.02
freq.    1051.27  E(vib)   ...       0.02
freq.    1139.26  E(vib)   ...       0.01
freq.    1159.48  E(vib)   ...       0.01
freq.    1161.85  E(vib)   ...       0.01
freq.    1201.21  E(vib)   ...       0.01
freq.    1222.23  E(vib)   ...       0.01
freq.    1238.33  E(vib)   ...       0.01
freq.    1284.53  E(vib)   ...       0.01
freq.    1317.05  E(vib)   ...       0.01
freq.    1398.64  E(vib)   ...       0.00
freq.    1401.91  E(vib)   ...       0.00
freq.    1443.09  E(vib)   ...       0.00
freq.    1469.04  E(vib)   ...       0.00
freq.    1475.14  E(vib)   ...       0.00
freq.    1481.84  E(vib)   ...       0.00
freq.    1493.91  E(vib)   ...       0.00
freq.    1496.78  E(vib)   ...       0.00
freq.    1530.77  E(vib)   ...       0.00
freq.    1633.99  E(vib)   ...       0.00
freq.    1641.10  E(vib)   ...       0.00
freq.    2999.26  E(vib)   ...       0.00
freq.    3003.48  E(vib)   ...       0.00
freq.    3062.17  E(vib)   ...       0.00
freq.    3076.43  E(vib)   ...       0.00
freq.    3100.05  E(vib)   ...       0.00
freq.    3130.33  E(vib)   ...       0.00
freq.    3160.13  E(vib)   ...       0.00
freq.    3177.39  E(vib)   ...       0.00
freq.    3179.72  E(vib)   ...       0.00
freq.    3734.66  E(vib)   ...       0.00

------------
INNER ENERGY
------------

The inner energy is: U= E(el) + E(ZPE) + E(vib) + E(rot) + E(trans)
    E(el)   - is the total energy from the electronic structure calculation
              = E(kin-el) + E(nuc-el) + E(el-el) + E(nuc-nuc)
    E(ZPE)  - the the zero temperature vibrational energy from the frequency calculation
    E(vib)  - the the finite temperature correction to E(ZPE) due to population
              of excited vibrational states
    E(rot)  - is the rotational thermal energy
    E(trans)- is the translational thermal energy

Summary of contributions to the inner energy U:
Electronic energy                ...   -461.23940242 Eh
Zero point energy                ...      0.16359841 Eh     102.66 kcal/mol
Thermal vibrational correction   ...      0.00686871 Eh       4.31 kcal/mol
Thermal rotational correction    ...      0.00141627 Eh       0.89 kcal/mol
Thermal translational correction ...      0.00141627 Eh       0.89 kcal/mol
-----------------------------------------------------------------------
Total thermal energy                   -461.06610276 Eh

Summary of corrections to the electronic energy:
(perhaps to be used in another calculation)
Total thermal correction                  0.00970125 Eh       6.09 kcal/mol
Non-thermal (ZPE) correction              0.16359841 Eh     102.66 kcal/mol
-----------------------------------------------------------------------
Total correction                          0.17329966 Eh     108.75 kcal/mol

--------
ENTHALPY
--------

The enthalpy is H = U + kB*T
                kB is Boltzmann's constant
Total thermal energy              ...   -461.06610276 Eh
Thermal Enthalpy correction       ...      0.00094421 Eh       0.59 kcal/mol
-----------------------------------------------------------------------
Total Enthalpy                    ...   -461.06515855 Eh

Note: Only C1 symmetry has been detected, increase convergence thresholds
      if your molecule has a higher symmetry. Symmetry factor of 1.0 is
      used for the rotational entropy correction.

Note: Rotational entropy computed according to Herzberg
Infrared and Raman Spectra, Chapter V,1, Van Nostrand Reinhold, 1945
Point Group:  C1, Symmetry Number:   1
Rotational constants in cm-1:     0.062250     0.039112     0.024240

Vibrational entropy computed according to the QRRHO of S. Grimme
Chem.Eur.J. 2012 18 9955 using a reference frequency of 100.0 cm-1

-------
ENTROPY
-------

The entropy contributions are T*S = T*(S(el)+S(vib)+S(rot)+S(trans))
     S(el)   - electronic entropy
     S(vib)  - vibrational entropy
     S(rot)  - rotational entropy
     S(trans)- translational entropy
The entropies will be listed as multiplied by the temperature to get
units of energy

Electronic entropy                ...      0.00000000 Eh      0.00 kcal/mol
Vibrational entropy               ...      0.01143878 Eh      7.18 kcal/mol
Rotational entropy                ...      0.01410786 Eh      8.85 kcal/mol
Translational entropy             ...      0.01932910 Eh     12.13 kcal/mol
-----------------------------------------------------------------------
Final entropy term                ...      0.04487574 Eh     28.16 kcal/mol

In case the symmetry of your molecule has not been determined correctly
or in case you have a reason to use a different symmetry number we print
out the resulting rotational entropy values for sn=1,12:

 non-linear molecules -----------------------------------
|  sn= 1 | S(rot)=       0.01410786 Eh      8.85 kcal/mol|
|  sn= 2 | S(rot)=       0.01345341 Eh      8.44 kcal/mol|
|  sn= 3 | S(rot)=       0.01307057 Eh      8.20 kcal/mol|
|  sn= 4 | S(rot)=       0.01279895 Eh      8.03 kcal/mol|
|  sn= 5 | S(rot)=       0.01258826 Eh      7.90 kcal/mol|
|  sn= 6 | S(rot)=       0.01241612 Eh      7.79 kcal/mol|

                             ****ORCA TERMINATED NORMALLY****
TOTAL RUN TIME: 0 days 0 hours 18 minutes 48 seconds 854 msec
