                         Program Version 6.0.0  -   RELEASE  -
|  1> ! r2SCAN-3c DEF2-TZVP FREQ
|  2> * xyzfile 0 1 vacuum_censo.xyz
|  3>
|  4>                          ****END OF INPUT****

CARTESIAN COORDINATES (ANGSTROEM)
---------------------------------
  C     -2.997661    1.238210    0.000441
  C     -1.758492    0.384375   -0.000064
  C     -1.830047   -1.004367   -0.000320
  C     -0.674847   -1.786904   -0.000285
  C      0.571230   -1.185816   -0.000058
  C      0.658323    0.217807    0.000097
  C     -0.493337    0.990835    0.000122
  O      1.946287    0.695568    0.000094
  C      2.121550    2.108586   -0.000212
  O      1.700632   -1.952243   -0.000101
  H     -3.899016    0.620663   -0.004099
  H     -3.037286    1.883056    0.885497
  H     -3.033134    1.890181   -0.879517
  H     -2.799797   -1.492305   -0.000556
  H     -0.729318   -2.870224   -0.000522
  H     -0.426910    2.073491    0.000286
  H      3.198967    2.278307   -0.000883
  H      1.679753    2.561099    0.896686
  H      1.678686    2.560839   -0.896709
  H      2.458008   -1.351373    0.000006

 Total Charge           Charge          ....    0
 Multiplicity           Mult            ....    1
 Number of Electrons    NEL             ....   74
 Basis Dimension        Dim             ....  370

ORBITAL ENERGIES
----------------

  NO   OCC          E(Eh)            E(eV)
   0   2.0000     -18.999276      -516.9966
   1   2.0000     -18.976839      -516.3860
   2   2.0000     -10.096144      -274.7301
   3   2.0000     -10.091865      -274.6136
   4   2.0000     -10.085797      -274.4485
   5   2.0000     -10.037853      -273.1439
   6   2.0000     -10.032324      -272.9934
   7   2.0000     -10.026945      -272.8471
   8   2.0000     -10.026143      -272.8252
   9   2.0000     -10.024877      -272.7908
  10   2.0000      -1.045312       -28.4444
  11   2.0000      -1.012845       -27.5609
  12   2.0000      -0.816680       -22.2230
  13   2.0000      -0.735685       -20.0190
  14   2.0000      -0.718259       -19.5448
  15   2.0000      -0.677649       -18.4398
  16   2.0000      -0.643267       -17.5042
  17   2.0000      -0.574942       -15.6450
  18   2.0000      -0.555815       -15.1245
  19   2.0000      -0.519292       -14.1307
  20   2.0000      -0.486640       -13.2421
  21   2.0000      -0.454927       -12.3792
  22   2.0000      -0.445854       -12.1323
  23   2.0000      -0.415026       -11.2934
  24   2.0000      -0.412781       -11.2323
  25   2.0000      -0.394158       -10.7256
  26   2.0000      -0.390291       -10.6204
  27   2.0000      -0.372925       -10.1478
  28   2.0000      -0.367941       -10.0122
  29   2.0000      -0.345093        -9.3904
  30   2.0000      -0.338423        -9.2090
  31   2.0000      -0.314400        -8.5553
  32   2.0000      -0.314190        -8.5495
  33   2.0000      -0.306409        -8.3378
  34   2.0000      -0.287698        -7.8287
  35   2.0000      -0.218486        -5.9453
  36   2.0000      -0.185384        -5.0446
  37   0.0000      -0.024693        -0.6719
  38   0.0000      -0.007969        -0.2168
  39   0.0000       0.031924         0.8687
  40   0.0000       0.045420         1.2359
  41   0.0000       0.072259         1.9663

MULLIKEN ATOMIC CHARGES
-----------------------
   0 C :   -0.352404
   1 C :    0.176735
   2 C :   -0.204858
   3 C :   -0.181642
   4 C :    0.145462
   5 C :    0.345852
   6 C :   -0.342100
   7 O :   -0.334355
   8 C :   -0.168046
   9 O :   -0.408860
  10 H :    0.107758
  11 H :    0.112859
  12 H :    0.112730
  13 H :    0.094161
  14 H :    0.106854
  15 H :    0.103836
  16 H :    0.125683
  17 H :    0.115940
  18 H :    0.115930
  19 H :    0.328465
Sum of atomic charges:    0.0000000

LOEWDIN ATOMIC CHARGES
----------------------
   0 C :   -0.257354
   1 C :   -0.186997
   2 C :   -0.134799
   3 C :   -0.122291
   4 C :   -0.255930
   5 C :   -0.237952
   6 C :   -0.123054
   7 O :    0.206665
   8 C :   -0.316151
   9 O :    0.085461
  10 H :    0.125728
  11 H :    0.126588
  12 H :    0.126550
  13 H :    0.143637
  14 H :    0.149293
  15 H :    0.148630
  16 H :    0.114017
  17 H :    0.109067
  18 H :    0.109072
  19 H :    0.189820

  Mayer bond orders larger than 0.100000
B(  0-C ,  1-C ) :   0.9013 B(  0-C , 10-H ) :   0.9890 B(  0-C , 11-H ) :   0.9679
B(  0-C , 12-H ) :   0.9682 B(  1-C ,  2-C ) :   1.4000 B(  1-C ,  6-C ) :   1.2902
B(  2-C ,  3-C ) :   1.3607 B(  2-C , 13-H ) :   0.9820 B(  3-C ,  4-C ) :   1.4438
B(  3-C , 14-H ) :   0.9829 B(  4-C ,  5-C ) :   1.2298 B(  4-C ,  9-O ) :   1.1624
B(  5-C ,  6-C ) :   1.3169 B(  5-C ,  7-O ) :   0.9940 B(  6-C , 15-H ) :   0.9716
B(  7-O ,  8-C ) :   0.9355 B(  8-C , 16-H ) :   0.9753 B(  8-C , 17-H ) :   0.9673
B(  8-C , 18-H ) :   0.9673 B(  9-O , 19-H ) :   0.8626

Dispersion correction           -0.006554423
FINAL SINGLE POINT ENERGY      -461.239849210363

DIPOLE MOMENT
-------------

Method             : SCF
Type of density    : Electron Density
Multiplicity       :   1
Irrep              :   0
Energy             :  -461.2435987251390088 Eh
Relativity type    :
Basis              : AO
                                X                 Y                 Z
Electronic contribution:      4.823811069      -6.574702503      -0.000291563
Nuclear contribution   :     -4.587291189       7.653076151       0.000400736
                        -----------------------------------------
Total Dipole Moment    :      0.236519880       1.078373648       0.000109173
                        -----------------------------------------
Magnitude (a.u.)       :      1.104006970
Magnitude (Debye)      :      2.806162709

VIBRATIONAL FREQUENCIES
-----------------------

Scaling factor for frequencies =  1.000000000  (already applied!)

     0:       0.00 cm**-1
     1:       0.00 cm**-1
     2:       0.00 cm**-1
     3:       0.00 cm**-1
     4:       0.00 cm**-1
     5:       0.00 cm**-1
     6:      76.00 cm**-1
     7:      91.58 cm**-1
     8:     150.47 cm**-1
     9:     206.48 cm**-1
    10:     210.31 cm**-1
    11:     281.51 cm**-1
    12:     308.77 cm**-1
    13:     360.21 cm**-1
    14:     372.73 cm**-1
    15:     425.97 cm**-1
    16:     451.46 cm**-1
    17:     470.51 cm**-1
    18:     552.79 cm**-1
    19:     565.30 cm**-1
    20:     596.37 cm**-1
    21:     709.08 cm**-1
    22:     725.43 cm**-1
    23:     805.21 cm**-1
    24:     812.79 cm**-1
    25:     833.07 cm**-1
    26:     909.90 cm**-1
    27:     933.74 cm**-1
    28:    1019.17 cm**-1
    29:    1051.71 cm**-1
    30:    1055.51 cm**-1
    31:    1143.84 cm**-1
    32:    1166.35 cm**-1
    33:    1169.29 cm**-1
    34:    1206.90 cm**-1
    35:    1226.40 cm**-1
    36:    1260.63 cm**-1
    37:    1291.12 cm**-1
    38:    1320.82 cm**-1
    39:    1400.43 cm**-1
    40:    1409.32 cm**-1
    41:    1447.94 cm**-1
    42:    1475.87 cm**-1
    43:    1476.28 cm**-1
    44:    1482.73 cm**-1
    45:    1495.64 cm**-1
    46:    1499.66 cm**-1
    47:    1538.87 cm**-1
    48:    1642.60 cm**-1
    49:    1645.09 cm**-1
    50:    2984.29 cm**-1
    51:    3003.26 cm**-1
    52:    3054.78 cm**-1
    53:    3062.33 cm**-1
    54:    3100.37 cm**-1
    55:    3122.84 cm**-1
    56:    3162.15 cm**-1
    57:    3177.24 cm**-1
    58:    3185.05 cm**-1
    59:    3760.03 cm**-1

IR SPECTRUM
-----------

 Mode   freq       eps      Int      T**2         TX        TY        TZ
       cm**-1   L/(mol*cm) km/mol    a.u.
----------------------------------------------------------------------------
  6:     76.00   0.000001    0.00  0.000004  (-0.000538 -0.000026  0.001917)
  7:     91.58   0.000721    3.64  0.002456  (-0.000031 -0.000123 -0.049555)
  8:    150.47   0.000270    1.36  0.000559  ( 0.000126  0.000019  0.023646)
  9:    206.48   0.000002    0.01  0.000003  ( 0.000051  0.000111  0.001642)
 10:    210.31   0.000138    0.69  0.000204  ( 0.013532  0.004575 -0.000001)
 11:    281.51   0.000027    0.14  0.000030  (-0.000032 -0.000104 -0.005493)
 12:    308.77   0.000691    3.49  0.000698  (-0.012639  0.023211 -0.000008)
 13:    360.21   0.000388    1.96  0.000336  ( 0.000043  0.000025 -0.018344)
 14:    372.73   0.000611    3.09  0.000511  ( 0.022228  0.004137  0.000037)
 15:    425.97   0.018351   92.74  0.013444  (-0.000020 -0.000040  0.115948)
 16:    451.46   0.000046    0.23  0.000032  (-0.000145  0.000022 -0.005620)
 17:    470.51   0.000126    0.64  0.000084  (-0.006857  0.006041 -0.000014)
 18:    552.79   0.000733    3.70  0.000414  (-0.017566 -0.010249 -0.000001)
 19:    565.30   0.002668   13.48  0.001473  ( 0.031953 -0.021258  0.000024)
 20:    596.37   0.001641    8.29  0.000859  (-0.000057  0.000117  0.029303)
 21:    709.08   0.000114    0.58  0.000050  (-0.000001  0.000057 -0.007090)
 22:    725.43   0.000270    1.37  0.000116  ( 0.006936  0.008258 -0.000012)
 23:    805.21   0.005585   28.23  0.002165  ( 0.042553 -0.018811  0.000127)
 24:    812.79   0.006483   32.76  0.002489  ( 0.000098 -0.000089 -0.049890)
 25:    833.07   0.002362   11.94  0.000885  ( 0.000067  0.000034  0.029748)
 26:    909.90   0.000313    1.58  0.000107  (-0.000003 -0.000045 -0.010362)
 27:    933.74   0.002341   11.83  0.000783  (-0.027472  0.005273  0.000012)
 28:   1019.17   0.000002    0.01  0.000001  ( 0.000588  0.000642 -0.000000)
 29:   1051.71   0.000480    2.42  0.000142  ( 0.000012  0.000294  0.011929)
 30:   1055.51   0.013422   67.83  0.003968  ( 0.023893  0.058287 -0.000054)
 31:   1143.84   0.005236   26.46  0.001428  (-0.020676 -0.031637 -0.000003)
 32:   1166.35   0.011895   60.11  0.003182  ( 0.034846  0.044365 -0.000041)
 33:   1169.29   0.000098    0.50  0.000026  ( 0.000169  0.000212  0.005109)
 34:   1206.90   0.003843   19.42  0.000994  ( 0.005497 -0.031039  0.000009)
 35:   1226.40   0.012544   63.39  0.003192  ( 0.053743 -0.017424 -0.000000)
 36:   1260.63   0.028194  142.48  0.006979  ( 0.035585 -0.075584 -0.000014)
 37:   1291.12   0.036248  183.18  0.008761  (-0.092830 -0.011991 -0.000016)
 38:   1320.82   0.001827    9.23  0.000432  (-0.008147 -0.019110  0.000003)
 39:   1400.43   0.000763    3.85  0.000170  ( 0.000034  0.013035  0.000009)
 40:   1409.32   0.007967   40.26  0.001764  (-0.004998 -0.041704 -0.000006)
 41:   1447.94   0.003204   16.19  0.000690  ( 0.024321 -0.009949  0.000029)
 42:   1475.87   0.001715    8.67  0.000363  ( 0.013627 -0.013268 -0.000967)
 43:   1476.28   0.001238    6.26  0.000262  ( 0.000937 -0.000892  0.016124)
 44:   1482.73   0.001952    9.87  0.000411  ( 0.000020 -0.000001 -0.020271)
 45:   1495.64   0.000535    2.70  0.000112  (-0.008734 -0.005938 -0.000026)
 46:   1499.66   0.013773   69.60  0.002866  (-0.050664 -0.017296  0.000002)
 47:   1538.87   0.035845  181.15  0.007269  ( 0.083878 -0.015279 -0.000016)
 48:   1642.60   0.001688    8.53  0.000321  ( 0.011281 -0.013906  0.000005)
 49:   1645.09   0.003162   15.98  0.000600  (-0.015363 -0.019075  0.000002)
 50:   2984.29   0.009946   50.26  0.001040  (-0.010381 -0.030532 -0.000009)
 51:   3003.26   0.009018   45.57  0.000937  (-0.023229  0.019937  0.000090)
 52:   3054.78   0.006679   33.75  0.000682  (-0.000012  0.000002 -0.026121)
 53:   3062.33   0.003703   18.71  0.000377  (-0.000050  0.000080 -0.019425)
 54:   3100.37   0.003359   16.98  0.000338  (-0.013251 -0.012748 -0.000022)
 55:   3122.84   0.003845   19.43  0.000384  (-0.019240 -0.003751  0.000007)
 56:   3162.15   0.002379   12.02  0.000235  (-0.015148 -0.002302 -0.000003)
 57:   3177.24   0.001713    8.65  0.000168  (-0.002488 -0.012729 -0.000002)
 58:   3185.05   0.001019    5.15  0.000100  (-0.001683 -0.009851 -0.000003)
 59:   3760.03   0.017537   88.63  0.001456  (-0.036389 -0.011461 -0.000001)

--------------------------
THERMOCHEMISTRY AT 298.15K
--------------------------

Temperature         ...   298.15 K
Pressure            ...     1.00 atm
Total Mass          ...   138.17 AMU
Quasi RRHO          ...     True
Cut-Off Frequency   ...     1.00 cm^-1

Throughout the following assumptions are being made:
  (1) The electronic state is orbitally nondegenerate
  (2) There are no thermally accessible electronically excited states
  (3) Hindered rotations indicated by low frequency modes are not
      treated as such but are treated as vibrations and this may
      cause some error
  (4) All equations used are the standard statistical mechanics
      equations for an ideal gas
  (5) All vibrations are strictly harmonic

freq.      76.00  E(vib)   ...       0.49
freq.      91.58  E(vib)   ...       0.47
freq.     150.47  E(vib)   ...       0.40
freq.     206.48  E(vib)   ...       0.35
freq.     210.31  E(vib)   ...       0.34
freq.     281.51  E(vib)   ...       0.28
freq.     308.77  E(vib)   ...       0.26
freq.     360.21  E(vib)   ...       0.22
freq.     372.73  E(vib)   ...       0.21
freq.     425.97  E(vib)   ...       0.18
freq.     451.46  E(vib)   ...       0.16
freq.     470.51  E(vib)   ...       0.15
freq.     552.79  E(vib)   ...       0.12
freq.     565.30  E(vib)   ...       0.11
freq.     596.37  E(vib)   ...       0.10
freq.     709.08  E(vib)   ...       0.07
freq.     725.43  E(vib)   ...       0.06
freq.     805.21  E(vib)   ...       0.05
freq.     812.79  E(vib)   ...       0.05
freq.     833.07  E(vib)   ...       0.04
freq.     909.90  E(vib)   ...       0.03
freq.     933.74  E(vib)   ...       0.03
freq.    1019.17  E(vib)   ...       0.02
freq.    1051.71  E(vib)   ...       0.02
freq.    1055.51  E(vib)   ...       0.02
freq.    1143.84  E(vib)   ...       0.01
freq.    1166.35  E(vib)   ...       0.01
freq.    1169.29  E(vib)   ...       0.01
freq.    1206.90  E(vib)   ...       0.01
freq.    1226.40  E(vib)   ...       0.01
freq.    1260.63  E(vib)   ...       0.01
freq.    1291.12  E(vib)   ...       0.01
freq.    1320.82  E(vib)   ...       0.01
freq.    1400.43  E(vib)   ...       0.00
freq.    1409.32  E(vib)   ...       0.00
freq.    1447.94  E(vib)   ...       0.00
freq.    1475.87  E(vib)   ...       0.00
freq.    1476.28  E(vib)   ...       0.00
freq.    1482.73  E(vib)   ...       0.00
freq.    1495.64  E(vib)   ...       0.00
freq.    1499.66  E(vib)   ...       0.00
freq.    1538.87  E(vib)   ...       0.00
freq.    1642.60  E(vib)   ...       0.00
freq.    1645.09  E(vib)   ...       0.00
freq.    2984.29  E(vib)   ...       0.00
freq.    3003.26  E(vib)   ...       0.00
freq.    3054.78  E(vib)   ...       0.00
freq.    3062.33  E(vib)   ...       0.00
freq.    3100.37  E(vib)   ...       0.00
freq.    3122.84  E(vib)   ...       0.00
freq.    3162.15  E(vib)   ...       0.00
freq.    3177.24  E(vib)   ...       0.00
freq.    3185.05  E(vib)   ...       0.00
freq.    3760.03  E(vib)   ...       0.00

------------
INNER ENERGY
------------

The inner energy is: U= E(el) + E(ZPE) + E(vib) + E(rot) + E(trans)
    E(el)   - is the total energy from the electronic structure calculation
              = E(kin-el) + E(nuc-el) + E(el-el) + E(nuc-nuc)
    E(ZPE)  - the the zero temperature vibrational energy from the frequency calculation
    E(vib)  - the the finite temperature correction to E(ZPE) due to population
              of excited vibrational states
    E(rot)  - is the rotational thermal energy
    E(trans)- is the translational thermal energy

Summary of contributions to the inner energy U:
Electronic energy                ...   -461.23984921 Eh
Zero point energy                ...      0.16377333 Eh     102.77 kcal/mol
Thermal vibrational correction   ...      0.00694349 Eh       4.36 kcal/mol
Thermal rotational correction    ...      0.00141627 Eh       0.89 kcal/mol
Thermal translational correction ...      0.00141627 Eh       0.89 kcal/mol
-----------------------------------------------------------------------
Total thermal energy                   -461.06629985 Eh

Summary of corrections to the electronic energy:
(perhaps to be used in another calculation)
Total thermal correction                  0.00977603 Eh       6.13 kcal/mol
Non-thermal (ZPE) correction              0.16377333 Eh     102.77 kcal/mol
-----------------------------------------------------------------------
Total correction                          0.17354936 Eh     108.90 kcal/mol

--------
ENTHALPY
--------

The enthalpy is H = U + kB*T
                kB is Boltzmann's constant
Total thermal energy              ...   -461.06629985 Eh
Thermal Enthalpy correction       ...      0.00094421 Eh       0.59 kcal/mol
-----------------------------------------------------------------------
Total Enthalpy                    ...   -461.06535565 Eh

Note: Only C1 symmetry has been detected, increase convergence thresholds
      if your molecule has a higher symmetry. Symmetry factor of 1.0 is
      used for the rotational entropy correction.

Note: Rotational entropy computed according to Herzberg
Infrared and Raman Spectra, Chapter V,1, Van Nostrand Reinhold, 1945
Point Group:  C1, Symmetry Number:   1
Rotational constants in cm-1:     0.062917     0.039061     0.024321

Vibrational entropy computed according to the QRRHO of S. Grimme
Chem.Eur.J. 2012 18 9955 using a reference frequency of 100.0 cm-1

-------
ENTROPY
-------

The entropy contributions are T*S = T*(S(el)+S(vib)+S(rot)+S(trans))
     S(el)   - electronic entropy
     S(vib)  - vibrational entropy
     S(rot)  - rotational entropy
     S(trans)- translational entropy
The entropies will be listed as multiplied by the temperature to get
units of energy

Electronic entropy                ...      0.00000000 Eh      0.00 kcal/mol
Vibrational entropy               ...      0.01160580 Eh      7.28 kcal/mol
Rotational entropy                ...      0.01410188 Eh      8.85 kcal/mol
Translational entropy             ...      0.01932910 Eh     12.13 kcal/mol
-----------------------------------------------------------------------
Final entropy term                ...      0.04503678 Eh     28.26 kcal/mol

In case the symmetry of your molecule has not been determined correctly
or in case you have a reason to use a different symmetry number we print
out the resulting rotational entropy values for sn=1,12:

 non-linear molecules -----------------------------------
|  sn= 1 | S(rot)=       0.01410188 Eh      8.85 kcal/mol|
|  sn= 2 | S(rot)=       0.01344743 Eh      8.44 kcal/mol|
|  sn= 3 | S(rot)=       0.01306459 Eh      8.20 kcal/mol|
|  sn= 4 | S(rot)=       0.01279297 Eh      8.03 kcal/mol|
|  sn= 5 | S(rot)=       0.01258228 Eh      7.90 kcal/mol|
|  sn= 6 | S(rot)=       0.01241014 Eh      7.79 kcal/mol|

                             ****ORCA TERMINATED NORMALLY****
TOTAL RUN TIME: 0 days 0 hours 18 minutes 57 seconds 475 msec
