                         Program Version 6.0.0  -   RELEASE  -
|  1> ! r2SCAN-3c DEF2-TZVP FREQ
|  2> * xyzfile 0 1 censo.xyz
|  3>
|  4>                          ****END OF INPUT****

CARTESIAN COORDINATES (ANGSTROEM)
---------------------------------
  C     -2.660358   -0.659899   -0.750351
  C     -1.875887   -0.463756    0.554021
  C     -0.396728   -0.311203    0.305319
  C      0.413368   -1.450061    0.267608
  C      1.776403   -1.365983   -0.003989
  C      2.350701   -0.120862   -0.241810
  C      1.554504    1.021062   -0.206007
  C      0.183553    0.949490    0.062187
  C     -0.637258    2.209328    0.102823
  H     -3.732503   -0.752398   -0.548747
  H     -2.330032   -1.568757   -1.263995
  H     -2.514435    0.184219   -1.432083
  H     -2.041627   -1.331487    1.201896
  H     -2.264363    0.411610    1.084083
  H     -0.038135   -2.421014    0.457704
  H      2.384090   -2.265600   -0.024843
  H      3.412586   -0.036061   -0.452084
  H      2.003422    1.994064   -0.388638
  H     -1.490959    2.160111   -0.581066
  H     -1.041601    2.389824    1.105609
  H     -0.028864    3.073714   -0.174330

 Total Charge           Charge          ....    0
 Multiplicity           Mult            ....    1
 Number of Electrons    NEL             ....   66
 Basis Dimension        Dim             ....  351

ORBITAL ENERGIES
----------------

  NO   OCC          E(Eh)            E(eV)
   0   2.0000     -10.041216      -273.2354
   1   2.0000     -10.037616      -273.1374
   2   2.0000     -10.034400      -273.0499
   3   2.0000     -10.030194      -272.9355
   4   2.0000     -10.029868      -272.9266
   5   2.0000     -10.029627      -272.9200
   6   2.0000     -10.029382      -272.9134
   7   2.0000     -10.029111      -272.9060
   8   2.0000     -10.025219      -272.8001
   9   2.0000      -0.823210       -22.4007
  10   2.0000      -0.752738       -20.4831
  11   2.0000      -0.733083       -19.9482
  12   2.0000      -0.689134       -18.7523
  13   2.0000      -0.650130       -17.6909
  14   2.0000      -0.597679       -16.2637
  15   2.0000      -0.559454       -15.2235
  16   2.0000      -0.533711       -14.5230
  17   2.0000      -0.465719       -12.6729
  18   2.0000      -0.443784       -12.0760
  19   2.0000      -0.420715       -11.4482
  20   2.0000      -0.399032       -10.8582
  21   2.0000      -0.393855       -10.7173
  22   2.0000      -0.383695       -10.4409
  23   2.0000      -0.374876       -10.2009
  24   2.0000      -0.360923        -9.8212
  25   2.0000      -0.351087        -9.5536
  26   2.0000      -0.338950        -9.2233
  27   2.0000      -0.322323        -8.7709
  28   2.0000      -0.317617        -8.6428
  29   2.0000      -0.298272        -8.1164
  30   2.0000      -0.293077        -7.9750
  31   2.0000      -0.226733        -6.1697
  32   2.0000      -0.217778        -5.9260
  33   0.0000      -0.029136        -0.7928
  34   0.0000      -0.026794        -0.7291
  35   0.0000       0.044366         1.2073
  36   0.0000       0.063275         1.7218
  37   0.0000       0.073015         1.9868

MULLIKEN ATOMIC CHARGES
-----------------------
   0 C :   -0.322716
   1 C :   -0.199202
   2 C :    0.164862
   3 C :   -0.192600
   4 C :   -0.116224
   5 C :   -0.118273
   6 C :   -0.159462
   7 C :    0.069188
   8 C :   -0.367461
   9 H :    0.106055
  10 H :    0.108987
  11 H :    0.102036
  12 H :    0.090384
  13 H :    0.089602
  14 H :    0.096708
  15 H :    0.104069
  16 H :    0.104711
  17 H :    0.092831
  18 H :    0.113523
  19 H :    0.124222
  20 H :    0.108759
Sum of atomic charges:   -0.0000000

LOEWDIN ATOMIC CHARGES
----------------------
   0 C :   -0.296325
   1 C :   -0.240320
   2 C :   -0.121390
   3 C :   -0.115956
   4 C :   -0.147808
   5 C :   -0.147534
   6 C :   -0.120700
   7 C :   -0.142822
   8 C :   -0.253435
   9 H :    0.117156
  10 H :    0.120347
  11 H :    0.117348
  12 H :    0.140159
  13 H :    0.138783
  14 H :    0.144837
  15 H :    0.141191
  16 H :    0.141348
  17 H :    0.142930
  18 H :    0.126505
  19 H :    0.129518
  20 H :    0.126168

  Mayer bond orders larger than 0.100000
B(  0-C ,  1-C ) :   0.9844 B(  0-C ,  9-H ) :   0.9719 B(  0-C , 10-H ) :   0.9755
B(  0-C , 11-H ) :   0.9719 B(  1-C ,  2-C ) :   0.8868 B(  1-C , 12-H ) :   0.9769
B(  1-C , 13-H ) :   0.9678 B(  2-C ,  3-C ) :   1.3481 B(  2-C ,  7-C ) :   1.2878
B(  3-C ,  4-C ) :   1.4024 B(  3-C , 14-H ) :   0.9825 B(  4-C ,  5-C ) :   1.3859
B(  4-C , 15-H ) :   0.9722 B(  5-C ,  6-C ) :   1.3978 B(  5-C , 16-H ) :   0.9724
B(  6-C ,  7-C ) :   1.3854 B(  6-C , 17-H ) :   0.9752 B(  7-C ,  8-C ) :   0.9166
B(  8-C , 18-H ) :   0.9663 B(  8-C , 19-H ) :   0.9745 B(  8-C , 20-H ) :   0.9827

Dispersion correction           -0.007064353
FINAL SINGLE POINT ENERGY      -350.110637864937

DIPOLE MOMENT
-------------

Method             : SCF
Type of density    : Electron Density
Multiplicity       :   1
Irrep              :   0
Energy             :  -350.1108053335714771 Eh
Relativity type    :
Basis              : AO
                                X                 Y                 Z
Electronic contribution:      7.035670456      -1.666584743       0.978548183
Nuclear contribution   :     -7.278980702       1.766894163      -0.958707363
                        -----------------------------------------
Total Dipole Moment    :     -0.243310246       0.100309421       0.019840819
                        -----------------------------------------
Magnitude (a.u.)       :      0.263923310
Magnitude (Debye)      :      0.670839742

VIBRATIONAL FREQUENCIES
-----------------------

Scaling factor for frequencies =  1.000000000  (already applied!)

     0:       0.00 cm**-1
     1:       0.00 cm**-1
     2:       0.00 cm**-1
     3:       0.00 cm**-1
     4:       0.00 cm**-1
     5:       0.00 cm**-1
     6:      99.25 cm**-1
     7:     125.54 cm**-1
     8:     171.99 cm**-1
     9:     210.95 cm**-1
    10:     237.46 cm**-1
    11:     324.08 cm**-1
    12:     340.43 cm**-1
    13:     417.86 cm**-1
    14:     459.75 cm**-1
    15:     508.46 cm**-1
    16:     563.74 cm**-1
    17:     598.61 cm**-1
    18:     734.39 cm**-1
    19:     741.10 cm**-1
    20:     766.88 cm**-1
    21:     797.35 cm**-1
    22:     837.92 cm**-1
    23:     869.21 cm**-1
    24:     929.32 cm**-1
    25:     962.10 cm**-1
    26:     971.69 cm**-1
    27:    1006.17 cm**-1
    28:    1047.04 cm**-1
    29:    1049.42 cm**-1
    30:    1074.38 cm**-1
    31:    1082.01 cm**-1
    32:    1149.22 cm**-1
    33:    1182.31 cm**-1
    34:    1206.13 cm**-1
    35:    1234.61 cm**-1
    36:    1271.00 cm**-1
    37:    1315.24 cm**-1
    38:    1339.27 cm**-1
    39:    1345.25 cm**-1
    40:    1394.74 cm**-1
    41:    1403.11 cm**-1
    42:    1463.02 cm**-1
    43:    1475.59 cm**-1
    44:    1482.17 cm**-1
    45:    1489.46 cm**-1
    46:    1494.30 cm**-1
    47:    1502.01 cm**-1
    48:    1516.46 cm**-1
    49:    1607.17 cm**-1
    50:    1632.97 cm**-1
    51:    3004.09 cm**-1
    52:    3005.93 cm**-1
    53:    3021.16 cm**-1
    54:    3063.28 cm**-1
    55:    3066.43 cm**-1
    56:    3083.86 cm**-1
    57:    3091.57 cm**-1
    58:    3100.11 cm**-1
    59:    3140.29 cm**-1
    60:    3145.78 cm**-1
    61:    3160.73 cm**-1
    62:    3175.39 cm**-1

IR SPECTRUM
-----------

 Mode   freq       eps      Int      T**2         TX        TY        TZ
       cm**-1   L/(mol*cm) km/mol    a.u.
----------------------------------------------------------------------------
  6:     99.25   0.000002    0.01  0.000007  (-0.000694  0.000152 -0.002637)
  7:    125.54   0.000042    0.21  0.000105  (-0.001885 -0.000626 -0.010046)
  8:    171.99   0.000112    0.57  0.000203  ( 0.001139  0.001908  0.014076)
  9:    210.95   0.000282    1.43  0.000417  ( 0.005173  0.002019  0.019658)
 10:    237.46   0.000037    0.19  0.000049  (-0.000433  0.002073  0.006666)
 11:    324.08   0.000344    1.74  0.000331  (-0.001463 -0.001893 -0.018046)
 12:    340.43   0.000062    0.31  0.000056  ( 0.005603  0.000931  0.004918)
 13:    417.86   0.000050    0.25  0.000037  ( 0.002686  0.002876 -0.004635)
 14:    459.75   0.001216    6.14  0.000825  ( 0.008535  0.005311  0.026908)
 15:    508.46   0.000158    0.80  0.000097  ( 0.005558  0.007984 -0.001585)
 16:    563.74   0.000280    1.41  0.000155  (-0.002273  0.003131 -0.011825)
 17:    598.61   0.000215    1.09  0.000112  (-0.003005  0.002273  0.009888)
 18:    734.39   0.000089    0.45  0.000038  (-0.003928 -0.001462  0.004496)
 19:    741.10   0.006982   35.28  0.002940  (-0.012542 -0.005213 -0.052493)
 20:    766.88   0.004026   20.35  0.001638  ( 0.005681  0.003813  0.039893)
 21:    797.35   0.000279    1.41  0.000109  ( 0.002449 -0.008059 -0.006196)
 22:    837.92   0.000238    1.20  0.000089  ( 0.001985  0.009206 -0.000221)
 23:    869.21   0.000021    0.10  0.000007  ( 0.000292 -0.001044 -0.002499)
 24:    929.32   0.000123    0.62  0.000041  ( 0.000178  0.000210 -0.006412)
 25:    962.10   0.000014    0.07  0.000004  ( 0.002002 -0.000662 -0.000164)
 26:    971.69   0.000465    2.35  0.000149  ( 0.011881 -0.001497 -0.002411)
 27:   1006.17   0.000471    2.38  0.000146  (-0.008267  0.008815 -0.000379)
 28:   1047.04   0.000619    3.13  0.000184  (-0.009919 -0.003244 -0.008691)
 29:   1049.42   0.000407    2.06  0.000121  ( 0.000975 -0.010668 -0.002513)
 30:   1074.38   0.002262   11.43  0.000657  (-0.024942  0.002075  0.005522)
 31:   1082.01   0.000292    1.47  0.000084  (-0.006032 -0.005625  0.004011)
 32:   1149.22   0.000543    2.74  0.000147  (-0.005250 -0.010920  0.000749)
 33:   1182.31   0.000002    0.01  0.000001  (-0.000581 -0.000512 -0.000216)
 34:   1206.13   0.000077    0.39  0.000020  ( 0.000419  0.002143 -0.003885)
 35:   1234.61   0.000214    1.08  0.000054  ( 0.006601 -0.003108  0.000893)
 36:   1271.00   0.000163    0.82  0.000040  ( 0.003972 -0.004913 -0.000181)
 37:   1315.24   0.000035    0.18  0.000008  ( 0.000634  0.002781 -0.000487)
 38:   1339.27   0.000183    0.92  0.000043  ( 0.006468 -0.000248  0.000863)
 39:   1345.25   0.000003    0.02  0.000001  ( 0.000505 -0.000568 -0.000476)
 40:   1394.74   0.000563    2.85  0.000126  (-0.001845  0.006108  0.009235)
 41:   1403.11   0.000421    2.13  0.000094  ( 0.003019 -0.007297  0.005594)
 42:   1463.02   0.000102    0.51  0.000022  (-0.003627 -0.001555  0.002467)
 43:   1475.59   0.001405    7.10  0.000297  ( 0.002083  0.000382  0.017110)
 44:   1482.17   0.001235    6.24  0.000260  ( 0.003853  0.015599  0.001338)
 45:   1489.46   0.001273    6.44  0.000267  (-0.005369  0.014914 -0.003941)
 46:   1494.30   0.002390   12.08  0.000499  ( 0.005838  0.020264 -0.007379)
 47:   1502.01   0.001137    5.75  0.000236  ( 0.002998 -0.004581 -0.014363)
 48:   1516.46   0.003256   16.46  0.000670  ( 0.025260 -0.005489 -0.001376)
 49:   1607.17   0.000126    0.64  0.000024  ( 0.004936  0.000072  0.000209)
 50:   1632.97   0.000490    2.48  0.000094  ( 0.003805  0.008798  0.001335)
 51:   3004.09   0.005315   26.86  0.000552  ( 0.012854  0.012562  0.015134)
 52:   3005.93   0.007245   36.62  0.000752  ( 0.022004 -0.015569  0.005064)
 53:   3021.16   0.005705   28.83  0.000589  ( 0.010313  0.001900 -0.021893)
 54:   3063.28   0.000514    2.60  0.000052  ( 0.000694  0.006141  0.003764)
 55:   3066.43   0.002710   13.69  0.000276  (-0.004848  0.002118 -0.015740)
 56:   3083.86   0.008799   44.47  0.000890  (-0.026509 -0.002805  0.013410)
 57:   3091.57   0.008271   41.80  0.000835  (-0.001671  0.028746 -0.002406)
 58:   3100.11   0.002695   13.62  0.000271  (-0.013573 -0.009060  0.002222)
 59:   3140.29   0.002681   13.55  0.000266  ( 0.009360  0.013042 -0.002950)
 60:   3145.78   0.000770    3.89  0.000076  ( 0.002163 -0.008465 -0.000203)
 61:   3160.73   0.004815   24.33  0.000475  ( 0.007993  0.019955 -0.003649)
 62:   3175.39   0.004036   20.39  0.000397  (-0.018317  0.007550  0.002020)

--------------------------
THERMOCHEMISTRY AT 298.15K
--------------------------

Temperature         ...   298.15 K
Pressure            ...     1.00 atm
Total Mass          ...   120.19 AMU
Quasi RRHO          ...     True
Cut-Off Frequency   ...     1.00 cm^-1

Throughout the following assumptions are being made:
  (1) The electronic state is orbitally nondegenerate
  (2) There are no thermally accessible electronically excited states
  (3) Hindered rotations indicated by low frequency modes are not
      treated as such but are treated as vibrations and this may
      cause some error
  (4) All equations used are the standard statistical mechanics
      equations for an ideal gas
  (5) All vibrations are strictly harmonic

freq.      99.25  E(vib)   ...       0.46
freq.     125.54  E(vib)   ...       0.43
freq.     171.99  E(vib)   ...       0.38
freq.     210.95  E(vib)   ...       0.34
freq.     237.46  E(vib)   ...       0.32
freq.     324.08  E(vib)   ...       0.25
freq.     340.43  E(vib)   ...       0.23
freq.     417.86  E(vib)   ...       0.18
freq.     459.75  E(vib)   ...       0.16
freq.     508.46  E(vib)   ...       0.14
freq.     563.74  E(vib)   ...       0.11
freq.     598.61  E(vib)   ...       0.10
freq.     734.39  E(vib)   ...       0.06
freq.     741.10  E(vib)   ...       0.06
freq.     766.88  E(vib)   ...       0.06
freq.     797.35  E(vib)   ...       0.05
freq.     837.92  E(vib)   ...       0.04
freq.     869.21  E(vib)   ...       0.04
freq.     929.32  E(vib)   ...       0.03
freq.     962.10  E(vib)   ...       0.03
freq.     971.69  E(vib)   ...       0.03
freq.    1006.17  E(vib)   ...       0.02
freq.    1047.04  E(vib)   ...       0.02
freq.    1049.42  E(vib)   ...       0.02
freq.    1074.38  E(vib)   ...       0.02
freq.    1082.01  E(vib)   ...       0.02
freq.    1149.22  E(vib)   ...       0.01
freq.    1182.31  E(vib)   ...       0.01
freq.    1206.13  E(vib)   ...       0.01
freq.    1234.61  E(vib)   ...       0.01
freq.    1271.00  E(vib)   ...       0.01
freq.    1315.24  E(vib)   ...       0.01
freq.    1339.27  E(vib)   ...       0.01
freq.    1345.25  E(vib)   ...       0.01
freq.    1394.74  E(vib)   ...       0.00
freq.    1403.11  E(vib)   ...       0.00
freq.    1463.02  E(vib)   ...       0.00
freq.    1475.59  E(vib)   ...       0.00
freq.    1482.17  E(vib)   ...       0.00
freq.    1489.46  E(vib)   ...       0.00
freq.    1494.30  E(vib)   ...       0.00
freq.    1502.01  E(vib)   ...       0.00
freq.    1516.46  E(vib)   ...       0.00
freq.    1607.17  E(vib)   ...       0.00
freq.    1632.97  E(vib)   ...       0.00
freq.    3004.09  E(vib)   ...       0.00
freq.    3005.93  E(vib)   ...       0.00
freq.    3021.16  E(vib)   ...       0.00
freq.    3063.28  E(vib)   ...       0.00
freq.    3066.43  E(vib)   ...       0.00
freq.    3083.86  E(vib)   ...       0.00
freq.    3091.57  E(vib)   ...       0.00
freq.    3100.11  E(vib)   ...       0.00
freq.    3140.29  E(vib)   ...       0.00
freq.    3145.78  E(vib)   ...       0.00
freq.    3160.73  E(vib)   ...       0.00
freq.    3175.39  E(vib)   ...       0.00

------------
INNER ENERGY
------------

The inner energy is: U= E(el) + E(ZPE) + E(vib) + E(rot) + E(trans)
    E(el)   - is the total energy from the electronic structure calculation
              = E(kin-el) + E(nuc-el) + E(el-el) + E(nuc-nuc)
    E(ZPE)  - the the zero temperature vibrational energy from the frequency calculation
    E(vib)  - the the finite temperature correction to E(ZPE) due to population
              of excited vibrational states
    E(rot)  - is the rotational thermal energy
    E(trans)- is the translational thermal energy

Summary of contributions to the inner energy U:
Electronic energy                ...   -350.11063786 Eh
Zero point energy                ...      0.18336921 Eh     115.07 kcal/mol
Thermal vibrational correction   ...      0.00589304 Eh       3.70 kcal/mol
Thermal rotational correction    ...      0.00141627 Eh       0.89 kcal/mol
Thermal translational correction ...      0.00141627 Eh       0.89 kcal/mol
-----------------------------------------------------------------------
Total thermal energy                   -349.91854307 Eh

Summary of corrections to the electronic energy:
(perhaps to be used in another calculation)
Total thermal correction                  0.00872558 Eh       5.48 kcal/mol
Non-thermal (ZPE) correction              0.18336921 Eh     115.07 kcal/mol
-----------------------------------------------------------------------
Total correction                          0.19209479 Eh     120.54 kcal/mol

--------
ENTHALPY
--------

The enthalpy is H = U + kB*T
                kB is Boltzmann's constant
Total thermal energy              ...   -349.91854307 Eh
Thermal Enthalpy correction       ...      0.00094421 Eh       0.59 kcal/mol
-----------------------------------------------------------------------
Total Enthalpy                    ...   -349.91759886 Eh

Note: Only C1 symmetry has been detected, increase convergence thresholds
      if your molecule has a higher symmetry. Symmetry factor of 1.0 is
      used for the rotational entropy correction.

Note: Rotational entropy computed according to Herzberg
Infrared and Raman Spectra, Chapter V,1, Van Nostrand Reinhold, 1945
Point Group:  C1, Symmetry Number:   1
Rotational constants in cm-1:     0.083663     0.047821     0.033130

Vibrational entropy computed according to the QRRHO of S. Grimme
Chem.Eur.J. 2012 18 9955 using a reference frequency of 100.0 cm-1

-------
ENTROPY
-------

The entropy contributions are T*S = T*(S(el)+S(vib)+S(rot)+S(trans))
     S(el)   - electronic entropy
     S(vib)  - vibrational entropy
     S(rot)  - rotational entropy
     S(trans)- translational entropy
The entropies will be listed as multiplied by the temperature to get
units of energy

Electronic entropy                ...      0.00000000 Eh      0.00 kcal/mol
Vibrational entropy               ...      0.00976866 Eh      6.13 kcal/mol
Rotational entropy                ...      0.01372591 Eh      8.61 kcal/mol
Translational entropy             ...      0.01913176 Eh     12.01 kcal/mol
-----------------------------------------------------------------------
Final entropy term                ...      0.04262633 Eh     26.75 kcal/mol

In case the symmetry of your molecule has not been determined correctly
or in case you have a reason to use a different symmetry number we print
out the resulting rotational entropy values for sn=1,12:

 non-linear molecules -----------------------------------
|  sn= 1 | S(rot)=       0.01372591 Eh      8.61 kcal/mol|
|  sn= 2 | S(rot)=       0.01307145 Eh      8.20 kcal/mol|
|  sn= 3 | S(rot)=       0.01268862 Eh      7.96 kcal/mol|

                             ****ORCA TERMINATED NORMALLY****
TOTAL RUN TIME: 0 days 0 hours 34 minutes 18 seconds 997 msec
