                         Program Version 6.0.0  -   RELEASE  -
|  1> ! r2SCAN-3c DEF2-TZVP FREQ
|  2> * xyzfile 0 1 vacuum_censo.xyz
|  3>
|  4>                          ****END OF INPUT****

CARTESIAN COORDINATES (ANGSTROEM)
---------------------------------
  C     -2.668462   -0.640403    0.722341
  C     -1.862899   -0.464537   -0.573247
  C     -0.388175   -0.306476   -0.299793
  C      0.417678   -1.444039   -0.220338
  C      1.771595   -1.356606    0.083503
  C      2.340485   -0.109539    0.313776
  C      1.548451    1.030751    0.236102
  C      0.187175    0.955591   -0.067498
  C     -0.626609    2.219193   -0.165651
  H     -3.736845   -0.748500    0.511330
  H     -2.536553    0.216965    1.389629
  H     -2.331811   -1.530472    1.262121
  H     -2.244590    0.398028   -1.128521
  H     -2.017456   -1.341460   -1.211751
  H     -0.030494   -2.417963   -0.402836
  H      2.377013   -2.255827    0.136385
  H      3.396044   -0.022146    0.550436
  H      1.994236    2.005860    0.413587
  H     -0.952043    2.403408   -1.196532
  H     -1.528935    2.178066    0.453174
  H     -0.038691    3.082338    0.156361

 Total Charge           Charge          ....    0
 Multiplicity           Mult            ....    1
 Number of Electrons    NEL             ....   66
 Basis Dimension        Dim             ....  351

ORBITAL ENERGIES
----------------

  NO   OCC          E(Eh)            E(eV)
   0   2.0000     -10.040823      -273.2247
   1   2.0000     -10.037198      -273.1261
   2   2.0000     -10.034364      -273.0489
   3   2.0000     -10.030140      -272.9340
   4   2.0000     -10.029347      -272.9124
   5   2.0000     -10.029097      -272.9056
   6   2.0000     -10.028848      -272.8988
   7   2.0000     -10.028557      -272.8909
   8   2.0000     -10.025016      -272.7945
   9   2.0000      -0.823977       -22.4215
  10   2.0000      -0.752791       -20.4845
  11   2.0000      -0.733094       -19.9485
  12   2.0000      -0.689268       -18.7559
  13   2.0000      -0.650213       -17.6932
  14   2.0000      -0.597847       -16.2683
  15   2.0000      -0.559795       -15.2328
  16   2.0000      -0.534009       -14.5311
  17   2.0000      -0.466200       -12.6859
  18   2.0000      -0.443585       -12.0706
  19   2.0000      -0.420652       -11.4465
  20   2.0000      -0.398763       -10.8509
  21   2.0000      -0.393618       -10.7109
  22   2.0000      -0.383533       -10.4365
  23   2.0000      -0.374901       -10.2016
  24   2.0000      -0.360875        -9.8199
  25   2.0000      -0.350826        -9.5465
  26   2.0000      -0.339253        -9.2315
  27   2.0000      -0.322353        -8.7717
  28   2.0000      -0.317615        -8.6427
  29   2.0000      -0.298136        -8.1127
  30   2.0000      -0.293237        -7.9794
  31   2.0000      -0.226981        -6.1765
  32   2.0000      -0.218115        -5.9352
  33   0.0000      -0.028832        -0.7846
  34   0.0000      -0.026497        -0.7210
  35   0.0000       0.044551         1.2123
  36   0.0000       0.063416         1.7256
  37   0.0000       0.073195         1.9917

MULLIKEN ATOMIC CHARGES
-----------------------
   0 C :   -0.321674
   1 C :   -0.205469
   2 C :    0.168459
   3 C :   -0.193252
   4 C :   -0.115745
   5 C :   -0.117678
   6 C :   -0.160046
   7 C :    0.069333
   8 C :   -0.370824
   9 H :    0.106441
  10 H :    0.102310
  11 H :    0.109134
  12 H :    0.092200
  13 H :    0.090504
  14 H :    0.096577
  15 H :    0.103810
  16 H :    0.104432
  17 H :    0.092757
  18 H :    0.125329
  19 H :    0.114023
  20 H :    0.109380
Sum of atomic charges:   -0.0000000

LOEWDIN ATOMIC CHARGES
----------------------
   0 C :   -0.296114
   1 C :   -0.239915
   2 C :   -0.121975
   3 C :   -0.115972
   4 C :   -0.147850
   5 C :   -0.147534
   6 C :   -0.120753
   7 C :   -0.142719
   8 C :   -0.253412
   9 H :    0.116854
  10 H :    0.117431
  11 H :    0.120330
  12 H :    0.138646
  13 H :    0.139949
  14 H :    0.145142
  15 H :    0.141305
  16 H :    0.141451
  17 H :    0.143187
  18 H :    0.129910
  19 H :    0.125989
  20 H :    0.126052

  Mayer bond orders larger than 0.100000
B(  0-C ,  1-C ) :   0.9851 B(  0-C ,  9-H ) :   0.9714 B(  0-C , 10-H ) :   0.9718
B(  0-C , 11-H ) :   0.9758 B(  1-C ,  2-C ) :   0.8842 B(  1-C , 12-H ) :   0.9698
B(  1-C , 13-H ) :   0.9765 B(  2-C ,  3-C ) :   1.3490 B(  2-C ,  7-C ) :   1.2895
B(  3-C ,  4-C ) :   1.4036 B(  3-C , 14-H ) :   0.9829 B(  4-C ,  5-C ) :   1.3854
B(  4-C , 15-H ) :   0.9724 B(  5-C ,  6-C ) :   1.3989 B(  5-C , 16-H ) :   0.9726
B(  6-C ,  7-C ) :   1.3844 B(  6-C , 17-H ) :   0.9760 B(  7-C ,  8-C ) :   0.9167
B(  8-C , 18-H ) :   0.9719 B(  8-C , 19-H ) :   0.9688 B(  8-C , 20-H ) :   0.9830

Dispersion correction           -0.007067608
FINAL SINGLE POINT ENERGY      -350.110703021468

DIPOLE MOMENT
-------------

Method             : SCF
Type of density    : Electron Density
Multiplicity       :   1
Irrep              :   0
Energy             :  -350.1108605363115771 Eh
Relativity type    :
Basis              : AO
                                X                 Y                 Z
Electronic contribution:      7.026466774      -1.691597942      -0.783099766
Nuclear contribution   :     -7.264036760       1.791350621       0.754707838
                        -----------------------------------------
Total Dipole Moment    :     -0.237569987       0.099752679      -0.028391929
                        -----------------------------------------
Magnitude (a.u.)       :      0.259222293
Magnitude (Debye)      :      0.658890705

VIBRATIONAL FREQUENCIES
-----------------------

Scaling factor for frequencies =  1.000000000  (already applied!)

     0:       0.00 cm**-1
     1:       0.00 cm**-1
     2:       0.00 cm**-1
     3:       0.00 cm**-1
     4:       0.00 cm**-1
     5:       0.00 cm**-1
     6:      97.42 cm**-1
     7:     123.98 cm**-1
     8:     171.93 cm**-1
     9:     208.50 cm**-1
    10:     226.49 cm**-1
    11:     322.06 cm**-1
    12:     339.89 cm**-1
    13:     416.95 cm**-1
    14:     458.67 cm**-1
    15:     507.99 cm**-1
    16:     563.11 cm**-1
    17:     598.50 cm**-1
    18:     735.44 cm**-1
    19:     740.01 cm**-1
    20:     765.85 cm**-1
    21:     794.72 cm**-1
    22:     837.46 cm**-1
    23:     869.18 cm**-1
    24:     929.74 cm**-1
    25:     961.95 cm**-1
    26:     968.85 cm**-1
    27:    1005.92 cm**-1
    28:    1046.93 cm**-1
    29:    1049.98 cm**-1
    30:    1075.14 cm**-1
    31:    1082.43 cm**-1
    32:    1149.69 cm**-1
    33:    1183.75 cm**-1
    34:    1206.12 cm**-1
    35:    1235.48 cm**-1
    36:    1269.84 cm**-1
    37:    1317.25 cm**-1
    38:    1339.29 cm**-1
    39:    1352.91 cm**-1
    40:    1393.83 cm**-1
    41:    1403.23 cm**-1
    42:    1464.52 cm**-1
    43:    1476.08 cm**-1
    44:    1483.88 cm**-1
    45:    1488.30 cm**-1
    46:    1495.42 cm**-1
    47:    1503.04 cm**-1
    48:    1520.00 cm**-1
    49:    1614.36 cm**-1
    50:    1639.75 cm**-1
    51:    3004.11 cm**-1
    52:    3009.68 cm**-1
    53:    3021.56 cm**-1
    54:    3062.76 cm**-1
    55:    3066.02 cm**-1
    56:    3089.68 cm**-1
    57:    3094.70 cm**-1
    58:    3098.73 cm**-1
    59:    3141.03 cm**-1
    60:    3148.05 cm**-1
    61:    3164.52 cm**-1
    62:    3179.66 cm**-1

IR SPECTRUM
-----------

 Mode   freq       eps      Int      T**2         TX        TY        TZ
       cm**-1   L/(mol*cm) km/mol    a.u.
----------------------------------------------------------------------------
  6:     97.42   0.000002    0.01  0.000008  (-0.000684  0.000044  0.002662)
  7:    123.98   0.000049    0.25  0.000123  (-0.002126 -0.000510  0.010892)
  8:    171.93   0.000065    0.33  0.000117  ( 0.002144  0.002140 -0.010404)
  9:    208.50   0.000295    1.49  0.000442  ( 0.005586  0.001364 -0.020211)
 10:    226.49   0.000061    0.31  0.000085  ( 0.000122  0.001941 -0.008992)
 11:    322.06   0.000328    1.66  0.000318  (-0.001425 -0.001423  0.017708)
 12:    339.89   0.000072    0.36  0.000066  ( 0.005935  0.000897 -0.005445)
 13:    416.95   0.000058    0.29  0.000043  ( 0.002519  0.003141  0.005189)
 14:    458.67   0.001229    6.21  0.000836  ( 0.009091  0.004591 -0.027067)
 15:    507.99   0.000162    0.82  0.000099  ( 0.005585  0.008235  0.000541)
 16:    563.11   0.000287    1.45  0.000159  (-0.002239  0.003362  0.011947)
 17:    598.50   0.000210    1.06  0.000109  (-0.002826  0.002113 -0.009845)
 18:    735.44   0.000100    0.51  0.000043  ( 0.004101  0.001486  0.004849)
 19:    740.01   0.007062   35.69  0.002978  (-0.013998 -0.004154  0.052581)
 20:    765.85   0.003900   19.71  0.001589  ( 0.006937  0.003025 -0.039139)
 21:    794.72   0.000301    1.52  0.000118  (-0.002385  0.008438 -0.006420)
 22:    837.46   0.000239    1.21  0.000089  (-0.002175 -0.009186  0.000109)
 23:    869.18   0.000025    0.13  0.000009  ( 0.000317 -0.001091  0.002758)
 24:    929.74   0.000129    0.65  0.000043  ( 0.000113 -0.000668 -0.006533)
 25:    961.95   0.000021    0.10  0.000007  (-0.002465  0.000658 -0.000418)
 26:    968.85   0.000424    2.14  0.000136  ( 0.011330 -0.001169  0.002598)
 27:   1005.92   0.000457    2.31  0.000142  (-0.008599  0.008242  0.000164)
 28:   1046.93   0.000622    3.15  0.000186  ( 0.008672  0.005684 -0.008832)
 29:   1049.98   0.000394    1.99  0.000117  (-0.000666  0.010585 -0.002116)
 30:   1075.14   0.002484   12.55  0.000721  ( 0.025916 -0.001735  0.006796)
 31:   1082.43   0.000150    0.76  0.000043  ( 0.001502  0.005760  0.002793)
 32:   1149.69   0.000565    2.86  0.000153  (-0.005229 -0.011218 -0.000543)
 33:   1183.75   0.000003    0.01  0.000001  (-0.000623 -0.000453  0.000272)
 34:   1206.12   0.000088    0.44  0.000023  ( 0.000590  0.002103  0.004230)
 35:   1235.48   0.000208    1.05  0.000053  (-0.006511  0.003157  0.000531)
 36:   1269.84   0.000168    0.85  0.000041  (-0.003958  0.005035 -0.000459)
 37:   1317.25   0.000029    0.15  0.000007  ( 0.000668  0.002528  0.000228)
 38:   1339.29   0.000176    0.89  0.000041  (-0.006351  0.000235  0.000824)
 39:   1352.91   0.000006    0.03  0.000001  ( 0.000815 -0.000614  0.000633)
 40:   1393.83   0.000603    3.05  0.000135  (-0.001482  0.005324 -0.010225)
 41:   1403.23   0.000403    2.04  0.000090  (-0.002926  0.007948  0.004242)
 42:   1464.52   0.000141    0.71  0.000030  (-0.004395 -0.002552 -0.002071)
 43:   1476.08   0.001359    6.87  0.000287  (-0.002589 -0.000807  0.016731)
 44:   1483.88   0.001923    9.72  0.000404  ( 0.002249  0.019963 -0.000882)
 45:   1488.30   0.000777    3.93  0.000163  ( 0.006228 -0.009645 -0.005585)
 46:   1495.42   0.002283   11.54  0.000476  (-0.006357 -0.019040 -0.008570)
 47:   1503.04   0.000935    4.73  0.000194  ( 0.002977 -0.005489  0.012459)
 48:   1520.00   0.003234   16.34  0.000664  (-0.024861  0.006406 -0.002188)
 49:   1614.36   0.000139    0.70  0.000027  ( 0.005173 -0.000221 -0.000099)
 50:   1639.75   0.000485    2.45  0.000092  (-0.003849 -0.008644  0.001658)
 51:   3004.11   0.005155   26.05  0.000536  (-0.010733  0.019719 -0.005610)
 52:   3009.68   0.007215   36.46  0.000748  ( 0.023222  0.001394 -0.014382)
 53:   3021.56   0.005911   29.87  0.000610  ( 0.009459  0.002873  0.022644)
 54:   3062.76   0.001019    5.15  0.000104  (-0.000172  0.007683 -0.006690)
 55:   3066.02   0.002685   13.57  0.000273  (-0.006467  0.004940  0.014390)
 56:   3089.68   0.008845   44.70  0.000893  (-0.024145 -0.011536 -0.013316)
 57:   3094.70   0.007770   39.27  0.000784  (-0.006968  0.027030 -0.002095)
 58:   3098.73   0.002580   13.04  0.000260  (-0.014835 -0.005540 -0.003010)
 59:   3141.03   0.002789   14.09  0.000277  ( 0.009628  0.013223  0.003082)
 60:   3148.05   0.001074    5.43  0.000106  ( 0.000410 -0.010310 -0.000106)
 61:   3164.52   0.004337   21.92  0.000428  ( 0.007247  0.019079  0.003334)
 62:   3179.66   0.004142   20.93  0.000407  (-0.018550  0.007416 -0.002720)

--------------------------
THERMOCHEMISTRY AT 298.15K
--------------------------

Temperature         ...   298.15 K
Pressure            ...     1.00 atm
Total Mass          ...   120.19 AMU
Quasi RRHO          ...     True
Cut-Off Frequency   ...     1.00 cm^-1

Throughout the following assumptions are being made:
  (1) The electronic state is orbitally nondegenerate
  (2) There are no thermally accessible electronically excited states
  (3) Hindered rotations indicated by low frequency modes are not
      treated as such but are treated as vibrations and this may
      cause some error
  (4) All equations used are the standard statistical mechanics
      equations for an ideal gas
  (5) All vibrations are strictly harmonic

freq.      97.42  E(vib)   ...       0.46
freq.     123.98  E(vib)   ...       0.43
freq.     171.93  E(vib)   ...       0.38
freq.     208.50  E(vib)   ...       0.34
freq.     226.49  E(vib)   ...       0.33
freq.     322.06  E(vib)   ...       0.25
freq.     339.89  E(vib)   ...       0.23
freq.     416.95  E(vib)   ...       0.18
freq.     458.67  E(vib)   ...       0.16
freq.     507.99  E(vib)   ...       0.14
freq.     563.11  E(vib)   ...       0.11
freq.     598.50  E(vib)   ...       0.10
freq.     735.44  E(vib)   ...       0.06
freq.     740.01  E(vib)   ...       0.06
freq.     765.85  E(vib)   ...       0.06
freq.     794.72  E(vib)   ...       0.05
freq.     837.46  E(vib)   ...       0.04
freq.     869.18  E(vib)   ...       0.04
freq.     929.74  E(vib)   ...       0.03
freq.     961.95  E(vib)   ...       0.03
freq.     968.85  E(vib)   ...       0.03
freq.    1005.92  E(vib)   ...       0.02
freq.    1046.93  E(vib)   ...       0.02
freq.    1049.98  E(vib)   ...       0.02
freq.    1075.14  E(vib)   ...       0.02
freq.    1082.43  E(vib)   ...       0.02
freq.    1149.69  E(vib)   ...       0.01
freq.    1183.75  E(vib)   ...       0.01
freq.    1206.12  E(vib)   ...       0.01
freq.    1235.48  E(vib)   ...       0.01
freq.    1269.84  E(vib)   ...       0.01
freq.    1317.25  E(vib)   ...       0.01
freq.    1339.29  E(vib)   ...       0.01
freq.    1352.91  E(vib)   ...       0.01
freq.    1393.83  E(vib)   ...       0.00
freq.    1403.23  E(vib)   ...       0.00
freq.    1464.52  E(vib)   ...       0.00
freq.    1476.08  E(vib)   ...       0.00
freq.    1483.88  E(vib)   ...       0.00
freq.    1488.30  E(vib)   ...       0.00
freq.    1495.42  E(vib)   ...       0.00
freq.    1503.04  E(vib)   ...       0.00
freq.    1520.00  E(vib)   ...       0.00
freq.    1614.36  E(vib)   ...       0.00
freq.    1639.75  E(vib)   ...       0.00
freq.    3004.11  E(vib)   ...       0.00
freq.    3009.68  E(vib)   ...       0.00
freq.    3021.56  E(vib)   ...       0.00
freq.    3062.76  E(vib)   ...       0.00
freq.    3066.02  E(vib)   ...       0.00
freq.    3089.68  E(vib)   ...       0.00
freq.    3094.70  E(vib)   ...       0.00
freq.    3098.73  E(vib)   ...       0.00
freq.    3141.03  E(vib)   ...       0.00
freq.    3148.05  E(vib)   ...       0.00
freq.    3164.52  E(vib)   ...       0.00
freq.    3179.66  E(vib)   ...       0.00

------------
INNER ENERGY
------------

The inner energy is: U= E(el) + E(ZPE) + E(vib) + E(rot) + E(trans)
    E(el)   - is the total energy from the electronic structure calculation
              = E(kin-el) + E(nuc-el) + E(el-el) + E(nuc-nuc)
    E(ZPE)  - the the zero temperature vibrational energy from the frequency calculation
    E(vib)  - the the finite temperature correction to E(ZPE) due to population
              of excited vibrational states
    E(rot)  - is the rotational thermal energy
    E(trans)- is the translational thermal energy

Summary of contributions to the inner energy U:
Electronic energy                ...   -350.11070302 Eh
Zero point energy                ...      0.18342969 Eh     115.10 kcal/mol
Thermal vibrational correction   ...      0.00592550 Eh       3.72 kcal/mol
Thermal rotational correction    ...      0.00141627 Eh       0.89 kcal/mol
Thermal translational correction ...      0.00141627 Eh       0.89 kcal/mol
-----------------------------------------------------------------------
Total thermal energy                   -349.91851529 Eh

Summary of corrections to the electronic energy:
(perhaps to be used in another calculation)
Total thermal correction                  0.00875805 Eh       5.50 kcal/mol
Non-thermal (ZPE) correction              0.18342969 Eh     115.10 kcal/mol
-----------------------------------------------------------------------
Total correction                          0.19218773 Eh     120.60 kcal/mol

--------
ENTHALPY
--------

The enthalpy is H = U + kB*T
                kB is Boltzmann's constant
Total thermal energy              ...   -349.91851529 Eh
Thermal Enthalpy correction       ...      0.00094421 Eh       0.59 kcal/mol
-----------------------------------------------------------------------
Total Enthalpy                    ...   -349.91757108 Eh

Note: Only C1 symmetry has been detected, increase convergence thresholds
      if your molecule has a higher symmetry. Symmetry factor of 1.0 is
      used for the rotational entropy correction.

Note: Rotational entropy computed according to Herzberg
Infrared and Raman Spectra, Chapter V,1, Van Nostrand Reinhold, 1945
Point Group:  C1, Symmetry Number:   1
Rotational constants in cm-1:     0.083462     0.047966     0.033214

Vibrational entropy computed according to the QRRHO of S. Grimme
Chem.Eur.J. 2012 18 9955 using a reference frequency of 100.0 cm-1

-------
ENTROPY
-------

The entropy contributions are T*S = T*(S(el)+S(vib)+S(rot)+S(trans))
     S(el)   - electronic entropy
     S(vib)  - vibrational entropy
     S(rot)  - rotational entropy
     S(trans)- translational entropy
The entropies will be listed as multiplied by the temperature to get
units of energy

Electronic entropy                ...      0.00000000 Eh      0.00 kcal/mol
Vibrational entropy               ...      0.00984572 Eh      6.18 kcal/mol
Rotational entropy                ...      0.01372440 Eh      8.61 kcal/mol
Translational entropy             ...      0.01913176 Eh     12.01 kcal/mol
-----------------------------------------------------------------------
Final entropy term                ...      0.04270188 Eh     26.80 kcal/mol

In case the symmetry of your molecule has not been determined correctly
or in case you have a reason to use a different symmetry number we print
out the resulting rotational entropy values for sn=1,12:

 non-linear molecules -----------------------------------
|  sn= 1 | S(rot)=       0.01372440 Eh      8.61 kcal/mol|
|  sn= 2 | S(rot)=       0.01306995 Eh      8.20 kcal/mol|
|  sn= 3 | S(rot)=       0.01268711 Eh      7.96 kcal/mol|

                             ****ORCA TERMINATED NORMALLY****
TOTAL RUN TIME: 0 days 0 hours 33 minutes 34 seconds 371 msec
