                         Program Version 6.0.1  -  RELEASE   -
|  1> ! pbe def2-sv(p) def2/J RI DEFGRID1 loosescf d4 GCP(DFT/SV(P)) printgap
|  2> %output
|  3>     printlevel normal
|  4> end
|  5> * xyz 0 1
|  6> C -1.4913991309 -0.1733062926 1.2432336109
|  7> C -0.6383449932 -0.4312784914 0.0002906098
|  8> C -1.4904446307 -0.1748778759 -1.2436185537
|  9> C 0.6383578222 0.4313092979 0.0003805298
| 10> C 1.4913463333 0.1731272496 1.2433289408
| 11> C 1.4904859446 0.175036064 -1.2435443587
| 12> H -1.7233886181 0.8863556477 1.3301827033
| 13> H -2.428271185 -0.7222009704 1.1736512749
| 14> H -0.9853560261 -0.4942300398 2.1489780157
| 15> H -0.3375578941 -1.4856210114 0.0010598542
| 16> H -2.4278834844 -0.7227235983 -1.1734306938
| 17> H -1.7213493285 0.8848310439 -1.3327971786
| 18> H -0.984197591 -0.4981332063 -2.1484200284
| 19> H 0.337602753 1.4856586805 0.0012654361
| 20> H 0.9855707403 0.4946106974 2.1490244278
| 21> H 1.7226814019 -0.8866551708 1.3305503112
| 22> H 2.4285559489 0.721412345 1.1735414916
| 23> H 1.7215655005 -0.8846367476 -1.3327013956
| 24> H 2.4278396145 0.7230295063 -1.173403351
| 25> H 0.984172137 0.4981842318 -2.1483443282
| 26> *
| 27>
| 28>                          ****END OF INPUT****

CARTESIAN COORDINATES (ANGSTROEM)
---------------------------------
  C     -1.491399   -0.173306    1.243234
  C     -0.638345   -0.431278    0.000291
  C     -1.490445   -0.174878   -1.243619
  C      0.638358    0.431309    0.000381
  C      1.491346    0.173127    1.243329
  C      1.490486    0.175036   -1.243544
  H     -1.723389    0.886356    1.330183
  H     -2.428271   -0.722201    1.173651
  H     -0.985356   -0.494230    2.148978
  H     -0.337558   -1.485621    0.001060
  H     -2.427883   -0.722724   -1.173431
  H     -1.721349    0.884831   -1.332797
  H     -0.984198   -0.498133   -2.148420
  H      0.337603    1.485659    0.001265
  H      0.985571    0.494611    2.149024
  H      1.722681   -0.886655    1.330550
  H      2.428556    0.721412    1.173541
  H      1.721566   -0.884637   -1.332701
  H      2.427840    0.723030   -1.173403
  H      0.984172    0.498184   -2.148344

 Total Charge           Charge          ....    0
 Multiplicity           Mult            ....    1
 Number of Electrons    NEL             ....   50
 Basis Dimension        Dim             ....  112

ORBITAL ENERGIES
----------------

  NO   OCC          E(Eh)            E(eV)
   0   2.0000      -9.889476      -269.1063
   1   2.0000      -9.889458      -269.1058
   2   2.0000      -9.867640      -268.5121
   3   2.0000      -9.867632      -268.5119
   4   2.0000      -9.867607      -268.5112
   5   2.0000      -9.867605      -268.5112
   6   2.0000      -0.738625       -20.0990
   7   2.0000      -0.669960       -18.2306
   8   2.0000      -0.617489       -16.8027
   9   2.0000      -0.592074       -16.1111
  10   2.0000      -0.537999       -14.6397
  11   2.0000      -0.487368       -13.2620
  12   2.0000      -0.407128       -11.0785
  13   2.0000      -0.406593       -11.0640
  14   2.0000      -0.383344       -10.4313
  15   2.0000      -0.374862       -10.2005
  16   2.0000      -0.345609        -9.4045
  17   2.0000      -0.343677        -9.3519
  18   2.0000      -0.332074        -9.0362
  19   2.0000      -0.316256        -8.6058
  20   2.0000      -0.308719        -8.4007
  21   2.0000      -0.296029        -8.0554
  22   2.0000      -0.276705        -7.5295
  23   2.0000      -0.268100        -7.2954
  24   2.0000      -0.266194        -7.2435
  25   0.0000       0.035237         0.9589
  26   0.0000       0.058682         1.5968
  27   0.0000       0.069154         1.8818
  28   0.0000       0.075289         2.0487
  29   0.0000       0.091870         2.4999

MULLIKEN ATOMIC CHARGES
-----------------------
   0 C :   -0.244025
   1 C :   -0.156578
   2 C :   -0.244008
   3 C :   -0.156563
   4 C :   -0.244036
   5 C :   -0.244014
   6 H :    0.090901
   7 H :    0.095254
   8 H :    0.104361
   9 H :    0.063533
  10 H :    0.095237
  11 H :    0.090927
  12 H :    0.104395
  13 H :    0.063532
  14 H :    0.104373
  15 H :    0.090908
  16 H :    0.095248
  17 H :    0.090924
  18 H :    0.095242
  19 H :    0.104391
Sum of atomic charges:   -0.0000000

LOEWDIN ATOMIC CHARGES
----------------------
   0 C :   -0.330477
   1 C :   -0.149922
   2 C :   -0.330482
   3 C :   -0.149921
   4 C :   -0.330480
   5 C :   -0.330484
   6 H :    0.116566
   7 H :    0.116480
   8 H :    0.116631
   9 H :    0.111503
  10 H :    0.116480
  11 H :    0.116572
  12 H :    0.116649
  13 H :    0.111505
  14 H :    0.116635
  15 H :    0.116569
  16 H :    0.116479
  17 H :    0.116572
  18 H :    0.116478
  19 H :    0.116648

  Mayer bond orders larger than 0.100000
B(  0-C ,  1-C ) :   1.1143 B(  0-C ,  6-H ) :   0.9492 B(  0-C ,  7-H ) :   0.9488
B(  0-C ,  8-H ) :   0.9436 B(  1-C ,  2-C ) :   1.1143 B(  1-C ,  3-C ) :   1.0486
B(  1-C ,  9-H ) :   0.8948 B(  2-C , 10-H ) :   0.9488 B(  2-C , 11-H ) :   0.9492
B(  2-C , 12-H ) :   0.9435 B(  3-C ,  4-C ) :   1.1143 B(  3-C ,  5-C ) :   1.1143
B(  3-C , 13-H ) :   0.8948 B(  4-C , 14-H ) :   0.9436 B(  4-C , 15-H ) :   0.9492
B(  4-C , 16-H ) :   0.9488 B(  5-C , 17-H ) :   0.9492 B(  5-C , 18-H ) :   0.9488
B(  5-C , 19-H ) :   0.9435

Dispersion correction           -0.015598693
FINAL SINGLE POINT ENERGY      -236.448523861460

DIPOLE MOMENT
-------------

Method             : SCF
Type of density    : Electron Density
Multiplicity       :   1
Irrep              :   0
Energy             :  -236.5160826116883186 Eh
Relativity type    :
Basis              : AO
                                X                 Y                 Z
Electronic contribution:      0.000026763       0.000116258       0.000789234
Nuclear contribution   :     -0.000015040      -0.000111258      -0.000791302
                        -----------------------------------------
Total Dipole Moment    :      0.000011723       0.000005000      -0.000002068
                        -----------------------------------------
Magnitude (a.u.)       :      0.000012911
Magnitude (Debye)      :      0.000032818

Rotational constants in cm-1:             0.142199             0.097393             0.063438
Rotational constants in MHz :          4263.016662          2919.781850          1901.813707

                             ****ORCA TERMINATED NORMALLY****
TOTAL RUN TIME: 0 days 0 hours 0 minutes 3 seconds 922 msec
