                         Program Version 6.0.1  -  RELEASE   -
|  1> ! pbe def2-sv(p) def2/J RI DEFGRID1 loosescf d4 GCP(DFT/SV(P)) printgap
|  2> %output
|  3>     printlevel normal
|  4> end
|  5> * xyz 0 1
|  6> C 2.5588697153 2.5362922485 1.2673524022
|  7> C 2.0722727815 1.736664388 0.0604128864
|  8> C 2.9692717217 0.5035125592 -0.2183031448
|  9> C 2.0132118513 -0.6420586577 -0.0772694362
| 10> C 2.1915590407 -1.998061818 -0.2342484343
| 11> C 1.1018164532 -2.8386512462 -0.0506102345
| 12> C -0.1380945761 -2.3238707776 0.2837665121
| 13> C -0.3203344523 -0.9577306147 0.4517609539
| 14> C 0.7669662281 -0.1165544134 0.2603519927
| 15> O 0.7556080878 1.2273791095 0.372215109
| 16> O -1.5586410322 -0.4354513616 0.8193440234
| 17> C -2.4836361166 -0.3244238304 -0.173600754
| 18> O -2.3128679512 -0.6632710927 -1.3152983385
| 19> N -3.6178761776 0.2073262513 0.329827459
| 20> C -4.7674312369 0.4923972636 -0.489080845
| 21> C 1.9411521604 2.6303951386 -1.1718746281
| 22> H 2.6136405179 1.8928839049 2.1426929145
| 23> H 3.542277077 2.953895417 1.0682291713
| 24> H 1.8648044974 3.3457254087 1.4779399099
| 25> H 3.4028591158 0.5443632455 -1.218778685
| 26> H 3.7865249369 0.4330336945 0.5022126586
| 27> H 3.1583536156 -2.3975396149 -0.500320885
| 28> H 1.2184756886 -3.9038176361 -0.1756600943
| 29> H -0.9870784905 -2.9768712324 0.41399189
| 30> H -3.619078516 0.4837469938 1.2979820437
| 31> H -5.650022215 -0.0232237021 -0.1058217162
| 32> H -4.5471244283 0.133818321 -1.4930488187
| 33> H -4.9666502783 1.5656829131 -0.5254808592
| 34> H 1.5550841691 2.0520796234 -2.0083065121
| 35> H 2.9085895667 3.0471616954 -1.4396801528
| 36> H 1.2482725555 3.4423879009 -0.9667809956
| 37> *
| 38>
| 39>                          ****END OF INPUT****

CARTESIAN COORDINATES (ANGSTROEM)
---------------------------------
  C      2.558870    2.536292    1.267352
  C      2.072273    1.736664    0.060413
  C      2.969272    0.503513   -0.218303
  C      2.013212   -0.642059   -0.077269
  C      2.191559   -1.998062   -0.234248
  C      1.101816   -2.838651   -0.050610
  C     -0.138095   -2.323871    0.283767
  C     -0.320334   -0.957731    0.451761
  C      0.766966   -0.116554    0.260352
  O      0.755608    1.227379    0.372215
  O     -1.558641   -0.435451    0.819344
  C     -2.483636   -0.324424   -0.173601
  O     -2.312868   -0.663271   -1.315298
  N     -3.617876    0.207326    0.329827
  C     -4.767431    0.492397   -0.489081
  C      1.941152    2.630395   -1.171875
  H      2.613641    1.892884    2.142693
  H      3.542277    2.953895    1.068229
  H      1.864804    3.345725    1.477940
  H      3.402859    0.544363   -1.218779
  H      3.786525    0.433034    0.502213
  H      3.158354   -2.397540   -0.500321
  H      1.218476   -3.903818   -0.175660
  H     -0.987078   -2.976871    0.413992
  H     -3.619079    0.483747    1.297982
  H     -5.650022   -0.023224   -0.105822
  H     -4.547124    0.133818   -1.493049
  H     -4.966650    1.565683   -0.525481
  H      1.555084    2.052080   -2.008307
  H      2.908590    3.047162   -1.439680
  H      1.248273    3.442388   -0.966781

 Total Charge           Charge          ....    0
 Multiplicity           Mult            ....    1
 Number of Electrons    NEL             ....  118
 Basis Dimension        Dim             ....  254

ORBITAL ENERGIES
----------------

  NO   OCC          E(Eh)            E(eV)
   0   2.0000     -18.795029      -511.4387
   1   2.0000     -18.782522      -511.0984
   2   2.0000     -18.710052      -509.1264
   3   2.0000     -14.015040      -381.3686
   4   2.0000     -10.016461      -272.5618
   5   2.0000      -9.962159      -271.0841
   6   2.0000      -9.942717      -270.5551
   7   2.0000      -9.941118      -270.5116
   8   2.0000      -9.917007      -269.8555
   9   2.0000      -9.898125      -269.3417
  10   2.0000      -9.894274      -269.2369
  11   2.0000      -9.888876      -269.0900
  12   2.0000      -9.886746      -269.0320
  13   2.0000      -9.883749      -268.9505
  14   2.0000      -9.882768      -268.9238
  15   2.0000      -9.881037      -268.8767
  16   2.0000      -1.004136       -27.3239
  17   2.0000      -0.976546       -26.5732
  18   2.0000      -0.909321       -24.7439
  19   2.0000      -0.838706       -22.8223
  20   2.0000      -0.770860       -20.9762
  21   2.0000      -0.736022       -20.0282
  22   2.0000      -0.691536       -18.8176
  23   2.0000      -0.672389       -18.2966
  24   2.0000      -0.634123       -17.2554
  25   2.0000      -0.626520       -17.0485
  26   2.0000      -0.615011       -16.7353
  27   2.0000      -0.562847       -15.3159
  28   2.0000      -0.550595       -14.9825
  29   2.0000      -0.524489       -14.2721
  30   2.0000      -0.512279       -13.9398
  31   2.0000      -0.498513       -13.5652
  32   2.0000      -0.454266       -12.3612
  33   2.0000      -0.431568       -11.7436
  34   2.0000      -0.430011       -11.7012
  35   2.0000      -0.426346       -11.6015
  36   2.0000      -0.423095       -11.5130
  37   2.0000      -0.411511       -11.1978
  38   2.0000      -0.393024       -10.6947
  39   2.0000      -0.387100       -10.5335
  40   2.0000      -0.372236       -10.1291
  41   2.0000      -0.369321       -10.0497
  42   2.0000      -0.361805        -9.8452
  43   2.0000      -0.358118        -9.7449
  44   2.0000      -0.356413        -9.6985
  45   2.0000      -0.344399        -9.3716
  46   2.0000      -0.338356        -9.2071
  47   2.0000      -0.333542        -9.0761
  48   2.0000      -0.325481        -8.8568
  49   2.0000      -0.317342        -8.6353
  50   2.0000      -0.313803        -8.5390
  51   2.0000      -0.302334        -8.2269
  52   2.0000      -0.284795        -7.7497
  53   2.0000      -0.274392        -7.4666
  54   2.0000      -0.252510        -6.8711
  55   2.0000      -0.218500        -5.9457
  56   2.0000      -0.213625        -5.8130
  57   2.0000      -0.211657        -5.7595
  58   2.0000      -0.181970        -4.9516
  59   0.0000      -0.030609        -0.8329
  60   0.0000      -0.013108        -0.3567
  61   0.0000       0.030639         0.8337
  62   0.0000       0.033680         0.9165
  63   0.0000       0.042138         1.1466

MULLIKEN ATOMIC CHARGES
-----------------------
   0 C :   -0.200716
   1 C :   -0.085128
   2 C :   -0.006877
   3 C :   -0.049321
   4 C :   -0.148433
   5 C :   -0.051965
   6 C :   -0.117701
   7 C :    0.129096
   8 C :    0.193904
   9 O :   -0.245509
  10 O :   -0.254632
  11 C :    0.195730
  12 O :   -0.219992
  13 N :   -0.292804
  14 C :   -0.177111
  15 C :   -0.198156
  16 H :    0.106501
  17 H :    0.103173
  18 H :    0.106952
  19 H :    0.092229
  20 H :    0.090224
  21 H :    0.030400
  22 H :    0.048166
  23 H :    0.038475
  24 H :    0.230266
  25 H :    0.111811
  26 H :    0.138025
  27 H :    0.112030
  28 H :    0.112933
  29 H :    0.101653
  30 H :    0.106778
Sum of atomic charges:    0.0000000

LOEWDIN ATOMIC CHARGES
----------------------
   0 C :   -0.327503
   1 C :    0.016010
   2 C :   -0.199107
   3 C :   -0.068960
   4 C :   -0.125952
   5 C :   -0.139177
   6 C :   -0.122137
   7 C :    0.008300
   8 C :    0.025242
   9 O :   -0.067710
  10 O :   -0.065102
  11 C :    0.028984
  12 O :   -0.192125
  13 N :   -0.179701
  14 C :   -0.258640
  15 C :   -0.327512
  16 H :    0.124251
  17 H :    0.124570
  18 H :    0.124807
  19 H :    0.131903
  20 H :    0.130519
  21 H :    0.123068
  22 H :    0.123348
  23 H :    0.131951
  24 H :    0.236011
  25 H :    0.115636
  26 H :    0.137839
  27 H :    0.115199
  28 H :    0.127633
  29 H :    0.123655
  30 H :    0.124701

  Mayer bond orders larger than 0.100000
B(  0-C ,  1-C ) :   1.1015 B(  0-C , 16-H ) :   0.9382 B(  0-C , 17-H ) :   0.9412
B(  0-C , 18-H ) :   0.9409 B(  1-C ,  2-C ) :   1.0573 B(  1-C ,  9-O ) :   0.9415
B(  1-C , 15-C ) :   1.1006 B(  2-C ,  3-C ) :   1.0643 B(  2-C , 19-H ) :   0.8797
B(  2-C , 20-H ) :   0.8794 B(  3-C ,  4-C ) :   1.3893 B(  3-C ,  6-C ) :   0.1009
B(  3-C ,  8-C ) :   1.3315 B(  4-C ,  5-C ) :   1.3060 B(  4-C , 21-H ) :   0.9840
B(  5-C ,  6-C ) :   1.3340 B(  5-C , 22-H ) :   0.9631 B(  6-C ,  7-C ) :   1.3946
B(  6-C , 23-H ) :   0.9712 B(  7-C ,  8-C ) :   1.3698 B(  7-C , 10-O ) :   1.0011
B(  8-C ,  9-O ) :   1.1601 B( 10-O , 11-C ) :   1.0766 B( 11-C , 12-O ) :   2.0411
B( 11-C , 13-N ) :   1.2180 B( 13-N , 14-C ) :   1.0284 B( 13-N , 24-H ) :   0.8609
B( 14-C , 25-H ) :   0.9588 B( 14-C , 26-H ) :   0.9368 B( 14-C , 27-H ) :   0.9583
B( 15-C , 28-H ) :   0.9375 B( 15-C , 29-H ) :   0.9404 B( 15-C , 30-H ) :   0.9403

Dispersion correction           -0.035645745
FINAL SINGLE POINT ENERGY      -745.175639710653

DIPOLE MOMENT
-------------

Method             : SCF
Type of density    : Electron Density
Multiplicity       :   1
Irrep              :   0
Energy             :  -745.2771556426275765 Eh
Relativity type    :
Basis              : AO
                                X                 Y                 Z
Electronic contribution:     -4.963011901      -9.249870385       2.010782069
Nuclear contribution   :      5.121059738       9.941385613      -1.436202201
                        -----------------------------------------
Total Dipole Moment    :      0.158047837       0.691515228       0.574579868
                        -----------------------------------------
Magnitude (a.u.)       :      0.912860589
Magnitude (Debye)      :      2.320307219

Rotational constants in cm-1:             0.027021             0.012238             0.009421
Rotational constants in MHz :           810.056314           366.883774           282.440055

                             ****ORCA TERMINATED NORMALLY****
TOTAL RUN TIME: 0 days 0 hours 0 minutes 27 seconds 114 msec
