                         Program Version 6.0.1  -  RELEASE   -
|  1> ! pbe def2-sv(p) def2/J RI DEFGRID1 loosescf d4 GCP(DFT/SV(P)) printgap
|  2> %output
|  3>     printlevel normal
|  4> end
|  5> * xyz 0 1
|  6> C -1.8940428021 0.0881976171 0.329988966
|  7> C -0.7063240179 0.6715655269 -0.4202547001
|  8> N 0.5307571375 -0.0561722402 -0.0627445062
|  9> O 0.5098890308 -1.2583780198 -0.1521527834
| 10> O 1.4787238345 0.6044873827 0.2841007722
| 11> H -1.9580861 -0.9816677131 0.1465426292
| 12> H -1.7921643732 0.2549068242 1.3997676796
| 13> H -2.8123156673 0.5585902973 -0.009054972
| 14> H -0.5462210523 1.7250412474 -0.1864785887
| 15> H -0.8461317469 0.5496185326 -1.4976796593
| 16> *
| 17>
| 18>                          ****END OF INPUT****

CARTESIAN COORDINATES (ANGSTROEM)
---------------------------------
  C     -1.894043    0.088198    0.329989
  C     -0.706324    0.671566   -0.420255
  N      0.530757   -0.056172   -0.062745
  O      0.509889   -1.258378   -0.152153
  O      1.478724    0.604487    0.284101
  H     -1.958086   -0.981668    0.146543
  H     -1.792164    0.254907    1.399768
  H     -2.812316    0.558590   -0.009055
  H     -0.546221    1.725041   -0.186479
  H     -0.846132    0.549619   -1.497680

 Total Charge           Charge          ....    0
 Multiplicity           Mult            ....    1
 Number of Electrons    NEL             ....   40
 Basis Dimension        Dim             ....   80

ORBITAL ENERGIES
----------------

  NO   OCC          E(Eh)            E(eV)
   0   2.0000     -18.783462      -511.1240
   1   2.0000     -18.783285      -511.1192
   2   2.0000     -14.208366      -386.6293
   3   2.0000      -9.949267      -270.7333
   4   2.0000      -9.905365      -269.5387
   5   2.0000      -1.140004       -31.0211
   6   2.0000      -0.972009       -26.4497
   7   2.0000      -0.759328       -20.6624
   8   2.0000      -0.637767       -17.3545
   9   2.0000      -0.532460       -14.4890
  10   2.0000      -0.499390       -13.5891
  11   2.0000      -0.479198       -13.0396
  12   2.0000      -0.455235       -12.3876
  13   2.0000      -0.422224       -11.4893
  14   2.0000      -0.378434       -10.2977
  15   2.0000      -0.358275        -9.7492
  16   2.0000      -0.338620        -9.2143
  17   2.0000      -0.277773        -7.5586
  18   2.0000      -0.253885        -6.9086
  19   2.0000      -0.237622        -6.4660
  20   0.0000      -0.093458        -2.5431
  21   0.0000       0.034513         0.9392
  22   0.0000       0.070360         1.9146
  23   0.0000       0.076036         2.0691
  24   0.0000       0.096319         2.6210

MULLIKEN ATOMIC CHARGES
-----------------------
   0 C :   -0.310003
   1 C :   -0.076000
   2 N :    0.175859
   3 O :   -0.211536
   4 O :   -0.213067
   5 H :    0.136967
   6 H :    0.124706
   7 H :    0.122818
   8 H :    0.116231
   9 H :    0.134025
Sum of atomic charges:   -0.0000000

LOEWDIN ATOMIC CHARGES
----------------------
   0 C :   -0.349562
   1 C :   -0.189491
   2 N :    0.233634
   3 O :   -0.183892
   4 O :   -0.181115
   5 H :    0.134157
   6 H :    0.130108
   7 H :    0.133407
   8 H :    0.131055
   9 H :    0.141699

  Mayer bond orders larger than 0.100000
B(  0-C ,  1-C ) :   1.1497 B(  0-C ,  5-H ) :   0.9381 B(  0-C ,  6-H ) :   0.9507
B(  0-C ,  7-H ) :   0.9445 B(  1-C ,  2-N ) :   0.8905 B(  1-C ,  8-H ) :   0.9231
B(  1-C ,  9-H ) :   0.9151 B(  2-N ,  3-O ) :   1.5489 B(  2-N ,  4-O ) :   1.5698
B(  3-O ,  4-O ) :   0.3080

Dispersion correction           -0.005804821
FINAL SINGLE POINT ENERGY      -283.756777048346

DIPOLE MOMENT
-------------

Method             : SCF
Type of density    : Electron Density
Multiplicity       :   1
Irrep              :   0
Energy             :  -283.7969215625003017 Eh
Relativity type    :
Basis              : AO
                                X                 Y                 Z
Electronic contribution:      6.294916233      -1.413232501      -0.134176332
Nuclear contribution   :     -7.430694324       1.966249906      -0.136209508
                        -----------------------------------------
Total Dipole Moment    :     -1.135778091       0.553017405      -0.270385840
                        -----------------------------------------
Magnitude (a.u.)       :      1.291870204
Magnitude (Debye)      :      3.283673101

Rotational constants in cm-1:             0.334744             0.142782             0.112559
Rotational constants in MHz :         10035.381361          4280.489115          3374.432104

                             ****ORCA TERMINATED NORMALLY****
TOTAL RUN TIME: 0 days 0 hours 0 minutes 8 seconds 791 msec
