                         Program Version 6.0.0  -   RELEASE  -
|  1> # input to generate an atomic fitting density for I
|  2> # this file is used internally by ORCA
|  3> #
|  4> # atomic ground state (Mult=2): 1s2 2s2 2p6 3s2 3p6 4s2 3d10 4p6 5s2 4d10 5p5
|  5> #
|  6> ! ROHF def2-SVP def2/J Conv LeanSCF AODIIS SOSCF NoMulliken NoLoewdin NoMayer NoPrintMOs
|  7>
|  8> %output print[p_atomdensfit] 2 end
|  9>
| 10> %scf
| 11>   guess     HCore
| 12>   maxiter    1000
| 13>   maxdisk  500000
| 14>   diismaxeq     8
| 15>   soscfstart 1e-4
| 16>   lshift  1.000000
| 17>   ignoreconv true
| 18>
| 19>   hftyp        rohf
| 20>   rohf_case    sahf
| 21>   rohf_numop   2
| 22>   rohf_norb[1] 3
| 23>   rohf_nel[1]  5
| 24>
| 25> end
| 26>
| 27> %basis
| 28>   NewECP 53
| 29>     N_core 28
| 30>     lmax f
| 31>     s 7
| 32>       1      40.0158350000     49.9942930000  2
| 33>       2      17.4297470000    281.0253170000  2
| 34>       3       9.0054840000     61.5733260000  2
| 35>       4      19.4586090000     21.8420400000  2
| 36>       5      19.3492600000     28.4681910000  2
| 37>       6       4.8237670000      0.2437130000  2
| 38>       7       4.8843150000      0.3208040000  2
| 39>     p 8
| 40>       1      15.3554660000     67.4428410000  2
| 41>       2      14.9718330000    134.8811370000  2
| 42>       3       8.9601640000     14.6750510000  2
| 43>       4       8.2590960000     29.3756660000  2
| 44>       5      19.4586090000     21.8420400000  2
| 45>       6      19.3492600000     28.4681910000  2
| 46>       7       4.8237670000      0.2437130000  2
| 47>       8       4.8843150000      0.3208040000  2
| 48>     d 10
| 49>       1      15.0689080000     35.4395290000  2
| 50>       2      14.5553220000     53.1760570000  2
| 51>       3       6.7186470000      9.0671950000  2
| 52>       4       6.4563930000     13.2069370000  2
| 53>       5       1.1917790000      0.0893350000  2
| 54>       6       1.2911570000      0.0523800000  2
| 55>       7      19.4586090000     21.8420400000  2
| 56>       8      19.3492600000     28.4681910000  2
| 57>       9       4.8237670000      0.2437130000  2
| 58>      10       4.8843150000      0.3208040000  2
| 59>     f 4
| 60>       1      19.4586090000    -21.8420400000  2
| 61>       2      19.3492600000    -28.4681910000  2
| 62>       3       4.8237670000     -0.2437130000  2
| 63>       4       4.8843150000     -0.3208040000  2
| 64>   end
| 65>   NewGTO 53
| 66>     s 5
| 67>      1    5899.5791533000      0.0002610056
| 68>      2     898.5423876500      0.0016697400
| 69>      3     200.3723791200      0.0046223298
| 70>      4      31.4180538400     -0.0425342684
| 71>      5      15.6459878380      1.0368318419
| 72>     s 2
| 73>      1      11.8157418570      0.6510798928
| 74>      2       6.4614458287      0.3642365936
| 75>     s 1
| 76>      1       2.3838067579      1.0000000000
| 77>     s 1
| 78>      1       1.1712089662      1.0000000000
| 79>     s 1
| 80>      1       0.3211587576      1.0000000000
| 81>     s 1
| 82>      1       0.1238791936      1.0000000000
| 83>     p 3
| 84>      1     197.3003054700      0.0031927743
| 85>      2      20.0614113490      0.2856760152
| 86>      3       9.7631460485     -1.2328204991
| 87>     p 4
| 88>      1      12.9843169040     -0.0386816591
| 89>      2       3.6199503008      0.3065970959
| 90>      3       2.0232273090      0.5169312450
| 91>      4       1.0367490559      0.2505722415
| 92>     p 1
| 93>      1       0.4593781600      1.0000000000
| 94>     p 1
| 95>      1       0.1911653293      1.0000000000
| 96>     p 1
| 97>      1       0.0748788130      1.0000000000
| 98>     d 6
| 99>      1     119.1267174500      0.0008836387
|100>      2      33.4042401340      0.0073152612
|101>      3      17.8059182030     -0.0110279962
|102>      4       4.8990510353      0.2425357632
|103>      5       2.4516753106      0.4726529042
|104>      6       1.1820693432      0.3934356930
|105>     d 1
|106>      1       0.5292311007      1.0000000000
|107>     d 1
|108>      1       0.1700000000      1.0000000000
|109>   end
|110>   NewAuxGTO 53
|111>     S 1
|112>      1 1310.72 1.0
|113>     S 1
|114>      1  655.36 1.0
|115>     S 1
|116>      1  327.68 1.0
|117>     S 1
|118>      1  163.84 1.0
|119>     S 1
|120>      1   81.82 1.0
|121>     S 1
|122>      1   40.96 1.0
|123>     S 1
|124>      1   20.48 1.0
|125>     S 1
|126>      1   10.24 1.0
|127>     S 1
|128>      1    5.12 1.0
|129>     S 1
|130>      1    2.56 1.0
|131>     S 1
|132>      1    1.28 1.0
|133>     S 1
|134>      1    0.64 1.0
|135>     S 1
|136>      1    0.32 1.0
|137>     S 1
|138>      1    0.16 1.0
|139>     S 1
|140>      1    0.08 1.0
|141>     S 1
|142>      1    0.04 1.0
|143>     S 1
|144>      1    0.02 1.0
|145>     S 1
|146>      1    0.01 1.0
|147>   end
|148> end
|149>
|150> * xyz 0 2
|151> 53  0.0 0.0 0.0
|152> *
|153>
|154>
|155>                          ****END OF INPUT****

CARTESIAN COORDINATES (ANGSTROEM)
---------------------------------
  I      0.000000    0.000000    0.000000

 Total Charge           Charge          ....    0
 Multiplicity           Mult            ....    2
 Number of Electrons    NEL             ....   25
 Basis Dimension        Dim             ....   36

ORBITAL ENERGIES
----------------

  NO   OCC          E(Eh)            E(eV)
   0   2.0000      -7.759706      -211.1523
   1   2.0000      -5.607391      -152.5849
   2   2.0000      -5.607391      -152.5849
   3   2.0000      -5.607391      -152.5849
   4   2.0000      -2.301402       -62.6243
   5   2.0000      -2.301402       -62.6243
   6   2.0000      -2.301402       -62.6243
   7   2.0000      -2.301402       -62.6243
   8   2.0000      -2.301402       -62.6243
   9   2.0000      -0.876481       -23.8503
  10   1.6667      -0.402042       -10.9401
  11   1.6667      -0.402042       -10.9401
  12   1.6667      -0.402042       -10.9401
  13   0.0000       0.218473         5.9450
  14   0.0000       0.218473         5.9450
  15   0.0000       0.218473         5.9450
  16   0.0000       0.288426         7.8485
  17   0.0000       0.288426         7.8485

FINAL SINGLE POINT ENERGY      -296.652290555921

DIPOLE MOMENT
-------------

Method             : SCF
Type of density    : Electron Density
Multiplicity       :   2
Irrep              :   0
Energy             :  -296.6522905559206720 Eh
Relativity type    :
Basis              : AO
                                X                 Y                 Z
Electronic contribution:      0.000000000       0.000000000       0.000000000
Nuclear contribution   :      0.000000000       0.000000000       0.000000000
                        -----------------------------------------
Total Dipole Moment    :      0.000000000       0.000000000       0.000000000
                        -----------------------------------------
Magnitude (a.u.)       :      0.000000000
Magnitude (Debye)      :      0.000000000

Rotational constants in cm-1:             0.000000             0.000000             0.000000
Rotational constants in MHz :             0.000000             0.000000             0.000000

                             ****ORCA TERMINATED NORMALLY****
TOTAL RUN TIME: 0 days 0 hours 0 minutes 7 seconds 793 msec
