                         Program Version 6.0.0  -   RELEASE  -
|  1> ! r2SCAN-3c DEF2-TZVP FREQ
|  2> * xyzfile 0 1 censo.xyz
|  3>
|  4>                          ****END OF INPUT****

CARTESIAN COORDINATES (ANGSTROEM)
---------------------------------
  C     -3.557126   -0.000039    0.000051
  C     -2.859014   -1.204797    0.000056
  C     -1.464857   -1.214605    0.000033
  C     -0.787776    0.000033   -0.000014
  C     -1.464920    1.214635    0.000001
  C     -2.859076    1.204755    0.000034
  I      1.334747    0.000089    0.000007
  H     -4.642144   -0.000068    0.000060
  H     -3.395213   -2.148670    0.000069
  H     -0.923194   -2.153428    0.000025
  H     -0.923304    2.153485   -0.000020
  H     -3.395326    2.148599    0.000029

 Total Charge           Charge          ....    0
 Multiplicity           Mult            ....    1
 Number of Electrons    NEL             ....   66
 Basis Dimension        Dim             ....  266

ORBITAL ENERGIES
----------------

  NO   OCC          E(Eh)            E(eV)
   0   2.0000     -10.093680      -274.6630
   1   2.0000     -10.055502      -273.6241
   2   2.0000     -10.055489      -273.6238
   3   2.0000     -10.053193      -273.5613
   4   2.0000     -10.053172      -273.5607
   5   2.0000     -10.049872      -273.4709
   6   2.0000      -6.781870      -184.5441
   7   2.0000      -4.803760      -130.7170
   8   2.0000      -4.790880      -130.3665
   9   2.0000      -4.790568      -130.3580
  10   2.0000      -1.854181       -50.4548
  11   2.0000      -1.851511       -50.3822
  12   2.0000      -1.851305       -50.3766
  13   2.0000      -1.840469       -50.0817
  14   2.0000      -1.840450       -50.0812
  15   2.0000      -0.840599       -22.8739
  16   2.0000      -0.740346       -20.1458
  17   2.0000      -0.731286       -19.8993
  18   2.0000      -0.656453       -17.8630
  19   2.0000      -0.590313       -16.0632
  20   2.0000      -0.569890       -15.5075
  21   2.0000      -0.495263       -13.4768
  22   2.0000      -0.436699       -11.8832
  23   2.0000      -0.434352       -11.8193
  24   2.0000      -0.406729       -11.0677
  25   2.0000      -0.383969       -10.4483
  26   2.0000      -0.366066        -9.9611
  27   2.0000      -0.332306        -9.0425
  28   2.0000      -0.314643        -8.5619
  29   2.0000      -0.279199        -7.5974
  30   2.0000      -0.252964        -6.8835
  31   2.0000      -0.244497        -6.6531
  32   2.0000      -0.223672        -6.0864
  33   0.0000      -0.057363        -1.5609
  34   0.0000      -0.050686        -1.3792
  35   0.0000      -0.049758        -1.3540
  36   0.0000       0.059558         1.6207
  37   0.0000       0.088681         2.4131

MULLIKEN ATOMIC CHARGES
-----------------------
   0 C :   -0.133476
   1 C :   -0.070599
   2 C :   -0.226598
   3 C :    0.172104
   4 C :   -0.226599
   5 C :   -0.070593
   6 I :   -0.064497
   7 H :    0.116358
   8 H :    0.117452
   9 H :    0.134500
  10 H :    0.134496
  11 H :    0.117451
Sum of atomic charges:   -0.0000000

LOEWDIN ATOMIC CHARGES
----------------------
   0 C :   -0.138516
   1 C :   -0.131146
   2 C :   -0.151297
   3 C :   -0.350672
   4 C :   -0.151297
   5 C :   -0.131146
   6 I :    0.318586
   7 H :    0.145133
   8 H :    0.146706
   9 H :    0.148471
  10 H :    0.148471
  11 H :    0.146706

  Mayer bond orders larger than 0.100000
B(  0-C ,  1-C ) :   1.3935 B(  0-C ,  5-C ) :   1.3935 B(  0-C ,  7-H ) :   0.9665
B(  1-C ,  2-C ) :   1.3794 B(  1-C ,  8-H ) :   0.9640 B(  2-C ,  3-C ) :   1.3615
B(  2-C ,  9-H ) :   0.9678 B(  3-C ,  4-C ) :   1.3615 B(  3-C ,  6-I ) :   1.0166
B(  4-C ,  5-C ) :   1.3794 B(  4-C , 10-H ) :   0.9679 B(  5-C , 11-H ) :   0.9640

Dispersion correction           -0.004289249
FINAL SINGLE POINT ENERGY      -529.422320690589

DIPOLE MOMENT
-------------

Method             : SCF
Type of density    : Electron Density
Multiplicity       :   1
Irrep              :   0
Energy             :  -529.4205400444246834 Eh
Relativity type    :
Basis              : AO
                                X                 Y                 Z
Electronic contribution:    108.605211486       0.002850200      -0.000639236
Nuclear contribution   :   -109.315013027      -0.002869242       0.000645244
                        -----------------------------------------
Total Dipole Moment    :     -0.709801541      -0.000019042       0.000006008
                        -----------------------------------------
Magnitude (a.u.)       :      0.709801541
Magnitude (Debye)      :      1.804172137

VIBRATIONAL FREQUENCIES
-----------------------

Scaling factor for frequencies =  1.000000000  (already applied!)

     0:       0.00 cm**-1
     1:       0.00 cm**-1
     2:       0.00 cm**-1
     3:       0.00 cm**-1
     4:       0.00 cm**-1
     5:       0.00 cm**-1
     6:     155.71 cm**-1
     7:     222.60 cm**-1
     8:     261.20 cm**-1
     9:     408.59 cm**-1
    10:     460.04 cm**-1
    11:     625.73 cm**-1
    12:     664.96 cm**-1
    13:     701.78 cm**-1
    14:     735.06 cm**-1
    15:     834.75 cm**-1
    16:     903.62 cm**-1
    17:     951.58 cm**-1
    18:     976.80 cm**-1
    19:    1017.41 cm**-1
    20:    1028.55 cm**-1
    21:    1070.49 cm**-1
    22:    1093.28 cm**-1
    23:    1181.86 cm**-1
    24:    1200.41 cm**-1
    25:    1322.92 cm**-1
    26:    1338.41 cm**-1
    27:    1464.59 cm**-1
    28:    1494.35 cm**-1
    29:    1599.08 cm**-1
    30:    1611.70 cm**-1
    31:    3159.50 cm**-1
    32:    3167.55 cm**-1
    33:    3180.70 cm**-1
    34:    3189.95 cm**-1
    35:    3192.47 cm**-1

IR SPECTRUM
-----------

 Mode   freq       eps      Int      T**2         TX        TY        TZ
       cm**-1   L/(mol*cm) km/mol    a.u.
----------------------------------------------------------------------------
  6:    155.71   0.000143    0.72  0.000286  ( 0.000001 -0.000006  0.016926)
  7:    222.60   0.000022    0.11  0.000031  (-0.000000  0.005547 -0.000000)
  8:    261.20   0.000144    0.73  0.000172  (-0.013121 -0.000000  0.000000)
  9:    408.59   0.000000    0.00  0.000000  (-0.000001 -0.000003 -0.000000)
 10:    460.04   0.001613    8.15  0.001094  (-0.000007  0.000015  0.033082)
 11:    625.73   0.000059    0.30  0.000029  ( 0.000000 -0.005418 -0.000000)
 12:    664.96   0.004204   21.24  0.001973  (-0.044415 -0.000001 -0.000002)
 13:    701.78   0.004583   23.16  0.002038  ( 0.000002  0.000004 -0.045141)
 14:    735.06   0.010153   51.31  0.004310  (-0.000002  0.000006 -0.065652)
 15:    834.75   0.000000    0.00  0.000000  ( 0.000000 -0.000002 -0.000000)
 16:    903.62   0.000143    0.72  0.000049  (-0.000005  0.000004 -0.007032)
 17:    951.58   0.000000    0.00  0.000000  ( 0.000000  0.000001 -0.000000)
 18:    976.80   0.000003    0.02  0.000001  ( 0.000001  0.000002  0.001053)
 19:   1017.41   0.003033   15.33  0.000930  ( 0.030498  0.000001  0.000000)
 20:   1028.55   0.007389   37.34  0.002242  ( 0.047346  0.000001 -0.000000)
 21:   1070.49   0.001368    6.91  0.000399  (-0.019971 -0.000000 -0.000001)
 22:   1093.28   0.000959    4.85  0.000274  ( 0.000001 -0.016547  0.000000)
 23:   1181.86   0.000012    0.06  0.000003  (-0.000000 -0.001751  0.000000)
 24:   1200.41   0.000003    0.02  0.000001  ( 0.000887  0.000000  0.000000)
 25:   1322.92   0.000033    0.17  0.000008  (-0.000000  0.002792  0.000000)
 26:   1338.41   0.000465    2.35  0.000108  ( 0.000000 -0.010411  0.000000)
 27:   1464.59   0.001710    8.64  0.000364  ( 0.000000 -0.019090  0.000000)
 28:   1494.35   0.007174   36.26  0.001498  (-0.038707 -0.000001  0.000000)
 29:   1599.08   0.006608   33.39  0.001289  (-0.035909 -0.000001  0.000000)
 30:   1611.70   0.000424    2.14  0.000082  ( 0.000000 -0.009064  0.000000)
 31:   3159.50   0.000021    0.10  0.000002  (-0.001431 -0.000001  0.000000)
 32:   3167.55   0.001853    9.36  0.000183  (-0.000000  0.013512 -0.000000)
 33:   3180.70   0.002108   10.65  0.000207  ( 0.014382  0.000001 -0.000000)
 34:   3189.95   0.001026    5.19  0.000100  (-0.000002  0.010021 -0.000000)
 35:   3192.47   0.000896    4.53  0.000088  (-0.009356 -0.000002  0.000000)

--------------------------
THERMOCHEMISTRY AT 298.15K
--------------------------

Temperature         ...   298.15 K
Pressure            ...     1.00 atm
Total Mass          ...   204.01 AMU
Quasi RRHO          ...     True
Cut-Off Frequency   ...     1.00 cm^-1

Throughout the following assumptions are being made:
  (1) The electronic state is orbitally nondegenerate
  (2) There are no thermally accessible electronically excited states
  (3) Hindered rotations indicated by low frequency modes are not
      treated as such but are treated as vibrations and this may
      cause some error
  (4) All equations used are the standard statistical mechanics
      equations for an ideal gas
  (5) All vibrations are strictly harmonic

freq.     155.71  E(vib)   ...       0.40
freq.     222.60  E(vib)   ...       0.33
freq.     261.20  E(vib)   ...       0.30
freq.     408.59  E(vib)   ...       0.19
freq.     460.04  E(vib)   ...       0.16
freq.     625.73  E(vib)   ...       0.09
freq.     664.96  E(vib)   ...       0.08
freq.     701.78  E(vib)   ...       0.07
freq.     735.06  E(vib)   ...       0.06
freq.     834.75  E(vib)   ...       0.04
freq.     903.62  E(vib)   ...       0.03
freq.     951.58  E(vib)   ...       0.03
freq.     976.80  E(vib)   ...       0.03
freq.    1017.41  E(vib)   ...       0.02
freq.    1028.55  E(vib)   ...       0.02
freq.    1070.49  E(vib)   ...       0.02
freq.    1093.28  E(vib)   ...       0.02
freq.    1181.86  E(vib)   ...       0.01
freq.    1200.41  E(vib)   ...       0.01
freq.    1322.92  E(vib)   ...       0.01
freq.    1338.41  E(vib)   ...       0.01
freq.    1464.59  E(vib)   ...       0.00
freq.    1494.35  E(vib)   ...       0.00
freq.    1599.08  E(vib)   ...       0.00
freq.    1611.70  E(vib)   ...       0.00
freq.    3159.50  E(vib)   ...       0.00
freq.    3167.55  E(vib)   ...       0.00
freq.    3180.70  E(vib)   ...       0.00
freq.    3189.95  E(vib)   ...       0.00
freq.    3192.47  E(vib)   ...       0.00

------------
INNER ENERGY
------------

The inner energy is: U= E(el) + E(ZPE) + E(vib) + E(rot) + E(trans)
    E(el)   - is the total energy from the electronic structure calculation
              = E(kin-el) + E(nuc-el) + E(el-el) + E(nuc-nuc)
    E(ZPE)  - the the zero temperature vibrational energy from the frequency calculation
    E(vib)  - the the finite temperature correction to E(ZPE) due to population
              of excited vibrational states
    E(rot)  - is the rotational thermal energy
    E(trans)- is the translational thermal energy

Summary of contributions to the inner energy U:
Electronic energy                ...   -529.42232069 Eh
Zero point energy                ...      0.08933981 Eh      56.06 kcal/mol
Thermal vibrational correction   ...      0.00307190 Eh       1.93 kcal/mol
Thermal rotational correction    ...      0.00141627 Eh       0.89 kcal/mol
Thermal translational correction ...      0.00141627 Eh       0.89 kcal/mol
-----------------------------------------------------------------------
Total thermal energy                   -529.32707644 Eh

Summary of corrections to the electronic energy:
(perhaps to be used in another calculation)
Total thermal correction                  0.00590444 Eh       3.71 kcal/mol
Non-thermal (ZPE) correction              0.08933981 Eh      56.06 kcal/mol
-----------------------------------------------------------------------
Total correction                          0.09524425 Eh      59.77 kcal/mol

--------
ENTHALPY
--------

The enthalpy is H = U + kB*T
                kB is Boltzmann's constant
Total thermal energy              ...   -529.32707644 Eh
Thermal Enthalpy correction       ...      0.00094421 Eh       0.59 kcal/mol
-----------------------------------------------------------------------
Total Enthalpy                    ...   -529.32613223 Eh

Note: Rotational entropy computed according to Herzberg
Infrared and Raman Spectra, Chapter V,1, Van Nostrand Reinhold, 1945
Point Group:  C2v, Symmetry Number:   2
Rotational constants in cm-1:     0.189490     0.024787     0.021920

Vibrational entropy computed according to the QRRHO of S. Grimme
Chem.Eur.J. 2012 18 9955 using a reference frequency of 100.0 cm-1

-------
ENTROPY
-------

The entropy contributions are T*S = T*(S(el)+S(vib)+S(rot)+S(trans))
     S(el)   - electronic entropy
     S(vib)  - vibrational entropy
     S(rot)  - rotational entropy
     S(trans)- translational entropy
The entropies will be listed as multiplied by the temperature to get
units of energy

Electronic entropy                ...      0.00000000 Eh      0.00 kcal/mol
Vibrational entropy               ...      0.00485679 Eh      3.05 kcal/mol
Rotational entropy                ...      0.01319072 Eh      8.28 kcal/mol
Translational entropy             ...      0.01988101 Eh     12.48 kcal/mol
-----------------------------------------------------------------------
Final entropy term                ...      0.03792852 Eh     23.80 kcal/mol

In case the symmetry of your molecule has not been determined correctly
or in case you have a reason to use a different symmetry number we print
out the resulting rotational entropy values for sn=1,12:

 non-linear molecules -----------------------------------
|  sn= 1 | S(rot)=       0.01384518 Eh      8.69 kcal/mol|
|  sn= 2 | S(rot)=       0.01319072 Eh      8.28 kcal/mol|
|  sn= 3 | S(rot)=       0.01280789 Eh      8.04 kcal/mol|
|  sn= 4 | S(rot)=       0.01253626 Eh      7.87 kcal/mol|
|  sn= 5 | S(rot)=       0.01232558 Eh      7.73 kcal/mol|
|  sn= 6 | S(rot)=       0.01215343 Eh      7.63 kcal/mol|
|  sn= 7 | S(rot)=       0.01200789 Eh      7.54 kcal/mol|
|  sn= 8 | S(rot)=       0.01188181 Eh      7.46 kcal/mol|
|  sn= 9 | S(rot)=       0.01177060 Eh      7.39 kcal/mol|
|  sn=10 | S(rot)=       0.01167112 Eh      7.32 kcal/mol|
|  sn=11 | S(rot)=       0.01158113 Eh      7.27 kcal/mol|
|  sn=12 | S(rot)=       0.01149898 Eh      7.22 kcal/mol|
 linear molecules ---------------------------------------
|  Dinfh | S(rot)=       0.00893292 Eh      5.61 kcal/mol|
|  Cinfv | S(rot)=       0.00958738 Eh      6.02 kcal/mol|
 --------------------------------------------------------

-------------------
GIBBS FREE ENERGY
-------------------

The Gibbs free energy is G = H - T*S

Total enthalpy                    ...   -529.32613223 Eh
Total entropy correction          ...     -0.03792852 Eh    -23.80 kcal/mol
-----------------------------------------------------------------------
Final Gibbs free energy         ...   -529.36406075 Eh

For completeness - the Gibbs free energy minus the electronic energy
G-E(el)                           ...      0.05825994 Eh     36.56 kcal/mol

                             ****ORCA TERMINATED NORMALLY****
TOTAL RUN TIME: 0 days 0 hours 9 minutes 28 seconds 752 msec
