                         Program Version 6.0.0  -   RELEASE  -
|  1> ! r2SCAN-3c DEF2-TZVP FREQ
|  2> * xyzfile 0 1 vacuum_censo.xyz
|  3>
|  4>                          ****END OF INPUT****

CARTESIAN COORDINATES (ANGSTROEM)
---------------------------------
  C     -3.551820    0.000051    0.000015
  C     -2.853816   -1.203511   -0.000016
  C     -1.460982   -1.213015   -0.000035
  C     -0.781831   -0.000015   -0.000023
  C     -1.460931    1.213014   -0.000047
  C     -2.853762    1.203581   -0.000014
  I      1.337229   -0.000196   -0.000145
  H     -4.636574    0.000075    0.000047
  H     -3.390308   -2.147017    0.000009
  H     -0.917520   -2.150472   -0.000040
  H     -0.917418    2.150441   -0.000040
  H     -3.390206    2.147113    0.000006

 Total Charge           Charge          ....    0
 Multiplicity           Mult            ....    1
 Number of Electrons    NEL             ....   66
 Basis Dimension        Dim             ....  266

ORBITAL ENERGIES
----------------

  NO   OCC          E(Eh)            E(eV)
   0   2.0000     -10.093210      -274.6502
   1   2.0000     -10.055047      -273.6117
   2   2.0000     -10.055034      -273.6114
   3   2.0000     -10.052766      -273.5497
   4   2.0000     -10.052744      -273.5491
   5   2.0000     -10.049485      -273.4604
   6   2.0000      -6.782060      -184.5492
   7   2.0000      -4.803936      -130.7217
   8   2.0000      -4.791083      -130.3720
   9   2.0000      -4.790766      -130.3634
  10   2.0000      -1.854380       -50.4602
  11   2.0000      -1.851708       -50.3875
  12   2.0000      -1.851500       -50.3819
  13   2.0000      -1.840674       -50.0873
  14   2.0000      -1.840655       -50.0868
  15   2.0000      -0.840956       -22.8836
  16   2.0000      -0.740753       -20.1569
  17   2.0000      -0.731326       -19.9004
  18   2.0000      -0.656769       -17.8716
  19   2.0000      -0.590347       -16.0642
  20   2.0000      -0.569854       -15.5065
  21   2.0000      -0.495444       -13.4817
  22   2.0000      -0.436819       -11.8864
  23   2.0000      -0.434076       -11.8118
  24   2.0000      -0.406555       -11.0629
  25   2.0000      -0.384204       -10.4547
  26   2.0000      -0.366297        -9.9674
  27   2.0000      -0.331805        -9.0289
  28   2.0000      -0.315073        -8.5736
  29   2.0000      -0.279472        -7.6048
  30   2.0000      -0.252965        -6.8835
  31   2.0000      -0.244649        -6.6572
  32   2.0000      -0.223656        -6.0860
  33   0.0000      -0.056856        -1.5471
  34   0.0000      -0.050294        -1.3686
  35   0.0000      -0.049605        -1.3498
  36   0.0000       0.059656         1.6233
  37   0.0000       0.088821         2.4169

MULLIKEN ATOMIC CHARGES
-----------------------
   0 C :   -0.131087
   1 C :   -0.072576
   2 C :   -0.225086
   3 C :    0.169993
   4 C :   -0.225102
   5 C :   -0.072570
   6 I :   -0.062274
   7 H :    0.116295
   8 H :    0.117151
   9 H :    0.134053
  10 H :    0.134052
  11 H :    0.117151
Sum of atomic charges:   -0.0000000

LOEWDIN ATOMIC CHARGES
----------------------
   0 C :   -0.138532
   1 C :   -0.131412
   2 C :   -0.151404
   3 C :   -0.353125
   4 C :   -0.151396
   5 C :   -0.131413
   6 I :    0.321700
   7 H :    0.145179
   8 H :    0.146806
   9 H :    0.148394
  10 H :    0.148395
  11 H :    0.146807

  Mayer bond orders larger than 0.100000
B(  0-C ,  1-C ) :   1.3936 B(  0-C ,  5-C ) :   1.3935 B(  0-C ,  7-H ) :   0.9665
B(  1-C ,  2-C ) :   1.3799 B(  1-C ,  8-H ) :   0.9642 B(  2-C ,  3-C ) :   1.3611
B(  2-C ,  9-H ) :   0.9680 B(  3-C ,  4-C ) :   1.3611 B(  3-C ,  6-I ) :   1.0186
B(  4-C ,  5-C ) :   1.3799 B(  4-C , 10-H ) :   0.9680 B(  5-C , 11-H ) :   0.9643

Dispersion correction           -0.004291452
FINAL SINGLE POINT ENERGY      -529.422374504406

DIPOLE MOMENT
-------------

Method             : SCF
Type of density    : Electron Density
Multiplicity       :   1
Irrep              :   0
Energy             :  -529.4205985776453645 Eh
Relativity type    :
Basis              : AO
                                X                 Y                 Z
Electronic contribution:    108.533395206      -0.006523321      -0.003861316
Nuclear contribution   :   -109.237354947       0.006549623       0.003887177
                        -----------------------------------------
Total Dipole Moment    :     -0.703959741       0.000026302       0.000025861
                        -----------------------------------------
Magnitude (a.u.)       :      0.703959742
Magnitude (Debye)      :      1.789323463

VIBRATIONAL FREQUENCIES
-----------------------

Scaling factor for frequencies =  1.000000000  (already applied!)

     0:       0.00 cm**-1
     1:       0.00 cm**-1
     2:       0.00 cm**-1
     3:       0.00 cm**-1
     4:       0.00 cm**-1
     5:       0.00 cm**-1
     6:     153.49 cm**-1
     7:     221.57 cm**-1
     8:     262.61 cm**-1
     9:     406.68 cm**-1
    10:     458.25 cm**-1
    11:     626.00 cm**-1
    12:     665.96 cm**-1
    13:     700.86 cm**-1
    14:     734.65 cm**-1
    15:     834.51 cm**-1
    16:     903.32 cm**-1
    17:     951.54 cm**-1
    18:     976.64 cm**-1
    19:    1018.51 cm**-1
    20:    1031.40 cm**-1
    21:    1072.69 cm**-1
    22:    1094.70 cm**-1
    23:    1182.65 cm**-1
    24:    1201.66 cm**-1
    25:    1325.19 cm**-1
    26:    1341.95 cm**-1
    27:    1466.14 cm**-1
    28:    1496.19 cm**-1
    29:    1603.73 cm**-1
    30:    1614.43 cm**-1
    31:    3161.20 cm**-1
    32:    3169.02 cm**-1
    33:    3182.83 cm**-1
    34:    3192.08 cm**-1
    35:    3194.58 cm**-1

IR SPECTRUM
-----------

 Mode   freq       eps      Int      T**2         TX        TY        TZ
       cm**-1   L/(mol*cm) km/mol    a.u.
----------------------------------------------------------------------------
  6:    153.49   0.000144    0.73  0.000292  (-0.000007 -0.000014  0.017102)
  7:    221.57   0.000023    0.11  0.000032  ( 0.000004  0.005646  0.000000)
  8:    262.61   0.000132    0.66  0.000156  (-0.012502  0.000002  0.000001)
  9:    406.68   0.000000    0.00  0.000000  ( 0.000000 -0.000001  0.000002)
 10:    458.25   0.001636    8.27  0.001114  ( 0.000021  0.000024  0.033376)
 11:    626.00   0.000057    0.29  0.000029  (-0.000002 -0.005342 -0.000000)
 12:    665.96   0.004127   20.85  0.001934  (-0.043974  0.000004  0.000002)
 13:    700.86   0.004676   23.63  0.002082  ( 0.000007  0.000006 -0.045627)
 14:    734.65   0.009983   50.45  0.004241  ( 0.000005  0.000007 -0.065121)
 15:    834.51   0.000000    0.00  0.000000  ( 0.000001  0.000001 -0.000001)
 16:    903.32   0.000142    0.72  0.000049  ( 0.000006  0.000006 -0.007016)
 17:    951.54   0.000000    0.00  0.000000  (-0.000001  0.000002  0.000000)
 18:    976.64   0.000003    0.02  0.000001  (-0.000003  0.000003  0.000976)
 19:   1018.51   0.003473   17.55  0.001064  ( 0.032619 -0.000003 -0.000002)
 20:   1031.40   0.006718   33.95  0.002033  (-0.045085  0.000003  0.000002)
 21:   1072.69   0.001428    7.22  0.000415  (-0.020380  0.000000  0.000002)
 22:   1094.70   0.000985    4.98  0.000281  ( 0.000004 -0.016759  0.000000)
 23:   1182.65   0.000012    0.06  0.000003  ( 0.000001 -0.001798  0.000000)
 24:   1201.66   0.000002    0.01  0.000001  ( 0.000755  0.000000 -0.000000)
 25:   1325.19   0.000071    0.36  0.000017  ( 0.000000  0.004088  0.000000)
 26:   1341.95   0.000419    2.12  0.000098  (-0.000001 -0.009875 -0.000000)
 27:   1466.14   0.001726    8.72  0.000367  (-0.000003 -0.019167 -0.000000)
 28:   1496.19   0.007099   35.87  0.001481  (-0.038478  0.000002  0.000001)
 29:   1603.73   0.006595   33.33  0.001283  (-0.035822  0.000004  0.000001)
 30:   1614.43   0.000419    2.12  0.000081  (-0.000005 -0.008998  0.000000)
 31:   3161.20   0.000032    0.16  0.000003  (-0.001783 -0.000006 -0.000000)
 32:   3169.02   0.001874    9.47  0.000185  ( 0.000002  0.013584  0.000000)
 33:   3182.83   0.002147   10.85  0.000211  ( 0.014509 -0.000005 -0.000000)
 34:   3192.08   0.001058    5.35  0.000103  ( 0.000025  0.010169 -0.000000)
 35:   3194.58   0.000851    4.30  0.000083  (-0.009119  0.000025  0.000000)

--------------------------
THERMOCHEMISTRY AT 298.15K
--------------------------

Temperature         ...   298.15 K
Pressure            ...     1.00 atm
Total Mass          ...   204.01 AMU
Quasi RRHO          ...     True
Cut-Off Frequency   ...     1.00 cm^-1

Throughout the following assumptions are being made:
  (1) The electronic state is orbitally nondegenerate
  (2) There are no thermally accessible electronically excited states
  (3) Hindered rotations indicated by low frequency modes are not
      treated as such but are treated as vibrations and this may
      cause some error
  (4) All equations used are the standard statistical mechanics
      equations for an ideal gas
  (5) All vibrations are strictly harmonic

freq.     153.49  E(vib)   ...       0.40
freq.     221.57  E(vib)   ...       0.33
freq.     262.61  E(vib)   ...       0.29
freq.     406.68  E(vib)   ...       0.19
freq.     458.25  E(vib)   ...       0.16
freq.     626.00  E(vib)   ...       0.09
freq.     665.96  E(vib)   ...       0.08
freq.     700.86  E(vib)   ...       0.07
freq.     734.65  E(vib)   ...       0.06
freq.     834.51  E(vib)   ...       0.04
freq.     903.32  E(vib)   ...       0.03
freq.     951.54  E(vib)   ...       0.03
freq.     976.64  E(vib)   ...       0.03
freq.    1018.51  E(vib)   ...       0.02
freq.    1031.40  E(vib)   ...       0.02
freq.    1072.69  E(vib)   ...       0.02
freq.    1094.70  E(vib)   ...       0.02
freq.    1182.65  E(vib)   ...       0.01
freq.    1201.66  E(vib)   ...       0.01
freq.    1325.19  E(vib)   ...       0.01
freq.    1341.95  E(vib)   ...       0.01
freq.    1466.14  E(vib)   ...       0.00
freq.    1496.19  E(vib)   ...       0.00
freq.    1603.73  E(vib)   ...       0.00
freq.    1614.43  E(vib)   ...       0.00
freq.    3161.20  E(vib)   ...       0.00
freq.    3169.02  E(vib)   ...       0.00
freq.    3182.83  E(vib)   ...       0.00
freq.    3192.08  E(vib)   ...       0.00
freq.    3194.58  E(vib)   ...       0.00

------------
INNER ENERGY
------------

The inner energy is: U= E(el) + E(ZPE) + E(vib) + E(rot) + E(trans)
    E(el)   - is the total energy from the electronic structure calculation
              = E(kin-el) + E(nuc-el) + E(el-el) + E(nuc-nuc)
    E(ZPE)  - the the zero temperature vibrational energy from the frequency calculation
    E(vib)  - the the finite temperature correction to E(ZPE) due to population
              of excited vibrational states
    E(rot)  - is the rotational thermal energy
    E(trans)- is the translational thermal energy

Summary of contributions to the inner energy U:
Electronic energy                ...   -529.42237450 Eh
Zero point energy                ...      0.08940669 Eh      56.10 kcal/mol
Thermal vibrational correction   ...      0.00307731 Eh       1.93 kcal/mol
Thermal rotational correction    ...      0.00141627 Eh       0.89 kcal/mol
Thermal translational correction ...      0.00141627 Eh       0.89 kcal/mol
-----------------------------------------------------------------------
Total thermal energy                   -529.32705796 Eh

Summary of corrections to the electronic energy:
(perhaps to be used in another calculation)
Total thermal correction                  0.00590985 Eh       3.71 kcal/mol
Non-thermal (ZPE) correction              0.08940669 Eh      56.10 kcal/mol
-----------------------------------------------------------------------
Total correction                          0.09531654 Eh      59.81 kcal/mol

--------
ENTHALPY
--------

The enthalpy is H = U + kB*T
                kB is Boltzmann's constant
Total thermal energy              ...   -529.32705796 Eh
Thermal Enthalpy correction       ...      0.00094421 Eh       0.59 kcal/mol
-----------------------------------------------------------------------
Total Enthalpy                    ...   -529.32611375 Eh

Note: Rotational entropy computed according to Herzberg
Infrared and Raman Spectra, Chapter V,1, Van Nostrand Reinhold, 1945
Point Group:  Cs, Symmetry Number:   1
Rotational constants in cm-1:     0.189926     0.024819     0.021950

Vibrational entropy computed according to the QRRHO of S. Grimme
Chem.Eur.J. 2012 18 9955 using a reference frequency of 100.0 cm-1

-------
ENTROPY
-------

The entropy contributions are T*S = T*(S(el)+S(vib)+S(rot)+S(trans))
     S(el)   - electronic entropy
     S(vib)  - vibrational entropy
     S(rot)  - rotational entropy
     S(trans)- translational entropy
The entropies will be listed as multiplied by the temperature to get
units of energy

Electronic entropy                ...      0.00000000 Eh      0.00 kcal/mol
Vibrational entropy               ...      0.00487177 Eh      3.06 kcal/mol
Rotational entropy                ...      0.01384283 Eh      8.69 kcal/mol
Translational entropy             ...      0.01988101 Eh     12.48 kcal/mol
-----------------------------------------------------------------------
Final entropy term                ...      0.03859561 Eh     24.22 kcal/mol

In case the symmetry of your molecule has not been determined correctly
or in case you have a reason to use a different symmetry number we print
out the resulting rotational entropy values for sn=1,12:

 non-linear molecules -----------------------------------
|  sn= 1 | S(rot)=       0.01384283 Eh      8.69 kcal/mol|
|  sn= 2 | S(rot)=       0.01318838 Eh      8.28 kcal/mol|
|  sn= 3 | S(rot)=       0.01280554 Eh      8.04 kcal/mol|
|  sn= 4 | S(rot)=       0.01253392 Eh      7.87 kcal/mol|
|  sn= 5 | S(rot)=       0.01232323 Eh      7.73 kcal/mol|
|  sn= 6 | S(rot)=       0.01215109 Eh      7.62 kcal/mol|
|  sn= 7 | S(rot)=       0.01200554 Eh      7.53 kcal/mol|
|  sn= 8 | S(rot)=       0.01187946 Eh      7.45 kcal/mol|
|  sn= 9 | S(rot)=       0.01176825 Eh      7.38 kcal/mol|
|  sn=10 | S(rot)=       0.01166878 Eh      7.32 kcal/mol|
|  sn=11 | S(rot)=       0.01157879 Eh      7.27 kcal/mol|
|  sn=12 | S(rot)=       0.01149663 Eh      7.21 kcal/mol|
 linear molecules ---------------------------------------
|  Dinfh | S(rot)=       0.00893161 Eh      5.60 kcal/mol|
|  Cinfv | S(rot)=       0.00958607 Eh      6.02 kcal/mol|
 --------------------------------------------------------

-------------------
GIBBS FREE ENERGY
-------------------

The Gibbs free energy is G = H - T*S

Total enthalpy                    ...   -529.32611375 Eh
Total entropy correction          ...     -0.03859561 Eh    -24.22 kcal/mol
-----------------------------------------------------------------------
Final Gibbs free energy         ...   -529.36470937 Eh

For completeness - the Gibbs free energy minus the electronic energy
G-E(el)                           ...      0.05766514 Eh     36.19 kcal/mol

                             ****ORCA TERMINATED NORMALLY****
TOTAL RUN TIME: 0 days 0 hours 9 minutes 39 seconds 380 msec
