                         Program Version 6.0.0  -   RELEASE  -
|  1> ! r2SCAN-3c DEF2-TZVP FREQ
|  2> * xyzfile 0 1 censo.xyz
|  3>
|  4>                          ****END OF INPUT****

CARTESIAN COORDINATES (ANGSTROEM)
---------------------------------
  C      2.420457    1.159251    0.000027
  C      1.271621    1.927629    0.000020
  C      0.000004    1.299192    0.000004
  C     -1.271611    1.927635   -0.000010
  C     -2.420450    1.159262   -0.000019
  C     -2.390835   -0.259901   -0.000001
  C     -1.170076   -0.895887    0.000018
  C      0.000001   -0.113041    0.000002
  C      1.170073   -0.895893   -0.000017
  C      2.390836   -0.259912    0.000002
  C      0.781120   -2.356174   -0.000113
  C     -0.781130   -2.356170    0.000110
  H      3.386232    1.656522    0.000044
  H      1.337786    3.011964    0.000030
  H     -1.337770    3.011970   -0.000017
  H     -3.386222    1.656538   -0.000040
  H     -3.323435   -0.816606    0.000007
  H      3.323434   -0.816621   -0.000010
  H      1.182992   -2.870990   -0.878899
  H      1.183282   -2.871248    0.878385
  H     -1.183294   -2.871240   -0.878389
  H     -1.183003   -2.870987    0.878895

 Total Charge           Charge          ....    0
 Multiplicity           Mult            ....    1
 Number of Electrons    NEL             ....   82
 Basis Dimension        Dim             ....  432

ORBITAL ENERGIES
----------------

  NO   OCC          E(Eh)            E(eV)
   0   2.0000     -10.043806      -273.3059
   1   2.0000     -10.043715      -273.3034
   2   2.0000     -10.042680      -273.2752
   3   2.0000     -10.042669      -273.2749
   4   2.0000     -10.042319      -273.2654
   5   2.0000     -10.037387      -273.1312
   6   2.0000     -10.037382      -273.1311
   7   2.0000     -10.033852      -273.0350
   8   2.0000     -10.033852      -273.0350
   9   2.0000     -10.033829      -273.0344
  10   2.0000     -10.033820      -273.0341
  11   2.0000     -10.029913      -272.9278
  12   2.0000      -0.852951       -23.2100
  13   2.0000      -0.785335       -21.3700
  14   2.0000      -0.783065       -21.3083
  15   2.0000      -0.707210       -19.2442
  16   2.0000      -0.695558       -18.9271
  17   2.0000      -0.685448       -18.6520
  18   2.0000      -0.615847       -16.7580
  19   2.0000      -0.582096       -15.8396
  20   2.0000      -0.561816       -15.2878
  21   2.0000      -0.541626       -14.7384
  22   2.0000      -0.477984       -13.0066
  23   2.0000      -0.465479       -12.6663
  24   2.0000      -0.448876       -12.2145
  25   2.0000      -0.438144       -11.9225
  26   2.0000      -0.415408       -11.3038
  27   2.0000      -0.401931       -10.9371
  28   2.0000      -0.379324       -10.3219
  29   2.0000      -0.373541       -10.1646
  30   2.0000      -0.362386        -9.8610
  31   2.0000      -0.357264        -9.7216
  32   2.0000      -0.349749        -9.5172
  33   2.0000      -0.328555        -8.9404
  34   2.0000      -0.322498        -8.7756
  35   2.0000      -0.299339        -8.1454
  36   2.0000      -0.298790        -8.1305
  37   2.0000      -0.294085        -8.0025
  38   2.0000      -0.258066        -7.0223
  39   2.0000      -0.227843        -6.1999
  40   2.0000      -0.191463        -5.2100
  41   0.0000      -0.060987        -1.6595
  42   0.0000      -0.037573        -1.0224
  43   0.0000      -0.002131        -0.0580
  44   0.0000       0.051083         1.3900
  45   0.0000       0.061327         1.6688

MULLIKEN ATOMIC CHARGES
-----------------------
   0 C :   -0.052453
   1 C :   -0.243852
   2 C :    0.086777
   3 C :   -0.243876
   4 C :   -0.052477
   5 C :   -0.210088
   6 C :   -0.000984
   7 C :    0.174133
   8 C :   -0.000887
   9 C :   -0.210084
  10 C :   -0.122750
  11 C :   -0.122646
  12 H :    0.106845
  13 H :    0.098732
  14 H :    0.098755
  15 H :    0.106853
  16 H :    0.101335
  17 H :    0.101303
  18 H :    0.096336
  19 H :    0.096349
  20 H :    0.096347
  21 H :    0.096332
Sum of atomic charges:    0.0000000

LOEWDIN ATOMIC CHARGES
----------------------
   0 C :   -0.135780
   1 C :   -0.109150
   2 C :   -0.098947
   3 C :   -0.109149
   4 C :   -0.135780
   5 C :   -0.122282
   6 C :   -0.096751
   7 C :   -0.038789
   8 C :   -0.096751
   9 C :   -0.122282
  10 C :   -0.179805
  11 C :   -0.179805
  12 H :    0.142729
  13 H :    0.143994
  14 H :    0.143994
  15 H :    0.142729
  16 H :    0.142025
  17 H :    0.142025
  18 H :    0.141946
  19 H :    0.141939
  20 H :    0.141939
  21 H :    0.141946

  Mayer bond orders larger than 0.100000
B(  0-C ,  1-C ) :   1.5068 B(  0-C ,  9-C ) :   1.2652 B(  0-C , 12-H ) :   0.9717
B(  1-C ,  2-C ) :   1.2086 B(  1-C , 13-H ) :   0.9875 B(  2-C ,  3-C ) :   1.2087
B(  2-C ,  7-C ) :   1.2450 B(  3-C ,  4-C ) :   1.5069 B(  3-C , 14-H ) :   0.9874
B(  4-C ,  5-C ) :   1.2654 B(  4-C , 15-H ) :   0.9716 B(  5-C ,  6-C ) :   1.4628
B(  5-C , 16-H ) :   0.9884 B(  6-C ,  7-C ) :   1.1550 B(  6-C , 11-C ) :   1.0554
B(  7-C ,  8-C ) :   1.1549 B(  8-C ,  9-C ) :   1.4626 B(  8-C , 10-C ) :   1.0554
B(  9-C , 17-H ) :   0.9885 B( 10-C , 11-C ) :   1.0656 B( 10-C , 18-H ) :   0.9320
B( 10-C , 19-H ) :   0.9320 B( 11-C , 20-H ) :   0.9320 B( 11-C , 21-H ) :   0.9319

Dispersion correction           -0.009222323
FINAL SINGLE POINT ENERGY      -463.224323222605

DIPOLE MOMENT
-------------

Method             : SCF
Type of density    : Electron Density
Multiplicity       :   1
Irrep              :   0
Energy             :  -463.2201759304223287 Eh
Relativity type    :
Basis              : AO
                                X                 Y                 Z
Electronic contribution:      0.000007164       3.166917177       0.000008801
Nuclear contribution   :     -0.000008034      -3.560628564      -0.000010563
                        -----------------------------------------
Total Dipole Moment    :     -0.000000870      -0.393711387      -0.000001762
                        -----------------------------------------
Magnitude (a.u.)       :      0.393711387
Magnitude (Debye)      :      1.000734815

VIBRATIONAL FREQUENCIES
-----------------------

Scaling factor for frequencies =  1.000000000  (already applied!)

     0:       0.00 cm**-1
     1:       0.00 cm**-1
     2:       0.00 cm**-1
     3:       0.00 cm**-1
     4:       0.00 cm**-1
     5:       0.00 cm**-1
     6:      81.83 cm**-1
     7:     164.48 cm**-1
     8:     217.42 cm**-1
     9:     234.90 cm**-1
    10:     425.18 cm**-1
    11:     444.30 cm**-1
    12:     454.70 cm**-1
    13:     472.90 cm**-1
    14:     511.81 cm**-1
    15:     555.98 cm**-1
    16:     562.65 cm**-1
    17:     630.97 cm**-1
    18:     645.99 cm**-1
    19:     670.55 cm**-1
    20:     749.34 cm**-1
    21:     763.56 cm**-1
    22:     791.83 cm**-1
    23:     820.39 cm**-1
    24:     844.77 cm**-1
    25:     853.33 cm**-1
    26:     866.19 cm**-1
    27:     892.28 cm**-1
    28:     947.89 cm**-1
    29:     952.10 cm**-1
    30:     955.53 cm**-1
    31:    1013.79 cm**-1
    32:    1017.72 cm**-1
    33:    1038.99 cm**-1
    34:    1062.55 cm**-1
    35:    1110.45 cm**-1
    36:    1164.07 cm**-1
    37:    1176.27 cm**-1
    38:    1194.17 cm**-1
    39:    1228.09 cm**-1
    40:    1236.89 cm**-1
    41:    1237.51 cm**-1
    42:    1251.77 cm**-1
    43:    1279.89 cm**-1
    44:    1300.47 cm**-1
    45:    1385.31 cm**-1
    46:    1392.21 cm**-1
    47:    1446.24 cm**-1
    48:    1454.69 cm**-1
    49:    1457.24 cm**-1
    50:    1480.93 cm**-1
    51:    1494.67 cm**-1
    52:    1525.65 cm**-1
    53:    1622.05 cm**-1
    54:    1627.95 cm**-1
    55:    1643.11 cm**-1
    56:    3022.80 cm**-1
    57:    3032.36 cm**-1
    58:    3054.95 cm**-1
    59:    3074.18 cm**-1
    60:    3148.18 cm**-1
    61:    3148.44 cm**-1
    62:    3159.30 cm**-1
    63:    3159.44 cm**-1
    64:    3171.00 cm**-1
    65:    3171.85 cm**-1

IR SPECTRUM
-----------

 Mode   freq       eps      Int      T**2         TX        TY        TZ
       cm**-1   L/(mol*cm) km/mol    a.u.
----------------------------------------------------------------------------
  6:     81.83   0.000000    0.00  0.000000  ( 0.000003 -0.000013  0.000000)
  7:    164.48   0.000381    1.92  0.000722  ( 0.000042  0.000003 -0.026874)
  8:    217.42   0.001674    8.46  0.002402  (-0.000050  0.000001  0.049013)
  9:    234.90   0.000000    0.00  0.000000  (-0.000002  0.000011 -0.000000)
 10:    425.18   0.000374    1.89  0.000275  ( 0.000000  0.016570  0.000000)
 11:    444.30   0.000000    0.00  0.000000  ( 0.000001 -0.000024 -0.000000)
 12:    454.70   0.000158    0.80  0.000109  ( 0.010420 -0.000000 -0.000001)
 13:    472.90   0.000047    0.24  0.000031  (-0.000033 -0.000001 -0.005572)
 14:    511.81   0.000034    0.17  0.000021  ( 0.004583  0.000000 -0.000002)
 15:    555.98   0.000177    0.90  0.000099  ( 0.000000 -0.009972  0.000000)
 16:    562.65   0.000219    1.11  0.000122  (-0.000027  0.000001  0.011033)
 17:    630.97   0.000000    0.00  0.000000  (-0.000008  0.000024  0.000001)
 18:    645.99   0.000001    0.01  0.000001  (-0.000000  0.000811 -0.000000)
 19:    670.55   0.000764    3.86  0.000356  (-0.018861  0.000000 -0.000003)
 20:    749.34   0.000000    0.00  0.000000  (-0.000001 -0.000003 -0.000003)
 21:    763.56   0.000803    4.06  0.000328  ( 0.000001  0.000001 -0.018112)
 22:    791.83   0.016605   83.91  0.006544  ( 0.000012 -0.000001  0.080895)
 23:    820.39   0.000097    0.49  0.000037  (-0.000000 -0.006074 -0.000001)
 24:    844.77   0.000128    0.65  0.000047  (-0.006868  0.000000  0.000050)
 25:    853.33   0.001754    8.86  0.000641  ( 0.000014  0.000001  0.025326)
 26:    866.19   0.000000    0.00  0.000000  ( 0.000000 -0.000004 -0.000003)
 27:    892.28   0.000010    0.05  0.000003  ( 0.000003 -0.000001  0.001829)
 28:    947.89   0.000000    0.00  0.000000  ( 0.000000 -0.000005  0.000008)
 29:    952.10   0.000119    0.60  0.000039  (-0.000000 -0.006254  0.000000)
 30:    955.53   0.000045    0.23  0.000015  ( 0.000003  0.000000  0.003843)
 31:   1013.79   0.000000    0.00  0.000000  ( 0.000001  0.000017 -0.000002)
 32:   1017.72   0.000241    1.22  0.000074  (-0.000000  0.008601  0.000000)
 33:   1038.99   0.001134    5.73  0.000341  ( 0.018454 -0.000000  0.000000)
 34:   1062.55   0.000041    0.21  0.000012  (-0.000000  0.003478  0.000000)
 35:   1110.45   0.000239    1.21  0.000067  (-0.008193  0.000000 -0.000002)
 36:   1164.07   0.000001    0.01  0.000000  (-0.000002 -0.000000  0.000579)
 37:   1176.27   0.000191    0.96  0.000051  ( 0.007116 -0.000000  0.000000)
 38:   1194.17   0.000451    2.28  0.000118  (-0.000000  0.010853  0.000000)
 39:   1228.09   0.000143    0.73  0.000036  ( 0.006038 -0.000000 -0.000001)
 40:   1236.89   0.000096    0.48  0.000024  (-0.000000 -0.004913  0.000000)
 41:   1237.51   0.000000    0.00  0.000000  ( 0.000001  0.000192 -0.000000)
 42:   1251.77   0.000007    0.04  0.000002  ( 0.001354  0.000000 -0.000000)
 43:   1279.89   0.000238    1.20  0.000058  (-0.000000 -0.007615  0.000000)
 44:   1300.47   0.000230    1.16  0.000055  ( 0.007431  0.000000  0.000000)
 45:   1385.31   0.000165    0.83  0.000037  ( 0.006098  0.000000 -0.000001)
 46:   1392.21   0.003367   17.02  0.000755  (-0.000000  0.027474  0.000000)
 47:   1446.24   0.000548    2.77  0.000118  (-0.000000  0.010877  0.000000)
 48:   1454.69   0.000501    2.53  0.000108  ( 0.010369  0.000000 -0.000006)
 49:   1457.24   0.000246    1.24  0.000053  ( 0.000000 -0.007252 -0.000000)
 50:   1480.93   0.001212    6.13  0.000255  (-0.000000 -0.015983 -0.000000)
 51:   1494.67   0.000174    0.88  0.000036  (-0.006034  0.000000  0.000000)
 52:   1525.65   0.000848    4.29  0.000173  (-0.013172 -0.000000 -0.000001)
 53:   1622.05   0.001912    9.66  0.000368  (-0.000000 -0.019180 -0.000000)
 54:   1627.95   0.003876   19.59  0.000743  (-0.000001 -0.027257 -0.000000)
 55:   1643.11   0.002297   11.61  0.000436  (-0.020888  0.000001 -0.000002)
 56:   3022.80   0.003486   17.62  0.000360  (-0.018970  0.000000  0.000014)
 57:   3032.36   0.008890   44.93  0.000915  ( 0.000000  0.030247 -0.000000)
 58:   3054.95   0.000000    0.00  0.000000  (-0.000000  0.000034 -0.000000)
 59:   3074.18   0.004342   21.94  0.000441  (-0.000009 -0.000000 -0.020994)
 60:   3148.18   0.000297    1.50  0.000029  (-0.000000 -0.005422 -0.000000)
 61:   3148.44   0.000111    0.56  0.000011  ( 0.003311 -0.000000  0.000000)
 62:   3159.30   0.001067    5.39  0.000105  (-0.010264  0.000017  0.000000)
 63:   3159.44   0.006174   31.20  0.000610  (-0.000007 -0.024694 -0.000000)
 64:   3171.00   0.008209   41.49  0.000808  ( 0.028423  0.000000  0.000000)
 65:   3171.85   0.002047   10.34  0.000201  ( 0.000001 -0.014190 -0.000000)

--------------------------
THERMOCHEMISTRY AT 298.15K
--------------------------

Temperature         ...   298.15 K
Pressure            ...     1.00 atm
Total Mass          ...   154.21 AMU
Quasi RRHO          ...     True
Cut-Off Frequency   ...     1.00 cm^-1

Throughout the following assumptions are being made:
  (1) The electronic state is orbitally nondegenerate
  (2) There are no thermally accessible electronically excited states
  (3) Hindered rotations indicated by low frequency modes are not
      treated as such but are treated as vibrations and this may
      cause some error
  (4) All equations used are the standard statistical mechanics
      equations for an ideal gas
  (5) All vibrations are strictly harmonic

freq.      81.83  E(vib)   ...       0.48
freq.     164.48  E(vib)   ...       0.39
freq.     217.42  E(vib)   ...       0.34
freq.     234.90  E(vib)   ...       0.32
freq.     425.18  E(vib)   ...       0.18
freq.     444.30  E(vib)   ...       0.17
freq.     454.70  E(vib)   ...       0.16
freq.     472.90  E(vib)   ...       0.15
freq.     511.81  E(vib)   ...       0.14
freq.     555.98  E(vib)   ...       0.12
freq.     562.65  E(vib)   ...       0.11
freq.     630.97  E(vib)   ...       0.09
freq.     645.99  E(vib)   ...       0.09
freq.     670.55  E(vib)   ...       0.08
freq.     749.34  E(vib)   ...       0.06
freq.     763.56  E(vib)   ...       0.06
freq.     791.83  E(vib)   ...       0.05
freq.     820.39  E(vib)   ...       0.05
freq.     844.77  E(vib)   ...       0.04
freq.     853.33  E(vib)   ...       0.04
freq.     866.19  E(vib)   ...       0.04
freq.     892.28  E(vib)   ...       0.03
freq.     947.89  E(vib)   ...       0.03
freq.     952.10  E(vib)   ...       0.03
freq.     955.53  E(vib)   ...       0.03
freq.    1013.79  E(vib)   ...       0.02
freq.    1017.72  E(vib)   ...       0.02
freq.    1038.99  E(vib)   ...       0.02
freq.    1062.55  E(vib)   ...       0.02
freq.    1110.45  E(vib)   ...       0.02
freq.    1164.07  E(vib)   ...       0.01
freq.    1176.27  E(vib)   ...       0.01
freq.    1194.17  E(vib)   ...       0.01
freq.    1228.09  E(vib)   ...       0.01
freq.    1236.89  E(vib)   ...       0.01
freq.    1237.51  E(vib)   ...       0.01
freq.    1251.77  E(vib)   ...       0.01
freq.    1279.89  E(vib)   ...       0.01
freq.    1300.47  E(vib)   ...       0.01
freq.    1385.31  E(vib)   ...       0.00
freq.    1392.21  E(vib)   ...       0.00
freq.    1446.24  E(vib)   ...       0.00
freq.    1454.69  E(vib)   ...       0.00
freq.    1457.24  E(vib)   ...       0.00
freq.    1480.93  E(vib)   ...       0.00
freq.    1494.67  E(vib)   ...       0.00
freq.    1525.65  E(vib)   ...       0.00
freq.    1622.05  E(vib)   ...       0.00
freq.    1627.95  E(vib)   ...       0.00
freq.    1643.11  E(vib)   ...       0.00
freq.    3022.80  E(vib)   ...       0.00
freq.    3032.36  E(vib)   ...       0.00
freq.    3054.95  E(vib)   ...       0.00
freq.    3074.18  E(vib)   ...       0.00
freq.    3148.18  E(vib)   ...       0.00
freq.    3148.44  E(vib)   ...       0.00
freq.    3159.30  E(vib)   ...       0.00
freq.    3159.44  E(vib)   ...       0.00
freq.    3171.00  E(vib)   ...       0.00
freq.    3171.85  E(vib)   ...       0.00

------------
INNER ENERGY
------------

The inner energy is: U= E(el) + E(ZPE) + E(vib) + E(rot) + E(trans)
    E(el)   - is the total energy from the electronic structure calculation
              = E(kin-el) + E(nuc-el) + E(el-el) + E(nuc-nuc)
    E(ZPE)  - the the zero temperature vibrational energy from the frequency calculation
    E(vib)  - the the finite temperature correction to E(ZPE) due to population
              of excited vibrational states
    E(rot)  - is the rotational thermal energy
    E(trans)- is the translational thermal energy

Summary of contributions to the inner energy U:
Electronic energy                ...   -463.22432322 Eh
Zero point energy                ...      0.18110537 Eh     113.65 kcal/mol
Thermal vibrational correction   ...      0.00554270 Eh       3.48 kcal/mol
Thermal rotational correction    ...      0.00141627 Eh       0.89 kcal/mol
Thermal translational correction ...      0.00141627 Eh       0.89 kcal/mol
-----------------------------------------------------------------------
Total thermal energy                   -463.03484261 Eh

Summary of corrections to the electronic energy:
(perhaps to be used in another calculation)
Total thermal correction                  0.00837524 Eh       5.26 kcal/mol
Non-thermal (ZPE) correction              0.18110537 Eh     113.65 kcal/mol
-----------------------------------------------------------------------
Total correction                          0.18948061 Eh     118.90 kcal/mol

--------
ENTHALPY
--------

The enthalpy is H = U + kB*T
                kB is Boltzmann's constant
Total thermal energy              ...   -463.03484261 Eh
Thermal Enthalpy correction       ...      0.00094421 Eh       0.59 kcal/mol
-----------------------------------------------------------------------
Total Enthalpy                    ...   -463.03389840 Eh

Note: Rotational entropy computed according to Herzberg
Infrared and Raman Spectra, Chapter V,1, Van Nostrand Reinhold, 1945
Point Group:  C2, Symmetry Number:   2
Rotational constants in cm-1:     0.047122     0.039930     0.021788

Vibrational entropy computed according to the QRRHO of S. Grimme
Chem.Eur.J. 2012 18 9955 using a reference frequency of 100.0 cm-1

-------
ENTROPY
-------

The entropy contributions are T*S = T*(S(el)+S(vib)+S(rot)+S(trans))
     S(el)   - electronic entropy
     S(vib)  - vibrational entropy
     S(rot)  - rotational entropy
     S(trans)- translational entropy
The entropies will be listed as multiplied by the temperature to get
units of energy

Electronic entropy                ...      0.00000000 Eh      0.00 kcal/mol
Vibrational entropy               ...      0.00872455 Eh      5.47 kcal/mol
Rotational entropy                ...      0.01362543 Eh      8.55 kcal/mol
Translational entropy             ...      0.01948471 Eh     12.23 kcal/mol
-----------------------------------------------------------------------
Final entropy term                ...      0.04183470 Eh     26.25 kcal/mol

In case the symmetry of your molecule has not been determined correctly
or in case you have a reason to use a different symmetry number we print
out the resulting rotational entropy values for sn=1,12:

 non-linear molecules -----------------------------------
|  sn= 1 | S(rot)=       0.01427989 Eh      8.96 kcal/mol|
|  sn= 2 | S(rot)=       0.01362543 Eh      8.55 kcal/mol|
|  sn= 3 | S(rot)=       0.01324260 Eh      8.31 kcal/mol|
|  sn= 4 | S(rot)=       0.01297098 Eh      8.14 kcal/mol|
|  sn= 5 | S(rot)=       0.01276029 Eh      8.01 kcal/mol|

                             ****ORCA TERMINATED NORMALLY****
TOTAL RUN TIME: 0 days 0 hours 32 minutes 52 seconds 651 msec
