                         Program Version 6.0.0  -   RELEASE  -
|  1> ! r2SCAN-3c DEF2-TZVP FREQ
|  2> * xyzfile 0 1 vacuum_censo.xyz
|  3>
|  4>                          ****END OF INPUT****

CARTESIAN COORDINATES (ANGSTROEM)
---------------------------------
  C      2.419566    1.158871    0.000028
  C      1.270784    1.924541    0.000021
  C      0.000004    1.297776    0.000004
  C     -1.270773    1.924546   -0.000011
  C     -2.419559    1.158881   -0.000021
  C     -2.389692   -0.259085   -0.000002
  C     -1.170111   -0.893503    0.000016
  C      0.000001   -0.113527    0.000002
  C      1.170109   -0.893508   -0.000016
  C      2.389693   -0.259095    0.000003
  C      0.782251   -2.355896   -0.000117
  C     -0.782260   -2.355893    0.000113
  H      3.384598    1.656950    0.000045
  H      1.337290    3.008763    0.000030
  H     -1.337275    3.008769   -0.000017
  H     -3.384588    1.656965   -0.000040
  H     -3.321973   -0.816200    0.000007
  H      3.321972   -0.816215   -0.000009
  H      1.183600   -2.871789   -0.879081
  H      1.183897   -2.872053    0.878553
  H     -1.183908   -2.872045   -0.878558
  H     -1.183611   -2.871786    0.879076

 Total Charge           Charge          ....    0
 Multiplicity           Mult            ....    1
 Number of Electrons    NEL             ....   82
 Basis Dimension        Dim             ....  432

ORBITAL ENERGIES
----------------

  NO   OCC          E(Eh)            E(eV)
   0   2.0000     -10.043895      -273.3083
   1   2.0000     -10.043806      -273.3059
   2   2.0000     -10.042344      -273.2661
   3   2.0000     -10.042333      -273.2658
   4   2.0000     -10.041855      -273.2528
   5   2.0000     -10.037047      -273.1219
   6   2.0000     -10.037042      -273.1218
   7   2.0000     -10.033507      -273.0256
   8   2.0000     -10.033504      -273.0255
   9   2.0000     -10.033444      -273.0239
  10   2.0000     -10.033437      -273.0237
  11   2.0000     -10.029482      -272.9161
  12   2.0000      -0.853340       -23.2206
  13   2.0000      -0.785994       -21.3880
  14   2.0000      -0.782949       -21.3051
  15   2.0000      -0.707630       -19.2556
  16   2.0000      -0.695668       -18.9301
  17   2.0000      -0.685396       -18.6506
  18   2.0000      -0.615694       -16.7539
  19   2.0000      -0.582422       -15.8485
  20   2.0000      -0.562073       -15.2948
  21   2.0000      -0.541595       -14.7376
  22   2.0000      -0.478082       -13.0093
  23   2.0000      -0.465805       -12.6752
  24   2.0000      -0.449213       -12.2237
  25   2.0000      -0.437617       -11.9082
  26   2.0000      -0.415533       -11.3072
  27   2.0000      -0.401484       -10.9249
  28   2.0000      -0.379927       -10.3383
  29   2.0000      -0.373519       -10.1640
  30   2.0000      -0.362201        -9.8560
  31   2.0000      -0.357712        -9.7338
  32   2.0000      -0.349509        -9.5106
  33   2.0000      -0.328196        -8.9307
  34   2.0000      -0.322426        -8.7737
  35   2.0000      -0.299187        -8.1413
  36   2.0000      -0.298812        -8.1311
  37   2.0000      -0.294450        -8.0124
  38   2.0000      -0.258310        -7.0290
  39   2.0000      -0.228085        -6.2065
  40   2.0000      -0.191641        -5.2148
  41   0.0000      -0.060837        -1.6555
  42   0.0000      -0.037448        -1.0190
  43   0.0000      -0.001611        -0.0438
  44   0.0000       0.051188         1.3929
  45   0.0000       0.061775         1.6810

MULLIKEN ATOMIC CHARGES
-----------------------
   0 C :   -0.052702
   1 C :   -0.243245
   2 C :    0.086729
   3 C :   -0.243338
   4 C :   -0.052645
   5 C :   -0.209172
   6 C :   -0.000650
   7 C :    0.174518
   8 C :   -0.000565
   9 C :   -0.209173
  10 C :   -0.124084
  11 C :   -0.124105
  12 H :    0.106823
  13 H :    0.098292
  14 H :    0.098297
  15 H :    0.106828
  16 H :    0.101247
  17 H :    0.101248
  18 H :    0.096417
  19 H :    0.096431
  20 H :    0.096431
  21 H :    0.096418
Sum of atomic charges:    0.0000000

LOEWDIN ATOMIC CHARGES
----------------------
   0 C :   -0.135788
   1 C :   -0.109070
   2 C :   -0.099154
   3 C :   -0.109070
   4 C :   -0.135788
   5 C :   -0.122214
   6 C :   -0.096823
   7 C :   -0.039665
   8 C :   -0.096823
   9 C :   -0.122214
  10 C :   -0.179216
  11 C :   -0.179216
  12 H :    0.142840
  13 H :    0.144150
  14 H :    0.144150
  15 H :    0.142840
  16 H :    0.142233
  17 H :    0.142233
  18 H :    0.141652
  19 H :    0.141645
  20 H :    0.141645
  21 H :    0.141652

  Mayer bond orders larger than 0.100000
B(  0-C ,  1-C ) :   1.5078 B(  0-C ,  9-C ) :   1.2648 B(  0-C , 12-H ) :   0.9718
B(  1-C ,  2-C ) :   1.2088 B(  1-C , 13-H ) :   0.9875 B(  2-C ,  3-C ) :   1.2088
B(  2-C ,  7-C ) :   1.2457 B(  3-C ,  4-C ) :   1.5079 B(  3-C , 14-H ) :   0.9875
B(  4-C ,  5-C ) :   1.2648 B(  4-C , 15-H ) :   0.9718 B(  5-C ,  6-C ) :   1.4639
B(  5-C , 16-H ) :   0.9886 B(  6-C ,  7-C ) :   1.1557 B(  6-C , 11-C ) :   1.0551
B(  7-C ,  8-C ) :   1.1557 B(  8-C ,  9-C ) :   1.4640 B(  8-C , 10-C ) :   1.0550
B(  9-C , 17-H ) :   0.9886 B( 10-C , 11-C ) :   1.0648 B( 10-C , 18-H ) :   0.9322
B( 10-C , 19-H ) :   0.9323 B( 11-C , 20-H ) :   0.9323 B( 11-C , 21-H ) :   0.9322

Dispersion correction           -0.009226681
FINAL SINGLE POINT ENERGY      -463.224377997218

DIPOLE MOMENT
-------------

Method             : SCF
Type of density    : Electron Density
Multiplicity       :   1
Irrep              :   0
Energy             :  -463.2202274075940522 Eh
Relativity type    :
Basis              : AO
                                X                 Y                 Z
Electronic contribution:      0.000007656       3.177274705       0.000007343
Nuclear contribution   :     -0.000008684      -3.566217831      -0.000008580
                        -----------------------------------------
Total Dipole Moment    :     -0.000001028      -0.388943126      -0.000001236
                        -----------------------------------------
Magnitude (a.u.)       :      0.388943126
Magnitude (Debye)      :      0.988614859

VIBRATIONAL FREQUENCIES
-----------------------

Scaling factor for frequencies =  1.000000000  (already applied!)

     0:       0.00 cm**-1
     1:       0.00 cm**-1
     2:       0.00 cm**-1
     3:       0.00 cm**-1
     4:       0.00 cm**-1
     5:       0.00 cm**-1
     6:      92.98 cm**-1
     7:     160.95 cm**-1
     8:     217.87 cm**-1
     9:     233.34 cm**-1
    10:     424.63 cm**-1
    11:     443.26 cm**-1
    12:     454.89 cm**-1
    13:     471.35 cm**-1
    14:     512.52 cm**-1
    15:     556.11 cm**-1
    16:     561.66 cm**-1
    17:     630.16 cm**-1
    18:     646.80 cm**-1
    19:     670.34 cm**-1
    20:     749.04 cm**-1
    21:     763.94 cm**-1
    22:     791.60 cm**-1
    23:     821.43 cm**-1
    24:     844.60 cm**-1
    25:     853.28 cm**-1
    26:     866.79 cm**-1
    27:     892.88 cm**-1
    28:     947.91 cm**-1
    29:     947.93 cm**-1
    30:     955.60 cm**-1
    31:    1014.26 cm**-1
    32:    1017.00 cm**-1
    33:    1041.56 cm**-1
    34:    1064.99 cm**-1
    35:    1110.47 cm**-1
    36:    1163.75 cm**-1
    37:    1177.99 cm**-1
    38:    1194.97 cm**-1
    39:    1229.68 cm**-1
    40:    1237.02 cm**-1
    41:    1237.18 cm**-1
    42:    1254.79 cm**-1
    43:    1279.80 cm**-1
    44:    1301.64 cm**-1
    45:    1389.91 cm**-1
    46:    1395.70 cm**-1
    47:    1448.86 cm**-1
    48:    1455.62 cm**-1
    49:    1461.59 cm**-1
    50:    1481.88 cm**-1
    51:    1497.51 cm**-1
    52:    1529.42 cm**-1
    53:    1627.72 cm**-1
    54:    1631.72 cm**-1
    55:    1649.66 cm**-1
    56:    3019.09 cm**-1
    57:    3028.60 cm**-1
    58:    3050.94 cm**-1
    59:    3070.17 cm**-1
    60:    3149.67 cm**-1
    61:    3149.89 cm**-1
    62:    3159.72 cm**-1
    63:    3159.86 cm**-1
    64:    3172.57 cm**-1
    65:    3173.41 cm**-1

IR SPECTRUM
-----------

 Mode   freq       eps      Int      T**2         TX        TY        TZ
       cm**-1   L/(mol*cm) km/mol    a.u.
----------------------------------------------------------------------------
  6:     92.98   0.000000    0.00  0.000000  (-0.000002  0.000013 -0.000000)
  7:    160.95   0.000385    1.95  0.000747  (-0.000047  0.000006  0.027329)
  8:    217.87   0.001658    8.38  0.002375  ( 0.000052 -0.000006 -0.048739)
  9:    233.34   0.000000    0.00  0.000000  ( 0.000000 -0.000014  0.000000)
 10:    424.63   0.000377    1.91  0.000277  (-0.000000 -0.016648 -0.000000)
 11:    443.26   0.000000    0.00  0.000000  (-0.000001  0.000023  0.000001)
 12:    454.89   0.000157    0.80  0.000108  (-0.010393  0.000000  0.000001)
 13:    471.35   0.000047    0.24  0.000031  ( 0.000029  0.000001  0.005577)
 14:    512.52   0.000033    0.16  0.000020  (-0.004458 -0.000000  0.000002)
 15:    556.11   0.000179    0.90  0.000100  ( 0.000000  0.010016 -0.000001)
 16:    561.66   0.000214    1.08  0.000119  ( 0.000033 -0.000005 -0.010897)
 17:    630.16   0.000000    0.00  0.000000  ( 0.000004 -0.000014 -0.000001)
 18:    646.80   0.000002    0.01  0.000001  ( 0.000000 -0.000968 -0.000000)
 19:    670.34   0.000763    3.86  0.000355  ( 0.018846 -0.000000  0.000003)
 20:    749.04   0.000000    0.00  0.000000  ( 0.000001  0.000001  0.000001)
 21:    763.94   0.000873    4.41  0.000357  (-0.000005  0.000000  0.018888)
 22:    791.60   0.016461   83.19  0.006489  (-0.000012  0.000002 -0.080555)
 23:    821.43   0.000094    0.48  0.000036  (-0.000000  0.005988  0.000001)
 24:    844.60   0.000130    0.66  0.000048  ( 0.006925 -0.000000 -0.000051)
 25:    853.28   0.001773    8.96  0.000648  (-0.000017 -0.000000 -0.025466)
 26:    866.79   0.000000    0.00  0.000000  ( 0.000001  0.000005  0.000004)
 27:    892.88   0.000010    0.05  0.000004  (-0.000001 -0.000000 -0.001903)
 28:    947.91   0.000000    0.00  0.000000  ( 0.000000  0.000187 -0.000003)
 29:    947.93   0.000113    0.57  0.000037  (-0.000000  0.006092  0.000000)
 30:    955.60   0.000052    0.27  0.000017  (-0.000004  0.000000 -0.004140)
 31:   1014.26   0.000000    0.00  0.000000  (-0.000000 -0.000028  0.000001)
 32:   1017.00   0.000255    1.29  0.000078  ( 0.000000  0.008848  0.000000)
 33:   1041.56   0.001119    5.65  0.000335  (-0.018306  0.000000 -0.000000)
 34:   1064.99   0.000043    0.22  0.000013  ( 0.000000 -0.003570 -0.000000)
 35:   1110.47   0.000265    1.34  0.000074  ( 0.008630 -0.000000  0.000002)
 36:   1163.75   0.000001    0.01  0.000000  ( 0.000002  0.000000 -0.000565)
 37:   1177.99   0.000181    0.92  0.000048  (-0.006934  0.000000 -0.000000)
 38:   1194.97   0.000429    2.17  0.000112  ( 0.000000 -0.010581 -0.000000)
 39:   1229.68   0.000146    0.74  0.000037  (-0.006081  0.000000  0.000001)
 40:   1237.02   0.000096    0.48  0.000024  (-0.000000  0.004909  0.000000)
 41:   1237.18   0.000002    0.01  0.000001  (-0.000000 -0.000783  0.000000)
 42:   1254.79   0.000010    0.05  0.000002  ( 0.001567  0.000000 -0.000000)
 43:   1279.80   0.000240    1.21  0.000058  ( 0.000000  0.007648  0.000000)
 44:   1301.64   0.000219    1.11  0.000053  (-0.007251  0.000000 -0.000000)
 45:   1389.91   0.000176    0.89  0.000039  (-0.006284 -0.000000  0.000001)
 46:   1395.70   0.003479   17.58  0.000778  ( 0.000000 -0.027892 -0.000000)
 47:   1448.86   0.000450    2.27  0.000097  (-0.000000 -0.009843 -0.000000)
 48:   1455.62   0.000492    2.49  0.000106  (-0.010274  0.000000  0.000006)
 49:   1461.59   0.000359    1.81  0.000077  (-0.000000  0.008749  0.000000)
 50:   1481.88   0.001095    5.53  0.000231  (-0.000000  0.015184  0.000000)
 51:   1497.51   0.000178    0.90  0.000037  ( 0.006089 -0.000000 -0.000000)
 52:   1529.42   0.000854    4.31  0.000174  ( 0.013198  0.000000  0.000001)
 53:   1627.72   0.001977    9.99  0.000379  ( 0.000000  0.019469  0.000000)
 54:   1631.72   0.003721   18.80  0.000712  ( 0.000000  0.026676  0.000000)
 55:   1649.66   0.002249   11.36  0.000425  ( 0.020625 -0.000000  0.000002)
 56:   3019.09   0.003511   17.74  0.000363  ( 0.019049 -0.000000 -0.000013)
 57:   3028.60   0.008948   45.22  0.000922  (-0.000000 -0.030364 -0.000000)
 58:   3050.94   0.000000    0.00  0.000000  ( 0.000000 -0.000032  0.000000)
 59:   3070.17   0.004407   22.27  0.000448  ( 0.000009 -0.000000  0.021164)
 60:   3149.67   0.000193    0.98  0.000019  ( 0.000000  0.004377 -0.000000)
 61:   3149.89   0.000040    0.20  0.000004  (-0.001981  0.000000 -0.000000)
 62:   3159.72   0.001088    5.50  0.000107  ( 0.010366 -0.000014 -0.000000)
 63:   3159.86   0.006275   31.71  0.000620  ( 0.000006  0.024895  0.000000)
 64:   3172.57   0.008222   41.55  0.000809  (-0.028439 -0.000001 -0.000000)
 65:   3173.41   0.002171   10.97  0.000213  (-0.000002  0.014610  0.000000)

--------------------------
THERMOCHEMISTRY AT 298.15K
--------------------------

Temperature         ...   298.15 K
Pressure            ...     1.00 atm
Total Mass          ...   154.21 AMU
Quasi RRHO          ...     True
Cut-Off Frequency   ...     1.00 cm^-1

Throughout the following assumptions are being made:
  (1) The electronic state is orbitally nondegenerate
  (2) There are no thermally accessible electronically excited states
  (3) Hindered rotations indicated by low frequency modes are not
      treated as such but are treated as vibrations and this may
      cause some error
  (4) All equations used are the standard statistical mechanics
      equations for an ideal gas
  (5) All vibrations are strictly harmonic

freq.      92.98  E(vib)   ...       0.47
freq.     160.95  E(vib)   ...       0.39
freq.     217.87  E(vib)   ...       0.33
freq.     233.34  E(vib)   ...       0.32
freq.     424.63  E(vib)   ...       0.18
freq.     443.26  E(vib)   ...       0.17
freq.     454.89  E(vib)   ...       0.16
freq.     471.35  E(vib)   ...       0.15
freq.     512.52  E(vib)   ...       0.13
freq.     556.11  E(vib)   ...       0.12
freq.     561.66  E(vib)   ...       0.11
freq.     630.16  E(vib)   ...       0.09
freq.     646.80  E(vib)   ...       0.09
freq.     670.34  E(vib)   ...       0.08
freq.     749.04  E(vib)   ...       0.06
freq.     763.94  E(vib)   ...       0.06
freq.     791.60  E(vib)   ...       0.05
freq.     821.43  E(vib)   ...       0.05
freq.     844.60  E(vib)   ...       0.04
freq.     853.28  E(vib)   ...       0.04
freq.     866.79  E(vib)   ...       0.04
freq.     892.88  E(vib)   ...       0.03
freq.     947.91  E(vib)   ...       0.03
freq.     947.93  E(vib)   ...       0.03
freq.     955.60  E(vib)   ...       0.03
freq.    1014.26  E(vib)   ...       0.02
freq.    1017.00  E(vib)   ...       0.02
freq.    1041.56  E(vib)   ...       0.02
freq.    1064.99  E(vib)   ...       0.02
freq.    1110.47  E(vib)   ...       0.02
freq.    1163.75  E(vib)   ...       0.01
freq.    1177.99  E(vib)   ...       0.01
freq.    1194.97  E(vib)   ...       0.01
freq.    1229.68  E(vib)   ...       0.01
freq.    1237.02  E(vib)   ...       0.01
freq.    1237.18  E(vib)   ...       0.01
freq.    1254.79  E(vib)   ...       0.01
freq.    1279.80  E(vib)   ...       0.01
freq.    1301.64  E(vib)   ...       0.01
freq.    1389.91  E(vib)   ...       0.00
freq.    1395.70  E(vib)   ...       0.00
freq.    1448.86  E(vib)   ...       0.00
freq.    1455.62  E(vib)   ...       0.00
freq.    1461.59  E(vib)   ...       0.00
freq.    1481.88  E(vib)   ...       0.00
freq.    1497.51  E(vib)   ...       0.00
freq.    1529.42  E(vib)   ...       0.00
freq.    1627.72  E(vib)   ...       0.00
freq.    1631.72  E(vib)   ...       0.00
freq.    1649.66  E(vib)   ...       0.00
freq.    3019.09  E(vib)   ...       0.00
freq.    3028.60  E(vib)   ...       0.00
freq.    3050.94  E(vib)   ...       0.00
freq.    3070.17  E(vib)   ...       0.00
freq.    3149.67  E(vib)   ...       0.00
freq.    3149.89  E(vib)   ...       0.00
freq.    3159.72  E(vib)   ...       0.00
freq.    3159.86  E(vib)   ...       0.00
freq.    3172.57  E(vib)   ...       0.00
freq.    3173.41  E(vib)   ...       0.00

------------
INNER ENERGY
------------

The inner energy is: U= E(el) + E(ZPE) + E(vib) + E(rot) + E(trans)
    E(el)   - is the total energy from the electronic structure calculation
              = E(kin-el) + E(nuc-el) + E(el-el) + E(nuc-nuc)
    E(ZPE)  - the the zero temperature vibrational energy from the frequency calculation
    E(vib)  - the the finite temperature correction to E(ZPE) due to population
              of excited vibrational states
    E(rot)  - is the rotational thermal energy
    E(trans)- is the translational thermal energy

Summary of contributions to the inner energy U:
Electronic energy                ...   -463.22437800 Eh
Zero point energy                ...      0.18120666 Eh     113.71 kcal/mol
Thermal vibrational correction   ...      0.00552948 Eh       3.47 kcal/mol
Thermal rotational correction    ...      0.00141627 Eh       0.89 kcal/mol
Thermal translational correction ...      0.00141627 Eh       0.89 kcal/mol
-----------------------------------------------------------------------
Total thermal energy                   -463.03480932 Eh

Summary of corrections to the electronic energy:
(perhaps to be used in another calculation)
Total thermal correction                  0.00836202 Eh       5.25 kcal/mol
Non-thermal (ZPE) correction              0.18120666 Eh     113.71 kcal/mol
-----------------------------------------------------------------------
Total correction                          0.18956868 Eh     118.96 kcal/mol

--------
ENTHALPY
--------

The enthalpy is H = U + kB*T
                kB is Boltzmann's constant
Total thermal energy              ...   -463.03480932 Eh
Thermal Enthalpy correction       ...      0.00094421 Eh       0.59 kcal/mol
-----------------------------------------------------------------------
Total Enthalpy                    ...   -463.03386511 Eh

Note: Rotational entropy computed according to Herzberg
Infrared and Raman Spectra, Chapter V,1, Van Nostrand Reinhold, 1945
Point Group:  C2, Symmetry Number:   2
Rotational constants in cm-1:     0.047189     0.039956     0.021811

Vibrational entropy computed according to the QRRHO of S. Grimme
Chem.Eur.J. 2012 18 9955 using a reference frequency of 100.0 cm-1

-------
ENTROPY
-------

The entropy contributions are T*S = T*(S(el)+S(vib)+S(rot)+S(trans))
     S(el)   - electronic entropy
     S(vib)  - vibrational entropy
     S(rot)  - rotational entropy
     S(trans)- translational entropy
The entropies will be listed as multiplied by the temperature to get
units of energy

Electronic entropy                ...      0.00000000 Eh      0.00 kcal/mol
Vibrational entropy               ...      0.00870774 Eh      5.46 kcal/mol
Rotational entropy                ...      0.01362396 Eh      8.55 kcal/mol
Translational entropy             ...      0.01948471 Eh     12.23 kcal/mol
-----------------------------------------------------------------------
Final entropy term                ...      0.04181641 Eh     26.24 kcal/mol

In case the symmetry of your molecule has not been determined correctly
or in case you have a reason to use a different symmetry number we print
out the resulting rotational entropy values for sn=1,12:

 non-linear molecules -----------------------------------
|  sn= 1 | S(rot)=       0.01427842 Eh      8.96 kcal/mol|
|  sn= 2 | S(rot)=       0.01362396 Eh      8.55 kcal/mol|
|  sn= 3 | S(rot)=       0.01324113 Eh      8.31 kcal/mol|
|  sn= 4 | S(rot)=       0.01296951 Eh      8.14 kcal/mol|
|  sn= 5 | S(rot)=       0.01275882 Eh      8.01 kcal/mol|

                             ****ORCA TERMINATED NORMALLY****
TOTAL RUN TIME: 0 days 0 hours 32 minutes 10 seconds 993 msec
