                         Program Version 6.0.0  -   RELEASE  -
|  1> ! r2SCAN-3c DEF2-TZVP FREQ
|  2> * xyzfile 0 1 censo.xyz
|  3>
|  4>                          ****END OF INPUT****

CARTESIAN COORDINATES (ANGSTROEM)
---------------------------------
  C     -1.900796   -0.000000    0.000014
  C     -1.203596   -1.206672    0.000016
  C      0.190000   -1.217765    0.000001
  C      0.848249   -0.000000   -0.000013
  C      0.190000    1.217765   -0.000027
  C     -1.203596    1.206672   -0.000016
  F      2.209684   -0.000000   -0.000036
  H     -2.985593   -0.000000    0.000024
  H     -1.742720   -2.148530    0.000034
  H      0.755140   -2.143525    0.000006
  H      0.755140    2.143525   -0.000044
  H     -1.742720    2.148530   -0.000016

 Total Charge           Charge          ....    0
 Multiplicity           Mult            ....    1
 Number of Electrons    NEL             ....   50
 Basis Dimension        Dim             ....  247

ORBITAL ENERGIES
----------------

  NO   OCC          E(Eh)            E(eV)
   0   2.0000     -24.495728      -666.5626
   1   2.0000     -10.122159      -275.4380
   2   2.0000     -10.051235      -273.5080
   3   2.0000     -10.051232      -273.5079
   4   2.0000     -10.047608      -273.4093
   5   2.0000     -10.047600      -273.4091
   6   2.0000     -10.044206      -273.3167
   7   2.0000      -1.179639       -32.0996
   8   2.0000      -0.833856       -22.6904
   9   2.0000      -0.730219       -19.8703
  10   2.0000      -0.719889       -19.5892
  11   2.0000      -0.595078       -16.1929
  12   2.0000      -0.582957       -15.8631
  13   2.0000      -0.515247       -14.0206
  14   2.0000      -0.467723       -12.7274
  15   2.0000      -0.454525       -12.3683
  16   2.0000      -0.426743       -11.6123
  17   2.0000      -0.419099       -11.4043
  18   2.0000      -0.405788       -11.0420
  19   2.0000      -0.364394        -9.9157
  20   2.0000      -0.344809        -9.3827
  21   2.0000      -0.342091        -9.3088
  22   2.0000      -0.319011        -8.6807
  23   2.0000      -0.250224        -6.8089
  24   2.0000      -0.233958        -6.3663
  25   0.0000      -0.047277        -1.2865
  26   0.0000      -0.033631        -0.9151
  27   0.0000       0.045745         1.2448
  28   0.0000       0.093849         2.5538
  29   0.0000       0.095130         2.5886

MULLIKEN ATOMIC CHARGES
-----------------------
   0 C :   -0.133747
   1 C :   -0.087774
   2 C :   -0.192689
   3 C :    0.308365
   4 C :   -0.192669
   5 C :   -0.087795
   6 F :   -0.211227
   7 H :    0.113328
   8 H :    0.117740
   9 H :    0.124359
  10 H :    0.124365
  11 H :    0.117743
Sum of atomic charges:   -0.0000000

LOEWDIN ATOMIC CHARGES
----------------------
   0 C :   -0.149617
   1 C :   -0.132245
   2 C :   -0.120832
   3 C :   -0.248694
   4 C :   -0.120832
   5 C :   -0.132246
   6 F :    0.166713
   7 H :    0.144007
   8 H :    0.145414
   9 H :    0.151459
  10 H :    0.151459
  11 H :    0.145414

  Mayer bond orders larger than 0.100000
B(  0-C ,  1-C ) :   1.3967 B(  0-C ,  5-C ) :   1.3967 B(  0-C ,  7-H ) :   0.9672
B(  1-C ,  2-C ) :   1.3526 B(  1-C ,  8-H ) :   0.9612 B(  2-C ,  3-C ) :   1.3979
B(  2-C ,  9-H ) :   0.9713 B(  3-C ,  4-C ) :   1.3979 B(  3-C ,  6-F ) :   0.9893
B(  4-C ,  5-C ) :   1.3527 B(  4-C , 10-H ) :   0.9713 B(  5-C , 11-H ) :   0.9612

Dispersion correction           -0.003403761
FINAL SINGLE POINT ENERGY      -331.444313314346

DIPOLE MOMENT
-------------

Method             : SCF
Type of density    : Electron Density
Multiplicity       :   1
Irrep              :   0
Energy             :  -331.4437811201673867 Eh
Relativity type    :
Basis              : AO
                                X                 Y                 Z
Electronic contribution:      6.107134664      -0.000000170      -0.000066014
Nuclear contribution   :     -6.700954960       0.000000200       0.000074988
                        -----------------------------------------
Total Dipole Moment    :     -0.593820296       0.000000030       0.000008974
                        -----------------------------------------
Magnitude (a.u.)       :      0.593820296
Magnitude (Debye)      :      1.509371241

VIBRATIONAL FREQUENCIES
-----------------------

Scaling factor for frequencies =  1.000000000  (already applied!)

     0:       0.00 cm**-1
     1:       0.00 cm**-1
     2:       0.00 cm**-1
     3:       0.00 cm**-1
     4:       0.00 cm**-1
     5:       0.00 cm**-1
     6:     243.18 cm**-1
     7:     412.60 cm**-1
     8:     422.98 cm**-1
     9:     509.00 cm**-1
    10:     525.82 cm**-1
    11:     628.77 cm**-1
    12:     692.90 cm**-1
    13:     759.36 cm**-1
    14:     819.53 cm**-1
    15:     826.08 cm**-1
    16:     898.75 cm**-1
    17:     952.21 cm**-1
    18:     963.51 cm**-1
    19:    1023.99 cm**-1
    20:    1039.22 cm**-1
    21:    1088.80 cm**-1
    22:    1171.29 cm**-1
    23:    1178.74 cm**-1
    24:    1224.16 cm**-1
    25:    1324.38 cm**-1
    26:    1354.38 cm**-1
    27:    1482.86 cm**-1
    28:    1515.62 cm**-1
    29:    1622.71 cm**-1
    30:    1640.57 cm**-1
    31:    3162.63 cm**-1
    32:    3170.50 cm**-1
    33:    3182.16 cm**-1
    34:    3189.81 cm**-1
    35:    3192.60 cm**-1

IR SPECTRUM
-----------

 Mode   freq       eps      Int      T**2         TX        TY        TZ
       cm**-1   L/(mol*cm) km/mol    a.u.
----------------------------------------------------------------------------
  6:    243.18   0.000008    0.04  0.000011  ( 0.000000  0.000001 -0.003299)
  7:    412.60   0.000382    1.93  0.000289  ( 0.000000  0.016996 -0.000000)
  8:    422.98   0.000000    0.00  0.000000  ( 0.000005 -0.000001 -0.000000)
  9:    509.00   0.002262   11.43  0.001387  (-0.000006  0.000005 -0.037236)
 10:    525.82   0.001262    6.38  0.000749  (-0.027366 -0.000000 -0.000001)
 11:    628.77   0.000043    0.22  0.000021  ( 0.000000  0.004623 -0.000000)
 12:    692.90   0.003498   17.68  0.001576  ( 0.000010 -0.000006 -0.039694)
 13:    759.36   0.013952   70.51  0.005734  ( 0.000000 -0.000003  0.075722)
 14:    819.53   0.005984   30.24  0.002278  (-0.047733  0.000000 -0.000000)
 15:    826.08   0.000000    0.00  0.000000  (-0.000000 -0.000000 -0.000000)
 16:    898.75   0.001522    7.69  0.000528  ( 0.000000 -0.000002  0.022988)
 17:    952.21   0.000000    0.00  0.000000  (-0.000001 -0.000001 -0.000000)
 18:    963.51   0.000011    0.06  0.000004  (-0.000000  0.000000 -0.001916)
 19:   1023.99   0.000270    1.36  0.000082  ( 0.009070  0.000000  0.000000)
 20:   1039.22   0.000538    2.72  0.000161  ( 0.012707 -0.000000 -0.000000)
 21:   1088.80   0.001620    8.18  0.000464  ( 0.000000 -0.021545  0.000000)
 22:   1171.29   0.005178   26.17  0.001380  (-0.037142  0.000000  0.000001)
 23:   1178.74   0.000062    0.32  0.000017  ( 0.000000  0.004067 -0.000000)
 24:   1224.16   0.018450   93.24  0.004703  ( 0.068580 -0.000000 -0.000001)
 25:   1324.38   0.000141    0.71  0.000033  (-0.000000 -0.005772  0.000000)
 26:   1354.38   0.000020    0.10  0.000005  (-0.000000 -0.002144  0.000000)
 27:   1482.86   0.000241    1.22  0.000051  ( 0.000000  0.007115  0.000000)
 28:   1515.62   0.014781   74.70  0.003043  ( 0.055166  0.000000 -0.000001)
 29:   1622.71   0.008812   44.53  0.001695  ( 0.041165 -0.000000 -0.000000)
 30:   1640.57   0.001960    9.91  0.000373  ( 0.000000  0.019311 -0.000000)
 31:   3162.63   0.000022    0.11  0.000002  ( 0.001488 -0.000000  0.000000)
 32:   3170.50   0.001666    8.42  0.000164  ( 0.000000 -0.012806  0.000000)
 33:   3182.16   0.002820   14.25  0.000277  (-0.016631 -0.000000  0.000000)
 34:   3189.81   0.000857    4.33  0.000084  ( 0.000000 -0.009158  0.000000)
 35:   3192.60   0.000110    0.55  0.000011  (-0.003272 -0.000000 -0.000000)

--------------------------
THERMOCHEMISTRY AT 298.15K
--------------------------

Temperature         ...   298.15 K
Pressure            ...     1.00 atm
Total Mass          ...    96.10 AMU
Quasi RRHO          ...     True
Cut-Off Frequency   ...     1.00 cm^-1

Throughout the following assumptions are being made:
  (1) The electronic state is orbitally nondegenerate
  (2) There are no thermally accessible electronically excited states
  (3) Hindered rotations indicated by low frequency modes are not
      treated as such but are treated as vibrations and this may
      cause some error
  (4) All equations used are the standard statistical mechanics
      equations for an ideal gas
  (5) All vibrations are strictly harmonic

freq.     243.18  E(vib)   ...       0.31
freq.     412.60  E(vib)   ...       0.19
freq.     422.98  E(vib)   ...       0.18
freq.     509.00  E(vib)   ...       0.14
freq.     525.82  E(vib)   ...       0.13
freq.     628.77  E(vib)   ...       0.09
freq.     692.90  E(vib)   ...       0.07
freq.     759.36  E(vib)   ...       0.06
freq.     819.53  E(vib)   ...       0.05
freq.     826.08  E(vib)   ...       0.04
freq.     898.75  E(vib)   ...       0.03
freq.     952.21  E(vib)   ...       0.03
freq.     963.51  E(vib)   ...       0.03
freq.    1023.99  E(vib)   ...       0.02
freq.    1039.22  E(vib)   ...       0.02
freq.    1088.80  E(vib)   ...       0.02
freq.    1171.29  E(vib)   ...       0.01
freq.    1178.74  E(vib)   ...       0.01
freq.    1224.16  E(vib)   ...       0.01
freq.    1324.38  E(vib)   ...       0.01
freq.    1354.38  E(vib)   ...       0.01
freq.    1482.86  E(vib)   ...       0.00
freq.    1515.62  E(vib)   ...       0.00
freq.    1622.71  E(vib)   ...       0.00
freq.    1640.57  E(vib)   ...       0.00
freq.    3162.63  E(vib)   ...       0.00
freq.    3170.50  E(vib)   ...       0.00
freq.    3182.16  E(vib)   ...       0.00
freq.    3189.81  E(vib)   ...       0.00
freq.    3192.60  E(vib)   ...       0.00

------------
INNER ENERGY
------------

The inner energy is: U= E(el) + E(ZPE) + E(vib) + E(rot) + E(trans)
    E(el)   - is the total energy from the electronic structure calculation
              = E(kin-el) + E(nuc-el) + E(el-el) + E(nuc-nuc)
    E(ZPE)  - the the zero temperature vibrational energy from the frequency calculation
    E(vib)  - the the finite temperature correction to E(ZPE) due to population
              of excited vibrational states
    E(rot)  - is the rotational thermal energy
    E(trans)- is the translational thermal energy

Summary of contributions to the inner energy U:
Electronic energy                ...   -331.44431331 Eh
Zero point energy                ...      0.09162589 Eh      57.50 kcal/mol
Thermal vibrational correction   ...      0.00231907 Eh       1.46 kcal/mol
Thermal rotational correction    ...      0.00141627 Eh       0.89 kcal/mol
Thermal translational correction ...      0.00141627 Eh       0.89 kcal/mol
-----------------------------------------------------------------------
Total thermal energy                   -331.34753581 Eh

Summary of corrections to the electronic energy:
(perhaps to be used in another calculation)
Total thermal correction                  0.00515161 Eh       3.23 kcal/mol
Non-thermal (ZPE) correction              0.09162589 Eh      57.50 kcal/mol
-----------------------------------------------------------------------
Total correction                          0.09677751 Eh      60.73 kcal/mol

--------
ENTHALPY
--------

The enthalpy is H = U + kB*T
                kB is Boltzmann's constant
Total thermal energy              ...   -331.34753581 Eh
Thermal Enthalpy correction       ...      0.00094421 Eh       0.59 kcal/mol
-----------------------------------------------------------------------
Total Enthalpy                    ...   -331.34659160 Eh

Note: Rotational entropy computed according to Herzberg
Infrared and Raman Spectra, Chapter V,1, Van Nostrand Reinhold, 1945
Point Group:  C2v, Symmetry Number:   2
Rotational constants in cm-1:     0.189051     0.085692     0.058965

Vibrational entropy computed according to the QRRHO of S. Grimme
Chem.Eur.J. 2012 18 9955 using a reference frequency of 100.0 cm-1

-------
ENTROPY
-------

The entropy contributions are T*S = T*(S(el)+S(vib)+S(rot)+S(trans))
     S(el)   - electronic entropy
     S(vib)  - vibrational entropy
     S(rot)  - rotational entropy
     S(trans)- translational entropy
The entropies will be listed as multiplied by the temperature to get
units of energy

Electronic entropy                ...      0.00000000 Eh      0.00 kcal/mol
Vibrational entropy               ...      0.00331073 Eh      2.08 kcal/mol
Rotational entropy                ...      0.01213906 Eh      7.62 kcal/mol
Translational entropy             ...      0.01881496 Eh     11.81 kcal/mol
-----------------------------------------------------------------------
Final entropy term                ...      0.03426475 Eh     21.50 kcal/mol

In case the symmetry of your molecule has not been determined correctly
or in case you have a reason to use a different symmetry number we print
out the resulting rotational entropy values for sn=1,12:

 non-linear molecules -----------------------------------
|  sn= 1 | S(rot)=       0.01279352 Eh      8.03 kcal/mol|
|  sn= 2 | S(rot)=       0.01213906 Eh      7.62 kcal/mol|
|  sn= 3 | S(rot)=       0.01175623 Eh      7.38 kcal/mol|
|  sn= 4 | S(rot)=       0.01148460 Eh      7.21 kcal/mol|
|  sn= 5 | S(rot)=       0.01127392 Eh      7.07 kcal/mol|
|  sn= 6 | S(rot)=       0.01110177 Eh      6.97 kcal/mol|
|  sn= 7 | S(rot)=       0.01095622 Eh      6.88 kcal/mol|
|  sn= 8 | S(rot)=       0.01083015 Eh      6.80 kcal/mol|
|  sn= 9 | S(rot)=       0.01071894 Eh      6.73 kcal/mol|
|  sn=10 | S(rot)=       0.01061946 Eh      6.66 kcal/mol|
|  sn=11 | S(rot)=       0.01052947 Eh      6.61 kcal/mol|
|  sn=12 | S(rot)=       0.01044731 Eh      6.56 kcal/mol|
 linear molecules ---------------------------------------
|  Dinfh | S(rot)=       0.00799861 Eh      5.02 kcal/mol|
|  Cinfv | S(rot)=       0.00865307 Eh      5.43 kcal/mol|
 --------------------------------------------------------

-------------------
GIBBS FREE ENERGY
-------------------

The Gibbs free energy is G = H - T*S

Total enthalpy                    ...   -331.34659160 Eh
Total entropy correction          ...     -0.03426475 Eh    -21.50 kcal/mol
-----------------------------------------------------------------------
Final Gibbs free energy         ...   -331.38085634 Eh

For completeness - the Gibbs free energy minus the electronic energy
G-E(el)                           ...      0.06345697 Eh     39.82 kcal/mol

                             ****ORCA TERMINATED NORMALLY****
TOTAL RUN TIME: 0 days 0 hours 6 minutes 29 seconds 828 msec
