                         Program Version 6.0.0  -   RELEASE  -
|  1> ! r2SCAN-3c DEF2-TZVP FREQ
|  2> * xyzfile 0 1 vacuum_censo.xyz
|  3>
|  4>                          ****END OF INPUT****

CARTESIAN COORDINATES (ANGSTROEM)
---------------------------------
  C     -1.901064   -0.000097    0.000023
  C     -1.203109   -1.205073   -0.000031
  C      0.189100   -1.215329   -0.000041
  C      0.853821    0.000091    0.000005
  C      0.188943    1.215417    0.000027
  C     -1.203272    1.204968    0.000038
  F      2.206503    0.000169   -0.000037
  H     -2.985540   -0.000171    0.000035
  H     -1.742273   -2.146787   -0.000042
  H      0.756102   -2.139356   -0.000074
  H      0.755793    2.139538    0.000048
  H     -1.742554    2.146614    0.000080

 Total Charge           Charge          ....    0
 Multiplicity           Mult            ....    1
 Number of Electrons    NEL             ....   50
 Basis Dimension        Dim             ....  247

ORBITAL ENERGIES
----------------

  NO   OCC          E(Eh)            E(eV)
   0   2.0000     -24.498070      -666.6264
   1   2.0000     -10.121908      -275.4311
   2   2.0000     -10.050510      -273.4883
   3   2.0000     -10.050507      -273.4882
   4   2.0000     -10.046802      -273.3874
   5   2.0000     -10.046793      -273.3871
   6   2.0000     -10.043487      -273.2972
   7   2.0000      -1.184464       -32.2309
   8   2.0000      -0.833575       -22.6827
   9   2.0000      -0.729741       -19.8573
  10   2.0000      -0.719866       -19.5885
  11   2.0000      -0.595028       -16.1915
  12   2.0000      -0.583546       -15.8791
  13   2.0000      -0.516277       -14.0486
  14   2.0000      -0.468604       -12.7514
  15   2.0000      -0.455452       -12.3935
  16   2.0000      -0.429683       -11.6923
  17   2.0000      -0.418971       -11.4008
  18   2.0000      -0.404888       -11.0176
  19   2.0000      -0.365550        -9.9471
  20   2.0000      -0.345021        -9.3885
  21   2.0000      -0.342209        -9.3120
  22   2.0000      -0.317984        -8.6528
  23   2.0000      -0.249838        -6.7984
  24   2.0000      -0.233457        -6.3527
  25   0.0000      -0.046542        -1.2665
  26   0.0000      -0.033123        -0.9013
  27   0.0000       0.046948         1.2775
  28   0.0000       0.094134         2.5615
  29   0.0000       0.096436         2.6242

MULLIKEN ATOMIC CHARGES
-----------------------
   0 C :   -0.129674
   1 C :   -0.091937
   2 C :   -0.189880
   3 C :    0.307018
   4 C :   -0.189888
   5 C :   -0.091931
   6 F :   -0.208149
   7 H :    0.113263
   8 H :    0.117260
   9 H :    0.123329
  10 H :    0.123329
  11 H :    0.117260
Sum of atomic charges:    0.0000000

LOEWDIN ATOMIC CHARGES
----------------------
   0 C :   -0.149942
   1 C :   -0.132942
   2 C :   -0.121360
   3 C :   -0.256481
   4 C :   -0.121360
   5 C :   -0.132942
   6 F :    0.178032
   7 H :    0.143960
   8 H :    0.145501
   9 H :    0.151017
  10 H :    0.151017
  11 H :    0.145501

  Mayer bond orders larger than 0.100000
B(  0-C ,  1-C ) :   1.3966 B(  0-C ,  5-C ) :   1.3967 B(  0-C ,  7-H ) :   0.9671
B(  1-C ,  2-C ) :   1.3544 B(  1-C ,  8-H ) :   0.9615 B(  2-C ,  3-C ) :   1.3968
B(  2-C ,  9-H ) :   0.9709 B(  3-C ,  4-C ) :   1.3968 B(  3-C ,  6-F ) :   0.9948
B(  4-C ,  5-C ) :   1.3544 B(  4-C , 10-H ) :   0.9709 B(  5-C , 11-H ) :   0.9615

Dispersion correction           -0.003405111
FINAL SINGLE POINT ENERGY      -331.444447359915

DIPOLE MOMENT
-------------

Method             : SCF
Type of density    : Electron Density
Multiplicity       :   1
Irrep              :   0
Energy             :  -331.4439197309120004 Eh
Relativity type    :
Basis              : AO
                                X                 Y                 Z
Electronic contribution:      6.124387350       0.000385754      -0.000076790
Nuclear contribution   :     -6.695544023      -0.000417652       0.000093073
                        -----------------------------------------
Total Dipole Moment    :     -0.571156673      -0.000031898       0.000016283
                        -----------------------------------------
Magnitude (a.u.)       :      0.571156674
Magnitude (Debye)      :      1.451764893

VIBRATIONAL FREQUENCIES
-----------------------

Scaling factor for frequencies =  1.000000000  (already applied!)

     0:       0.00 cm**-1
     1:       0.00 cm**-1
     2:       0.00 cm**-1
     3:       0.00 cm**-1
     4:       0.00 cm**-1
     5:       0.00 cm**-1
     6:     238.66 cm**-1
     7:     410.81 cm**-1
     8:     421.29 cm**-1
     9:     505.35 cm**-1
    10:     527.45 cm**-1
    11:     629.11 cm**-1
    12:     691.68 cm**-1
    13:     758.79 cm**-1
    14:     824.89 cm**-1
    15:     825.10 cm**-1
    16:     897.95 cm**-1
    17:     951.90 cm**-1
    18:     963.30 cm**-1
    19:    1025.56 cm**-1
    20:    1040.48 cm**-1
    21:    1089.86 cm**-1
    22:    1174.62 cm**-1
    23:    1179.29 cm**-1
    24:    1241.62 cm**-1
    25:    1324.66 cm**-1
    26:    1357.42 cm**-1
    27:    1484.10 cm**-1
    28:    1519.53 cm**-1
    29:    1628.92 cm**-1
    30:    1639.38 cm**-1
    31:    3164.17 cm**-1
    32:    3171.52 cm**-1
    33:    3185.01 cm**-1
    34:    3193.28 cm**-1
    35:    3195.63 cm**-1

IR SPECTRUM
-----------

 Mode   freq       eps      Int      T**2         TX        TY        TZ
       cm**-1   L/(mol*cm) km/mol    a.u.
----------------------------------------------------------------------------
  6:    238.66   0.000005    0.03  0.000007  ( 0.000001 -0.000002 -0.002664)
  7:    410.81   0.000366    1.85  0.000278  (-0.000002  0.016673  0.000000)
  8:    421.29   0.000000    0.00  0.000000  (-0.000009 -0.000008 -0.000001)
  9:    505.35   0.002328   11.77  0.001438  (-0.000012 -0.000010 -0.037918)
 10:    527.45   0.001115    5.63  0.000659  ( 0.025679  0.000002  0.000003)
 11:    629.11   0.000041    0.21  0.000020  (-0.000001  0.004490  0.000000)
 12:    691.68   0.003527   17.82  0.001591  ( 0.000017 -0.000000 -0.039888)
 13:    758.79   0.013804   69.76  0.005677  ( 0.000000  0.000004  0.075347)
 14:    824.89   0.005357   27.07  0.002027  (-0.045018 -0.000003 -0.000001)
 15:    825.10   0.000000    0.00  0.000000  ( 0.000033  0.000000  0.000001)
 16:    897.95   0.001526    7.71  0.000530  (-0.000000  0.000001  0.023030)
 17:    951.90   0.000000    0.00  0.000000  ( 0.000001 -0.000001 -0.000000)
 18:    963.30   0.000010    0.05  0.000003  (-0.000000  0.000001 -0.001783)
 19:   1025.56   0.000233    1.18  0.000071  ( 0.008429  0.000001  0.000000)
 20:   1040.48   0.000520    2.63  0.000156  (-0.012484 -0.000000 -0.000000)
 21:   1089.86   0.001655    8.36  0.000474  (-0.000002  0.021769  0.000001)
 22:   1174.62   0.003494   17.66  0.000928  ( 0.030467 -0.000001 -0.000001)
 23:   1179.29   0.000061    0.31  0.000016  ( 0.000011  0.004033  0.000000)
 24:   1241.62   0.019966  100.90  0.005018  ( 0.070839  0.000005 -0.000001)
 25:   1324.66   0.000137    0.69  0.000032  (-0.000001  0.005684  0.000000)
 26:   1357.42   0.000029    0.15  0.000007  (-0.000004 -0.002579 -0.000000)
 27:   1484.10   0.000216    1.09  0.000045  ( 0.000005 -0.006735 -0.000000)
 28:   1519.53   0.015552   78.60  0.003194  (-0.056515 -0.000005  0.000001)
 29:   1628.92   0.009588   48.45  0.001837  ( 0.042859  0.000003 -0.000001)
 30:   1639.38   0.001951    9.86  0.000371  ( 0.000005 -0.019274 -0.000001)
 31:   3164.17   0.000048    0.24  0.000005  ( 0.002170 -0.000002  0.000000)
 32:   3171.52   0.001746    8.82  0.000172  ( 0.000001 -0.013107 -0.000000)
 33:   3185.01   0.002966   14.99  0.000291  ( 0.017046 -0.000001 -0.000000)
 34:   3193.28   0.000887    4.48  0.000087  (-0.000003 -0.009311 -0.000000)
 35:   3195.63   0.000025    0.13  0.000002  ( 0.001572 -0.000005  0.000000)

--------------------------
THERMOCHEMISTRY AT 298.15K
--------------------------

Temperature         ...   298.15 K
Pressure            ...     1.00 atm
Total Mass          ...    96.10 AMU
Quasi RRHO          ...     True
Cut-Off Frequency   ...     1.00 cm^-1

Throughout the following assumptions are being made:
  (1) The electronic state is orbitally nondegenerate
  (2) There are no thermally accessible electronically excited states
  (3) Hindered rotations indicated by low frequency modes are not
      treated as such but are treated as vibrations and this may
      cause some error
  (4) All equations used are the standard statistical mechanics
      equations for an ideal gas
  (5) All vibrations are strictly harmonic

freq.     238.66  E(vib)   ...       0.32
freq.     410.81  E(vib)   ...       0.19
freq.     421.29  E(vib)   ...       0.18
freq.     505.35  E(vib)   ...       0.14
freq.     527.45  E(vib)   ...       0.13
freq.     629.11  E(vib)   ...       0.09
freq.     691.68  E(vib)   ...       0.07
freq.     758.79  E(vib)   ...       0.06
freq.     824.89  E(vib)   ...       0.04
freq.     825.10  E(vib)   ...       0.04
freq.     897.95  E(vib)   ...       0.03
freq.     951.90  E(vib)   ...       0.03
freq.     963.30  E(vib)   ...       0.03
freq.    1025.56  E(vib)   ...       0.02
freq.    1040.48  E(vib)   ...       0.02
freq.    1089.86  E(vib)   ...       0.02
freq.    1174.62  E(vib)   ...       0.01
freq.    1179.29  E(vib)   ...       0.01
freq.    1241.62  E(vib)   ...       0.01
freq.    1324.66  E(vib)   ...       0.01
freq.    1357.42  E(vib)   ...       0.01
freq.    1484.10  E(vib)   ...       0.00
freq.    1519.53  E(vib)   ...       0.00
freq.    1628.92  E(vib)   ...       0.00
freq.    1639.38  E(vib)   ...       0.00
freq.    3164.17  E(vib)   ...       0.00
freq.    3171.52  E(vib)   ...       0.00
freq.    3185.01  E(vib)   ...       0.00
freq.    3193.28  E(vib)   ...       0.00
freq.    3195.63  E(vib)   ...       0.00

------------
INNER ENERGY
------------

The inner energy is: U= E(el) + E(ZPE) + E(vib) + E(rot) + E(trans)
    E(el)   - is the total energy from the electronic structure calculation
              = E(kin-el) + E(nuc-el) + E(el-el) + E(nuc-nuc)
    E(ZPE)  - the the zero temperature vibrational energy from the frequency calculation
    E(vib)  - the the finite temperature correction to E(ZPE) due to population
              of excited vibrational states
    E(rot)  - is the rotational thermal energy
    E(trans)- is the translational thermal energy

Summary of contributions to the inner energy U:
Electronic energy                ...   -331.44444736 Eh
Zero point energy                ...      0.09172204 Eh      57.56 kcal/mol
Thermal vibrational correction   ...      0.00232783 Eh       1.46 kcal/mol
Thermal rotational correction    ...      0.00141627 Eh       0.89 kcal/mol
Thermal translational correction ...      0.00141627 Eh       0.89 kcal/mol
-----------------------------------------------------------------------
Total thermal energy                   -331.34756495 Eh

Summary of corrections to the electronic energy:
(perhaps to be used in another calculation)
Total thermal correction                  0.00516037 Eh       3.24 kcal/mol
Non-thermal (ZPE) correction              0.09172204 Eh      57.56 kcal/mol
-----------------------------------------------------------------------
Total correction                          0.09688241 Eh      60.79 kcal/mol

--------
ENTHALPY
--------

The enthalpy is H = U + kB*T
                kB is Boltzmann's constant
Total thermal energy              ...   -331.34756495 Eh
Thermal Enthalpy correction       ...      0.00094421 Eh       0.59 kcal/mol
-----------------------------------------------------------------------
Total Enthalpy                    ...   -331.34662074 Eh

Note: Rotational entropy computed according to Herzberg
Infrared and Raman Spectra, Chapter V,1, Van Nostrand Reinhold, 1945
Point Group:  C2v, Symmetry Number:   2
Rotational constants in cm-1:     0.189660     0.085767     0.059060

Vibrational entropy computed according to the QRRHO of S. Grimme
Chem.Eur.J. 2012 18 9955 using a reference frequency of 100.0 cm-1

-------
ENTROPY
-------

The entropy contributions are T*S = T*(S(el)+S(vib)+S(rot)+S(trans))
     S(el)   - electronic entropy
     S(vib)  - vibrational entropy
     S(rot)  - rotational entropy
     S(trans)- translational entropy
The entropies will be listed as multiplied by the temperature to get
units of energy

Electronic entropy                ...      0.00000000 Eh      0.00 kcal/mol
Vibrational entropy               ...      0.00333169 Eh      2.09 kcal/mol
Rotational entropy                ...      0.01213637 Eh      7.62 kcal/mol
Translational entropy             ...      0.01881496 Eh     11.81 kcal/mol
-----------------------------------------------------------------------
Final entropy term                ...      0.03428302 Eh     21.51 kcal/mol

In case the symmetry of your molecule has not been determined correctly
or in case you have a reason to use a different symmetry number we print
out the resulting rotational entropy values for sn=1,12:

 non-linear molecules -----------------------------------
|  sn= 1 | S(rot)=       0.01279082 Eh      8.03 kcal/mol|
|  sn= 2 | S(rot)=       0.01213637 Eh      7.62 kcal/mol|
|  sn= 3 | S(rot)=       0.01175353 Eh      7.38 kcal/mol|
|  sn= 4 | S(rot)=       0.01148191 Eh      7.20 kcal/mol|
|  sn= 5 | S(rot)=       0.01127122 Eh      7.07 kcal/mol|
|  sn= 6 | S(rot)=       0.01109908 Eh      6.96 kcal/mol|
|  sn= 7 | S(rot)=       0.01095353 Eh      6.87 kcal/mol|
|  sn= 8 | S(rot)=       0.01082745 Eh      6.79 kcal/mol|
|  sn= 9 | S(rot)=       0.01071624 Eh      6.72 kcal/mol|
|  sn=10 | S(rot)=       0.01061676 Eh      6.66 kcal/mol|
|  sn=11 | S(rot)=       0.01052677 Eh      6.61 kcal/mol|
|  sn=12 | S(rot)=       0.01044462 Eh      6.55 kcal/mol|
 linear molecules ---------------------------------------
|  Dinfh | S(rot)=       0.00799709 Eh      5.02 kcal/mol|
|  Cinfv | S(rot)=       0.00865155 Eh      5.43 kcal/mol|
 --------------------------------------------------------

-------------------
GIBBS FREE ENERGY
-------------------

The Gibbs free energy is G = H - T*S

Total enthalpy                    ...   -331.34662074 Eh
Total entropy correction          ...     -0.03428302 Eh    -21.51 kcal/mol
-----------------------------------------------------------------------
Final Gibbs free energy         ...   -331.38090376 Eh

For completeness - the Gibbs free energy minus the electronic energy
G-E(el)                           ...      0.06354360 Eh     39.87 kcal/mol

                             ****ORCA TERMINATED NORMALLY****
TOTAL RUN TIME: 0 days 0 hours 6 minutes 26 seconds 415 msec
