                         Program Version 6.0.0  -   RELEASE  -
|  1> ! r2SCAN-3c DEF2-TZVP FREQ
|  2> * xyzfile 0 1 censo.xyz
|  3>
|  4>                          ****END OF INPUT****

CARTESIAN COORDINATES (ANGSTROEM)
---------------------------------
  C      0.176769    0.376194   -0.559646
  H      0.202556    0.356365   -1.650222
  C      1.238920   -0.586455   -0.015296
  F      2.460531   -0.207626   -0.437157
  F      1.258747   -0.631812    1.325812
  F      1.015013   -1.830648   -0.475504
  Cl     0.524011    2.033674   -0.002448
  Br    -1.603133   -0.220108   -0.007577

 Total Charge           Charge          ....    0
 Multiplicity           Mult            ....    1
 Number of Electrons    NEL             ....   92
 Basis Dimension        Dim             ....  246

ORBITAL ENERGIES
----------------

  NO   OCC          E(Eh)            E(eV)
   0   2.0000    -482.254090    -13122.8009
   1   2.0000    -101.221460     -2754.3760
   2   2.0000     -62.325315     -1695.9581
   3   2.0000     -56.106688     -1526.7406
   4   2.0000     -56.102677     -1526.6314
   5   2.0000     -56.102211     -1526.6188
   6   2.0000     -24.541811      -667.8166
   7   2.0000     -24.541220      -667.8006
   8   2.0000     -24.539120      -667.7434
   9   2.0000     -10.312225      -280.6099
  10   2.0000     -10.191710      -277.3305
  11   2.0000      -9.397301      -255.7135
  12   2.0000      -8.658265      -235.6034
  13   2.0000      -7.142937      -194.3692
  14   2.0000      -7.131844      -194.0673
  15   2.0000      -7.131548      -194.0593
  16   2.0000      -6.465890      -175.9458
  17   2.0000      -6.452084      -175.5701
  18   2.0000      -6.451802      -175.5625
  19   2.0000      -2.563264       -69.7500
  20   2.0000      -2.560110       -69.6641
  21   2.0000      -2.559891       -69.6582
  22   2.0000      -2.549360       -69.3716
  23   2.0000      -2.549347       -69.3712
  24   2.0000      -1.294934       -35.2370
  25   2.0000      -1.209014       -32.8990
  26   2.0000      -1.207888       -32.8683
  27   2.0000      -0.879911       -23.9436
  28   2.0000      -0.780205       -21.2304
  29   2.0000      -0.723628       -19.6909
  30   2.0000      -0.639663       -17.4061
  31   2.0000      -0.579985       -15.7822
  32   2.0000      -0.578098       -15.7308
  33   2.0000      -0.542001       -14.7486
  34   2.0000      -0.466698       -12.6995
  35   2.0000      -0.451683       -12.2909
  36   2.0000      -0.446224       -12.1424
  37   2.0000      -0.434587       -11.8257
  38   2.0000      -0.406560       -11.0631
  39   2.0000      -0.402078       -10.9411
  40   2.0000      -0.394617       -10.7381
  41   2.0000      -0.390284       -10.6202
  42   2.0000      -0.318882        -8.6772
  43   2.0000      -0.313007        -8.5174
  44   2.0000      -0.289185        -7.8691
  45   2.0000      -0.286106        -7.7853
  46   0.0000      -0.081587        -2.2201
  47   0.0000      -0.040921        -1.1135
  48   0.0000       0.037746         1.0271
  49   0.0000       0.090822         2.4714
  50   0.0000       0.110259         3.0003

MULLIKEN ATOMIC CHARGES
-----------------------
   0 C :   -0.011282
   1 H :    0.159347
   2 C :    0.448287
   3 F :   -0.157351
   4 F :   -0.155650
   5 F :   -0.157086
   6 Cl:   -0.072730
   7 Br:   -0.053536
Sum of atomic charges:   -0.0000000

LOEWDIN ATOMIC CHARGES
----------------------
   0 C :   -0.679734
   1 H :    0.143013
   2 C :   -0.738452
   3 F :    0.202763
   4 F :    0.210638
   5 F :    0.205633
   6 Cl:    0.359786
   7 Br:    0.296353

  Mayer bond orders larger than 0.100000
B(  0-C ,  1-H ) :   0.9333 B(  0-C ,  2-C ) :   0.9625 B(  0-C ,  6-Cl) :   1.0825
B(  0-C ,  7-Br) :   1.0537 B(  2-C ,  3-F ) :   1.1229 B(  2-C ,  4-F ) :   1.1403
B(  2-C ,  5-F ) :   1.1229

Dispersion correction           -0.002407083
FINAL SINGLE POINT ENERGY     -3410.670302456308

DIPOLE MOMENT
-------------

Method             : SCF
Type of density    : Electron Density
Multiplicity       :   1
Irrep              :   0
Energy             : -3410.6788602284273111 Eh
Relativity type    :
Basis              : AO
                                X                 Y                 Z
Electronic contribution:    -10.001781734      -2.088314317       1.464423329
Nuclear contribution   :      9.836076207       2.224729535      -1.946570851
                        -----------------------------------------
Total Dipole Moment    :     -0.165705527       0.136415218      -0.482147522
                        -----------------------------------------
Magnitude (a.u.)       :      0.527762888
Magnitude (Debye)      :      1.341466654

VIBRATIONAL FREQUENCIES
-----------------------

Scaling factor for frequencies =  1.000000000  (already applied!)

     0:       0.00 cm**-1
     1:       0.00 cm**-1
     2:       0.00 cm**-1
     3:       0.00 cm**-1
     4:       0.00 cm**-1
     5:       0.00 cm**-1
     6:      79.95 cm**-1
     7:     160.71 cm**-1
     8:     201.57 cm**-1
     9:     230.68 cm**-1
    10:     303.95 cm**-1
    11:     356.63 cm**-1
    12:     511.53 cm**-1
    13:     540.50 cm**-1
    14:     656.52 cm**-1
    15:     698.12 cm**-1
    16:     756.34 cm**-1
    17:     847.84 cm**-1
    18:    1104.67 cm**-1
    19:    1151.18 cm**-1
    20:    1189.97 cm**-1
    21:    1241.56 cm**-1
    22:    1302.11 cm**-1
    23:    3120.43 cm**-1

IR SPECTRUM
-----------

 Mode   freq       eps      Int      T**2         TX        TY        TZ
       cm**-1   L/(mol*cm) km/mol    a.u.
----------------------------------------------------------------------------
  6:     79.95   0.000000    0.00  0.000002  ( 0.000456 -0.001176  0.000187)
  7:    160.71   0.000112    0.57  0.000218  ( 0.010346  0.009902 -0.003605)
  8:    201.57   0.000057    0.29  0.000088  (-0.005648 -0.002679 -0.006983)
  9:    230.68   0.000098    0.49  0.000132  ( 0.002652  0.003437  0.010660)
 10:    303.95   0.000308    1.56  0.000316  ( 0.008468  0.014987 -0.004474)
 11:    356.63   0.000093    0.47  0.000081  ( 0.008780  0.001590  0.001275)
 12:    511.53   0.000779    3.94  0.000475  ( 0.007896  0.006778 -0.019158)
 13:    540.50   0.001847    9.34  0.001067  (-0.025040 -0.020357 -0.005019)
 14:    656.52   0.005446   27.52  0.002589  (-0.037786  0.027936 -0.019505)
 15:    698.12   0.007962   40.24  0.003559  ( 0.054979  0.020871 -0.010038)
 16:    756.34   0.020131  101.73  0.008306  ( 0.048682  0.076423  0.009776)
 17:    847.84   0.003363   17.00  0.001238  ( 0.015486 -0.027672  0.015245)
 18:   1104.67   0.041004  207.22  0.011583  ( 0.066697 -0.028933 -0.079358)
 19:   1151.18   0.042469  214.62  0.011513  (-0.063480 -0.085426 -0.013617)
 20:   1189.97   0.001403    7.09  0.000368  (-0.002371  0.012862  0.014027)
 21:   1241.56   0.037100  187.49  0.009325  ( 0.057199 -0.042626  0.065088)
 22:   1302.11   0.013361   67.52  0.003202  ( 0.041510 -0.032454 -0.020636)
 23:   3120.43   0.000686    3.47  0.000069  ( 0.004089 -0.005310  0.004863)

--------------------------
THERMOCHEMISTRY AT 298.15K
--------------------------

Temperature         ...   298.15 K
Pressure            ...     1.00 atm
Total Mass          ...   197.38 AMU
Quasi RRHO          ...     True
Cut-Off Frequency   ...     1.00 cm^-1

Throughout the following assumptions are being made:
  (1) The electronic state is orbitally nondegenerate
  (2) There are no thermally accessible electronically excited states
  (3) Hindered rotations indicated by low frequency modes are not
      treated as such but are treated as vibrations and this may
      cause some error
  (4) All equations used are the standard statistical mechanics
      equations for an ideal gas
  (5) All vibrations are strictly harmonic

freq.      79.95  E(vib)   ...       0.49
freq.     160.71  E(vib)   ...       0.39
freq.     201.57  E(vib)   ...       0.35
freq.     230.68  E(vib)   ...       0.32
freq.     303.95  E(vib)   ...       0.26
freq.     356.63  E(vib)   ...       0.22
freq.     511.53  E(vib)   ...       0.14
freq.     540.50  E(vib)   ...       0.12
freq.     656.52  E(vib)   ...       0.08
freq.     698.12  E(vib)   ...       0.07
freq.     756.34  E(vib)   ...       0.06
freq.     847.84  E(vib)   ...       0.04
freq.    1104.67  E(vib)   ...       0.02
freq.    1151.18  E(vib)   ...       0.01
freq.    1189.97  E(vib)   ...       0.01
freq.    1241.56  E(vib)   ...       0.01
freq.    1302.11  E(vib)   ...       0.01
freq.    3120.43  E(vib)   ...       0.00

------------
INNER ENERGY
------------

The inner energy is: U= E(el) + E(ZPE) + E(vib) + E(rot) + E(trans)
    E(el)   - is the total energy from the electronic structure calculation
              = E(kin-el) + E(nuc-el) + E(el-el) + E(nuc-nuc)
    E(ZPE)  - the the zero temperature vibrational energy from the frequency calculation
    E(vib)  - the the finite temperature correction to E(ZPE) due to population
              of excited vibrational states
    E(rot)  - is the rotational thermal energy
    E(trans)- is the translational thermal energy

Summary of contributions to the inner energy U:
Electronic energy                ...  -3410.67030246 Eh
Zero point energy                ...      0.03292924 Eh      20.66 kcal/mol
Thermal vibrational correction   ...      0.00414216 Eh       2.60 kcal/mol
Thermal rotational correction    ...      0.00141627 Eh       0.89 kcal/mol
Thermal translational correction ...      0.00141627 Eh       0.89 kcal/mol
-----------------------------------------------------------------------
Total thermal energy                  -3410.63039851 Eh

Summary of corrections to the electronic energy:
(perhaps to be used in another calculation)
Total thermal correction                  0.00697471 Eh       4.38 kcal/mol
Non-thermal (ZPE) correction              0.03292924 Eh      20.66 kcal/mol
-----------------------------------------------------------------------
Total correction                          0.03990395 Eh      25.04 kcal/mol

--------
ENTHALPY
--------

The enthalpy is H = U + kB*T
                kB is Boltzmann's constant
Total thermal energy              ...  -3410.63039851 Eh
Thermal Enthalpy correction       ...      0.00094421 Eh       0.59 kcal/mol
-----------------------------------------------------------------------
Total Enthalpy                    ...  -3410.62945430 Eh

Note: Only C1 symmetry has been detected, increase convergence thresholds
      if your molecule has a higher symmetry. Symmetry factor of 1.0 is
      used for the rotational entropy correction.

Note: Rotational entropy computed according to Herzberg
Infrared and Raman Spectra, Chapter V,1, Van Nostrand Reinhold, 1945
Point Group:  C1, Symmetry Number:   1
Rotational constants in cm-1:     0.061010     0.037760     0.026881

Vibrational entropy computed according to the QRRHO of S. Grimme
Chem.Eur.J. 2012 18 9955 using a reference frequency of 100.0 cm-1

-------
ENTROPY
-------

The entropy contributions are T*S = T*(S(el)+S(vib)+S(rot)+S(trans))
     S(el)   - electronic entropy
     S(vib)  - vibrational entropy
     S(rot)  - rotational entropy
     S(trans)- translational entropy
The entropies will be listed as multiplied by the temperature to get
units of energy

Electronic entropy                ...      0.00000000 Eh      0.00 kcal/mol
Vibrational entropy               ...      0.00706738 Eh      4.43 kcal/mol
Rotational entropy                ...      0.01408516 Eh      8.84 kcal/mol
Translational entropy             ...      0.01983423 Eh     12.45 kcal/mol
-----------------------------------------------------------------------
Final entropy term                ...      0.04098677 Eh     25.72 kcal/mol

In case the symmetry of your molecule has not been determined correctly
or in case you have a reason to use a different symmetry number we print
out the resulting rotational entropy values for sn=1,12:

 non-linear molecules -----------------------------------
|  sn= 1 | S(rot)=       0.01408516 Eh      8.84 kcal/mol|
|  sn= 2 | S(rot)=       0.01343070 Eh      8.43 kcal/mol|
|  sn= 3 | S(rot)=       0.01304787 Eh      8.19 kcal/mol|
|  sn= 4 | S(rot)=       0.01277625 Eh      8.02 kcal/mol|
|  sn= 5 | S(rot)=       0.01256556 Eh      7.88 kcal/mol|
|  sn= 6 | S(rot)=       0.01239341 Eh      7.78 kcal/mol|
|  sn= 7 | S(rot)=       0.01224787 Eh      7.69 kcal/mol|
|  sn= 8 | S(rot)=       0.01212179 Eh      7.61 kcal/mol|
|  sn= 9 | S(rot)=       0.01201058 Eh      7.54 kcal/mol|
|  sn=10 | S(rot)=       0.01191110 Eh      7.47 kcal/mol|
|  sn=11 | S(rot)=       0.01182111 Eh      7.42 kcal/mol|
|  sn=12 | S(rot)=       0.01173896 Eh      7.37 kcal/mol|
 linear molecules ---------------------------------------
|  Dinfh | S(rot)=       0.00874028 Eh      5.48 kcal/mol|
|  Cinfv | S(rot)=       0.00939473 Eh      5.90 kcal/mol|
 --------------------------------------------------------

-------------------
GIBBS FREE ENERGY
-------------------

The Gibbs free energy is G = H - T*S

Total enthalpy                    ...  -3410.62945430 Eh
Total entropy correction          ...     -0.04098677 Eh    -25.72 kcal/mol
-----------------------------------------------------------------------
Final Gibbs free energy         ...  -3410.67044106 Eh

For completeness - the Gibbs free energy minus the electronic energy
G-E(el)                           ...     -0.00013861 Eh     -0.09 kcal/mol

                             ****ORCA TERMINATED NORMALLY****
TOTAL RUN TIME: 0 days 0 hours 3 minutes 49 seconds 553 msec
