                         Program Version 6.0.0  -   RELEASE  -
|  1> ! r2SCAN-3c DEF2-TZVP FREQ
|  2> * xyzfile 0 1 vacuum_censo.xyz
|  3>
|  4>                          ****END OF INPUT****

CARTESIAN COORDINATES (ANGSTROEM)
---------------------------------
  C      0.174460    0.377928   -0.546440
  H      0.200089    0.352305   -1.636304
  C      1.246512   -0.581812   -0.008024
  F      2.460600   -0.190587   -0.443172
  F      1.272533   -0.633223    1.327773
  F      1.025400   -1.822480   -0.482169
  Cl     0.509561    2.039502   -0.004723
  Br    -1.601588   -0.233383   -0.012302

 Total Charge           Charge          ....    0
 Multiplicity           Mult            ....    1
 Number of Electrons    NEL             ....   92
 Basis Dimension        Dim             ....  246

ORBITAL ENERGIES
----------------

  NO   OCC          E(Eh)            E(eV)
   0   2.0000    -482.253848    -13122.7944
   1   2.0000    -101.221494     -2754.3769
   2   2.0000     -62.325086     -1695.9518
   3   2.0000     -56.106453     -1526.7342
   4   2.0000     -56.102445     -1526.6252
   5   2.0000     -56.101983     -1526.6126
   6   2.0000     -24.541527      -667.8089
   7   2.0000     -24.541468      -667.8073
   8   2.0000     -24.540972      -667.7938
   9   2.0000     -10.312373      -280.6139
  10   2.0000     -10.190658      -277.3019
  11   2.0000      -9.397362      -255.7152
  12   2.0000      -8.658064      -235.5979
  13   2.0000      -7.142980      -194.3704
  14   2.0000      -7.131910      -194.0691
  15   2.0000      -7.131615      -194.0611
  16   2.0000      -6.465648      -175.9392
  17   2.0000      -6.451907      -175.5653
  18   2.0000      -6.451620      -175.5575
  19   2.0000      -2.563041       -69.7439
  20   2.0000      -2.559900       -69.6584
  21   2.0000      -2.559682       -69.6525
  22   2.0000      -2.549190       -69.3670
  23   2.0000      -2.549176       -69.3666
  24   2.0000      -1.295621       -35.2557
  25   2.0000      -1.210536       -32.9403
  26   2.0000      -1.208274       -32.8788
  27   2.0000      -0.880107       -23.9489
  28   2.0000      -0.780571       -21.2404
  29   2.0000      -0.723207       -19.6795
  30   2.0000      -0.639788       -17.4095
  31   2.0000      -0.580935       -15.8080
  32   2.0000      -0.578178       -15.7330
  33   2.0000      -0.542012       -14.7489
  34   2.0000      -0.466802       -12.7023
  35   2.0000      -0.452098       -12.3022
  36   2.0000      -0.446882       -12.1603
  37   2.0000      -0.434969       -11.8361
  38   2.0000      -0.407469       -11.0878
  39   2.0000      -0.402718       -10.9585
  40   2.0000      -0.394288       -10.7291
  41   2.0000      -0.391020       -10.6402
  42   2.0000      -0.318617        -8.6700
  43   2.0000      -0.312999        -8.5171
  44   2.0000      -0.288720        -7.8565
  45   2.0000      -0.286257        -7.7895
  46   0.0000      -0.080230        -2.1832
  47   0.0000      -0.038958        -1.0601
  48   0.0000       0.038081         1.0362
  49   0.0000       0.090730         2.4689
  50   0.0000       0.110859         3.0166

MULLIKEN ATOMIC CHARGES
-----------------------
   0 C :   -0.011445
   1 H :    0.157632
   2 C :    0.448684
   3 F :   -0.158084
   4 F :   -0.152883
   5 F :   -0.157812
   6 Cl:   -0.072219
   7 Br:   -0.053874
Sum of atomic charges:   -0.0000000

LOEWDIN ATOMIC CHARGES
----------------------
   0 C :   -0.686826
   1 H :    0.142819
   2 C :   -0.738958
   3 F :    0.201328
   4 F :    0.217812
   5 F :    0.204034
   6 Cl:    0.361930
   7 Br:    0.297862

  Mayer bond orders larger than 0.100000
B(  0-C ,  1-H ) :   0.9351 B(  0-C ,  2-C ) :   0.9614 B(  0-C ,  6-Cl) :   1.0840
B(  0-C ,  7-Br) :   1.0542 B(  2-C ,  3-F ) :   1.1214 B(  2-C ,  4-F ) :   1.1443
B(  2-C ,  5-F ) :   1.1213

Dispersion correction           -0.002407508
FINAL SINGLE POINT ENERGY     -3410.670452529065

DIPOLE MOMENT
-------------

Method             : SCF
Type of density    : Electron Density
Multiplicity       :   1
Irrep              :   0
Energy             : -3410.6790126078994945 Eh
Relativity type    :
Basis              : AO
                                X                 Y                 Z
Electronic contribution:     -9.984700308      -2.161277878       1.443021650
Nuclear contribution   :      9.824728440       2.293496504      -1.902038687
                        -----------------------------------------
Total Dipole Moment    :     -0.159971868       0.132218626      -0.459017037
                        -----------------------------------------
Magnitude (a.u.)       :      0.503755301
Magnitude (Debye)      :      1.280444217

VIBRATIONAL FREQUENCIES
-----------------------

Scaling factor for frequencies =  1.000000000  (already applied!)

     0:       0.00 cm**-1
     1:       0.00 cm**-1
     2:       0.00 cm**-1
     3:       0.00 cm**-1
     4:       0.00 cm**-1
     5:       0.00 cm**-1
     6:      79.27 cm**-1
     7:     160.49 cm**-1
     8:     200.06 cm**-1
     9:     228.90 cm**-1
    10:     304.70 cm**-1
    11:     356.88 cm**-1
    12:     511.49 cm**-1
    13:     539.29 cm**-1
    14:     656.79 cm**-1
    15:     702.03 cm**-1
    16:     762.27 cm**-1
    17:     850.01 cm**-1
    18:    1109.79 cm**-1
    19:    1148.11 cm**-1
    20:    1195.58 cm**-1
    21:    1247.64 cm**-1
    22:    1303.11 cm**-1
    23:    3124.11 cm**-1

IR SPECTRUM
-----------

 Mode   freq       eps      Int      T**2         TX        TY        TZ
       cm**-1   L/(mol*cm) km/mol    a.u.
----------------------------------------------------------------------------
  6:     79.27   0.000000    0.00  0.000001  (-0.000577  0.001068 -0.000128)
  7:    160.49   0.000114    0.58  0.000222  ( 0.010237  0.010150 -0.003826)
  8:    200.06   0.000065    0.33  0.000101  (-0.006102 -0.002778 -0.007511)
  9:    228.90   0.000098    0.49  0.000133  ( 0.002572  0.003087  0.010818)
 10:    304.70   0.000297    1.50  0.000304  (-0.008012 -0.014842  0.004443)
 11:    356.88   0.000089    0.45  0.000078  ( 0.008609  0.001474  0.001381)
 12:    511.49   0.000784    3.96  0.000479  ( 0.007082  0.006630 -0.019608)
 13:    539.29   0.001698    8.58  0.000982  (-0.023930 -0.019604 -0.005031)
 14:    656.79   0.005233   26.44  0.002486  (-0.036985  0.027505 -0.019019)
 15:    702.03   0.007461   37.70  0.003316  ( 0.053912  0.018041 -0.009186)
 16:    762.27   0.021223  107.25  0.008688  ( 0.050672  0.077742  0.008760)
 17:    850.01   0.003370   17.03  0.001237  ( 0.015662 -0.028926  0.012453)
 18:   1109.79   0.041075  207.57  0.011550  ( 0.070267 -0.029437 -0.075802)
 19:   1148.11   0.041762  211.05  0.011351  (-0.061449 -0.086011 -0.013319)
 20:   1195.58   0.001805    9.12  0.000471  (-0.002731  0.017864  0.012022)
 21:   1247.64   0.039888  201.58  0.009977  ( 0.059349 -0.042744  0.068026)
 22:   1303.11   0.011419   57.71  0.002735  ( 0.035171 -0.026685 -0.028026)
 23:   3124.11   0.000673    3.40  0.000067  ( 0.004193 -0.005290  0.004655)

--------------------------
THERMOCHEMISTRY AT 298.15K
--------------------------

Temperature         ...   298.15 K
Pressure            ...     1.00 atm
Total Mass          ...   197.38 AMU
Quasi RRHO          ...     True
Cut-Off Frequency   ...     1.00 cm^-1

Throughout the following assumptions are being made:
  (1) The electronic state is orbitally nondegenerate
  (2) There are no thermally accessible electronically excited states
  (3) Hindered rotations indicated by low frequency modes are not
      treated as such but are treated as vibrations and this may
      cause some error
  (4) All equations used are the standard statistical mechanics
      equations for an ideal gas
  (5) All vibrations are strictly harmonic

freq.      79.27  E(vib)   ...       0.49
freq.     160.49  E(vib)   ...       0.39
freq.     200.06  E(vib)   ...       0.35
freq.     228.90  E(vib)   ...       0.32
freq.     304.70  E(vib)   ...       0.26
freq.     356.88  E(vib)   ...       0.22
freq.     511.49  E(vib)   ...       0.14
freq.     539.29  E(vib)   ...       0.12
freq.     656.79  E(vib)   ...       0.08
freq.     702.03  E(vib)   ...       0.07
freq.     762.27  E(vib)   ...       0.06
freq.     850.01  E(vib)   ...       0.04
freq.    1109.79  E(vib)   ...       0.02
freq.    1148.11  E(vib)   ...       0.01
freq.    1195.58  E(vib)   ...       0.01
freq.    1247.64  E(vib)   ...       0.01
freq.    1303.11  E(vib)   ...       0.01
freq.    3124.11  E(vib)   ...       0.00

------------
INNER ENERGY
------------

The inner energy is: U= E(el) + E(ZPE) + E(vib) + E(rot) + E(trans)
    E(el)   - is the total energy from the electronic structure calculation
              = E(kin-el) + E(nuc-el) + E(el-el) + E(nuc-nuc)
    E(ZPE)  - the the zero temperature vibrational energy from the frequency calculation
    E(vib)  - the the finite temperature correction to E(ZPE) due to population
              of excited vibrational states
    E(rot)  - is the rotational thermal energy
    E(trans)- is the translational thermal energy

Summary of contributions to the inner energy U:
Electronic energy                ...  -3410.67045253 Eh
Zero point energy                ...      0.03298902 Eh      20.70 kcal/mol
Thermal vibrational correction   ...      0.00414331 Eh       2.60 kcal/mol
Thermal rotational correction    ...      0.00141627 Eh       0.89 kcal/mol
Thermal translational correction ...      0.00141627 Eh       0.89 kcal/mol
-----------------------------------------------------------------------
Total thermal energy                  -3410.63048766 Eh

Summary of corrections to the electronic energy:
(perhaps to be used in another calculation)
Total thermal correction                  0.00697585 Eh       4.38 kcal/mol
Non-thermal (ZPE) correction              0.03298902 Eh      20.70 kcal/mol
-----------------------------------------------------------------------
Total correction                          0.03996487 Eh      25.08 kcal/mol

--------
ENTHALPY
--------

The enthalpy is H = U + kB*T
                kB is Boltzmann's constant
Total thermal energy              ...  -3410.63048766 Eh
Thermal Enthalpy correction       ...      0.00094421 Eh       0.59 kcal/mol
-----------------------------------------------------------------------
Total Enthalpy                    ...  -3410.62954345 Eh

Note: Only C1 symmetry has been detected, increase convergence thresholds
      if your molecule has a higher symmetry. Symmetry factor of 1.0 is
      used for the rotational entropy correction.

Note: Rotational entropy computed according to Herzberg
Infrared and Raman Spectra, Chapter V,1, Van Nostrand Reinhold, 1945
Point Group:  C1, Symmetry Number:   1
Rotational constants in cm-1:     0.060850     0.037722     0.026839

Vibrational entropy computed according to the QRRHO of S. Grimme
Chem.Eur.J. 2012 18 9955 using a reference frequency of 100.0 cm-1

-------
ENTROPY
-------

The entropy contributions are T*S = T*(S(el)+S(vib)+S(rot)+S(trans))
     S(el)   - electronic entropy
     S(vib)  - vibrational entropy
     S(rot)  - rotational entropy
     S(trans)- translational entropy
The entropies will be listed as multiplied by the temperature to get
units of energy

Electronic entropy                ...      0.00000000 Eh      0.00 kcal/mol
Vibrational entropy               ...      0.00707580 Eh      4.44 kcal/mol
Rotational entropy                ...      0.01408761 Eh      8.84 kcal/mol
Translational entropy             ...      0.01983423 Eh     12.45 kcal/mol
-----------------------------------------------------------------------
Final entropy term                ...      0.04099764 Eh     25.73 kcal/mol

In case the symmetry of your molecule has not been determined correctly
or in case you have a reason to use a different symmetry number we print
out the resulting rotational entropy values for sn=1,12:

 non-linear molecules -----------------------------------
|  sn= 1 | S(rot)=       0.01408761 Eh      8.84 kcal/mol|
|  sn= 2 | S(rot)=       0.01343315 Eh      8.43 kcal/mol|
|  sn= 3 | S(rot)=       0.01305032 Eh      8.19 kcal/mol|
|  sn= 4 | S(rot)=       0.01277870 Eh      8.02 kcal/mol|
|  sn= 5 | S(rot)=       0.01256801 Eh      7.89 kcal/mol|
|  sn= 6 | S(rot)=       0.01239586 Eh      7.78 kcal/mol|
|  sn= 7 | S(rot)=       0.01225032 Eh      7.69 kcal/mol|
|  sn= 8 | S(rot)=       0.01212424 Eh      7.61 kcal/mol|
|  sn= 9 | S(rot)=       0.01201303 Eh      7.54 kcal/mol|
|  sn=10 | S(rot)=       0.01191355 Eh      7.48 kcal/mol|
|  sn=11 | S(rot)=       0.01182356 Eh      7.42 kcal/mol|
|  sn=12 | S(rot)=       0.01174141 Eh      7.37 kcal/mol|
 linear molecules ---------------------------------------
|  Dinfh | S(rot)=       0.00874176 Eh      5.49 kcal/mol|
|  Cinfv | S(rot)=       0.00939622 Eh      5.90 kcal/mol|
 --------------------------------------------------------

-------------------
GIBBS FREE ENERGY
-------------------

The Gibbs free energy is G = H - T*S

Total enthalpy                    ...  -3410.62954345 Eh
Total entropy correction          ...     -0.04099764 Eh    -25.73 kcal/mol
-----------------------------------------------------------------------
Final Gibbs free energy         ...  -3410.67054109 Eh

For completeness - the Gibbs free energy minus the electronic energy
G-E(el)                           ...     -0.00008856 Eh     -0.06 kcal/mol

                             ****ORCA TERMINATED NORMALLY****
TOTAL RUN TIME: 0 days 0 hours 3 minutes 49 seconds 478 msec
