                         Program Version 6.0.1  -  RELEASE   -
|  1> ! pbe def2-sv(p) def2/J RI DEFGRID1 loosescf d4 GCP(DFT/SV(P)) printgap
|  2> %output
|  3>     printlevel normal
|  4> end
|  5> * xyz 0 1
|  6> C -2.8032107957 -0.6799878227 -0.0421463497
|  7> O -1.4810278318 -0.8123931327 0.4748423691
|  8> C -0.5643678996 0.0704782154 0.0712225935
|  9> O -0.7573581449 0.959574874 -0.7057187581
| 10> C 0.7512057762 -0.2233966472 0.773930234
| 11> Cl 2.1170405379 0.2985955088 -0.230092994
| 12> H -3.0952894357 -1.6427859883 -0.4590178671
| 13> H -2.8262573964 0.0917953911 -0.8130702556
| 14> H -3.4703692499 -0.4113479222 0.7771609502
| 15> H 0.8443114944 -1.289555122 0.9750343709
| 16> H 0.7915271361 0.3380241086 1.709058205
| 17> *
| 18>
| 19>                          ****END OF INPUT****

CARTESIAN COORDINATES (ANGSTROEM)
---------------------------------
  C     -2.803211   -0.679988   -0.042146
  O     -1.481028   -0.812393    0.474842
  C     -0.564368    0.070478    0.071223
  O     -0.757358    0.959575   -0.705719
  C      0.751206   -0.223397    0.773930
  Cl     2.117041    0.298596   -0.230093
  H     -3.095289   -1.642786   -0.459018
  H     -2.826257    0.091795   -0.813070
  H     -3.470369   -0.411348    0.777161
  H      0.844311   -1.289555    0.975034
  H      0.791527    0.338024    1.709058

 Total Charge           Charge          ....    0
 Multiplicity           Mult            ....    1
 Number of Electrons    NEL             ....   56
 Basis Dimension        Dim             ....   98

ORBITAL ENERGIES
----------------

  NO   OCC          E(Eh)            E(eV)
   0   2.0000    -100.626369     -2738.1827
   1   2.0000     -18.814170      -511.9596
   2   2.0000     -18.751104      -510.2435
   3   2.0000     -10.022457      -272.7249
   4   2.0000      -9.956552      -270.9315
   5   2.0000      -9.947875      -270.6955
   6   2.0000      -9.162306      -249.3190
   7   2.0000      -6.994448      -190.3286
   8   2.0000      -6.981671      -189.9809
   9   2.0000      -6.981529      -189.9771
  10   2.0000      -1.020521       -27.7698
  11   2.0000      -0.932832       -25.3837
  12   2.0000      -0.785040       -21.3620
  13   2.0000      -0.691368       -18.8131
  14   2.0000      -0.616470       -16.7750
  15   2.0000      -0.517672       -14.0866
  16   2.0000      -0.468417       -12.7463
  17   2.0000      -0.455748       -12.4015
  18   2.0000      -0.430782       -11.7222
  19   2.0000      -0.413778       -11.2595
  20   2.0000      -0.384748       -10.4695
  21   2.0000      -0.375701       -10.2233
  22   2.0000      -0.352973        -9.6049
  23   2.0000      -0.314624        -8.5614
  24   2.0000      -0.271598        -7.3906
  25   2.0000      -0.254789        -6.9332
  26   2.0000      -0.252074        -6.8593
  27   2.0000      -0.239163        -6.5080
  28   0.0000      -0.039214        -1.0671
  29   0.0000       0.013035         0.3547
  30   0.0000       0.045477         1.2375
  31   0.0000       0.063834         1.7370
  32   0.0000       0.088720         2.4142

MULLIKEN ATOMIC CHARGES
-----------------------
   0 C :   -0.137471
   1 O :   -0.250185
   2 C :    0.125338
   3 O :   -0.158199
   4 C :   -0.173549
   5 Cl:   -0.115039
   6 H :    0.127457
   7 H :    0.139152
   8 H :    0.125460
   9 H :    0.152318
  10 H :    0.164718
Sum of atomic charges:   -0.0000000

LOEWDIN ATOMIC CHARGES
----------------------
   0 C :   -0.210303
   1 O :   -0.077677
   2 C :    0.006801
   3 O :   -0.133318
   4 C :   -0.309128
   5 Cl:    0.064441
   6 H :    0.122889
   7 H :    0.126526
   8 H :    0.121516
   9 H :    0.139390
  10 H :    0.148860

  Mayer bond orders larger than 0.100000
B(  0-C ,  1-O ) :   0.9354 B(  0-C ,  6-H ) :   0.9599 B(  0-C ,  7-H ) :   0.9291
B(  0-C ,  8-H ) :   0.9594 B(  1-O ,  2-C ) :   1.1975 B(  1-O ,  3-O ) :   0.1039
B(  2-C ,  3-O ) :   2.1357 B(  2-C ,  4-C ) :   0.9536 B(  4-C ,  5-Cl) :   1.0844
B(  4-C ,  9-H ) :   0.9171 B(  4-C , 10-H ) :   0.9044

Dispersion correction           -0.008159668
FINAL SINGLE POINT ENERGY      -727.081056819799

DIPOLE MOMENT
-------------

Method             : SCF
Type of density    : Electron Density
Multiplicity       :   1
Irrep              :   0
Energy             :  -727.1233489101621217 Eh
Relativity type    :
Basis              : AO
                                X                 Y                 Z
Electronic contribution:      9.358600403       2.464378191      -1.690836957
Nuclear contribution   :    -10.151184409      -3.132313174       2.359231694
                        -----------------------------------------
Total Dipole Moment    :     -0.792584006      -0.667934982       0.668394737
                        -----------------------------------------
Magnitude (a.u.)       :      1.233319939
Magnitude (Debye)      :      3.134850154

Rotational constants in cm-1:             0.307008             0.047119             0.042466
Rotational constants in MHz :          9203.882473          1412.582204          1273.094185

                             ****ORCA TERMINATED NORMALLY****
TOTAL RUN TIME: 0 days 0 hours 0 minutes 7 seconds 421 msec
