                         Program Version 6.0.1  -  RELEASE   -
|  1> ! pbe def2-sv(p) def2/J RI DEFGRID1 loosescf d4 GCP(DFT/SV(P)) printgap
|  2> %output
|  3>     printlevel normal
|  4> end
|  5> * xyz 0 1
|  6> C -2.0467632981 -1.4027953938 -0.1063028075
|  7> C -1.0066659579 -0.517069369 0.6051293201
|  8> H -1.4565913392 -0.1619552918 1.5428614757
|  9> C -0.6464739274 0.7012867493 -0.2662160728
| 10> H -0.5428376424 0.3890948689 -1.3141961579
| 11> C 0.7014172852 1.2456432848 0.2213741206
| 12> H 0.6825220747 1.3686269549 1.3118900596
| 13> C 1.7744108923 0.2037544115 -0.1368696066
| 14> H 1.9903279535 0.274017223 -1.2164314826
| 15> C 1.2369839829 -1.2176391921 0.1257024477
| 16> H 2.0198839869 -1.7815241521 0.6525897259
| 17> O 0.1464905042 -1.2470246866 1.0028278148
| 18> O 0.9328914266 -1.7877308316 -1.1129607782
| 19> O 2.9462092762 0.3861672755 0.6093364529
| 20> O 1.0073534953 2.515503751 -0.2936664829
| 21> O -1.6680661887 1.6674125105 -0.2699625996
| 22> O -3.2907361146 -0.7628748048 -0.1879832642
| 23> H -2.201332943 -2.3161734846 0.4735005006
| 24> H -1.6755191882 -1.6728948004 -1.106189799
| 25> H 0.6716756311 -2.7071304969 -0.9795564389
| 26> H 3.1713441468 1.3253512673 0.5841709269
| 27> H 0.8228935851 2.5263684222 -1.2407408055
| 28> H -1.6590904636 2.1443933812 0.5688100941
| 29> H -3.1540463354 0.1255681215 -0.5469626258
| 30> *
| 31>
| 32>                          ****END OF INPUT****

CARTESIAN COORDINATES (ANGSTROEM)
---------------------------------
  C     -2.046763   -1.402795   -0.106303
  C     -1.006666   -0.517069    0.605129
  H     -1.456591   -0.161955    1.542861
  C     -0.646474    0.701287   -0.266216
  H     -0.542838    0.389095   -1.314196
  C      0.701417    1.245643    0.221374
  H      0.682522    1.368627    1.311890
  C      1.774411    0.203754   -0.136870
  H      1.990328    0.274017   -1.216431
  C      1.236984   -1.217639    0.125702
  H      2.019884   -1.781524    0.652590
  O      0.146491   -1.247025    1.002828
  O      0.932891   -1.787731   -1.112961
  O      2.946209    0.386167    0.609336
  O      1.007353    2.515504   -0.293666
  O     -1.668066    1.667413   -0.269963
  O     -3.290736   -0.762875   -0.187983
  H     -2.201333   -2.316173    0.473501
  H     -1.675519   -1.672895   -1.106190
  H      0.671676   -2.707130   -0.979556
  H      3.171344    1.325351    0.584171
  H      0.822894    2.526368   -1.240741
  H     -1.659090    2.144393    0.568810
  H     -3.154046    0.125568   -0.546963

 Total Charge           Charge          ....    0
 Multiplicity           Mult            ....    1
 Number of Electrons    NEL             ....   96
 Basis Dimension        Dim             ....  192

ORBITAL ENERGIES
----------------

  NO   OCC          E(Eh)            E(eV)
   0   2.0000     -18.776597      -510.9372
   1   2.0000     -18.774927      -510.8917
   2   2.0000     -18.771933      -510.8103
   3   2.0000     -18.767850      -510.6992
   4   2.0000     -18.756191      -510.3819
   5   2.0000     -18.738128      -509.8904
   6   2.0000      -9.990915      -271.8666
   7   2.0000      -9.955812      -270.9114
   8   2.0000      -9.952263      -270.8148
   9   2.0000      -9.947261      -270.6787
  10   2.0000      -9.946478      -270.6574
  11   2.0000      -9.926614      -270.1169
  12   2.0000      -0.990076       -26.9414
  13   2.0000      -0.962736       -26.1974
  14   2.0000      -0.944974       -25.7141
  15   2.0000      -0.928538       -25.2668
  16   2.0000      -0.921731       -25.0816
  17   2.0000      -0.914528       -24.8856
  18   2.0000      -0.713568       -19.4172
  19   2.0000      -0.696813       -18.9612
  20   2.0000      -0.620795       -16.8927
  21   2.0000      -0.598090       -16.2749
  22   2.0000      -0.572526       -15.5792
  23   2.0000      -0.533337       -14.5128
  24   2.0000      -0.517771       -14.0893
  25   2.0000      -0.502694       -13.6790
  26   2.0000      -0.482154       -13.1201
  27   2.0000      -0.458556       -12.4779
  28   2.0000      -0.444012       -12.0822
  29   2.0000      -0.431006       -11.7283
  30   2.0000      -0.414442       -11.2775
  31   2.0000      -0.406731       -11.0677
  32   2.0000      -0.394286       -10.7291
  33   2.0000      -0.373495       -10.1633
  34   2.0000      -0.366228        -9.9656
  35   2.0000      -0.361925        -9.8485
  36   2.0000      -0.340650        -9.2696
  37   2.0000      -0.329226        -8.9587
  38   2.0000      -0.316349        -8.6083
  39   2.0000      -0.298484        -8.1222
  40   2.0000      -0.287946        -7.8354
  41   2.0000      -0.278190        -7.5699
  42   2.0000      -0.263310        -7.1650
  43   2.0000      -0.250018        -6.8033
  44   2.0000      -0.239754        -6.5240
  45   2.0000      -0.232983        -6.3398
  46   2.0000      -0.217650        -5.9226
  47   2.0000      -0.200780        -5.4635
  48   0.0000       0.009632         0.2621
  49   0.0000       0.021625         0.5884
  50   0.0000       0.024829         0.6756
  51   0.0000       0.040630         1.1056
  52   0.0000       0.053405         1.4532

MULLIKEN ATOMIC CHARGES
-----------------------
   0 C :    0.070151
   1 C :    0.053348
   2 H :    0.063313
   3 C :   -0.043464
   4 H :    0.076239
   5 C :    0.025971
   6 H :    0.062880
   7 C :    0.087853
   8 H :    0.059046
   9 C :    0.165926
  10 H :    0.079974
  11 O :   -0.307963
  12 O :   -0.397751
  13 O :   -0.408737
  14 O :   -0.409505
  15 O :   -0.407234
  16 O :   -0.443692
  17 H :    0.084414
  18 H :    0.063755
  19 H :    0.307462
  20 H :    0.305840
  21 H :    0.304113
  22 H :    0.309563
  23 H :    0.298499
Sum of atomic charges:    0.0000000

LOEWDIN ATOMIC CHARGES
----------------------
   0 C :   -0.133750
   1 C :   -0.076977
   2 H :    0.113403
   3 C :   -0.093789
   4 H :    0.116609
   5 C :   -0.089594
   6 H :    0.116920
   7 C :   -0.081029
   8 H :    0.104138
   9 C :    0.000437
  10 H :    0.108251
  11 O :   -0.138410
  12 O :   -0.308684
  13 O :   -0.314401
  14 O :   -0.311536
  15 O :   -0.301307
  16 O :   -0.339034
  17 H :    0.110699
  18 H :    0.091826
  19 H :    0.287116
  20 H :    0.287581
  21 H :    0.288335
  22 H :    0.291270
  23 H :    0.271924

  Mayer bond orders larger than 0.100000
B(  0-C ,  1-C ) :   1.0547 B(  0-C , 16-O ) :   1.0812 B(  0-C , 17-H ) :   0.9198
B(  0-C , 18-H ) :   0.9029 B(  1-C ,  2-H ) :   0.8812 B(  1-C ,  3-C ) :   0.9633
B(  1-C , 11-O ) :   0.9625 B(  3-C ,  4-H ) :   0.8748 B(  3-C ,  5-C ) :   1.0259
B(  3-C , 15-O ) :   1.0235 B(  5-C ,  6-H ) :   0.8481 B(  5-C ,  7-C ) :   1.0318
B(  5-C , 14-O ) :   1.0653 B(  7-C ,  8-H ) :   0.8787 B(  7-C ,  9-C ) :   0.9751
B(  7-C , 13-O ) :   1.0982 B(  9-C , 10-H ) :   0.8920 B(  9-C , 11-O ) :   1.0835
B(  9-C , 12-O ) :   1.0930 B( 12-O , 19-H ) :   0.8346 B( 13-O , 20-H ) :   0.8405
B( 14-O , 21-H ) :   0.8473 B( 15-O , 22-H ) :   0.8411 B( 16-O , 23-H ) :   0.8239

Dispersion correction           -0.024743525
FINAL SINGLE POINT ENERGY      -685.692394197897

DIPOLE MOMENT
-------------

Method             : SCF
Type of density    : Electron Density
Multiplicity       :   1
Irrep              :   0
Energy             :  -685.8241139282292806 Eh
Relativity type    :
Basis              : AO
                                X                 Y                 Z
Electronic contribution:      1.652877481       0.825799060       0.918279865
Nuclear contribution   :     -1.247390767      -0.444764026      -1.195454148
                        -----------------------------------------
Total Dipole Moment    :      0.405486714       0.381035034      -0.277174283
                        -----------------------------------------
Magnitude (a.u.)       :      0.621637158
Magnitude (Debye)      :      1.580076084

Rotational constants in cm-1:             0.043986             0.026338             0.018775
Rotational constants in MHz :          1318.658026           789.591434           562.858621

                             ****ORCA TERMINATED NORMALLY****
TOTAL RUN TIME: 0 days 0 hours 0 minutes 8 seconds 265 msec
