                         Program Version 6.0.1  -  RELEASE   -
|  1> ! pbe def2-sv(p) def2/J RI DEFGRID1 loosescf d4 GCP(DFT/SV(P)) printgap
|  2> %output
|  3>     printlevel normal
|  4> end
|  5> * xyz 0 1
|  6> C -1.8342212555 1.4750015995 0.0002483654
|  7> C -0.5400166957 0.7191720108 -7.60201e-05
|  8> C 0.6695256334 1.4030402738 -0.0001984429
|  9> C 1.8643816701 0.7035641753 -5.64769e-05
| 10> C 1.8001323078 -0.6794987973 0.0002671394
| 11> N 0.6609534484 -1.3446785738 3.60972e-05
| 12> C -0.4875825459 -0.6806368567 -0.0002383859
| 13> C -1.7118032038 -1.5463971417 -7.37443e-05
| 14> H -2.4259196819 1.2271230637 0.8806925106
| 15> H -1.6456549423 2.5462158437 0.0043015861
| 16> H -2.4223958477 1.2333618848 -0.8843366713
| 17> H 0.6729799623 2.4849018367 -0.0002384946
| 18> H 2.8129371142 1.2177878399 -0.0003187011
| 19> H 2.6955083346 -1.2877303466 9.88615e-05
| 20> H -1.6895899032 -2.1985310683 -0.87103448
| 21> H -1.6998147289 -2.1840528188 0.8818421436
| 22> H -2.628174492 -0.9672144275 -0.0099882187
| 23> *
| 24>
| 25>                          ****END OF INPUT****

CARTESIAN COORDINATES (ANGSTROEM)
---------------------------------
  C     -1.834221    1.475002    0.000248
  C     -0.540017    0.719172   -0.000076
  C      0.669526    1.403040   -0.000198
  C      1.864382    0.703564   -0.000056
  C      1.800132   -0.679499    0.000267
  N      0.660953   -1.344679    0.000036
  C     -0.487583   -0.680637   -0.000238
  C     -1.711803   -1.546397   -0.000074
  H     -2.425920    1.227123    0.880693
  H     -1.645655    2.546216    0.004302
  H     -2.422396    1.233362   -0.884337
  H      0.672980    2.484902   -0.000238
  H      2.812937    1.217788   -0.000319
  H      2.695508   -1.287730    0.000099
  H     -1.689590   -2.198531   -0.871034
  H     -1.699815   -2.184053    0.881842
  H     -2.628174   -0.967214   -0.009988

 Total Charge           Charge          ....    0
 Multiplicity           Mult            ....    1
 Number of Electrons    NEL             ....   58
 Basis Dimension        Dim             ....  130

ORBITAL ENERGIES
----------------

  NO   OCC          E(Eh)            E(eV)
   0   2.0000     -13.971964      -380.1965
   1   2.0000      -9.927404      -270.1384
   2   2.0000      -9.911591      -269.7081
   3   2.0000      -9.907857      -269.6065
   4   2.0000      -9.900738      -269.4128
   5   2.0000      -9.891821      -269.1701
   6   2.0000      -9.891351      -269.1574
   7   2.0000      -9.878073      -268.7960
   8   2.0000      -0.853754       -23.2318
   9   2.0000      -0.732523       -19.9330
  10   2.0000      -0.708381       -19.2760
  11   2.0000      -0.645236       -17.5578
  12   2.0000      -0.613168       -16.6851
  13   2.0000      -0.547019       -14.8852
  14   2.0000      -0.534059       -14.5325
  15   2.0000      -0.453520       -12.3409
  16   2.0000      -0.444664       -12.0999
  17   2.0000      -0.398047       -10.8314
  18   2.0000      -0.392328       -10.6758
  19   2.0000      -0.367790       -10.0081
  20   2.0000      -0.363700        -9.8968
  21   2.0000      -0.359196        -9.7742
  22   2.0000      -0.353298        -9.6137
  23   2.0000      -0.332253        -9.0411
  24   2.0000      -0.331742        -9.0272
  25   2.0000      -0.305672        -8.3178
  26   2.0000      -0.250872        -6.8266
  27   2.0000      -0.221305        -6.0220
  28   2.0000      -0.196666        -5.3516
  29   0.0000      -0.048163        -1.3106
  30   0.0000      -0.036338        -0.9888
  31   0.0000       0.042448         1.1551
  32   0.0000       0.054151         1.4735
  33   0.0000       0.082041         2.2325

MULLIKEN ATOMIC CHARGES
-----------------------
   0 C :   -0.227105
   1 C :   -0.016227
   2 C :   -0.074897
   3 C :   -0.063641
   4 C :   -0.062040
   5 N :   -0.067876
   6 C :   -0.136280
   7 C :   -0.184451
   8 H :    0.122507
   9 H :    0.100144
  10 H :    0.122694
  11 H :    0.047528
  12 H :    0.056327
  13 H :    0.064144
  14 H :    0.116519
  15 H :    0.116675
  16 H :    0.085978
Sum of atomic charges:   -0.0000000

LOEWDIN ATOMIC CHARGES
----------------------
   0 C :   -0.324225
   1 C :   -0.065701
   2 C :   -0.102162
   3 C :   -0.148971
   4 C :   -0.086145
   5 N :   -0.074788
   6 C :   -0.015216
   7 C :   -0.333328
   8 H :    0.133488
   9 H :    0.124835
  10 H :    0.133565
  11 H :    0.123263
  12 H :    0.126333
  13 H :    0.112028
  14 H :    0.138776
  15 H :    0.138847
  16 H :    0.119400

  Mayer bond orders larger than 0.100000
B(  0-C ,  1-C ) :   1.1190 B(  0-C ,  8-H ) :   0.9268 B(  0-C ,  9-H ) :   0.9357
B(  0-C , 10-H ) :   0.9267 B(  1-C ,  2-C ) :   1.4361 B(  1-C ,  6-C ) :   1.3608
B(  2-C ,  3-C ) :   1.4093 B(  2-C , 11-H ) :   0.9462 B(  3-C ,  4-C ) :   1.3680
B(  3-C , 12-H ) :   0.9468 B(  4-C ,  5-N ) :   1.5509 B(  4-C , 13-H ) :   0.9517
B(  5-N ,  6-C ) :   1.5057 B(  6-C ,  7-C ) :   1.1501 B(  7-C , 14-H ) :   0.9280
B(  7-C , 15-H ) :   0.9278 B(  7-C , 16-H ) :   0.9251

Dispersion correction           -0.016684259
FINAL SINGLE POINT ENERGY      -326.183302336166

DIPOLE MOMENT
-------------

Method             : SCF
Type of density    : Electron Density
Multiplicity       :   1
Irrep              :   0
Energy             :  -326.2316859814233112 Eh
Relativity type    :
Basis              : AO
                                X                 Y                 Z
Electronic contribution:      5.653299161      -1.246997520      -0.000504070
Nuclear contribution   :     -5.935099304       1.936382678       0.000955757
                        -----------------------------------------
Total Dipole Moment    :     -0.281800143       0.689385159       0.000451687
                        -----------------------------------------
Magnitude (a.u.)       :      0.744757290
Magnitude (Debye)      :      1.893022591

Rotational constants in cm-1:             0.105485             0.076507             0.045084
Rotational constants in MHz :          3162.346260          2293.618200          1351.587898

                             ****ORCA TERMINATED NORMALLY****
TOTAL RUN TIME: 0 days 0 hours 0 minutes 8 seconds 934 msec
