                         Program Version 6.0.1  -  RELEASE   -
|  1> ! r2scan-3c def2/J RI DEFGRID2 scfconv6 printgap
|  2> %output
|  3>     printlevel normal
|  4> end
|  5> * xyz 0 1
|  6> C -2.7694978816 -0.1384586748 -0.1824798162
|  7> O -1.4672894073 -0.4663637896 -0.6567728141
|  8> C -0.418266354 0.0049025058 0.0229919923
|  9> O -0.4812122184 0.6842371947 1.0058584702
| 10> C 0.8616439118 -0.4702246911 -0.6595495558
| 11> C 2.0506918369 0.0162465913 -0.0061481923
| 12> N 3.0060836045 0.3901198296 0.4941458374
| 13> H -3.3200003736 -1.0683826312 -0.0448056344
| 14> H -3.2647313699 0.479093219 -0.9319749307
| 15> H -2.697137985 0.4038808507 0.7615344025
| 16> H 0.8504935998 -0.1289526475 -1.698618447
| 17> H 0.868837427 -1.5640603329 -0.6610035728
| 18> *
| 19>
| 20>                          ****END OF INPUT****

CARTESIAN COORDINATES (ANGSTROEM)
---------------------------------
  C     -2.769498   -0.138459   -0.182480
  O     -1.467289   -0.466364   -0.656773
  C     -0.418266    0.004903    0.022992
  O     -0.481212    0.684237    1.005858
  C      0.861644   -0.470225   -0.659550
  C      2.050692    0.016247   -0.006148
  N      3.006084    0.390120    0.494146
  H     -3.320000   -1.068383   -0.044806
  H     -3.264731    0.479093   -0.931975
  H     -2.697138    0.403881    0.761534
  H      0.850494   -0.128953   -1.698618
  H      0.868837   -1.564060   -0.661004

 Total Charge           Charge          ....    0
 Multiplicity           Mult            ....    1
 Number of Electrons    NEL             ....   52
 Basis Dimension        Dim             ....  173

ORBITAL ENERGIES
----------------

  NO   OCC          E(Eh)            E(eV)
   0   2.0000     -19.026559      -517.7390
   1   2.0000     -18.962763      -516.0030
   2   2.0000     -14.159327      -385.2949
   3   2.0000     -10.191200      -277.3166
   4   2.0000     -10.109202      -275.0854
   5   2.0000     -10.103772      -274.9376
   6   2.0000     -10.075607      -274.1712
   7   2.0000      -1.102697       -30.0059
   8   2.0000      -1.015176       -27.6243
   9   2.0000      -0.884537       -24.0695
  10   2.0000      -0.790752       -21.5174
  11   2.0000      -0.713375       -19.4119
  12   2.0000      -0.574506       -15.6331
  13   2.0000      -0.514338       -13.9959
  14   2.0000      -0.497985       -13.5509
  15   2.0000      -0.493263       -13.4224
  16   2.0000      -0.453852       -12.3499
  17   2.0000      -0.449517       -12.2320
  18   2.0000      -0.414836       -11.2883
  19   2.0000      -0.384024       -10.4498
  20   2.0000      -0.345891        -9.4122
  21   2.0000      -0.332340        -9.0434
  22   2.0000      -0.317222        -8.6320
  23   2.0000      -0.314961        -8.5705
  24   2.0000      -0.298635        -8.1263
  25   2.0000      -0.273356        -7.4384
  26   0.0000      -0.042879        -1.1668
  27   0.0000      -0.005132        -0.1396
  28   0.0000       0.004760         0.1295
  29   0.0000       0.041600         1.1320
  30   0.0000       0.073136         1.9901

MULLIKEN ATOMIC CHARGES
-----------------------
   0 C :   -0.302832
   1 O :   -0.183397
   2 C :    0.376735
   3 O :   -0.398042
   4 C :   -0.351741
   5 C :    0.195092
   6 N :   -0.224518
   7 H :    0.153019
   8 H :    0.153447
   9 H :    0.192181
  10 H :    0.194995
  11 H :    0.195060
Sum of atomic charges:   -0.0000000

LOEWDIN ATOMIC CHARGES
----------------------
   0 C :   -0.039851
   1 O :   -0.598190
   2 C :    0.376737
   3 O :   -0.389359
   4 C :   -0.182824
   5 C :    0.148450
   6 N :   -0.285562
   7 H :    0.176429
   8 H :    0.175754
   9 H :    0.195974
  10 H :    0.211135
  11 H :    0.211306

  Mayer bond orders larger than 0.100000
B(  0-C ,  1-O ) :   0.8383 B(  0-C ,  7-H ) :   0.9632 B(  0-C ,  8-H ) :   0.9607
B(  0-C ,  9-H ) :   0.9669 B(  1-O ,  2-C ) :   1.0785 B(  2-C ,  3-O ) :   1.8908
B(  2-C ,  4-C ) :   0.9412 B(  4-C ,  5-C ) :   1.0560 B(  4-C , 10-H ) :   0.9360
B(  4-C , 11-H ) :   0.9327 B(  5-C ,  6-N ) :   2.8885

Dispersion correction           -0.002767173
FINAL SINGLE POINT ENERGY      -360.546470745716

DIPOLE MOMENT
-------------

Method             : SCF
Type of density    : Electron Density
Multiplicity       :   1
Irrep              :   0
Energy             :  -360.5515338532302394 Eh
Relativity type    :
Basis              : AO
                                X                 Y                 Z
Electronic contribution:      5.421977686       0.916865800       1.250543350
Nuclear contribution   :     -7.107303084      -1.756912808      -2.407784912
                        -----------------------------------------
Total Dipole Moment    :     -1.685325397      -0.840047007      -1.157241563
                        -----------------------------------------
Magnitude (a.u.)       :      2.210250824
Magnitude (Debye)      :      5.618011123

Rotational constants in cm-1:             0.317772             0.047330             0.041848
Rotational constants in MHz :          9526.560094          1418.908448          1254.569872

                             ****ORCA TERMINATED NORMALLY****
TOTAL RUN TIME: 0 days 0 hours 0 minutes 20 seconds 461 msec
