                         Program Version 6.0.1  -  RELEASE   -
|  1> ! pbe def2-sv(p) def2/J RI DEFGRID1 loosescf d4 GCP(DFT/SV(P)) printgap
|  2> %output
|  3>     printlevel normal
|  4> end
|  5> * xyz 0 1
|  6> C -2.3036909153 -1.0362678918 -0.2358582134
|  7> C -0.9096251243 -0.5519324873 0.1753412844
|  8> H -0.8160239894 -0.6715782434 1.2671972062
|  9> C -0.7214148863 0.9446690248 -0.1649273267
| 10> H -1.2643536359 1.1827444748 -1.0891841456
| 11> C 0.7775761913 1.2490284289 -0.3878309177
| 12> H 0.9592814859 2.2892467463 -0.0741892323
| 13> C 1.6149604259 0.311230047 0.4875402426
| 14> H 2.6806621074 0.5226662902 0.3234420047
| 15> C 1.366950713 -1.1526197275 0.0277930013
| 16> H 1.5281546061 -1.8306677491 0.8856442149
| 17> O 0.0632100379 -1.3313259552 -0.4809410668
| 18> O 2.269448488 -1.5257892741 -0.9425123915
| 19> O 1.2538641815 0.5482884991 1.8298842512
| 20> O 1.1922903682 1.0480585339 -1.7166820852
| 21> O -1.2759849091 1.7702816169 0.8263014718
| 22> O -3.3051992861 -0.417134826 0.5240154465
| 23> H -2.3842521912 -2.1102643933 -0.0561347026
| 24> H -2.4454002658 -0.8534673884 -1.3111238764
| 25> H 2.081331648 -0.9907614241 -1.7283671947
| 26> H 1.8218448879 0.0230737673 2.4044015052
| 27> H 0.6627615831 1.6035353031 -2.2995494151
| 28> H -0.7575647265 1.649980888 1.6338760623
| 29> H -3.1152486152 0.5301727533 0.5751459611
| 30> *
| 31>
| 32>                          ****END OF INPUT****

CARTESIAN COORDINATES (ANGSTROEM)
---------------------------------
  C     -2.303691   -1.036268   -0.235858
  C     -0.909625   -0.551932    0.175341
  H     -0.816024   -0.671578    1.267197
  C     -0.721415    0.944669   -0.164927
  H     -1.264354    1.182744   -1.089184
  C      0.777576    1.249028   -0.387831
  H      0.959281    2.289247   -0.074189
  C      1.614960    0.311230    0.487540
  H      2.680662    0.522666    0.323442
  C      1.366951   -1.152620    0.027793
  H      1.528155   -1.830668    0.885644
  O      0.063210   -1.331326   -0.480941
  O      2.269448   -1.525789   -0.942512
  O      1.253864    0.548288    1.829884
  O      1.192290    1.048059   -1.716682
  O     -1.275985    1.770282    0.826301
  O     -3.305199   -0.417135    0.524015
  H     -2.384252   -2.110264   -0.056135
  H     -2.445400   -0.853467   -1.311124
  H      2.081332   -0.990761   -1.728367
  H      1.821845    0.023074    2.404402
  H      0.662762    1.603535   -2.299549
  H     -0.757565    1.649981    1.633876
  H     -3.115249    0.530173    0.575146

 Total Charge           Charge          ....    0
 Multiplicity           Mult            ....    1
 Number of Electrons    NEL             ....   96
 Basis Dimension        Dim             ....  192

ORBITAL ENERGIES
----------------

  NO   OCC          E(Eh)            E(eV)
   0   2.0000     -18.784090      -511.1411
   1   2.0000     -18.779350      -511.0121
   2   2.0000     -18.767312      -510.6845
   3   2.0000     -18.765459      -510.6341
   4   2.0000     -18.751352      -510.2502
   5   2.0000     -18.736038      -509.8335
   6   2.0000      -9.989072      -271.8165
   7   2.0000      -9.958184      -270.9760
   8   2.0000      -9.955144      -270.8932
   9   2.0000      -9.951669      -270.7987
  10   2.0000      -9.940602      -270.4975
  11   2.0000      -9.925670      -270.0912
  12   2.0000      -0.987556       -26.8728
  13   2.0000      -0.957738       -26.0614
  14   2.0000      -0.952100       -25.9080
  15   2.0000      -0.943834       -25.6830
  16   2.0000      -0.917405       -24.9639
  17   2.0000      -0.910532       -24.7768
  18   2.0000      -0.708902       -19.2902
  19   2.0000      -0.689422       -18.7601
  20   2.0000      -0.617701       -16.8085
  21   2.0000      -0.598598       -16.2887
  22   2.0000      -0.566414       -15.4129
  23   2.0000      -0.533733       -14.5236
  24   2.0000      -0.518440       -14.1075
  25   2.0000      -0.501598       -13.6492
  26   2.0000      -0.480093       -13.0640
  27   2.0000      -0.469073       -12.7641
  28   2.0000      -0.449841       -12.2408
  29   2.0000      -0.438856       -11.9419
  30   2.0000      -0.421313       -11.4645
  31   2.0000      -0.400265       -10.8918
  32   2.0000      -0.385872       -10.5001
  33   2.0000      -0.373411       -10.1610
  34   2.0000      -0.364067        -9.9068
  35   2.0000      -0.349801        -9.5186
  36   2.0000      -0.347664        -9.4604
  37   2.0000      -0.335126        -9.1192
  38   2.0000      -0.313276        -8.5247
  39   2.0000      -0.304522        -8.2865
  40   2.0000      -0.285885        -7.7793
  41   2.0000      -0.280722        -7.6388
  42   2.0000      -0.261923        -7.1273
  43   2.0000      -0.253621        -6.9014
  44   2.0000      -0.240669        -6.5489
  45   2.0000      -0.226218        -6.1557
  46   2.0000      -0.214304        -5.8315
  47   2.0000      -0.197460        -5.3732
  48   0.0000      -0.005232        -0.1424
  49   0.0000       0.014972         0.4074
  50   0.0000       0.035715         0.9719
  51   0.0000       0.056058         1.5254
  52   0.0000       0.065032         1.7696

MULLIKEN ATOMIC CHARGES
-----------------------
   0 C :    0.098661
   1 C :   -0.005066
   2 H :    0.059034
   3 C :    0.021375
   4 H :    0.053052
   5 C :    0.070390
   6 H :    0.075918
   7 C :   -0.042032
   8 H :    0.088877
   9 C :    0.222348
  10 H :    0.048450
  11 O :   -0.290857
  12 O :   -0.389368
  13 O :   -0.419619
  14 O :   -0.420145
  15 O :   -0.425147
  16 O :   -0.443739
  17 H :    0.088402
  18 H :    0.065109
  19 H :    0.304437
  20 H :    0.316105
  21 H :    0.312044
  22 H :    0.312987
  23 H :    0.298783
Sum of atomic charges:   -0.0000000

LOEWDIN ATOMIC CHARGES
----------------------
   0 C :   -0.116633
   1 C :   -0.085187
   2 H :    0.102507
   3 C :   -0.083762
   4 H :    0.109002
   5 C :   -0.069078
   6 H :    0.106966
   7 C :   -0.093520
   8 H :    0.114649
   9 C :    0.002074
  10 H :    0.090788
  11 O :   -0.146186
  12 O :   -0.292197
  13 O :   -0.314080
  14 O :   -0.310757
  15 O :   -0.307133
  16 O :   -0.337798
  17 H :    0.114078
  18 H :    0.091936
  19 H :    0.279517
  20 H :    0.295050
  21 H :    0.292235
  22 H :    0.283692
  23 H :    0.273837

  Mayer bond orders larger than 0.100000
B(  0-C ,  1-C ) :   1.0458 B(  0-C , 16-O ) :   1.0824 B(  0-C , 17-H ) :   0.9194
B(  0-C , 18-H ) :   0.9059 B(  1-C ,  2-H ) :   0.8670 B(  1-C ,  3-C ) :   0.9720
B(  1-C , 11-O ) :   1.0251 B(  3-C ,  4-H ) :   0.8830 B(  3-C ,  5-C ) :   0.9778
B(  3-C , 15-O ) :   1.0119 B(  5-C ,  6-H ) :   0.8937 B(  5-C ,  7-C ) :   1.0351
B(  5-C , 14-O ) :   1.0407 B(  7-C ,  8-H ) :   0.8979 B(  7-C ,  9-C ) :   0.9302
B(  7-C , 13-O ) :   1.0397 B(  9-C , 10-H ) :   0.9034 B(  9-C , 11-O ) :   1.0305
B(  9-C , 12-O ) :   1.1526 B( 12-O , 19-H ) :   0.8257 B( 13-O , 20-H ) :   0.8405
B( 14-O , 21-H ) :   0.8418 B( 15-O , 22-H ) :   0.8270 B( 16-O , 23-H ) :   0.8268

Dispersion correction           -0.025202564
FINAL SINGLE POINT ENERGY      -685.693285993292

DIPOLE MOMENT
-------------

Method             : SCF
Type of density    : Electron Density
Multiplicity       :   1
Irrep              :   0
Energy             :  -685.8261342189895231 Eh
Relativity type    :
Basis              : AO
                                X                 Y                 Z
Electronic contribution:      1.808945233      -0.366937777      -0.376455261
Nuclear contribution   :     -0.981031715       1.262908097       0.498910479
                        -----------------------------------------
Total Dipole Moment    :      0.827913518       0.895970321       0.122455218
                        -----------------------------------------
Magnitude (a.u.)       :      1.226050117
Magnitude (Debye)      :      3.116371735

Rotational constants in cm-1:             0.044584             0.025282             0.022059
Rotational constants in MHz :          1336.582553           757.948859           661.320811

                             ****ORCA TERMINATED NORMALLY****
TOTAL RUN TIME: 0 days 0 hours 5 minutes 41 seconds 133 msec
