                         Program Version 6.0.1  -  RELEASE   -
|  1> ! pbe def2-sv(p) def2/J RI DEFGRID1 loosescf d4 GCP(DFT/SV(P)) printgap
|  2> %output
|  3>     printlevel normal
|  4> end
|  5> * xyz 0 1
|  6> C -4.3916206715 -0.0003493675 -0.0009035894
|  7> C -3.6977171907 -0.5791360041 -1.0501428809
|  8> C -2.3147951106 -0.5826185789 -1.0506382739
|  9> C -1.6153239671 0.0002909002 4.3383e-05
| 10> C -2.3157344442 0.5829303919 1.0501971739
| 11> C -3.698673133 0.5788100754 1.0487486923
| 12> C -0.1380213692 0.0002496014 0.0003952728
| 13> C 0.5890385572 -1.188886181 0.0632569646
| 14> C 1.9742795345 -1.2043559923 0.065396112
| 15> C 2.656760822 -0.0002145994 -7.02947e-05
| 16> C 1.9746601446 1.2041533159 -0.0651457203
| 17> C 0.5894080737 1.1891465845 -0.0625081231
| 18> Cl -0.251714519 2.6902334602 -0.1716928057
| 19> Cl 4.3779308343 -0.0005089314 -0.0006285202
| 20> Cl -0.2525085158 -2.6897007213 0.1728696188
| 21> H -5.4714784794 -0.0007061046 -0.0012296206
| 22> H -4.2346336712 -1.030074027 -1.8714365469
| 23> H -1.7710199582 -1.0270094236 -1.8712775046
| 24> H -1.7727633545 1.0275383581 1.8712284355
| 25> H -4.2363490529 1.0295613325 1.8696716638
| 26> H 2.5083023468 -2.1388061034 0.1194610777
| 27> H 2.5090142623 2.1384184575 -0.119362379
| 28> *
| 29>
| 30>                          ****END OF INPUT****

CARTESIAN COORDINATES (ANGSTROEM)
---------------------------------
  C     -4.391621   -0.000349   -0.000904
  C     -3.697717   -0.579136   -1.050143
  C     -2.314795   -0.582619   -1.050638
  C     -1.615324    0.000291    0.000043
  C     -2.315734    0.582930    1.050197
  C     -3.698673    0.578810    1.048749
  C     -0.138021    0.000250    0.000395
  C      0.589039   -1.188886    0.063257
  C      1.974280   -1.204356    0.065396
  C      2.656761   -0.000215   -0.000070
  C      1.974660    1.204153   -0.065146
  C      0.589408    1.189147   -0.062508
  Cl    -0.251715    2.690233   -0.171693
  Cl     4.377931   -0.000509   -0.000629
  Cl    -0.252509   -2.689701    0.172870
  H     -5.471478   -0.000706   -0.001230
  H     -4.234634   -1.030074   -1.871437
  H     -1.771020   -1.027009   -1.871278
  H     -1.772763    1.027538    1.871228
  H     -4.236349    1.029561    1.869672
  H      2.508302   -2.138806    0.119461
  H      2.509014    2.138418   -0.119362

 Total Charge           Charge          ....    0
 Multiplicity           Mult            ....    1
 Number of Electrons    NEL             ....  130
 Basis Dimension        Dim             ....  236

ORBITAL ENERGIES
----------------

  NO   OCC          E(Eh)            E(eV)
   0   2.0000    -100.652404     -2738.8912
   1   2.0000    -100.652091     -2738.8826
   2   2.0000    -100.652078     -2738.8823
   3   2.0000      -9.972253      -271.3588
   4   2.0000      -9.972249      -271.3587
   5   2.0000      -9.968710      -271.2624
   6   2.0000      -9.933679      -270.3091
   7   2.0000      -9.918714      -269.9019
   8   2.0000      -9.918711      -269.9019
   9   2.0000      -9.917424      -269.8668
  10   2.0000      -9.899572      -269.3810
  11   2.0000      -9.899570      -269.3810
  12   2.0000      -9.895686      -269.2753
  13   2.0000      -9.895602      -269.2730
  14   2.0000      -9.895157      -269.2609
  15   2.0000      -9.188549      -250.0331
  16   2.0000      -9.187974      -250.0175
  17   2.0000      -9.187965      -250.0172
  18   2.0000      -7.019925      -191.0219
  19   2.0000      -7.019347      -191.0061
  20   2.0000      -7.019344      -191.0061
  21   2.0000      -7.008543      -190.7121
  22   2.0000      -7.008088      -190.6998
  23   2.0000      -7.008086      -190.6997
  24   2.0000      -7.007825      -190.6926
  25   2.0000      -7.007118      -190.6734
  26   2.0000      -7.007115      -190.6733
  27   2.0000      -0.850934       -23.1551
  28   2.0000      -0.814329       -22.1590
  29   2.0000      -0.812144       -22.0996
  30   2.0000      -0.782572       -21.2949
  31   2.0000      -0.746818       -20.3219
  32   2.0000      -0.708168       -19.2702
  33   2.0000      -0.676623       -18.4118
  34   2.0000      -0.674428       -18.3521
  35   2.0000      -0.651971       -17.7410
  36   2.0000      -0.567479       -15.4419
  37   2.0000      -0.562443       -15.3048
  38   2.0000      -0.547000       -14.8846
  39   2.0000      -0.532939       -14.5020
  40   2.0000      -0.490771       -13.3545
  41   2.0000      -0.468889       -12.7591
  42   2.0000      -0.460454       -12.5296
  43   2.0000      -0.428682       -11.6650
  44   2.0000      -0.417505       -11.3609
  45   2.0000      -0.412635       -11.2284
  46   2.0000      -0.408782       -11.1235
  47   2.0000      -0.392443       -10.6789
  48   2.0000      -0.388105       -10.5609
  49   2.0000      -0.379302       -10.3213
  50   2.0000      -0.361942        -9.8489
  51   2.0000      -0.359620        -9.7858
  52   2.0000      -0.336310        -9.1515
  53   2.0000      -0.335680        -9.1343
  54   2.0000      -0.331843        -9.0299
  55   2.0000      -0.311295        -8.4708
  56   2.0000      -0.309061        -8.4100
  57   2.0000      -0.284725        -7.7478
  58   2.0000      -0.283837        -7.7236
  59   2.0000      -0.272931        -7.4268
  60   2.0000      -0.271752        -7.3947
  61   2.0000      -0.240846        -6.5538
  62   2.0000      -0.234431        -6.3792
  63   2.0000      -0.229198        -6.2368
  64   2.0000      -0.218145        -5.9360
  65   0.0000      -0.068343        -1.8597
  66   0.0000      -0.062748        -1.7075
  67   0.0000      -0.038722        -1.0537
  68   0.0000      -0.034191        -0.9304
  69   0.0000      -0.024490        -0.6664

MULLIKEN ATOMIC CHARGES
-----------------------
   0 C :   -0.040355
   1 C :   -0.055706
   2 C :   -0.067507
   3 C :    0.021717
   4 C :   -0.067501
   5 C :   -0.055708
   6 C :    0.095858
   7 C :    0.027965
   8 C :   -0.099985
   9 C :    0.122553
  10 C :   -0.099999
  11 C :    0.028024
  12 Cl:   -0.049352
  13 Cl:   -0.067653
  14 Cl:   -0.049335
  15 H :    0.056944
  16 H :    0.056015
  17 H :    0.047734
  18 H :    0.047699
  19 H :    0.056024
  20 H :    0.046279
  21 H :    0.046287
Sum of atomic charges:   -0.0000000

LOEWDIN ATOMIC CHARGES
----------------------
   0 C :   -0.118305
   1 C :   -0.120164
   2 C :   -0.109885
   3 C :   -0.048386
   4 C :   -0.109886
   5 C :   -0.120160
   6 C :   -0.067806
   7 C :   -0.117702
   8 C :   -0.162058
   9 C :   -0.129339
  10 C :   -0.162059
  11 C :   -0.117700
  12 Cl:    0.165884
  13 Cl:    0.148634
  14 Cl:    0.165906
  15 H :    0.125138
  16 H :    0.125767
  17 H :    0.124747
  18 H :    0.124747
  19 H :    0.125766
  20 H :    0.138430
  21 H :    0.138432

  Mayer bond orders larger than 0.100000
B(  0-C ,  1-C ) :   1.3773 B(  0-C ,  5-C ) :   1.3773 B(  0-C , 15-H ) :   0.9650
B(  1-C ,  2-C ) :   1.3690 B(  1-C , 16-H ) :   0.9631 B(  2-C ,  3-C ) :   1.3808
B(  2-C , 17-H ) :   0.9635 B(  3-C ,  4-C ) :   1.3808 B(  3-C ,  6-C ) :   0.9537
B(  4-C ,  5-C ) :   1.3689 B(  4-C , 18-H ) :   0.9635 B(  5-C , 19-H ) :   0.9631
B(  6-C ,  7-C ) :   1.4216 B(  6-C , 11-C ) :   1.4217 B(  7-C ,  8-C ) :   1.3355
B(  7-C , 14-Cl) :   1.0272 B(  8-C ,  9-C ) :   1.3298 B(  8-C , 20-H ) :   0.9718
B(  9-C , 10-C ) :   1.3298 B(  9-C , 13-Cl) :   0.9651 B( 10-C , 11-C ) :   1.3355
B( 10-C , 21-H ) :   0.9718 B( 11-C , 12-Cl) :   1.0272

Dispersion correction           -0.036897510
FINAL SINGLE POINT ENERGY     -1840.126045415191

DIPOLE MOMENT
-------------

Method             : SCF
Type of density    : Electron Density
Multiplicity       :   1
Irrep              :   0
Energy             : -1840.1649322350929197 Eh
Relativity type    :
Basis              : AO
                                X                 Y                 Z
Electronic contribution:     16.663981424       0.000918216       0.003384243
Nuclear contribution   :    -16.897361256      -0.001042848      -0.003498731
                        -----------------------------------------
Total Dipole Moment    :     -0.233379832      -0.000124633      -0.000114488
                        -----------------------------------------
Magnitude (a.u.)       :      0.233379893
Magnitude (Debye)      :      0.593204546

Rotational constants in cm-1:             0.024755             0.009655             0.007367
Rotational constants in MHz :           742.144856           289.438531           220.860536

                             ****ORCA TERMINATED NORMALLY****
TOTAL RUN TIME: 0 days 0 hours 0 minutes 15 seconds 308 msec
