                         Program Version 6.0.1  -  RELEASE   -
|  1> ! r2scan-3c def2/J RI DEFGRID2 scfconv6 printgap
|  2> %output
|  3>     printlevel normal
|  4> end
|  5> * xyz 0 1
|  6> C -1.9483202593 0.1414480145 -0.0002559898
|  7> C -0.5807201211 -0.5282854246 0.0003075126
|  8> C 0.5582286282 0.500630845 0.0002606461
|  9> N 1.8949222535 -0.0665329752 -0.0003211457
| 10> H -2.7403110406 -0.6039810206 0.0009617143
| 11> H -2.0645708384 0.7688087637 0.8807299153
| 12> H -2.0651683668 0.7666081203 -0.8827432757
| 13> H -0.4859844595 -1.1669495024 -0.8828020192
| 14> H -0.4864559028 -1.1666747368 0.8836815317
| 15> H 0.4722248136 1.1388449743 -0.8838635518
| 16> H 0.4726907591 1.1382199206 0.8848523928
| 17> H 2.0255367368 -0.6526388619 0.8182077689
| 18> H 2.0243474845 -0.6536946703 -0.8182816131
| 19> *
| 20>
| 21>                          ****END OF INPUT****

CARTESIAN COORDINATES (ANGSTROEM)
---------------------------------
  C     -1.948320    0.141448   -0.000256
  C     -0.580720   -0.528285    0.000308
  C      0.558229    0.500631    0.000261
  N      1.894922   -0.066533   -0.000321
  H     -2.740311   -0.603981    0.000962
  H     -2.064571    0.768809    0.880730
  H     -2.065168    0.766608   -0.882743
  H     -0.485984   -1.166950   -0.882802
  H     -0.486456   -1.166675    0.883682
  H      0.472225    1.138845   -0.883864
  H      0.472691    1.138220    0.884852
  H      2.025537   -0.652639    0.818208
  H      2.024347   -0.653695   -0.818282

 Total Charge           Charge          ....    0
 Multiplicity           Mult            ....    1
 Number of Electrons    NEL             ....   34
 Basis Dimension        Dim             ....  126

ORBITAL ENERGIES
----------------

  NO   OCC          E(Eh)            E(eV)
   0   2.0000     -14.132903      -384.5758
   1   2.0000     -10.047020      -273.3933
   2   2.0000     -10.023445      -272.7518
   3   2.0000     -10.017603      -272.5928
   4   2.0000      -0.845635       -23.0109
   5   2.0000      -0.733077       -19.9480
   6   2.0000      -0.623268       -16.9600
   7   2.0000      -0.554966       -15.1014
   8   2.0000      -0.468253       -12.7418
   9   2.0000      -0.415312       -11.3012
  10   2.0000      -0.409169       -11.1340
  11   2.0000      -0.372979       -10.1493
  12   2.0000      -0.338973        -9.2239
  13   2.0000      -0.335676        -9.1342
  14   2.0000      -0.313576        -8.5328
  15   2.0000      -0.298421        -8.1204
  16   2.0000      -0.201153        -5.4737
  17   0.0000       0.075646         2.0584
  18   0.0000       0.102355         2.7852
  19   0.0000       0.132276         3.5994
  20   0.0000       0.139057         3.7839
  21   0.0000       0.144290         3.9263

MULLIKEN ATOMIC CHARGES
-----------------------
   0 C :   -0.475196
   1 C :   -0.183300
   2 C :   -0.260734
   3 N :   -0.527331
   4 H :    0.145843
   5 H :    0.141404
   6 H :    0.141467
   7 H :    0.127998
   8 H :    0.128026
   9 H :    0.141840
  10 H :    0.141805
  11 H :    0.239098
  12 H :    0.239079
Sum of atomic charges:    0.0000000

LOEWDIN ATOMIC CHARGES
----------------------
   0 C :   -0.426928
   1 C :   -0.313412
   2 C :   -0.085808
   3 N :   -0.733923
   4 H :    0.151077
   5 H :    0.150099
   6 H :    0.150102
   7 H :    0.149102
   8 H :    0.149111
   9 H :    0.171202
  10 H :    0.171208
  11 H :    0.234086
  12 H :    0.234083

  Mayer bond orders larger than 0.100000
B(  0-C ,  1-C ) :   0.9037 B(  0-C ,  4-H ) :   0.9701 B(  0-C ,  5-H ) :   0.9821
B(  0-C ,  6-H ) :   0.9821 B(  1-C ,  2-C ) :   0.8826 B(  1-C ,  7-H ) :   0.9594
B(  1-C ,  8-H ) :   0.9593 B(  2-C ,  3-N ) :   0.9467 B(  2-C ,  9-H ) :   0.9980
B(  2-C , 10-H ) :   0.9979 B(  3-N , 11-H ) :   0.9181 B(  3-N , 12-H ) :   0.9181

Dispersion correction           -0.002388198
FINAL SINGLE POINT ENERGY      -174.424567391186

DIPOLE MOMENT
-------------

Method             : SCF
Type of density    : Electron Density
Multiplicity       :   1
Irrep              :   0
Energy             :  -174.4313909617771685 Eh
Relativity type    :
Basis              : AO
                                X                 Y                 Z
Electronic contribution:      2.330503763       0.004368012      -0.000139255
Nuclear contribution   :     -2.661242234      -0.405140148       0.000695171
                        -----------------------------------------
Total Dipole Moment    :     -0.330738471      -0.400772137       0.000555916
                        -----------------------------------------
Magnitude (a.u.)       :      0.519621546
Magnitude (Debye)      :      1.320773006

Rotational constants in cm-1:             0.822116             0.124773             0.117492
Rotational constants in MHz :         24646.419712          3740.602592          3522.334546

                             ****ORCA TERMINATED NORMALLY****
TOTAL RUN TIME: 0 days 0 hours 0 minutes 14 seconds 652 msec
