                         Program Version 6.0.1  -  RELEASE   -
|  1> ! r2scan-3c def2/J RI DEFGRID2 scfconv6 printgap
|  2> %output
|  3>     printlevel normal
|  4> end
|  5> * xyz 0 1
|  6> C -3.1493883548 0.020250083 1.0596254692
|  7> O -1.7533086713 0.0470270666 0.7983795893
|  8> C -1.361842468 -0.0586002351 -0.4781755647
|  9> O -2.1229589456 -0.1660896712 -1.4040659011
| 10> C 0.1463514574 -0.0254096305 -0.5993993714
| 11> C 0.758741318 -1.237323147 0.1121985981
| 12> C 2.278448395 -1.2127349651 -0.0170717736
| 13> C 2.8441220977 0.0798189554 0.5629182921
| 14> C 2.2316017795 1.2889563724 -0.1370631484
| 15> C 0.7117738519 1.2695725278 -0.007414082
| 16> H -3.340446622 0.7247842934 1.8670703501
| 17> H -3.4426697865 -0.9858546608 1.3652041586
| 18> H -3.7028284896 0.3025054004 0.1621873781
| 19> H 0.3829899395 -0.073450613 -1.6670127331
| 20> H 0.4780562624 -1.2076174025 1.166773754
| 21> H 0.3611284866 -2.1577082983 -0.3211042324
| 22> H 2.7040376625 -2.0729989865 0.5033399834
| 23> H 2.554182477 -1.2889211746 -1.0712521911
| 24> H 2.6180247354 0.1267781687 1.6305173117
| 25> H 3.929912281 0.0945926131 0.4492346646
| 26> H 2.6245534134 2.210235151 0.2974666086
| 27> H 2.5058834274 1.273752639 -1.1942959553
| 28> H 0.4308419588 1.3304109781 1.045518791
| 29> H 0.2812943702 2.1294854183 -0.5251998868
| 30> *
| 31>
| 32>                          ****END OF INPUT****

CARTESIAN COORDINATES (ANGSTROEM)
---------------------------------
  C     -3.149388    0.020250    1.059625
  O     -1.753309    0.047027    0.798380
  C     -1.361842   -0.058600   -0.478176
  O     -2.122959   -0.166090   -1.404066
  C      0.146351   -0.025410   -0.599399
  C      0.758741   -1.237323    0.112199
  C      2.278448   -1.212735   -0.017072
  C      2.844122    0.079819    0.562918
  C      2.231602    1.288956   -0.137063
  C      0.711774    1.269573   -0.007414
  H     -3.340447    0.724784    1.867070
  H     -3.442670   -0.985855    1.365204
  H     -3.702828    0.302505    0.162187
  H      0.382990   -0.073451   -1.667013
  H      0.478056   -1.207617    1.166774
  H      0.361128   -2.157708   -0.321104
  H      2.704038   -2.072999    0.503340
  H      2.554182   -1.288921   -1.071252
  H      2.618025    0.126778    1.630517
  H      3.929912    0.094593    0.449235
  H      2.624553    2.210235    0.297467
  H      2.505883    1.273753   -1.194296
  H      0.430842    1.330411    1.045519
  H      0.281294    2.129485   -0.525200

 Total Charge           Charge          ....    0
 Multiplicity           Mult            ....    1
 Number of Electrons    NEL             ....   78
 Basis Dimension        Dim             ....  270

ORBITAL ENERGIES
----------------

  NO   OCC          E(Eh)            E(eV)
   0   2.0000     -18.996956      -516.9334
   1   2.0000     -18.929132      -515.0879
   2   2.0000     -10.148766      -276.1620
   3   2.0000     -10.082852      -274.3684
   4   2.0000     -10.045022      -273.3389
   5   2.0000     -10.031974      -272.9839
   6   2.0000     -10.031210      -272.9631
   7   2.0000     -10.028112      -272.8788
   8   2.0000     -10.027864      -272.8721
   9   2.0000     -10.026372      -272.8315
  10   2.0000      -1.071489       -29.1567
  11   2.0000      -0.980037       -26.6682
  12   2.0000      -0.811631       -22.0856
  13   2.0000      -0.737395       -20.0655
  14   2.0000      -0.714776       -19.4500
  15   2.0000      -0.686180       -18.6719
  16   2.0000      -0.596447       -16.2301
  17   2.0000      -0.581787       -15.8312
  18   2.0000      -0.533445       -14.5158
  19   2.0000      -0.529581       -14.4106
  20   2.0000      -0.476696       -12.9716
  21   2.0000      -0.449278       -12.2255
  22   2.0000      -0.447392       -12.1742
  23   2.0000      -0.429036       -11.6747
  24   2.0000      -0.414714       -11.2849
  25   2.0000      -0.409282       -11.1371
  26   2.0000      -0.394842       -10.7442
  27   2.0000      -0.378910       -10.3107
  28   2.0000      -0.364792        -9.9265
  29   2.0000      -0.353305        -9.6139
  30   2.0000      -0.334900        -9.1131
  31   2.0000      -0.323837        -8.8121
  32   2.0000      -0.319028        -8.6812
  33   2.0000      -0.316681        -8.6173
  34   2.0000      -0.296647        -8.0722
  35   2.0000      -0.287385        -7.8201
  36   2.0000      -0.273126        -7.4321
  37   2.0000      -0.270854        -7.3703
  38   2.0000      -0.230336        -6.2678
  39   0.0000      -0.012468        -0.3393
  40   0.0000       0.061890         1.6841
  41   0.0000       0.092244         2.5101
  42   0.0000       0.098072         2.6687
  43   0.0000       0.107073         2.9136

MULLIKEN ATOMIC CHARGES
-----------------------
   0 C :   -0.301964
   1 O :   -0.203022
   2 C :    0.338457
   3 O :   -0.410993
   4 C :   -0.047096
   5 C :   -0.359794
   6 C :   -0.273192
   7 C :   -0.294264
   8 C :   -0.273504
   9 C :   -0.364347
  10 H :    0.146303
  11 H :    0.148571
  12 H :    0.183079
  13 H :    0.187177
  14 H :    0.169099
  15 H :    0.150537
  16 H :    0.148019
  17 H :    0.147436
  18 H :    0.144376
  19 H :    0.149667
  20 H :    0.147927
  21 H :    0.147450
  22 H :    0.170050
  23 H :    0.150026
Sum of atomic charges:   -0.0000000

LOEWDIN ATOMIC CHARGES
----------------------
   0 C :   -0.047619
   1 O :   -0.615586
   2 C :    0.362798
   3 O :   -0.421190
   4 C :   -0.152677
   5 C :   -0.270983
   6 C :   -0.299848
   7 C :   -0.303814
   8 C :   -0.300137
   9 C :   -0.271707
  10 H :    0.173190
  11 H :    0.170850
  12 H :    0.191379
  13 H :    0.182026
  14 H :    0.168989
  15 H :    0.163556
  16 H :    0.157001
  17 H :    0.156421
  18 H :    0.155290
  19 H :    0.155728
  20 H :    0.156910
  21 H :    0.156316
  22 H :    0.169961
  23 H :    0.163145

  Mayer bond orders larger than 0.100000
B(  0-C ,  1-O ) :   0.8508 B(  0-C , 10-H ) :   0.9697 B(  0-C , 11-H ) :   0.9606
B(  0-C , 12-H ) :   0.9705 B(  1-O ,  2-C ) :   1.0027 B(  2-C ,  3-O ) :   1.8904
B(  2-C ,  4-C ) :   1.0165 B(  4-C ,  5-C ) :   0.9109 B(  4-C ,  9-C ) :   0.9047
B(  4-C , 13-H ) :   0.9508 B(  5-C ,  6-C ) :   0.8921 B(  5-C , 14-H ) :   0.9998
B(  5-C , 15-H ) :   0.9355 B(  6-C ,  7-C ) :   0.9168 B(  6-C , 16-H ) :   0.9442
B(  6-C , 17-H ) :   0.9909 B(  7-C ,  8-C ) :   0.9158 B(  7-C , 18-H ) :   0.9952
B(  7-C , 19-H ) :   0.9496 B(  8-C ,  9-C ) :   0.8905 B(  8-C , 20-H ) :   0.9442
B(  8-C , 21-H ) :   0.9911 B(  9-C , 22-H ) :   0.9992 B(  9-C , 23-H ) :   0.9371

Dispersion correction           -0.007618980
FINAL SINGLE POINT ENERGY      -463.634738344923

DIPOLE MOMENT
-------------

Method             : SCF
Type of density    : Electron Density
Multiplicity       :   1
Irrep              :   0
Energy             :  -463.6403150927301340 Eh
Relativity type    :
Basis              : AO
                                X                 Y                 Z
Electronic contribution:     -7.433882015      -0.303080183      -2.701899750
Nuclear contribution   :      7.809023393       0.379124532       3.470164021
                        -----------------------------------------
Total Dipole Moment    :      0.375141378       0.076044348       0.768264271
                        -----------------------------------------
Magnitude (a.u.)       :      0.858337805
Magnitude (Debye)      :      2.181721315

Rotational constants in cm-1:             0.090677             0.025305             0.024589
Rotational constants in MHz :          2718.440729           758.621124           737.163365

                             ****ORCA TERMINATED NORMALLY****
TOTAL RUN TIME: 0 days 0 hours 0 minutes 29 seconds 34 msec
