                         Program Version 6.0.1  -  RELEASE   -
|  1> ! pbe def2-sv(p) def2/J RI DEFGRID1 loosescf d4 GCP(DFT/SV(P)) printgap
|  2> %output
|  3>     printlevel normal
|  4> end
|  5> * xyz 0 1
|  6> C 1.581706802 1.3013156455 -0.0001765654
|  7> C 0.2003043642 1.3646238513 -0.0005059883
|  8> C -0.5263956504 0.1738645839 -0.0003820325
|  9> C 0.1891910515 -1.0280207166 -5.18232e-05
| 10> N 1.50491038 -1.0879035417 0.0003183087
| 11> C 2.1828225057 0.048466407 0.0003119322
| 12> C -1.995231449 0.1741615857 -0.0001891234
| 13> O -2.6909248525 -0.8067867919 0.0005195554
| 14> H 2.1815356919 2.1980392974 -0.0001625473
| 15> H -0.3149565789 2.3154737111 -0.0008027217
| 16> H -0.3410869669 -1.9710378614 4.28377e-05
| 17> H 3.2601471453 -0.0529933563 0.0007366133
| 18> H -2.4365699349 1.1921615553 -0.0006445131
| 19> *
| 20>
| 21>                          ****END OF INPUT****

CARTESIAN COORDINATES (ANGSTROEM)
---------------------------------
  C      1.581707    1.301316   -0.000177
  C      0.200304    1.364624   -0.000506
  C     -0.526396    0.173865   -0.000382
  C      0.189191   -1.028021   -0.000052
  N      1.504910   -1.087904    0.000318
  C      2.182823    0.048466    0.000312
  C     -1.995231    0.174162   -0.000189
  O     -2.690925   -0.806787    0.000520
  H      2.181536    2.198039   -0.000163
  H     -0.314957    2.315474   -0.000803
  H     -0.341087   -1.971038    0.000043
  H      3.260147   -0.052993    0.000737
  H     -2.436570    1.192162   -0.000645

 Total Charge           Charge          ....    0
 Multiplicity           Mult            ....    1
 Number of Electrons    NEL             ....   56
 Basis Dimension        Dim             ....  122

ORBITAL ENERGIES
----------------

  NO   OCC          E(Eh)            E(eV)
   0   2.0000     -18.761201      -510.5182
   1   2.0000     -14.000618      -380.9762
   2   2.0000      -9.982409      -271.6351
   3   2.0000      -9.945433      -270.6290
   4   2.0000      -9.942226      -270.5417
   5   2.0000      -9.934853      -270.3411
   6   2.0000      -9.923158      -270.0229
   7   2.0000      -9.922413      -270.0026
   8   2.0000      -0.958125       -26.0719
   9   2.0000      -0.879861       -23.9422
  10   2.0000      -0.753362       -20.5000
  11   2.0000      -0.711680       -19.3658
  12   2.0000      -0.614588       -16.7238
  13   2.0000      -0.585173       -15.9234
  14   2.0000      -0.537766       -14.6333
  15   2.0000      -0.487627       -13.2690
  16   2.0000      -0.459505       -12.5038
  17   2.0000      -0.428992       -11.6735
  18   2.0000      -0.408973       -11.1287
  19   2.0000      -0.394605       -10.7378
  20   2.0000      -0.387069       -10.5327
  21   2.0000      -0.377894       -10.2830
  22   2.0000      -0.359847        -9.7919
  23   2.0000      -0.343231        -9.3398
  24   2.0000      -0.284531        -7.7425
  25   2.0000      -0.259746        -7.0680
  26   2.0000      -0.230068        -6.2605
  27   2.0000      -0.210394        -5.7251
  28   0.0000      -0.109691        -2.9848
  29   0.0000      -0.072641        -1.9767
  30   0.0000      -0.015079        -0.4103
  31   0.0000       0.035923         0.9775
  32   0.0000       0.066918         1.8209

MULLIKEN ATOMIC CHARGES
-----------------------
   0 C :   -0.062744
   1 C :   -0.043522
   2 C :    0.008520
   3 C :   -0.065678
   4 N :   -0.045292
   5 C :   -0.047778
   6 C :    0.050810
   7 O :   -0.140764
   8 H :    0.072558
   9 H :    0.070312
  10 H :    0.083331
  11 H :    0.083017
  12 H :    0.037229
Sum of atomic charges:    0.0000000

LOEWDIN ATOMIC CHARGES
----------------------
   0 C :   -0.137165
   1 C :   -0.074853
   2 C :   -0.115331
   3 C :   -0.037867
   4 N :   -0.064715
   5 C :   -0.059384
   6 C :    0.004965
   7 O :   -0.105245
   8 H :    0.133464
   9 H :    0.131548
  10 H :    0.125967
  11 H :    0.120488
  12 H :    0.078128

  Mayer bond orders larger than 0.100000
B(  0-C ,  1-C ) :   1.4143 B(  0-C ,  5-C ) :   1.3725 B(  0-C ,  8-H ) :   0.9479
B(  1-C ,  2-C ) :   1.3601 B(  1-C ,  9-H ) :   0.9522 B(  2-C ,  3-C ) :   1.3177
B(  2-C ,  6-C ) :   0.9757 B(  3-C ,  4-N ) :   1.5597 B(  3-C , 10-H ) :   0.9478
B(  4-N ,  5-C ) :   1.5317 B(  5-C , 11-H ) :   0.9519 B(  6-C ,  7-O ) :   2.1652
B(  6-C , 12-H ) :   0.9125

Dispersion correction           -0.013064271
FINAL SINGLE POINT ENERGY      -360.862570146154

DIPOLE MOMENT
-------------

Method             : SCF
Type of density    : Electron Density
Multiplicity       :   1
Irrep              :   0
Energy             :  -360.8987018289405455 Eh
Relativity type    :
Basis              : AO
                                X                 Y                 Z
Electronic contribution:     -1.555617505      -2.174982378       0.000256756
Nuclear contribution   :      2.172254069       3.436092410      -0.000769552
                        -----------------------------------------
Total Dipole Moment    :      0.616636564       1.261110032      -0.000512796
                        -----------------------------------------
Magnitude (a.u.)       :      1.403794653
Magnitude (Debye)      :      3.568162442

Rotational constants in cm-1:             0.181179             0.053628             0.041380
Rotational constants in MHz :          5431.599933          1607.712738          1240.526329

                             ****ORCA TERMINATED NORMALLY****
TOTAL RUN TIME: 0 days 0 hours 0 minutes 14 seconds 641 msec
