                         Program Version 6.0.1  -  RELEASE   -
|  1> ! pbe def2-sv(p) def2/J RI DEFGRID1 loosescf d4 GCP(DFT/SV(P)) printgap
|  2> %output
|  3>     printlevel normal
|  4> end
|  5> * xyz 0 1
|  6> C -2.5003556139 -0.720542417 0.0415897873
|  7> C -1.1020321458 -0.4480796136 0.6139557586
|  8> H -1.08573091 -0.7256209902 1.6806238827
|  9> C -0.7197733789 1.0469927615 0.5275807444
| 10> H -1.5847523863 1.6310203302 0.1787348368
| 11> C 0.433853995 1.2242131608 -0.4876765425
| 12> H 0.7418066693 2.276851671 -0.512436955
| 13> C 1.6368580408 0.3731658756 -0.0297847376
| 14> H 2.3766874113 0.3264563709 -0.8351439369
| 15> C 1.1568350858 -1.0738382203 0.2522677191
| 16> H 1.2712357708 -1.2808818654 1.3384597027
| 17> O -0.1985727584 -1.2622528109 -0.1036275404
| 18> O 1.9057971028 -1.9448255592 -0.5129425977
| 19> O 2.284200685 0.9417215657 1.070445722
| 20> O -0.0001140092 0.908013572 -1.7814740763
| 21> O -0.3500948613 1.4713762473 1.825332307
| 22> O -2.5976497477 -0.494045314 -1.3343422649
| 23> H -3.2225795595 -0.1046581481 0.5998659033
| 24> H -2.7468211056 -1.774156644 0.1891662077
| 25> H 1.4982340376 -2.8193649636 -0.4810687461
| 26> H 1.6388064674 1.027370714 1.7899176037
| 27> H -0.0503342967 -0.0582340397 -1.855573435
| 28> H -0.2340802524 2.4290792797 1.8243798016
| 29> H -2.1236817697 0.3149294205 -1.5754790573
| 30> *
| 31>
| 32>                          ****END OF INPUT****

CARTESIAN COORDINATES (ANGSTROEM)
---------------------------------
  C     -2.500356   -0.720542    0.041590
  C     -1.102032   -0.448080    0.613956
  H     -1.085731   -0.725621    1.680624
  C     -0.719773    1.046993    0.527581
  H     -1.584752    1.631020    0.178735
  C      0.433854    1.224213   -0.487677
  H      0.741807    2.276852   -0.512437
  C      1.636858    0.373166   -0.029785
  H      2.376687    0.326456   -0.835144
  C      1.156835   -1.073838    0.252268
  H      1.271236   -1.280882    1.338460
  O     -0.198573   -1.262253   -0.103628
  O      1.905797   -1.944826   -0.512943
  O      2.284201    0.941722    1.070446
  O     -0.000114    0.908014   -1.781474
  O     -0.350095    1.471376    1.825332
  O     -2.597650   -0.494045   -1.334342
  H     -3.222580   -0.104658    0.599866
  H     -2.746821   -1.774157    0.189166
  H      1.498234   -2.819365   -0.481069
  H      1.638806    1.027371    1.789918
  H     -0.050334   -0.058234   -1.855573
  H     -0.234080    2.429079    1.824380
  H     -2.123682    0.314929   -1.575479

 Total Charge           Charge          ....    0
 Multiplicity           Mult            ....    1
 Number of Electrons    NEL             ....   96
 Basis Dimension        Dim             ....  192

ORBITAL ENERGIES
----------------

  NO   OCC          E(Eh)            E(eV)
   0   2.0000     -18.790625      -511.3189
   1   2.0000     -18.786561      -511.2083
   2   2.0000     -18.768029      -510.7040
   3   2.0000     -18.766793      -510.6704
   4   2.0000     -18.747848      -510.1549
   5   2.0000     -18.747040      -510.1329
   6   2.0000      -9.994064      -271.9523
   7   2.0000      -9.963196      -271.1123
   8   2.0000      -9.959812      -271.0203
   9   2.0000      -9.952683      -270.8263
  10   2.0000      -9.942861      -270.5590
  11   2.0000      -9.941105      -270.5112
  12   2.0000      -1.000171       -27.2160
  13   2.0000      -0.966431       -26.2979
  14   2.0000      -0.945775       -25.7359
  15   2.0000      -0.934498       -25.4290
  16   2.0000      -0.925480       -25.1836
  17   2.0000      -0.920007       -25.0347
  18   2.0000      -0.713570       -19.4172
  19   2.0000      -0.691794       -18.8247
  20   2.0000      -0.629228       -17.1222
  21   2.0000      -0.603482       -16.4216
  22   2.0000      -0.574473       -15.6322
  23   2.0000      -0.530858       -14.4454
  24   2.0000      -0.516083       -14.0433
  25   2.0000      -0.503185       -13.6924
  26   2.0000      -0.492470       -13.4008
  27   2.0000      -0.482336       -13.1250
  28   2.0000      -0.460141       -12.5211
  29   2.0000      -0.429425       -11.6852
  30   2.0000      -0.416083       -11.3222
  31   2.0000      -0.410121       -11.1600
  32   2.0000      -0.397296       -10.8110
  33   2.0000      -0.382295       -10.4028
  34   2.0000      -0.360818        -9.8184
  35   2.0000      -0.356424        -9.6988
  36   2.0000      -0.347577        -9.4580
  37   2.0000      -0.332115        -9.0373
  38   2.0000      -0.323604        -8.8057
  39   2.0000      -0.311102        -8.4655
  40   2.0000      -0.285738        -7.7753
  41   2.0000      -0.278706        -7.5840
  42   2.0000      -0.270638        -7.3644
  43   2.0000      -0.258872        -7.0443
  44   2.0000      -0.249049        -6.7770
  45   2.0000      -0.223687        -6.0868
  46   2.0000      -0.221545        -6.0285
  47   2.0000      -0.208662        -5.6780
  48   0.0000      -0.002894        -0.0788
  49   0.0000       0.019106         0.5199
  50   0.0000       0.035892         0.9767
  51   0.0000       0.050259         1.3676
  52   0.0000       0.056234         1.5302

MULLIKEN ATOMIC CHARGES
-----------------------
   0 C :    0.085558
   1 C :   -0.000607
   2 H :    0.077051
   3 C :   -0.028135
   4 H :    0.084301
   5 C :    0.022756
   6 H :    0.074894
   7 C :    0.073430
   8 H :    0.092673
   9 C :    0.182287
  10 H :    0.043717
  11 O :   -0.309920
  12 O :   -0.376882
  13 O :   -0.425828
  14 O :   -0.419196
  15 O :   -0.413833
  16 O :   -0.440957
  17 H :    0.080563
  18 H :    0.090364
  19 H :    0.304535
  20 H :    0.288844
  21 H :    0.314900
  22 H :    0.312545
  23 H :    0.286942
Sum of atomic charges:   -0.0000000

LOEWDIN ATOMIC CHARGES
----------------------
   0 C :   -0.118081
   1 C :   -0.074997
   2 H :    0.115915
   3 C :   -0.085426
   4 H :    0.106496
   5 C :   -0.085680
   6 H :    0.114048
   7 C :   -0.084477
   8 H :    0.128410
   9 C :    0.000431
  10 H :    0.082624
  11 O :   -0.155132
  12 O :   -0.289657
  13 O :   -0.314199
  14 O :   -0.302437
  15 O :   -0.306596
  16 O :   -0.334452
  17 H :    0.099017
  18 H :    0.117206
  19 H :    0.288597
  20 H :    0.263995
  21 H :    0.277079
  22 H :    0.293088
  23 H :    0.264230

  Mayer bond orders larger than 0.100000
B(  0-C ,  1-C ) :   1.0411 B(  0-C , 16-O ) :   1.0986 B(  0-C , 17-H ) :   0.9141
B(  0-C , 18-H ) :   0.9153 B(  1-C ,  2-H ) :   0.8732 B(  1-C ,  3-C ) :   0.9640
B(  1-C , 11-O ) :   1.0037 B(  3-C ,  4-H ) :   0.9035 B(  3-C ,  5-C ) :   0.9732
B(  3-C , 15-O ) :   1.0256 B(  5-C ,  6-H ) :   0.8972 B(  5-C ,  7-C ) :   0.9836
B(  5-C , 14-O ) :   1.0387 B(  7-C ,  8-H ) :   0.8875 B(  7-C ,  9-C ) :   0.9653
B(  7-C , 13-O ) :   1.0542 B(  9-C , 10-H ) :   0.8841 B(  9-C , 11-O ) :   1.0052
B(  9-C , 12-O ) :   1.1633 B( 12-O , 19-H ) :   0.8402 B( 13-O , 20-H ) :   0.8122
B( 14-O , 21-H ) :   0.8035 B( 15-O , 20-H ) :   0.1077 B( 15-O , 22-H ) :   0.8366
B( 16-O , 23-H ) :   0.8061

Dispersion correction           -0.025663408
FINAL SINGLE POINT ENERGY      -685.693448096574

DIPOLE MOMENT
-------------

Method             : SCF
Type of density    : Electron Density
Multiplicity       :   1
Irrep              :   0
Energy             :  -685.8279933515477751 Eh
Relativity type    :
Basis              : AO
                                X                 Y                 Z
Electronic contribution:      2.789412973      -0.886918629      -1.263751250
Nuclear contribution   :     -3.288034024       1.160319817       2.184280561
                        -----------------------------------------
Total Dipole Moment    :     -0.498621051       0.273401188       0.920529311
                        -----------------------------------------
Magnitude (a.u.)       :      1.082009877
Magnitude (Debye)      :      2.750250543

Rotational constants in cm-1:             0.041353             0.028382             0.023517
Rotational constants in MHz :          1239.724981           850.869421           705.031376

                             ****ORCA TERMINATED NORMALLY****
TOTAL RUN TIME: 0 days 0 hours 0 minutes 8 seconds 372 msec
