                         Program Version 6.0.1  -  RELEASE   -
|  1> ! pbe def2-sv(p) def2/J RI DEFGRID1 loosescf d4 GCP(DFT/SV(P)) printgap
|  2> %output
|  3>     printlevel normal
|  4> end
|  5> * xyz 0 1
|  6> C -2.4060187098 -1.1504626595 -0.291616109
|  7> C -1.0558055479 -0.6333629252 0.2338853304
|  8> H -1.0726047375 -0.6443322404 1.3382958533
|  9> C -0.7681402691 0.7994920987 -0.2475913135
| 10> H -0.8291048261 0.8288683321 -1.3418953501
| 11> C 0.6406612724 1.2583572485 0.1725352548
| 12> H 0.6642648377 1.4013597931 1.2680659958
| 13> C 1.6911508433 0.2036651001 -0.1809812428
| 14> H 1.8333488095 0.211155451 -1.2737028621
| 15> C 1.2214319737 -1.2031755014 0.2586459035
| 16> H 1.2324847556 -1.2432391536 1.362285877
| 17> O -0.0561819732 -1.506517695 -0.2395608857
| 18> O 2.1058082092 -2.1741836995 -0.1831850785
| 19> O 2.886039225 0.5145661348 0.4807232119
| 20> O 0.9666019178 2.4555009193 -0.479800562
| 21> O -1.7342710912 1.7252159196 0.2040272825
| 22> O -3.493605139 -0.4639881605 0.2559341319
| 23> H -2.5150933534 -2.1978348239 -0.0032091159
| 24> H -2.3997787549 -1.0894373843 -1.3884765356
| 25> H 1.850079733 -2.4203863878 -1.0808383529
| 26> H 3.4964440495 -0.2238328861 0.3557131962
| 27> H 0.2168973902 3.0590421969 -0.3934585032
| 28> H -1.7188905097 1.7487711241 1.1699267425
| 29> H -3.3989488416 0.4752689725 0.038772114
| 30> *
| 31>
| 32>                          ****END OF INPUT****

CARTESIAN COORDINATES (ANGSTROEM)
---------------------------------
  C     -2.406019   -1.150463   -0.291616
  C     -1.055806   -0.633363    0.233885
  H     -1.072605   -0.644332    1.338296
  C     -0.768140    0.799492   -0.247591
  H     -0.829105    0.828868   -1.341895
  C      0.640661    1.258357    0.172535
  H      0.664265    1.401360    1.268066
  C      1.691151    0.203665   -0.180981
  H      1.833349    0.211155   -1.273703
  C      1.221432   -1.203176    0.258646
  H      1.232485   -1.243239    1.362286
  O     -0.056182   -1.506518   -0.239561
  O      2.105808   -2.174184   -0.183185
  O      2.886039    0.514566    0.480723
  O      0.966602    2.455501   -0.479801
  O     -1.734271    1.725216    0.204027
  O     -3.493605   -0.463988    0.255934
  H     -2.515093   -2.197835   -0.003209
  H     -2.399779   -1.089437   -1.388477
  H      1.850080   -2.420386   -1.080838
  H      3.496444   -0.223833    0.355713
  H      0.216897    3.059042   -0.393459
  H     -1.718891    1.748771    1.169927
  H     -3.398949    0.475269    0.038772

 Total Charge           Charge          ....    0
 Multiplicity           Mult            ....    1
 Number of Electrons    NEL             ....   96
 Basis Dimension        Dim             ....  192

ORBITAL ENERGIES
----------------

  NO   OCC          E(Eh)            E(eV)
   0   2.0000     -18.790831      -511.3245
   1   2.0000     -18.787841      -511.2432
   2   2.0000     -18.772861      -510.8355
   3   2.0000     -18.752451      -510.2801
   4   2.0000     -18.751576      -510.2563
   5   2.0000     -18.746561      -510.1199
   6   2.0000      -9.994940      -271.9761
   7   2.0000      -9.958285      -270.9787
   8   2.0000      -9.956092      -270.9190
   9   2.0000      -9.951680      -270.7990
  10   2.0000      -9.944718      -270.6095
  11   2.0000      -9.936781      -270.3935
  12   2.0000      -0.999752       -27.2046
  13   2.0000      -0.970380       -26.4054
  14   2.0000      -0.941712       -25.6253
  15   2.0000      -0.931844       -25.3568
  16   2.0000      -0.925296       -25.1786
  17   2.0000      -0.919817       -25.0295
  18   2.0000      -0.712605       -19.3910
  19   2.0000      -0.697185       -18.9714
  20   2.0000      -0.619899       -16.8683
  21   2.0000      -0.602082       -16.3835
  22   2.0000      -0.566253       -15.4085
  23   2.0000      -0.549169       -14.9437
  24   2.0000      -0.512924       -13.9574
  25   2.0000      -0.497279       -13.5316
  26   2.0000      -0.487178       -13.2568
  27   2.0000      -0.468714       -12.7544
  28   2.0000      -0.454088       -12.3564
  29   2.0000      -0.449601       -12.2343
  30   2.0000      -0.424871       -11.5613
  31   2.0000      -0.401150       -10.9158
  32   2.0000      -0.396540       -10.7904
  33   2.0000      -0.379058       -10.3147
  34   2.0000      -0.371754       -10.1160
  35   2.0000      -0.359074        -9.7709
  36   2.0000      -0.333228        -9.0676
  37   2.0000      -0.331392        -9.0176
  38   2.0000      -0.316036        -8.5998
  39   2.0000      -0.301722        -8.2103
  40   2.0000      -0.300752        -8.1839
  41   2.0000      -0.287330        -7.8186
  42   2.0000      -0.265688        -7.2297
  43   2.0000      -0.248784        -6.7698
  44   2.0000      -0.242734        -6.6051
  45   2.0000      -0.228766        -6.2250
  46   2.0000      -0.222691        -6.0597
  47   2.0000      -0.203887        -5.5480
  48   0.0000      -0.000896        -0.0244
  49   0.0000       0.018751         0.5102
  50   0.0000       0.033104         0.9008
  51   0.0000       0.045685         1.2431
  52   0.0000       0.058401         1.5892

MULLIKEN ATOMIC CHARGES
-----------------------
   0 C :    0.104797
   1 C :   -0.011314
   2 H :    0.050396
   3 C :   -0.000891
   4 H :    0.074638
   5 C :    0.093195
   6 H :    0.044105
   7 C :    0.065401
   8 H :    0.046346
   9 C :    0.163829
  10 H :    0.056800
  11 O :   -0.301201
  12 O :   -0.388043
  13 O :   -0.402977
  14 O :   -0.397681
  15 O :   -0.423707
  16 O :   -0.444631
  17 H :    0.095979
  18 H :    0.067717
  19 H :    0.305665
  20 H :    0.301575
  21 H :    0.299186
  22 H :    0.306913
  23 H :    0.293904
Sum of atomic charges:   -0.0000000

LOEWDIN ATOMIC CHARGES
----------------------
   0 C :   -0.119221
   1 C :   -0.079913
   2 H :    0.100137
   3 C :   -0.087772
   4 H :    0.121315
   5 C :   -0.071986
   6 H :    0.099659
   7 C :   -0.085479
   8 H :    0.103954
   9 C :   -0.004821
  10 H :    0.097304
  11 O :   -0.144343
  12 O :   -0.295814
  13 O :   -0.311177
  14 O :   -0.311908
  15 O :   -0.301485
  16 O :   -0.338659
  17 H :    0.117770
  18 H :    0.098153
  19 H :    0.290694
  20 H :    0.284607
  21 H :    0.281599
  22 H :    0.287958
  23 H :    0.269429

  Mayer bond orders larger than 0.100000
B(  0-C ,  1-C ) :   1.0253 B(  0-C , 16-O ) :   1.0910 B(  0-C , 17-H ) :   0.9224
B(  0-C , 18-H ) :   0.9087 B(  1-C ,  2-H ) :   0.8728 B(  1-C ,  3-C ) :   0.9884
B(  1-C , 11-O ) :   0.9792 B(  3-C ,  4-H ) :   0.8652 B(  3-C ,  5-C ) :   1.0139
B(  3-C , 15-O ) :   0.9814 B(  5-C ,  6-H ) :   0.8673 B(  5-C ,  7-C ) :   1.0001
B(  5-C , 14-O ) :   1.1070 B(  7-C ,  8-H ) :   0.8615 B(  7-C ,  9-C ) :   0.9797
B(  7-C , 13-O ) :   1.0909 B(  9-C , 10-H ) :   0.8788 B(  9-C , 11-O ) :   1.0104
B(  9-C , 12-O ) :   1.1147 B( 12-O , 19-H ) :   0.8425 B( 13-O , 20-H ) :   0.8364
B( 14-O , 21-H ) :   0.8366 B( 15-O , 22-H ) :   0.8362 B( 16-O , 23-H ) :   0.8183

Dispersion correction           -0.023863925
FINAL SINGLE POINT ENERGY      -685.698140357066

DIPOLE MOMENT
-------------

Method             : SCF
Type of density    : Electron Density
Multiplicity       :   1
Irrep              :   0
Energy             :  -685.8298976107266753 Eh
Relativity type    :
Basis              : AO
                                X                 Y                 Z
Electronic contribution:      2.353594658       0.126358788      -0.139950866
Nuclear contribution   :     -2.467624061      -0.080591323       0.048861111
                        -----------------------------------------
Total Dipole Moment    :     -0.114029403       0.045767464      -0.091089754
                        -----------------------------------------
Magnitude (a.u.)       :      0.152953290
Magnitude (Debye)      :      0.388776366

Rotational constants in cm-1:             0.043620             0.024512             0.016558
Rotational constants in MHz :          1307.681130           734.860932           496.383397

                             ****ORCA TERMINATED NORMALLY****
TOTAL RUN TIME: 0 days 0 hours 0 minutes 11 seconds 952 msec
