                         Program Version 6.0.1  -  RELEASE   -
|  1> ! r2scan-3c def2/J RI DEFGRID2 scfconv6 printgap
|  2> %output
|  3>     printlevel normal
|  4> end
|  5> * xyz 0 1
|  6> C -2.4017136744 0.0448816046 0.005249985
|  7> C -0.9430812798 0.4806786555 -0.0673025447
|  8> C -0.0013536488 -0.6721834945 0.1373055364
|  9> C 1.3204864452 -0.6083038611 0.1008829262
| 10> C 2.136036913 0.6181654358 -0.1493940968
| 11> H -3.0633044933 0.8952759373 -0.146043908
| 12> H -2.62169651 -0.3912680485 0.9774933982
| 13> H -2.6165884977 -0.6967521995 -0.7613499558
| 14> H -0.752352365 0.9411109217 -1.0413291264
| 15> H -0.7565235481 1.2441864258 0.6942152817
| 16> H -0.4746373753 -1.6255618921 0.3304101654
| 17> H 1.8980383995 -1.5095735375 0.263649689
| 18> H 2.7641536838 0.474959813 -1.0287563264
| 19> H 2.7963700562 0.8051561364 0.6975058869
| 20> H 1.5112204941 1.4922355618 -0.3044733788
| 21> *
| 22>
| 23>                          ****END OF INPUT****

CARTESIAN COORDINATES (ANGSTROEM)
---------------------------------
  C     -2.401714    0.044882    0.005250
  C     -0.943081    0.480679   -0.067303
  C     -0.001354   -0.672183    0.137306
  C      1.320486   -0.608304    0.100883
  C      2.136037    0.618165   -0.149394
  H     -3.063304    0.895276   -0.146044
  H     -2.621697   -0.391268    0.977493
  H     -2.616588   -0.696752   -0.761350
  H     -0.752352    0.941111   -1.041329
  H     -0.756524    1.244186    0.694215
  H     -0.474637   -1.625562    0.330410
  H      1.898038   -1.509574    0.263650
  H      2.764154    0.474960   -1.028756
  H      2.796370    0.805156    0.697506
  H      1.511220    1.492236   -0.304473

 Total Charge           Charge          ....    0
 Multiplicity           Mult            ....    1
 Number of Electrons    NEL             ....   40
 Basis Dimension        Dim             ....  145

ORBITAL ENERGIES
----------------

  NO   OCC          E(Eh)            E(eV)
   0   2.0000     -10.027968      -272.8749
   1   2.0000     -10.022357      -272.7222
   2   2.0000     -10.021967      -272.7116
   3   2.0000     -10.019014      -272.6312
   4   2.0000     -10.017449      -272.5886
   5   2.0000      -0.771744       -21.0002
   6   2.0000      -0.718943       -19.5634
   7   2.0000      -0.646923       -17.6037
   8   2.0000      -0.581330       -15.8188
   9   2.0000      -0.495413       -13.4809
  10   2.0000      -0.437475       -11.9043
  11   2.0000      -0.417134       -11.3508
  12   2.0000      -0.397286       -10.8107
  13   2.0000      -0.379975       -10.3396
  14   2.0000      -0.348013        -9.4699
  15   2.0000      -0.337807        -9.1922
  16   2.0000      -0.321249        -8.7416
  17   2.0000      -0.318581        -8.6690
  18   2.0000      -0.290780        -7.9125
  19   2.0000      -0.216602        -5.8940
  20   0.0000      -0.002358        -0.0642
  21   0.0000       0.093311         2.5391
  22   0.0000       0.111332         3.0295
  23   0.0000       0.132757         3.6125
  24   0.0000       0.142168         3.8686

MULLIKEN ATOMIC CHARGES
-----------------------
   0 C :   -0.494283
   1 C :   -0.234576
   2 C :   -0.185718
   3 C :   -0.104794
   4 C :   -0.477523
   5 H :    0.144575
   6 H :    0.147468
   7 H :    0.148636
   8 H :    0.150710
   9 H :    0.151714
  10 H :    0.150765
  11 H :    0.147920
  12 H :    0.151186
  13 H :    0.151287
  14 H :    0.152634
Sum of atomic charges:   -0.0000000

LOEWDIN ATOMIC CHARGES
----------------------
   0 C :   -0.422907
   1 C :   -0.315447
   2 C :   -0.216757
   3 C :   -0.209586
   4 C :   -0.410545
   5 H :    0.150153
   6 H :    0.151427
   7 H :    0.151601
   8 H :    0.160133
   9 H :    0.160448
  10 H :    0.164582
  11 H :    0.159220
  12 H :    0.160437
  13 H :    0.160508
  14 H :    0.156732

  Mayer bond orders larger than 0.100000
B(  0-C ,  1-C ) :   0.8949 B(  0-C ,  5-H ) :   0.9762 B(  0-C ,  6-H ) :   0.9821
B(  0-C ,  7-H ) :   0.9835 B(  1-C ,  2-C ) :   0.9026 B(  1-C ,  8-H ) :   0.9722
B(  1-C ,  9-H ) :   0.9697 B(  2-C ,  3-C ) :   1.9430 B(  2-C , 10-H ) :   0.9585
B(  3-C ,  4-C ) :   0.8988 B(  3-C , 11-H ) :   0.9448 B(  4-C , 12-H ) :   0.9673
B(  4-C , 13-H ) :   0.9672 B(  4-C , 14-H ) :   0.9872

Dispersion correction           -0.003216568
FINAL SINGLE POINT ENERGY      -196.459264206705

DIPOLE MOMENT
-------------

Method             : SCF
Type of density    : Electron Density
Multiplicity       :   1
Irrep              :   0
Energy             :  -196.4621945468942670 Eh
Relativity type    :
Basis              : AO
                                X                 Y                 Z
Electronic contribution:      1.271605959      -1.387527350       0.272732487
Nuclear contribution   :     -1.233984755       1.528989150      -0.298972178
                        -----------------------------------------
Total Dipole Moment    :      0.037621204       0.141461800      -0.026239691
                        -----------------------------------------
Magnitude (a.u.)       :      0.148712196
Magnitude (Debye)      :      0.377996361

Rotational constants in cm-1:             0.483696             0.081580             0.072634
Rotational constants in MHz :         14500.840629          2445.694918          2177.498154

                             ****ORCA TERMINATED NORMALLY****
TOTAL RUN TIME: 0 days 0 hours 0 minutes 9 seconds 339 msec
