                         Program Version 6.0.1  -  RELEASE   -
|  1> ! pbe def2-sv(p) def2/J RI DEFGRID1 loosescf d4 GCP(DFT/SV(P)) printgap
|  2> %output
|  3>     printlevel normal
|  4> end
|  5> * xyz 0 1
|  6> C 1.4024082202 0.265601897 1.2244082011
|  7> C 0.7232386695 0.1407978193 -0.1102561669
|  8> C 1.440169527 0.2862922327 -1.2236201669
|  9> C -0.7233348236 -0.1402247565 -0.1102530508
| 10> C -1.4414903412 -0.2793600077 -1.2236349982
| 11> C -1.401102688 -0.2725169153 1.2244045125
| 12> H 0.966466232 1.075240917 1.8074677104
| 13> H 2.4613921418 0.4717914653 1.0914600987
| 14> H 1.3020288931 -0.6541621928 1.7984259614
| 15> H 1.0189958373 0.2102291038 -2.2093733657
| 16> H 2.4966744101 0.4911036966 -1.1833561434
| 17> H -2.4979783039 -0.4842611735 -1.1833790771
| 18> H -1.0213996708 -0.1976635896 -2.2093974631
| 19> H -2.4601868127 -0.47822408 1.0914730458
| 20> H -0.9643538131 -1.0852151489 1.8025709463
| 21> H -1.3003109462 0.6441268453 1.8033239808
| 22> *
| 23>
| 24>                          ****END OF INPUT****

CARTESIAN COORDINATES (ANGSTROEM)
---------------------------------
  C      1.402408    0.265602    1.224408
  C      0.723239    0.140798   -0.110256
  C      1.440170    0.286292   -1.223620
  C     -0.723335   -0.140225   -0.110253
  C     -1.441490   -0.279360   -1.223635
  C     -1.401103   -0.272517    1.224405
  H      0.966466    1.075241    1.807468
  H      2.461392    0.471791    1.091460
  H      1.302029   -0.654162    1.798426
  H      1.018996    0.210229   -2.209373
  H      2.496674    0.491104   -1.183356
  H     -2.497978   -0.484261   -1.183379
  H     -1.021400   -0.197664   -2.209397
  H     -2.460187   -0.478224    1.091473
  H     -0.964354   -1.085215    1.802571
  H     -1.300311    0.644127    1.803324

 Total Charge           Charge          ....    0
 Multiplicity           Mult            ....    1
 Number of Electrons    NEL             ....   46
 Basis Dimension        Dim             ....  104

ORBITAL ENERGIES
----------------

  NO   OCC          E(Eh)            E(eV)
   0   2.0000      -9.902225      -269.4532
   1   2.0000      -9.902136      -269.4508
   2   2.0000      -9.882394      -268.9136
   3   2.0000      -9.882324      -268.9117
   4   2.0000      -9.871668      -268.6217
   5   2.0000      -9.871577      -268.6193
   6   2.0000      -0.748832       -20.3768
   7   2.0000      -0.679879       -18.5004
   8   2.0000      -0.629411       -17.1271
   9   2.0000      -0.593312       -16.1448
  10   2.0000      -0.531774       -14.4703
  11   2.0000      -0.442061       -12.0291
  12   2.0000      -0.432450       -11.7676
  13   2.0000      -0.400803       -10.9064
  14   2.0000      -0.391753       -10.6602
  15   2.0000      -0.362629        -9.8676
  16   2.0000      -0.356642        -9.7047
  17   2.0000      -0.338665        -9.2155
  18   2.0000      -0.336288        -9.1509
  19   2.0000      -0.300452        -8.1757
  20   2.0000      -0.297896        -8.1062
  21   2.0000      -0.265538        -7.2257
  22   2.0000      -0.193427        -5.2634
  23   0.0000      -0.056867        -1.5474
  24   0.0000       0.039997         1.0884
  25   0.0000       0.050062         1.3623
  26   0.0000       0.072526         1.9735
  27   0.0000       0.075637         2.0582

MULLIKEN ATOMIC CHARGES
-----------------------
   0 C :   -0.207522
   1 C :   -0.028986
   2 C :   -0.255114
   3 C :   -0.028975
   4 C :   -0.255115
   5 C :   -0.207546
   6 H :    0.107667
   7 H :    0.099950
   8 H :    0.107730
   9 H :    0.090161
  10 H :    0.086117
  11 H :    0.086116
  12 H :    0.090158
  13 H :    0.099955
  14 H :    0.107662
  15 H :    0.107741
Sum of atomic charges:   -0.0000000

LOEWDIN ATOMIC CHARGES
----------------------
   0 C :   -0.321354
   1 C :   -0.054073
   2 C :   -0.243206
   3 C :   -0.054073
   4 C :   -0.243204
   5 C :   -0.321359
   6 H :    0.128326
   7 H :    0.124705
   8 H :    0.128299
   9 H :    0.117917
  10 H :    0.119386
  11 H :    0.119385
  12 H :    0.117915
  13 H :    0.124706
  14 H :    0.128321
  15 H :    0.128307

  Mayer bond orders larger than 0.100000
B(  0-C ,  1-C ) :   1.1426 B(  0-C ,  6-H ) :   0.9217 B(  0-C ,  7-H ) :   0.9350
B(  0-C ,  8-H ) :   0.9220 B(  1-C ,  2-C ) :   1.9899 B(  1-C ,  3-C ) :   1.0590
B(  2-C ,  4-C ) :   0.1202 B(  2-C ,  9-H ) :   0.9019 B(  2-C , 10-H ) :   0.9030
B(  3-C ,  4-C ) :   1.9899 B(  3-C ,  5-C ) :   1.1426 B(  4-C , 11-H ) :   0.9030
B(  4-C , 12-H ) :   0.9019 B(  5-C , 13-H ) :   0.9350 B(  5-C , 14-H ) :   0.9217
B(  5-C , 15-H ) :   0.9220

Dispersion correction           -0.012868578
FINAL SINGLE POINT ENERGY      -234.038175241824

DIPOLE MOMENT
-------------

Method             : SCF
Type of density    : Electron Density
Multiplicity       :   1
Irrep              :   0
Energy             :  -234.0857639089769293 Eh
Relativity type    :
Basis              : AO
                                X                 Y                 Z
Electronic contribution:     -0.001118386       0.005939753      -2.189671634
Nuclear contribution   :      0.001245853      -0.006599200       2.447874830
                        -----------------------------------------
Total Dipole Moment    :      0.000127467      -0.000659447       0.258203195
                        -----------------------------------------
Magnitude (a.u.)       :      0.258204069
Magnitude (Debye)      :      0.656302586

Rotational constants in cm-1:             0.162759             0.112262             0.068117
Rotational constants in MHz :          4879.390111          3365.516488          2042.098482

                             ****ORCA TERMINATED NORMALLY****
TOTAL RUN TIME: 0 days 0 hours 0 minutes 27 seconds 200 msec
