                         Program Version 6.0.0  -   RELEASE  -
|  1> ! r2SCAN-3c DEF2-TZVP FREQ
|  2> * xyzfile 0 1 censo.xyz
|  3>
|  4>                          ****END OF INPUT****

CARTESIAN COORDINATES (ANGSTROEM)
---------------------------------
  C     -4.001592   -0.699119    0.000891
  C     -4.001589    0.699130    0.001336
  C     -2.802495    1.392793    0.000859
  C     -1.583035    0.702842    0.000060
  C     -1.583037   -0.702838   -0.000273
  C     -2.802501   -1.392786    0.000077
  C     -0.318779   -1.461093   -0.000731
  O     -0.364706   -2.720129   -0.001309
  C      0.923611   -0.722711   -0.000245
  C      2.156996   -1.423604    0.000282
  C      3.374182   -0.677811    0.001019
  C      3.374185    0.677795    0.000882
  C      2.157001    1.423592    0.000051
  C      0.923614    0.722705   -0.000282
  C     -0.318774    1.461092   -0.000499
  O     -0.364695    2.720128   -0.000987
  N      2.250667    2.766678   -0.000339
  N      2.250654   -2.766690    0.000308
  H     -4.941242   -1.241932    0.001224
  H     -4.941237    1.241948    0.002060
  H     -2.794854    2.476835    0.001158
  H     -2.794863   -2.476828   -0.000227
  H      4.313080   -1.224183    0.001655
  H      4.313085    1.224163    0.001388
  H      3.159506    3.201344    0.000333
  H      1.394438    3.306281   -0.000718
  H      1.394421   -3.306286   -0.000682
  H      3.159491   -3.201361    0.000299

 Total Charge           Charge          ....    0
 Multiplicity           Mult            ....    1
 Number of Electrons    NEL             ....  124
 Basis Dimension        Dim             ....  618

ORBITAL ENERGIES
----------------

  NO   OCC          E(Eh)            E(eV)
   0   2.0000     -18.925015      -514.9758
   1   2.0000     -18.925011      -514.9757
   2   2.0000     -14.180619      -385.8743
   3   2.0000     -14.180617      -385.8742
   4   2.0000     -10.108647      -275.0703
   5   2.0000     -10.108639      -275.0700
   6   2.0000     -10.098798      -274.8023
   7   2.0000     -10.098791      -274.8021
   8   2.0000     -10.060407      -273.7576
   9   2.0000     -10.059801      -273.7411
  10   2.0000     -10.050043      -273.4756
  11   2.0000     -10.049779      -273.4684
  12   2.0000     -10.048034      -273.4209
  13   2.0000     -10.047657      -273.4107
  14   2.0000     -10.044017      -273.3116
  15   2.0000     -10.043607      -273.3004
  16   2.0000     -10.039724      -273.1948
  17   2.0000     -10.039716      -273.1946
  18   2.0000      -0.981575       -26.7100
  19   2.0000      -0.978676       -26.6311
  20   2.0000      -0.910546       -24.7772
  21   2.0000      -0.902119       -24.5479
  22   2.0000      -0.833416       -22.6784
  23   2.0000      -0.808562       -22.0021
  24   2.0000      -0.765228       -20.8229
  25   2.0000      -0.723482       -19.6869
  26   2.0000      -0.722768       -19.6675
  27   2.0000      -0.701169       -19.0798
  28   2.0000      -0.644503       -17.5378
  29   2.0000      -0.622159       -16.9298
  30   2.0000      -0.606907       -16.5148
  31   2.0000      -0.571881       -15.5617
  32   2.0000      -0.543644       -14.7933
  33   2.0000      -0.534955       -14.5569
  34   2.0000      -0.528961       -14.3938
  35   2.0000      -0.498116       -13.5544
  36   2.0000      -0.486904       -13.2493
  37   2.0000      -0.469163       -12.7666
  38   2.0000      -0.455142       -12.3850
  39   2.0000      -0.441132       -12.0038
  40   2.0000      -0.432198       -11.7607
  41   2.0000      -0.419896       -11.4259
  42   2.0000      -0.410490       -11.1700
  43   2.0000      -0.395543       -10.7633
  44   2.0000      -0.391900       -10.6641
  45   2.0000      -0.390619       -10.6293
  46   2.0000      -0.386663       -10.5216
  47   2.0000      -0.371243       -10.1020
  48   2.0000      -0.365436        -9.9440
  49   2.0000      -0.361097        -9.8260
  50   2.0000      -0.355484        -9.6732
  51   2.0000      -0.330562        -8.9951
  52   2.0000      -0.326345        -8.8803
  53   2.0000      -0.325864        -8.8672
  54   2.0000      -0.312698        -8.5090
  55   2.0000      -0.262403        -7.1404
  56   2.0000      -0.252599        -6.8736
  57   2.0000      -0.240096        -6.5333
  58   2.0000      -0.238878        -6.5002
  59   2.0000      -0.221657        -6.0316
  60   2.0000      -0.214281        -5.8309
  61   2.0000      -0.175239        -4.7685
  62   0.0000      -0.117357        -3.1935
  63   0.0000      -0.070366        -1.9148
  64   0.0000      -0.047317        -1.2876
  65   0.0000      -0.016186        -0.4404
  66   0.0000       0.027301         0.7429

MULLIKEN ATOMIC CHARGES
-----------------------
   0 C :   -0.067052
   1 C :   -0.067018
   2 C :   -0.193067
   3 C :    0.089984
   4 C :    0.089912
   5 C :   -0.193059
   6 C :    0.222264
   7 O :   -0.483113
   8 C :   -0.048786
   9 C :    0.222402
  10 C :   -0.210260
  11 C :   -0.210199
  12 C :    0.222472
  13 C :   -0.048653
  14 C :    0.222022
  15 O :   -0.483118
  16 N :   -0.373835
  17 N :   -0.373850
  18 H :    0.113753
  19 H :    0.113762
  20 H :    0.132296
  21 H :    0.132300
  22 H :    0.093032
  23 H :    0.093024
  24 H :    0.224777
  25 H :    0.277619
  26 H :    0.277616
  27 H :    0.224775
Sum of atomic charges:    0.0000000

LOEWDIN ATOMIC CHARGES
----------------------
   0 C :   -0.125405
   1 C :   -0.125405
   2 C :   -0.074691
   3 C :   -0.067997
   4 C :   -0.067998
   5 C :   -0.074691
   6 C :   -0.246406
   7 O :    0.042920
   8 C :   -0.065915
   9 C :   -0.189454
  10 C :   -0.105218
  11 C :   -0.105217
  12 C :   -0.189454
  13 C :   -0.065915
  14 C :   -0.246407
  15 O :    0.042921
  16 N :    0.044888
  17 N :    0.044889
  18 H :    0.144687
  19 H :    0.144687
  20 H :    0.155758
  21 H :    0.155758
  22 H :    0.146990
  23 H :    0.146990
  24 H :    0.167048
  25 H :    0.172794
  26 H :    0.172794
  27 H :    0.167047

  Mayer bond orders larger than 0.100000
B(  0-C ,  1-C ) :   1.3252 B(  0-C ,  5-C ) :   1.4114 B(  0-C , 18-H ) :   0.9727
B(  1-C ,  2-C ) :   1.4115 B(  1-C , 19-H ) :   0.9727 B(  2-C ,  3-C ) :   1.3218
B(  2-C , 20-H ) :   0.9652 B(  3-C ,  4-C ) :   1.2875 B(  3-C , 14-C ) :   1.0325
B(  3-C , 15-O ) :  -0.1540 B(  4-C ,  5-C ) :   1.3219 B(  4-C ,  6-C ) :   1.0324
B(  4-C ,  7-O ) :  -0.1540 B(  5-C , 21-H ) :   0.9652 B(  6-C ,  7-O ) :   1.7943
B(  6-C ,  8-C ) :   1.0651 B(  8-C ,  9-C ) :   1.2682 B(  8-C , 13-C ) :   1.1173
B(  9-C , 10-C ) :   1.1897 B(  9-C , 17-N ) :   1.2749 B( 10-C , 11-C ) :   1.6154
B( 10-C , 22-H ) :   0.9715 B( 11-C , 12-C ) :   1.1898 B( 11-C , 23-H ) :   0.9715
B( 12-C , 13-C ) :   1.2679 B( 12-C , 16-N ) :   1.2749 B( 13-C , 14-C ) :   1.0653
B( 14-C , 15-O ) :   1.7943 B( 16-N , 24-H ) :   0.9088 B( 16-N , 25-H ) :   0.8405
B( 17-N , 26-H ) :   0.8405 B( 17-N , 27-H ) :   0.9088

Dispersion correction           -0.013708608
FINAL SINGLE POINT ENERGY      -799.404088006941

DIPOLE MOMENT
-------------

Method             : SCF
Type of density    : Electron Density
Multiplicity       :   1
Irrep              :   0
Energy             :  -799.4045657574213237 Eh
Relativity type    :
Basis              : AO
                                X                 Y                 Z
Electronic contribution:     -0.635517510       0.000002494      -0.004176675
Nuclear contribution   :      2.152436386      -0.000003637       0.005638066
                        -----------------------------------------
Total Dipole Moment    :      1.516918876      -0.000001144       0.001461391
                        -----------------------------------------
Magnitude (a.u.)       :      1.516919580
Magnitude (Debye)      :      3.855703154

VIBRATIONAL FREQUENCIES
-----------------------

Scaling factor for frequencies =  1.000000000  (already applied!)

     0:       0.00 cm**-1
     1:       0.00 cm**-1
     2:       0.00 cm**-1
     3:       0.00 cm**-1
     4:       0.00 cm**-1
     5:       0.00 cm**-1
     6:      60.80 cm**-1
     7:      72.33 cm**-1
     8:     114.85 cm**-1
     9:     138.02 cm**-1
    10:     189.89 cm**-1
    11:     218.08 cm**-1
    12:     234.89 cm**-1
    13:     270.67 cm**-1
    14:     291.41 cm**-1
    15:     320.17 cm**-1
    16:     343.98 cm**-1
    17:     345.18 cm**-1
    18:     395.18 cm**-1
    19:     409.75 cm**-1
    20:     429.13 cm**-1
    21:     442.06 cm**-1
    22:     446.97 cm**-1
    23:     457.82 cm**-1
    24:     481.55 cm**-1
    25:     500.71 cm**-1
    26:     518.52 cm**-1
    27:     573.02 cm**-1
    28:     611.08 cm**-1
    29:     663.32 cm**-1
    30:     668.13 cm**-1
    31:     670.02 cm**-1
    32:     687.32 cm**-1
    33:     716.27 cm**-1
    34:     740.12 cm**-1
    35:     757.82 cm**-1
    36:     782.86 cm**-1
    37:     809.83 cm**-1
    38:     827.20 cm**-1
    39:     832.32 cm**-1
    40:     877.19 cm**-1
    41:     911.08 cm**-1
    42:     922.29 cm**-1
    43:     928.34 cm**-1
    44:     983.04 cm**-1
    45:     984.69 cm**-1
    46:     993.60 cm**-1
    47:    1015.97 cm**-1
    48:    1055.06 cm**-1
    49:    1092.60 cm**-1
    50:    1122.61 cm**-1
    51:    1147.67 cm**-1
    52:    1183.21 cm**-1
    53:    1206.16 cm**-1
    54:    1207.36 cm**-1
    55:    1265.31 cm**-1
    56:    1289.88 cm**-1
    57:    1334.04 cm**-1
    58:    1337.33 cm**-1
    59:    1364.47 cm**-1
    60:    1401.44 cm**-1
    61:    1413.34 cm**-1
    62:    1445.08 cm**-1
    63:    1453.17 cm**-1
    64:    1488.29 cm**-1
    65:    1496.63 cm**-1
    66:    1541.16 cm**-1
    67:    1562.23 cm**-1
    68:    1585.66 cm**-1
    69:    1587.92 cm**-1
    70:    1602.94 cm**-1
    71:    1616.90 cm**-1
    72:    1638.08 cm**-1
    73:    1683.55 cm**-1
    74:    3149.91 cm**-1
    75:    3162.57 cm**-1
    76:    3167.48 cm**-1
    77:    3177.20 cm**-1
    78:    3194.15 cm**-1
    79:    3196.50 cm**-1
    80:    3463.82 cm**-1
    81:    3466.65 cm**-1
    82:    3654.45 cm**-1
    83:    3654.69 cm**-1

IR SPECTRUM
-----------

 Mode   freq       eps      Int      T**2         TX        TY        TZ
       cm**-1   L/(mol*cm) km/mol    a.u.
----------------------------------------------------------------------------
  6:     60.80   0.000990    5.00  0.005081  (-0.000256  0.000035  0.071280)
  7:     72.33   0.000000    0.00  0.000000  ( 0.000182 -0.000186 -0.000074)
  8:    114.85   0.001236    6.25  0.003358  ( 0.000137 -0.000077  0.057946)
  9:    138.02   0.000000    0.00  0.000000  ( 0.000023 -0.000091 -0.000095)
 10:    189.89   0.002282   11.53  0.003750  (-0.000073 -0.000098  0.061234)
 11:    218.08   0.000139    0.70  0.000198  (-0.000003  0.014087  0.000028)
 12:    234.89   0.002361   11.93  0.003136  ( 0.000183  0.000072 -0.056003)
 13:    270.67   0.000000    0.00  0.000000  (-0.000267  0.000114 -0.000344)
 14:    291.41   0.050279  254.09  0.053842  (-0.000043 -0.000279  0.232039)
 15:    320.17   0.000006    0.03  0.000005  (-0.002322  0.000000  0.000268)
 16:    343.98   0.000000    0.00  0.000000  (-0.000085  0.000020 -0.000016)
 17:    345.18   0.000909    4.59  0.000822  ( 0.000000 -0.028669  0.000093)
 18:    395.18   0.000042    0.21  0.000033  (-0.000002  0.005754  0.000032)
 19:    409.75   0.000631    3.19  0.000480  ( 0.021915  0.000001  0.000053)
 20:    429.13   0.000127    0.64  0.000093  (-0.000010 -0.000033 -0.009627)
 21:    442.06   0.005818   29.40  0.004107  ( 0.064085 -0.000000  0.000013)
 22:    446.97   0.000000    0.00  0.000000  ( 0.000177  0.000126  0.000052)
 23:    457.82   0.002935   14.83  0.002000  (-0.044726 -0.000001  0.000021)
 24:    481.55   0.000248    1.25  0.000161  ( 0.000001 -0.012685 -0.000001)
 25:    500.71   0.000000    0.00  0.000000  ( 0.000021 -0.000117  0.000008)
 26:    518.52   0.000030    0.15  0.000018  (-0.004242  0.000001 -0.000008)
 27:    573.02   0.011749   59.38  0.006399  (-0.000094 -0.000007  0.079992)
 28:    611.08   0.000592    2.99  0.000303  ( 0.000002 -0.017394 -0.000023)
 29:    663.32   0.000000    0.00  0.000000  ( 0.000010 -0.000115  0.000011)
 30:    668.13   0.001172    5.92  0.000547  (-0.023393  0.000000  0.000006)
 31:    670.02   0.000205    1.04  0.000095  ( 0.000230 -0.000092  0.009767)
 32:    687.32   0.000000    0.00  0.000000  (-0.000050 -0.000011  0.000007)
 33:    716.27   0.000117    0.59  0.000051  ( 0.000000 -0.007140 -0.000031)
 34:    740.12   0.010449   52.80  0.004406  ( 0.000063 -0.000060 -0.066374)
 35:    757.82   0.000000    0.00  0.000000  (-0.000011 -0.000090 -0.000005)
 36:    782.86   0.000019    0.10  0.000008  ( 0.000001  0.002761  0.000020)
 37:    809.83   0.003285   16.60  0.001266  ( 0.000139 -0.000046 -0.035577)
 38:    827.20   0.002985   15.08  0.001126  ( 0.000054  0.000035 -0.033556)
 39:    832.32   0.000000    0.00  0.000000  ( 0.000009 -0.000095 -0.000012)
 40:    877.19   0.001648    8.33  0.000586  (-0.024211 -0.000000  0.000008)
 41:    911.08   0.000000    0.00  0.000000  ( 0.000038 -0.000010 -0.000024)
 42:    922.29   0.001133    5.73  0.000383  (-0.000001  0.019580  0.000009)
 43:    928.34   0.000000    0.00  0.000000  (-0.000032  0.000033 -0.000007)
 44:    983.04   0.000925    4.67  0.000294  (-0.000001  0.017132  0.000025)
 45:    984.69   0.000263    1.33  0.000083  (-0.000213 -0.000014  0.009127)
 46:    993.60   0.000000    0.00  0.000000  ( 0.000056 -0.000039  0.000009)
 47:   1015.97   0.006175   31.21  0.001897  (-0.043552 -0.000001  0.000000)
 48:   1055.06   0.001551    7.84  0.000459  (-0.021419  0.000000  0.000002)
 49:   1092.60   0.005029   25.41  0.001436  (-0.000000  0.037898 -0.000006)
 50:   1122.61   0.000570    2.88  0.000158  ( 0.000000  0.012586  0.000005)
 51:   1147.67   0.001496    7.56  0.000407  (-0.020171  0.000000 -0.000013)
 52:   1183.21   0.000700    3.54  0.000185  ( 0.013587 -0.000000 -0.000001)
 53:   1206.16   0.013528   68.36  0.003500  ( 0.059160 -0.000000  0.000023)
 54:   1207.36   0.000048    0.24  0.000013  (-0.000005 -0.003537 -0.000002)
 55:   1265.31   0.000569    2.88  0.000140  ( 0.000001 -0.011847 -0.000004)
 56:   1289.88   0.086450  436.88  0.020915  ( 0.144621  0.000000  0.000016)
 57:   1334.04   0.022651  114.47  0.005299  ( 0.072791  0.000001 -0.000016)
 58:   1337.33   0.001912    9.66  0.000446  ( 0.000003 -0.021124  0.000008)
 59:   1364.47   0.002396   12.11  0.000548  ( 0.023410 -0.000000  0.000008)
 60:   1401.44   0.002391   12.08  0.000532  ( 0.000000  0.023076  0.000009)
 61:   1413.34   0.002005   10.13  0.000443  ( 0.021041 -0.000001  0.000037)
 62:   1445.08   0.032650  165.00  0.007051  (-0.083969 -0.000001  0.000001)
 63:   1453.17   0.011671   58.98  0.002506  ( 0.000002 -0.050063 -0.000018)
 64:   1488.29   0.000792    4.00  0.000166  (-0.000000  0.012886 -0.000010)
 65:   1496.63   0.000102    0.51  0.000021  (-0.004603 -0.000000  0.000019)
 66:   1541.16   0.005431   27.45  0.001100  (-0.033163  0.000002 -0.000062)
 67:   1562.23   0.007355   37.17  0.001469  (-0.000001 -0.038331  0.000001)
 68:   1585.66   0.069044  348.92  0.013588  (-0.000003  0.116568 -0.000002)
 69:   1587.92   0.013286   67.14  0.002611  ( 0.051099  0.000009  0.000005)
 70:   1602.94   0.089641  453.01  0.017452  ( 0.000001  0.132105  0.000005)
 71:   1616.90   0.018477   93.38  0.003566  ( 0.059717  0.000002  0.000027)
 72:   1638.08   0.002593   13.10  0.000494  ( 0.000002  0.022224 -0.000006)
 73:   1683.55   0.022136  111.87  0.004103  (-0.064055  0.000000  0.000024)
 74:   3149.91   0.001806    9.13  0.000179  (-0.000000 -0.013378  0.000001)
 75:   3162.57   0.000781    3.95  0.000077  ( 0.000000 -0.008780 -0.000003)
 76:   3167.48   0.004155   21.00  0.000409  ( 0.020232 -0.000000  0.000007)
 77:   3177.20   0.003406   17.21  0.000335  (-0.018290  0.000000  0.000007)
 78:   3194.15   0.000210    1.06  0.000021  (-0.000003 -0.004531 -0.000003)
 79:   3196.50   0.003157   15.95  0.000308  (-0.017556  0.000001  0.000007)
 80:   3463.82   0.000104    0.53  0.000009  (-0.003064 -0.000033 -0.000024)
 81:   3466.65   0.021121  106.74  0.001901  ( 0.000002 -0.043604 -0.000013)
 82:   3654.45   0.001236    6.24  0.000106  (-0.000112 -0.010272 -0.000001)
 83:   3654.69   0.025575  129.24  0.002184  ( 0.046731 -0.000025  0.000020)

--------------------------
THERMOCHEMISTRY AT 298.15K
--------------------------

Temperature         ...   298.15 K
Pressure            ...     1.00 atm
Total Mass          ...   238.25 AMU
Quasi RRHO          ...     True
Cut-Off Frequency   ...     1.00 cm^-1

Throughout the following assumptions are being made:
  (1) The electronic state is orbitally nondegenerate
  (2) There are no thermally accessible electronically excited states
  (3) Hindered rotations indicated by low frequency modes are not
      treated as such but are treated as vibrations and this may
      cause some error
  (4) All equations used are the standard statistical mechanics
      equations for an ideal gas
  (5) All vibrations are strictly harmonic

freq.      60.80  E(vib)   ...       0.51
freq.      72.33  E(vib)   ...       0.50
freq.     114.85  E(vib)   ...       0.44
freq.     138.02  E(vib)   ...       0.42
freq.     189.89  E(vib)   ...       0.36
freq.     218.08  E(vib)   ...       0.33
freq.     234.89  E(vib)   ...       0.32
freq.     270.67  E(vib)   ...       0.29
freq.     291.41  E(vib)   ...       0.27
freq.     320.17  E(vib)   ...       0.25
freq.     343.98  E(vib)   ...       0.23
freq.     345.18  E(vib)   ...       0.23
freq.     395.18  E(vib)   ...       0.20
freq.     409.75  E(vib)   ...       0.19
freq.     429.13  E(vib)   ...       0.18
freq.     442.06  E(vib)   ...       0.17
freq.     446.97  E(vib)   ...       0.17
freq.     457.82  E(vib)   ...       0.16
freq.     481.55  E(vib)   ...       0.15
freq.     500.71  E(vib)   ...       0.14
freq.     518.52  E(vib)   ...       0.13
freq.     573.02  E(vib)   ...       0.11
freq.     611.08  E(vib)   ...       0.10
freq.     663.32  E(vib)   ...       0.08
freq.     668.13  E(vib)   ...       0.08
freq.     670.02  E(vib)   ...       0.08
freq.     687.32  E(vib)   ...       0.07
freq.     716.27  E(vib)   ...       0.07
freq.     740.12  E(vib)   ...       0.06
freq.     757.82  E(vib)   ...       0.06
freq.     782.86  E(vib)   ...       0.05
freq.     809.83  E(vib)   ...       0.05
freq.     827.20  E(vib)   ...       0.04
freq.     832.32  E(vib)   ...       0.04
freq.     877.19  E(vib)   ...       0.04
freq.     911.08  E(vib)   ...       0.03
freq.     922.29  E(vib)   ...       0.03
freq.     928.34  E(vib)   ...       0.03
freq.     983.04  E(vib)   ...       0.02
freq.     984.69  E(vib)   ...       0.02
freq.     993.60  E(vib)   ...       0.02
freq.    1015.97  E(vib)   ...       0.02
freq.    1055.06  E(vib)   ...       0.02
freq.    1092.60  E(vib)   ...       0.02
freq.    1122.61  E(vib)   ...       0.01
freq.    1147.67  E(vib)   ...       0.01
freq.    1183.21  E(vib)   ...       0.01
freq.    1206.16  E(vib)   ...       0.01
freq.    1207.36  E(vib)   ...       0.01
freq.    1265.31  E(vib)   ...       0.01
freq.    1289.88  E(vib)   ...       0.01
freq.    1334.04  E(vib)   ...       0.01
freq.    1337.33  E(vib)   ...       0.01
freq.    1364.47  E(vib)   ...       0.01
freq.    1401.44  E(vib)   ...       0.00
freq.    1413.34  E(vib)   ...       0.00
freq.    1445.08  E(vib)   ...       0.00
freq.    1453.17  E(vib)   ...       0.00
freq.    1488.29  E(vib)   ...       0.00
freq.    1496.63  E(vib)   ...       0.00
freq.    1541.16  E(vib)   ...       0.00
freq.    1562.23  E(vib)   ...       0.00
freq.    1585.66  E(vib)   ...       0.00
freq.    1587.92  E(vib)   ...       0.00
freq.    1602.94  E(vib)   ...       0.00
freq.    1616.90  E(vib)   ...       0.00
freq.    1638.08  E(vib)   ...       0.00
freq.    1683.55  E(vib)   ...       0.00
freq.    3149.91  E(vib)   ...       0.00
freq.    3162.57  E(vib)   ...       0.00
freq.    3167.48  E(vib)   ...       0.00
freq.    3177.20  E(vib)   ...       0.00
freq.    3194.15  E(vib)   ...       0.00
freq.    3196.50  E(vib)   ...       0.00
freq.    3463.82  E(vib)   ...       0.00
freq.    3466.65  E(vib)   ...       0.00
freq.    3654.45  E(vib)   ...       0.00
freq.    3654.69  E(vib)   ...       0.00

------------
INNER ENERGY
------------

The inner energy is: U= E(el) + E(ZPE) + E(vib) + E(rot) + E(trans)
    E(el)   - is the total energy from the electronic structure calculation
              = E(kin-el) + E(nuc-el) + E(el-el) + E(nuc-nuc)
    E(ZPE)  - the the zero temperature vibrational energy from the frequency calculation
    E(vib)  - the the finite temperature correction to E(ZPE) due to population
              of excited vibrational states
    E(rot)  - is the rotational thermal energy
    E(trans)- is the translational thermal energy

Summary of contributions to the inner energy U:
Electronic energy                ...   -799.40408801 Eh
Zero point energy                ...      0.21197659 Eh     133.02 kcal/mol
Thermal vibrational correction   ...      0.01101904 Eh       6.91 kcal/mol
Thermal rotational correction    ...      0.00141627 Eh       0.89 kcal/mol
Thermal translational correction ...      0.00141627 Eh       0.89 kcal/mol
-----------------------------------------------------------------------
Total thermal energy                   -799.17825984 Eh

Summary of corrections to the electronic energy:
(perhaps to be used in another calculation)
Total thermal correction                  0.01385158 Eh       8.69 kcal/mol
Non-thermal (ZPE) correction              0.21197659 Eh     133.02 kcal/mol
-----------------------------------------------------------------------
Total correction                          0.22582817 Eh     141.71 kcal/mol

--------
ENTHALPY
--------

The enthalpy is H = U + kB*T
                kB is Boltzmann's constant
Total thermal energy              ...   -799.17825984 Eh
Thermal Enthalpy correction       ...      0.00094421 Eh       0.59 kcal/mol
-----------------------------------------------------------------------
Total Enthalpy                    ...   -799.17731563 Eh

Note: Only C1 symmetry has been detected, increase convergence thresholds
      if your molecule has a higher symmetry. Symmetry factor of 1.0 is
      used for the rotational entropy correction.

Note: Rotational entropy computed according to Herzberg
Infrared and Raman Spectra, Chapter V,1, Van Nostrand Reinhold, 1945
Point Group:  C1, Symmetry Number:   1
Rotational constants in cm-1:     0.023873     0.012825     0.008343

Vibrational entropy computed according to the QRRHO of S. Grimme
Chem.Eur.J. 2012 18 9955 using a reference frequency of 100.0 cm-1

-------
ENTROPY
-------

The entropy contributions are T*S = T*(S(el)+S(vib)+S(rot)+S(trans))
     S(el)   - electronic entropy

                             ****ORCA TERMINATED NORMALLY****
TOTAL RUN TIME: 0 days 1 hours 4 minutes 24 seconds 218 msec
