                         Program Version 6.0.0  -   RELEASE  -
|  1> ! r2SCAN-3c DEF2-TZVP FREQ
|  2> * xyzfile 0 1 vacuum_censo.xyz
|  3>
|  4>                          ****END OF INPUT****

CARTESIAN COORDINATES (ANGSTROEM)
---------------------------------
  C     -3.997690   -0.699013    0.004744
  C     -3.997688    0.699049    0.004889
  C     -2.799705    1.394505    0.001942
  C     -1.584605    0.700996   -0.000618
  C     -1.584608   -0.700970   -0.000868
  C     -2.799711   -1.394474    0.001610
  C     -0.318788   -1.464208   -0.003254
  O     -0.362950   -2.709567   -0.005604
  C      0.933993   -0.718290   -0.002754
  C      2.160744   -1.425280    0.000547
  C      3.369951   -0.681276    0.007437
  C      3.369954    0.681264    0.007325
  C      2.160756    1.425278    0.000343
  C      0.934002    0.718303   -0.002746
  C     -0.318781    1.464229   -0.002587
  O     -0.362936    2.709586   -0.004551
  N      2.230155    2.778210   -0.005022
  N      2.230105   -2.778196   -0.003514
  H     -4.938401   -1.240469    0.007069
  H     -4.938396    1.240509    0.007323
  H     -2.773556    2.478251    0.001977
  H     -2.773569   -2.478220    0.001351
  H      4.313963   -1.219614    0.011996
  H      4.313970    1.219596    0.011651
  H      3.124059    3.233709    0.017086
  H      1.353486    3.289220    0.001511
  H      1.353444   -3.289245   -0.000745
  H      3.124099   -3.233774    0.012148

 Total Charge           Charge          ....    0
 Multiplicity           Mult            ....    1
 Number of Electrons    NEL             ....  124
 Basis Dimension        Dim             ....  618

ORBITAL ENERGIES
----------------

  NO   OCC          E(Eh)            E(eV)
   0   2.0000     -18.927870      -515.0535
   1   2.0000     -18.927865      -515.0534
   2   2.0000     -14.176915      -385.7735
   3   2.0000     -14.176907      -385.7733
   4   2.0000     -10.110768      -275.1280
   5   2.0000     -10.110759      -275.1277
   6   2.0000     -10.096724      -274.7458
   7   2.0000     -10.096715      -274.7456
   8   2.0000     -10.058811      -273.7142
   9   2.0000     -10.058242      -273.6987
  10   2.0000     -10.049721      -273.4668
  11   2.0000     -10.049434      -273.4590
  12   2.0000     -10.048200      -273.4254
  13   2.0000     -10.047810      -273.4148
  14   2.0000     -10.045310      -273.3468
  15   2.0000     -10.044900      -273.3356
  16   2.0000     -10.040624      -273.2193
  17   2.0000     -10.040615      -273.2190
  18   2.0000      -0.990821       -26.9616
  19   2.0000      -0.988338       -26.8940
  20   2.0000      -0.906659       -24.6714
  21   2.0000      -0.897431       -24.4203
  22   2.0000      -0.834914       -22.7192
  23   2.0000      -0.808266       -21.9940
  24   2.0000      -0.763902       -20.7868
  25   2.0000      -0.725035       -19.7292
  26   2.0000      -0.722981       -19.6733
  27   2.0000      -0.700892       -19.0723
  28   2.0000      -0.642731       -17.4896
  29   2.0000      -0.621158       -16.9026
  30   2.0000      -0.606895       -16.5144
  31   2.0000      -0.570891       -15.5347
  32   2.0000      -0.543694       -14.7947
  33   2.0000      -0.533329       -14.5126
  34   2.0000      -0.528402       -14.3785
  35   2.0000      -0.497099       -13.5267
  36   2.0000      -0.484444       -13.1824
  37   2.0000      -0.468305       -12.7432
  38   2.0000      -0.456066       -12.4102
  39   2.0000      -0.441672       -12.0185
  40   2.0000      -0.431965       -11.7544
  41   2.0000      -0.420241       -11.4353
  42   2.0000      -0.411358       -11.1936
  43   2.0000      -0.397354       -10.8126
  44   2.0000      -0.393117       -10.6973
  45   2.0000      -0.390518       -10.6265
  46   2.0000      -0.388086       -10.5604
  47   2.0000      -0.371446       -10.1076
  48   2.0000      -0.367931       -10.0119
  49   2.0000      -0.364160        -9.9093
  50   2.0000      -0.355083        -9.6623
  51   2.0000      -0.330101        -8.9825
  52   2.0000      -0.328715        -8.9448
  53   2.0000      -0.327372        -8.9082
  54   2.0000      -0.315047        -8.5729
  55   2.0000      -0.259959        -7.0739
  56   2.0000      -0.253957        -6.9105
  57   2.0000      -0.240891        -6.5550
  58   2.0000      -0.240580        -6.5465
  59   2.0000      -0.224708        -6.1146
  60   2.0000      -0.215530        -5.8649
  61   2.0000      -0.174669        -4.7530
  62   0.0000      -0.116771        -3.1775
  63   0.0000      -0.070183        -1.9098
  64   0.0000      -0.046973        -1.2782
  65   0.0000      -0.015650        -0.4259
  66   0.0000       0.027718         0.7543

MULLIKEN ATOMIC CHARGES
-----------------------
   0 C :   -0.069438
   1 C :   -0.069509
   2 C :   -0.186214
   3 C :    0.081709
   4 C :    0.082009
   5 C :   -0.186273
   6 C :    0.227452
   7 O :   -0.468585
   8 C :   -0.048173
   9 C :    0.217439
  10 C :   -0.214163
  11 C :   -0.214326
  12 C :    0.217786
  13 C :   -0.048512
  14 C :    0.227552
  15 O :   -0.468570
  16 N :   -0.382780
  17 N :   -0.382714
  18 H :    0.113806
  19 H :    0.113801
  20 H :    0.133617
  21 H :    0.133600
  22 H :    0.093221
  23 H :    0.093213
  24 H :    0.223515
  25 H :    0.278520
  26 H :    0.278516
  27 H :    0.223500
Sum of atomic charges:    0.0000000

LOEWDIN ATOMIC CHARGES
----------------------
   0 C :   -0.124595
   1 C :   -0.124596
   2 C :   -0.075195
   3 C :   -0.070089
   4 C :   -0.070087
   5 C :   -0.075195
   6 C :   -0.250611
   7 O :    0.062592
   8 C :   -0.065572
   9 C :   -0.191321
  10 C :   -0.105337
  11 C :   -0.105336
  12 C :   -0.191321
  13 C :   -0.065571
  14 C :   -0.250608
  15 O :    0.062601
  16 N :    0.036612
  17 N :    0.036649
  18 H :    0.144937
  19 H :    0.144937
  20 H :    0.155942
  21 H :    0.155942
  22 H :    0.147106
  23 H :    0.147107
  24 H :    0.163673
  25 H :    0.171830
  26 H :    0.171832
  27 H :    0.163673

  Mayer bond orders larger than 0.100000
B(  0-C ,  1-C ) :   1.3261 B(  0-C ,  5-C ) :   1.4095 B(  0-C , 18-H ) :   0.9729
B(  1-C ,  2-C ) :   1.4096 B(  1-C , 19-H ) :   0.9729 B(  2-C ,  3-C ) :   1.3269
B(  2-C , 20-H ) :   0.9638 B(  3-C ,  4-C ) :   1.2934 B(  3-C , 14-C ) :   1.0319
B(  3-C , 15-O ) :  -0.1469 B(  4-C ,  5-C ) :   1.3268 B(  4-C ,  6-C ) :   1.0320
B(  4-C ,  7-O ) :  -0.1469 B(  5-C , 21-H ) :   0.9638 B(  6-C ,  7-O ) :   1.8029
B(  6-C ,  8-C ) :   1.0497 B(  8-C ,  9-C ) :   1.2688 B(  8-C , 13-C ) :   1.1379
B(  9-C , 10-C ) :   1.2099 B(  9-C , 17-N ) :   1.2679 B( 10-C , 11-C ) :   1.5918
B( 10-C , 22-H ) :   0.9729 B( 11-C , 12-C ) :   1.2098 B( 11-C , 23-H ) :   0.9730
B( 12-C , 13-C ) :   1.2687 B( 12-C , 16-N ) :   1.2677 B( 13-C , 14-C ) :   1.0498
B( 14-C , 15-O ) :   1.8029 B( 16-N , 24-H ) :   0.9100 B( 16-N , 25-H ) :   0.8362
B( 17-N , 26-H ) :   0.8362 B( 17-N , 27-H ) :   0.9100

Dispersion correction           -0.013719583
FINAL SINGLE POINT ENERGY      -799.405314377415

DIPOLE MOMENT
-------------

Method             : SCF
Type of density    : Electron Density
Multiplicity       :   1
Irrep              :   0
Energy             :  -799.4059668067118309 Eh
Relativity type    :
Basis              : AO
                                X                 Y                 Z
Electronic contribution:     -0.704488506      -0.000152182      -0.034991587
Nuclear contribution   :      2.066236846      -0.000105252       0.067461641
                        -----------------------------------------
Total Dipole Moment    :      1.361748340      -0.000257434       0.032470054
                        -----------------------------------------
Magnitude (a.u.)       :      1.362135424
Magnitude (Debye)      :      3.462273095

VIBRATIONAL FREQUENCIES
-----------------------

Scaling factor for frequencies =  1.000000000  (already applied!)

     0:       0.00 cm**-1
     1:       0.00 cm**-1
     2:       0.00 cm**-1
     3:       0.00 cm**-1
     4:       0.00 cm**-1
     5:       0.00 cm**-1
     6:      39.18 cm**-1
     7:      55.58 cm**-1
     8:      72.42 cm**-1
     9:     123.06 cm**-1
    10:     156.73 cm**-1
    11:     160.11 cm**-1
    12:     206.02 cm**-1
    13:     220.56 cm**-1
    14:     247.23 cm**-1
    15:     323.07 cm**-1
    16:     350.07 cm**-1
    17:     352.24 cm**-1
    18:     395.53 cm**-1
    19:     410.95 cm**-1
    20:     427.07 cm**-1
    21:     438.39 cm**-1
    22:     444.45 cm**-1
    23:     459.10 cm**-1
    24:     480.99 cm**-1
    25:     499.24 cm**-1
    26:     518.45 cm**-1
    27:     575.80 cm**-1
    28:     612.88 cm**-1
    29:     667.41 cm**-1
    30:     668.95 cm**-1
    31:     676.59 cm**-1
    32:     691.34 cm**-1
    33:     715.59 cm**-1
    34:     741.15 cm**-1
    35:     757.59 cm**-1
    36:     780.39 cm**-1
    37:     810.67 cm**-1
    38:     828.46 cm**-1
    39:     832.18 cm**-1
    40:     880.34 cm**-1
    41:     912.21 cm**-1
    42:     919.77 cm**-1
    43:     928.61 cm**-1
    44:     981.39 cm**-1
    45:     984.03 cm**-1
    46:     994.19 cm**-1
    47:    1018.80 cm**-1
    48:    1055.32 cm**-1
    49:    1095.50 cm**-1
    50:    1121.18 cm**-1
    51:    1141.55 cm**-1
    52:    1181.87 cm**-1
    53:    1202.68 cm**-1
    54:    1205.77 cm**-1
    55:    1266.88 cm**-1
    56:    1287.71 cm**-1
    57:    1324.48 cm**-1
    58:    1330.69 cm**-1
    59:    1372.08 cm**-1
    60:    1384.41 cm**-1
    61:    1427.61 cm**-1
    62:    1442.70 cm**-1
    63:    1460.66 cm**-1
    64:    1485.71 cm**-1
    65:    1501.50 cm**-1
    66:    1540.98 cm**-1
    67:    1574.94 cm**-1
    68:    1585.46 cm**-1
    69:    1596.92 cm**-1
    70:    1614.78 cm**-1
    71:    1628.86 cm**-1
    72:    1653.28 cm**-1
    73:    1680.08 cm**-1
    74:    3146.61 cm**-1
    75:    3160.37 cm**-1
    76:    3163.50 cm**-1
    77:    3175.26 cm**-1
    78:    3194.13 cm**-1
    79:    3196.20 cm**-1
    80:    3430.91 cm**-1
    81:    3434.12 cm**-1
    82:    3690.23 cm**-1
    83:    3690.62 cm**-1

IR SPECTRUM
-----------

 Mode   freq       eps      Int      T**2         TX        TY        TZ
       cm**-1   L/(mol*cm) km/mol    a.u.
----------------------------------------------------------------------------
  6:     39.18   0.011467   57.95  0.091328  ( 0.012736  0.001702 -0.301932)
  7:     55.58   0.000025    0.13  0.000140  ( 0.002156  0.011183  0.003207)
  8:     72.42   0.012719   64.27  0.054806  (-0.015063 -0.003136  0.233600)
  9:    123.06   0.000020    0.10  0.000051  (-0.001603 -0.006877  0.000874)
 10:    156.73   0.007526   38.03  0.014984  ( 0.005287  0.000389 -0.122295)
 11:    160.11   0.000108    0.55  0.000210  (-0.003103 -0.011763  0.007903)
 12:    206.02   0.019295   97.51  0.029227  (-0.007803 -0.001643  0.170772)
 13:    220.56   0.000136    0.69  0.000193  (-0.000110  0.013788  0.001556)
 14:    247.23   0.006067   30.66  0.007658  ( 0.005056  0.000878 -0.087358)
 15:    323.07   0.000042    0.21  0.000040  (-0.005701  0.000045 -0.002755)
 16:    350.07   0.000787    3.98  0.000702  (-0.000017 -0.026486  0.000425)
 17:    352.24   0.000020    0.10  0.000017  ( 0.000216  0.004154 -0.000173)
 18:    395.53   0.000012    0.06  0.000009  ( 0.000011 -0.003080 -0.000118)
 19:    410.95   0.000562    2.84  0.000427  (-0.020650 -0.000003 -0.000263)
 20:    427.07   0.000172    0.87  0.000126  ( 0.000172 -0.000122  0.011216)
 21:    438.39   0.000000    0.00  0.000000  ( 0.000243  0.000218  0.000039)
 22:    444.45   0.006761   34.17  0.004747  (-0.068894 -0.000015  0.000850)
 23:    459.10   0.001630    8.24  0.001108  ( 0.033272 -0.000021  0.000920)
 24:    480.99   0.000231    1.17  0.000150  ( 0.000016  0.012241 -0.000058)
 25:    499.24   0.000001    0.00  0.000000  (-0.000174 -0.000600 -0.000007)
 26:    518.45   0.000091    0.46  0.000055  ( 0.007399 -0.000001  0.000145)
 27:    575.80   0.011559   58.41  0.006264  (-0.000102 -0.000367  0.079147)
 28:    612.88   0.000466    2.36  0.000237  (-0.000006 -0.015404  0.000003)
 29:    667.41   0.000006    0.03  0.000003  (-0.000166  0.001679 -0.000013)
 30:    668.95   0.001408    7.12  0.000657  ( 0.025629  0.000015  0.000468)
 31:    676.59   0.000924    4.67  0.000426  (-0.000738 -0.000246  0.020627)
 32:    691.34   0.000007    0.04  0.000003  (-0.000026 -0.001808  0.000099)
 33:    715.59   0.000184    0.93  0.000080  (-0.000002  0.008963 -0.000007)
 34:    741.15   0.011647   58.86  0.004904  ( 0.000217 -0.000124  0.070029)
 35:    757.59   0.000000    0.00  0.000000  ( 0.000066  0.000385 -0.000060)
 36:    780.39   0.000099    0.50  0.000039  (-0.000008  0.006283  0.000094)
 37:    810.67   0.003128   15.81  0.001204  (-0.000337  0.000090  0.034698)
 38:    828.46   0.003069   15.51  0.001156  (-0.000590 -0.000000  0.033997)
 39:    832.18   0.000000    0.00  0.000000  ( 0.000007 -0.000142  0.000053)
 40:    880.34   0.002509   12.68  0.000889  (-0.029821 -0.000003 -0.000095)
 41:    912.21   0.000000    0.00  0.000000  ( 0.000017 -0.000163  0.000033)
 42:    919.77   0.001157    5.85  0.000393  ( 0.000004 -0.019815 -0.000069)
 43:    928.61   0.000001    0.00  0.000000  (-0.000022  0.000426 -0.000015)
 44:    981.39   0.001134    5.73  0.000360  (-0.000008 -0.018986 -0.000040)
 45:    984.03   0.000261    1.32  0.000083  (-0.000419 -0.000001 -0.009083)
 46:    994.19   0.000000    0.00  0.000000  ( 0.000011 -0.000062  0.000030)
 47:   1018.80   0.006810   34.41  0.002086  (-0.045671  0.000013  0.000288)
 48:   1055.32   0.001642    8.30  0.000486  ( 0.022035  0.000006  0.000103)
 49:   1095.50   0.003511   17.75  0.001000  (-0.000037 -0.031627  0.000042)
 50:   1121.18   0.000565    2.86  0.000157  ( 0.000004 -0.012541 -0.000009)
 51:   1141.55   0.003243   16.39  0.000887  ( 0.029775 -0.000021  0.000252)
 52:   1181.87   0.001125    5.68  0.000297  (-0.017233  0.000003 -0.000049)
 53:   1202.68   0.016083   81.28  0.004173  ( 0.064599 -0.000005  0.000170)
 54:   1205.77   0.000206    1.04  0.000053  (-0.000016 -0.007295  0.000027)
 55:   1266.88   0.000321    1.62  0.000079  ( 0.000023  0.008885 -0.000004)
 56:   1287.71   0.116862  590.57  0.028321  (-0.168287  0.000007 -0.000138)
 57:   1324.48   0.001787    9.03  0.000421  (-0.020518  0.000026 -0.000110)
 58:   1330.69   0.003295   16.65  0.000773  (-0.000021 -0.027799  0.000010)
 59:   1372.08   0.001371    6.93  0.000312  (-0.017657  0.000001 -0.000028)
 60:   1384.41   0.000293    1.48  0.000066  (-0.000000 -0.008133 -0.000054)
 61:   1427.61   0.012873   65.06  0.002814  (-0.053046 -0.000013  0.000371)
 62:   1442.70   0.006760   34.16  0.001462  ( 0.038240  0.000001 -0.000063)
 63:   1460.66   0.007255   36.66  0.001550  (-0.000012  0.039369  0.000105)
 64:   1485.71   0.000649    3.28  0.000136  ( 0.000002  0.011672 -0.000029)
 65:   1501.50   0.000721    3.64  0.000150  (-0.012243  0.000000  0.000028)
 66:   1540.98   0.000015    0.07  0.000003  ( 0.001690  0.000007 -0.000336)
 67:   1574.94   0.032810  165.81  0.006501  ( 0.000010  0.080630  0.000030)
 68:   1585.46   0.108887  550.27  0.021432  (-0.000053  0.146397  0.000129)
 69:   1596.92   0.012452   62.93  0.002433  ( 0.049326  0.000088  0.000501)
 70:   1614.78   0.019798  100.05  0.003826  ( 0.000016  0.061855 -0.000033)
 71:   1628.86   0.034810  175.92  0.006669  (-0.081663  0.000001 -0.000491)
 72:   1653.28   0.018007   91.00  0.003399  ( 0.000014 -0.058300  0.000015)
 73:   1680.08   0.008824   44.59  0.001639  ( 0.040484 -0.000013 -0.000229)
 74:   3146.61   0.001921    9.71  0.000191  (-0.000001 -0.013803 -0.000002)
 75:   3160.37   0.000791    4.00  0.000078  ( 0.000002 -0.008836 -0.000001)
 76:   3163.50   0.004380   22.13  0.000432  ( 0.020785 -0.000001  0.000071)
 77:   3175.26   0.003605   18.22  0.000354  (-0.018822 -0.000001  0.000034)
 78:   3194.13   0.000175    0.89  0.000017  ( 0.000019 -0.004140  0.000000)
 79:   3196.20   0.003078   15.56  0.000301  (-0.017336 -0.000005  0.000026)
 80:   3430.91   0.002249   11.36  0.000205  (-0.014296  0.000290  0.000234)
 81:   3434.12   0.017136   86.60  0.001557  ( 0.000105  0.039461  0.000085)
 82:   3690.23   0.004277   21.61  0.000362  (-0.005636 -0.018163 -0.000108)
 83:   3690.62   0.025592  129.33  0.002164  (-0.046464  0.002213 -0.000407)

--------------------------
THERMOCHEMISTRY AT 298.15K
--------------------------

Temperature         ...   298.15 K
Pressure            ...     1.00 atm
Total Mass          ...   238.25 AMU
Quasi RRHO          ...     True
Cut-Off Frequency   ...     1.00 cm^-1

Throughout the following assumptions are being made:
  (1) The electronic state is orbitally nondegenerate
  (2) There are no thermally accessible electronically excited states
  (3) Hindered rotations indicated by low frequency modes are not
      treated as such but are treated as vibrations and this may
      cause some error
  (4) All equations used are the standard statistical mechanics
      equations for an ideal gas
  (5) All vibrations are strictly harmonic

freq.      39.18  E(vib)   ...       0.54
freq.      55.58  E(vib)   ...       0.52
freq.      72.42  E(vib)   ...       0.49
freq.     123.06  E(vib)   ...       0.43
freq.     156.73  E(vib)   ...       0.40
freq.     160.11  E(vib)   ...       0.39
freq.     206.02  E(vib)   ...       0.35
freq.     220.56  E(vib)   ...       0.33
freq.     247.23  E(vib)   ...       0.31
freq.     323.07  E(vib)   ...       0.25
freq.     350.07  E(vib)   ...       0.23
freq.     352.24  E(vib)   ...       0.23
freq.     395.53  E(vib)   ...       0.20
freq.     410.95  E(vib)   ...       0.19
freq.     427.07  E(vib)   ...       0.18
freq.     438.39  E(vib)   ...       0.17
freq.     444.45  E(vib)   ...       0.17
freq.     459.10  E(vib)   ...       0.16
freq.     480.99  E(vib)   ...       0.15
freq.     499.24  E(vib)   ...       0.14
freq.     518.45  E(vib)   ...       0.13
freq.     575.80  E(vib)   ...       0.11
freq.     612.88  E(vib)   ...       0.10
freq.     667.41  E(vib)   ...       0.08
freq.     668.95  E(vib)   ...       0.08
freq.     676.59  E(vib)   ...       0.08
freq.     691.34  E(vib)   ...       0.07
freq.     715.59  E(vib)   ...       0.07
freq.     741.15  E(vib)   ...       0.06
freq.     757.59  E(vib)   ...       0.06
freq.     780.39  E(vib)   ...       0.05
freq.     810.67  E(vib)   ...       0.05
freq.     828.46  E(vib)   ...       0.04
freq.     832.18  E(vib)   ...       0.04
freq.     880.34  E(vib)   ...       0.04
freq.     912.21  E(vib)   ...       0.03
freq.     919.77  E(vib)   ...       0.03
freq.     928.61  E(vib)   ...       0.03
freq.     981.39  E(vib)   ...       0.02
freq.     984.03  E(vib)   ...       0.02
freq.     994.19  E(vib)   ...       0.02
freq.    1018.80  E(vib)   ...       0.02
freq.    1055.32  E(vib)   ...       0.02
freq.    1095.50  E(vib)   ...       0.02
freq.    1121.18  E(vib)   ...       0.01
freq.    1141.55  E(vib)   ...       0.01
freq.    1181.87  E(vib)   ...       0.01
freq.    1202.68  E(vib)   ...       0.01
freq.    1205.77  E(vib)   ...       0.01
freq.    1266.88  E(vib)   ...       0.01
freq.    1287.71  E(vib)   ...       0.01
freq.    1324.48  E(vib)   ...       0.01
freq.    1330.69  E(vib)   ...       0.01
freq.    1372.08  E(vib)   ...       0.01
freq.    1384.41  E(vib)   ...       0.00
freq.    1427.61  E(vib)   ...       0.00
freq.    1442.70  E(vib)   ...       0.00
freq.    1460.66  E(vib)   ...       0.00
freq.    1485.71  E(vib)   ...       0.00
freq.    1501.50  E(vib)   ...       0.00
freq.    1540.98  E(vib)   ...       0.00
freq.    1574.94  E(vib)   ...       0.00
freq.    1585.46  E(vib)   ...       0.00
freq.    1596.92  E(vib)   ...       0.00
freq.    1614.78  E(vib)   ...       0.00
freq.    1628.86  E(vib)   ...       0.00
freq.    1653.28  E(vib)   ...       0.00
freq.    1680.08  E(vib)   ...       0.00
freq.    3146.61  E(vib)   ...       0.00
freq.    3160.37  E(vib)   ...       0.00
freq.    3163.50  E(vib)   ...       0.00
freq.    3175.26  E(vib)   ...       0.00
freq.    3194.13  E(vib)   ...       0.00
freq.    3196.20  E(vib)   ...       0.00
freq.    3430.91  E(vib)   ...       0.00
freq.    3434.12  E(vib)   ...       0.00
freq.    3690.23  E(vib)   ...       0.00
freq.    3690.62  E(vib)   ...       0.00

------------
INNER ENERGY
------------

The inner energy is: U= E(el) + E(ZPE) + E(vib) + E(rot) + E(trans)
    E(el)   - is the total energy from the electronic structure calculation
              = E(kin-el) + E(nuc-el) + E(el-el) + E(nuc-nuc)
    E(ZPE)  - the the zero temperature vibrational energy from the frequency calculation
    E(vib)  - the the finite temperature correction to E(ZPE) due to population
              of excited vibrational states
    E(rot)  - is the rotational thermal energy
    E(trans)- is the translational thermal energy

Summary of contributions to the inner energy U:
Electronic energy                ...   -799.40531438 Eh
Zero point energy                ...      0.21142372 Eh     132.67 kcal/mol
Thermal vibrational correction   ...      0.01150838 Eh       7.22 kcal/mol
Thermal rotational correction    ...      0.00141627 Eh       0.89 kcal/mol
Thermal translational correction ...      0.00141627 Eh       0.89 kcal/mol
-----------------------------------------------------------------------
Total thermal energy                   -799.17954974 Eh

Summary of corrections to the electronic energy:
(perhaps to be used in another calculation)
Total thermal correction                  0.01434092 Eh       9.00 kcal/mol
Non-thermal (ZPE) correction              0.21142372 Eh     132.67 kcal/mol
-----------------------------------------------------------------------
Total correction                          0.22576463 Eh     141.67 kcal/mol

--------
ENTHALPY
--------

The enthalpy is H = U + kB*T
                kB is Boltzmann's constant
Total thermal energy              ...   -799.17954974 Eh
Thermal Enthalpy correction       ...      0.00094421 Eh       0.59 kcal/mol
-----------------------------------------------------------------------
Total Enthalpy                    ...   -799.17860553 Eh

Note: Only C1 symmetry has been detected, increase convergence thresholds
      if your molecule has a higher symmetry. Symmetry factor of 1.0 is
      used for the rotational entropy correction.

Note: Rotational entropy computed according to Herzberg
Infrared and Raman Spectra, Chapter V,1, Van Nostrand Reinhold, 1945
Point Group:  C1, Symmetry Number:   1
Rotational constants in cm-1:     0.023857     0.012869     0.008359

Vibrational entropy computed according to the QRRHO of S. Grimme
Chem.Eur.J. 2012 18 9955 using a reference frequency of 100.0 cm-1

-------
ENTROPY
-------

The entropy contributions are T*S = T*(S(el)+S(vib)+S(rot)+S(trans))
     S(el)   - electronic entropy

                             ****ORCA TERMINATED NORMALLY****
TOTAL RUN TIME: 0 days 1 hours 3 minutes 29 seconds 565 msec
