                         Program Version 6.0.1  -  RELEASE   -
|  1> ! pbe def2-sv(p) def2/J RI DEFGRID1 loosescf d4 GCP(DFT/SV(P)) printgap
|  2> %output
|  3>     printlevel normal
|  4> end
|  5> * xyz 0 1
|  6> C 3.6832811329 -0.3588087757 -0.0808558437
|  7> C 2.214845622 -0.301894418 0.3296766105
|  8> H 2.1540501028 -0.3726440356 1.4221424901
|  9> C 1.4278481708 -1.4636285882 -0.2747204145
| 10> C -0.0438640613 -1.3851668391 0.1192014145
| 11> C -0.6703653961 -0.0739586983 -0.3594350204
| 12> H -0.5201335036 0.0055548694 -1.4427794041
| 13> C 0.1047616604 1.0954827751 0.2802078354
| 14> H 0.0256707037 1.0240303756 1.3776782497
| 15> C 1.5817518036 1.0160893836 -0.1070759324
| 16> O -0.3538513757 2.3634384351 -0.1451131621
| 17> C -2.1924509911 0.0062006683 -0.1167916145
| 18> C -2.9475060085 -0.9860438642 -1.0023329275
| 19> C -2.5956077811 -0.1970575263 1.3431693031
| 20> H 4.2374434146 0.4636647117 0.3651730978
| 21> H 4.1347752742 -1.2940533459 0.2430003805
| 22> H 3.7776277752 -0.2885501556 -1.162312244
| 23> H 1.5166783474 -1.4304646954 -1.3630346569
| 24> H 1.8489132356 -2.4123954467 0.0658313996
| 25> H -0.5775575136 -2.2318443472 -0.3138796348
| 26> H -0.1230392558 -1.4531153135 1.2059302154
| 27> H 1.6564424526 1.1272153612 -1.1902663111
| 28> H 2.1022432571 1.8604502236 0.3476509709
| 29> H -1.2602837958 2.4856929549 0.154896123
| 30> H -2.5156595693 1.0091973679 -0.4244790314
| 31> H -2.6626952691 -0.8664794893 -2.0451245744
| 32> H -4.0193601668 -0.8187413501 -0.9196370669
| 33> H -2.7446821769 -2.0112089067 -0.703362346
| 34> H -2.0639255436 0.4833312476 2.0039908998
| 35> H -2.392765071 -1.2164919109 1.6608534726
| 36> H -3.6622532176 -0.0151569067 1.4596280815
| 37> *
| 38>
| 39>                          ****END OF INPUT****

CARTESIAN COORDINATES (ANGSTROEM)
---------------------------------
  C      3.683281   -0.358809   -0.080856
  C      2.214846   -0.301894    0.329677
  H      2.154050   -0.372644    1.422142
  C      1.427848   -1.463629   -0.274720
  C     -0.043864   -1.385167    0.119201
  C     -0.670365   -0.073959   -0.359435
  H     -0.520134    0.005555   -1.442779
  C      0.104762    1.095483    0.280208
  H      0.025671    1.024030    1.377678
  C      1.581752    1.016089   -0.107076
  O     -0.353851    2.363438   -0.145113
  C     -2.192451    0.006201   -0.116792
  C     -2.947506   -0.986044   -1.002333
  C     -2.595608   -0.197058    1.343169
  H      4.237443    0.463665    0.365173
  H      4.134775   -1.294053    0.243000
  H      3.777628   -0.288550   -1.162312
  H      1.516678   -1.430465   -1.363035
  H      1.848913   -2.412395    0.065831
  H     -0.577558   -2.231844   -0.313880
  H     -0.123039   -1.453115    1.205930
  H      1.656442    1.127215   -1.190266
  H      2.102243    1.860450    0.347651
  H     -1.260284    2.485693    0.154896
  H     -2.515660    1.009197   -0.424479
  H     -2.662695   -0.866479   -2.045125
  H     -4.019360   -0.818741   -0.919637
  H     -2.744682   -2.011209   -0.703362
  H     -2.063926    0.483331    2.003991
  H     -2.392765   -1.216492    1.660853
  H     -3.662253   -0.015157    1.459628

 Total Charge           Charge          ....    0
 Multiplicity           Mult            ....    1
 Number of Electrons    NEL             ....   88
 Basis Dimension        Dim             ....  194

ORBITAL ENERGIES
----------------

  NO   OCC          E(Eh)            E(eV)
   0   2.0000     -18.737012      -509.8600
   1   2.0000      -9.930048      -270.2103
   2   2.0000      -9.897540      -269.3258
   3   2.0000      -9.890767      -269.1414
   4   2.0000      -9.887140      -269.0428
   5   2.0000      -9.881640      -268.8931
   6   2.0000      -9.879421      -268.8327
   7   2.0000      -9.876674      -268.7580
   8   2.0000      -9.873984      -268.6848
   9   2.0000      -9.873695      -268.6769
  10   2.0000      -9.869688      -268.5679
  11   2.0000      -0.916555       -24.9407
  12   2.0000      -0.759300       -20.6616
  13   2.0000      -0.724503       -19.7147
  14   2.0000      -0.669899       -18.2289
  15   2.0000      -0.655630       -17.8406
  16   2.0000      -0.613634       -16.6978
  17   2.0000      -0.600904       -16.3514
  18   2.0000      -0.545824       -14.8526
  19   2.0000      -0.534501       -14.5445
  20   2.0000      -0.503183       -13.6923
  21   2.0000      -0.486416       -13.2361
  22   2.0000      -0.454117       -12.3572
  23   2.0000      -0.425066       -11.5666
  24   2.0000      -0.411906       -11.2085
  25   2.0000      -0.400897       -10.9090
  26   2.0000      -0.396430       -10.7874
  27   2.0000      -0.376949       -10.2573
  28   2.0000      -0.365562        -9.9474
  29   2.0000      -0.360911        -9.8209
  30   2.0000      -0.353348        -9.6151
  31   2.0000      -0.340415        -9.2632
  32   2.0000      -0.331278        -9.0145
  33   2.0000      -0.326154        -8.8751
  34   2.0000      -0.316330        -8.6078
  35   2.0000      -0.304686        -8.2909
  36   2.0000      -0.299104        -8.1390
  37   2.0000      -0.290222        -7.8974
  38   2.0000      -0.283048        -7.7021
  39   2.0000      -0.280261        -7.6263
  40   2.0000      -0.276014        -7.5107
  41   2.0000      -0.261596        -7.1184
  42   2.0000      -0.248493        -6.7618
  43   2.0000      -0.208756        -5.6805
  44   0.0000       0.021576         0.5871
  45   0.0000       0.038564         1.0494
  46   0.0000       0.040571         1.1040
  47   0.0000       0.050541         1.3753
  48   0.0000       0.077722         2.1149

MULLIKEN ATOMIC CHARGES
-----------------------
   0 C :   -0.196498
   1 C :   -0.215977
   2 H :    0.062031
   3 C :   -0.096435
   4 C :   -0.123793
   5 C :   -0.132788
   6 H :    0.051963
   7 C :    0.050161
   8 H :    0.047872
   9 C :   -0.071551
  10 O :   -0.410624
  11 C :   -0.142151
  12 C :   -0.242020
  13 C :   -0.264110
  14 H :    0.096201
  15 H :    0.094351
  16 H :    0.090079
  17 H :    0.065598
  18 H :    0.076552
  19 H :    0.083234
  20 H :    0.074188
  21 H :    0.068537
  22 H :    0.081648
  23 H :    0.298319
  24 H :    0.046090
  25 H :    0.098600
  26 H :    0.096853
  27 H :    0.103438
  28 H :    0.102981
  29 H :    0.107856
  30 H :    0.099396
Sum of atomic charges:    0.0000000

LOEWDIN ATOMIC CHARGES
----------------------
   0 C :   -0.325962
   1 C :   -0.152633
   2 H :    0.112899
   3 C :   -0.213779
   4 C :   -0.217571
   5 C :   -0.149294
   6 H :    0.115953
   7 C :   -0.047583
   8 H :    0.093284
   9 C :   -0.213601
  10 O :   -0.323722
  11 C :   -0.154404
  12 C :   -0.327285
  13 C :   -0.333537
  14 H :    0.117632
  15 H :    0.116317
  16 H :    0.116901
  17 H :    0.114075
  18 H :    0.114548
  19 H :    0.116708
  20 H :    0.115359
  21 H :    0.118517
  22 H :    0.118993
  23 H :    0.278143
  24 H :    0.103631
  25 H :    0.118254
  26 H :    0.118138
  27 H :    0.116159
  28 H :    0.114028
  29 H :    0.119902
  30 H :    0.119933

  Mayer bond orders larger than 0.100000
B(  0-C ,  1-C ) :   1.1151 B(  0-C , 14-H ) :   0.9486 B(  0-C , 15-H ) :   0.9489
B(  0-C , 16-H ) :   0.9460 B(  1-C ,  2-H ) :   0.8898 B(  1-C ,  3-C ) :   1.0941
B(  1-C ,  9-C ) :   1.0856 B(  3-C ,  4-C ) :   1.1468 B(  3-C , 17-H ) :   0.9036
B(  3-C , 18-H ) :   0.9132 B(  4-C ,  5-C ) :   1.0641 B(  4-C , 19-H ) :   0.9071
B(  4-C , 20-H ) :   0.8933 B(  5-C ,  6-H ) :   0.8696 B(  5-C ,  7-C ) :   1.0213
B(  5-C , 11-C ) :   1.0347 B(  7-C ,  8-H ) :   0.8842 B(  7-C ,  9-C ) :   1.1043
B(  7-C , 10-O ) :   1.0848 B(  9-C , 21-H ) :   0.8920 B(  9-C , 22-H ) :   0.9071
B( 10-O , 23-H ) :   0.8421 B( 11-C , 12-C ) :   1.1229 B( 11-C , 13-C ) :   1.0966
B( 11-C , 24-H ) :   0.8814 B( 12-C , 25-H ) :   0.9474 B( 12-C , 26-H ) :   0.9487
B( 12-C , 27-H ) :   0.9425 B( 13-C , 28-H ) :   0.9462 B( 13-C , 29-H ) :   0.9425
B( 13-C , 30-H ) :   0.9475

Dispersion correction           -0.031514126
FINAL SINGLE POINT ENERGY      -467.199974643745

DIPOLE MOMENT
-------------

Method             : SCF
Type of density    : Electron Density
Multiplicity       :   1
Irrep              :   0
Energy             :  -467.3121806022878673 Eh
Relativity type    :
Basis              : AO
                                X                 Y                 Z
Electronic contribution:      0.661185104       5.183202165      -0.412337185
Nuclear contribution   :     -1.026452040      -5.548895557       0.693871176
                        -----------------------------------------
Total Dipole Moment    :     -0.365266936      -0.365693392       0.281533991
                        -----------------------------------------
Magnitude (a.u.)       :      0.588568586
Magnitude (Debye)      :      1.496022454

Rotational constants in cm-1:             0.059365             0.023306             0.019247
Rotational constants in MHz :          1779.705299           698.682971           577.017895

                             ****ORCA TERMINATED NORMALLY****
TOTAL RUN TIME: 0 days 0 hours 0 minutes 11 seconds 905 msec
