                         Program Version 6.0.1  -  RELEASE   -
|  1> ! r2scan-3c def2/J RI DEFGRID2 scfconv6 printgap
|  2> %output
|  3>     printlevel normal
|  4> end
|  5> * xyz 0 1
|  6> C -2.3979086836 0.6561017606 -0.4085265225
|  7> C -1.7590784769 -0.3455471123 0.546634881
|  8> C -0.4397104412 -0.9629689651 0.0711713564
|  9> C 0.8136992592 -0.0658889777 -0.0182623807
| 10> C 0.843252213 0.7373700866 -1.3213627802
| 11> C 0.912248865 0.8858899657 1.1750050808
| 12> C 2.0397992091 -0.9892425102 -0.0090651001
| 13> H -1.8608979191 1.6005269298 -0.4154097676
| 14> H -2.419010232 0.2604028738 -1.4215072548
| 15> H -3.4218188659 0.8605760806 -0.1006874801
| 16> H -1.6209330545 0.1206734244 1.5229716287
| 17> H -2.4601901924 -1.1738306876 0.6847154966
| 18> H -0.6038795222 -1.4195010456 -0.9082356436
| 19> H -0.2100402431 -1.7739469229 0.7681404723
| 20> H 0.7801167281 0.0726052096 -2.180347611
| 21> H 0.0226569803 1.4444836387 -1.3756039745
| 22> H 1.7745402064 1.2963134644 -1.3930248379
| 23> H 1.868627522 1.404771236 1.1587062102
| 24> H 0.8396713392 0.3358389892 2.1108665829
| 25> H 0.1242450671 1.6336051989 1.1481989642
| 26> H 1.9775605413 -1.7148819881 -0.8173808417
| 27> H 2.9534877222 -0.4129062476 -0.1379023916
| 28> H 2.1092634098 -1.5303089106 0.9323254739
| 29> *
| 30>
| 31>                          ****END OF INPUT****

CARTESIAN COORDINATES (ANGSTROEM)
---------------------------------
  C     -2.397909    0.656102   -0.408527
  C     -1.759078   -0.345547    0.546635
  C     -0.439710   -0.962969    0.071171
  C      0.813699   -0.065889   -0.018262
  C      0.843252    0.737370   -1.321363
  C      0.912249    0.885890    1.175005
  C      2.039799   -0.989243   -0.009065
  H     -1.860898    1.600527   -0.415410
  H     -2.419010    0.260403   -1.421507
  H     -3.421819    0.860576   -0.100687
  H     -1.620933    0.120673    1.522972
  H     -2.460190   -1.173831    0.684715
  H     -0.603880   -1.419501   -0.908236
  H     -0.210040   -1.773947    0.768140
  H      0.780117    0.072605   -2.180348
  H      0.022657    1.444484   -1.375604
  H      1.774540    1.296313   -1.393025
  H      1.868628    1.404771    1.158706
  H      0.839671    0.335839    2.110867
  H      0.124245    1.633605    1.148199
  H      1.977561   -1.714882   -0.817381
  H      2.953488   -0.412906   -0.137902
  H      2.109263   -1.530309    0.932325

 Total Charge           Charge          ....    0
 Multiplicity           Mult            ....    1
 Number of Electrons    NEL             ....   58
 Basis Dimension        Dim             ....  213

ORBITAL ENERGIES
----------------

  NO   OCC          E(Eh)            E(eV)
   0   2.0000     -10.038470      -273.1606
   1   2.0000     -10.021962      -272.7114
   2   2.0000     -10.018433      -272.6154
   3   2.0000     -10.013748      -272.4879
   4   2.0000     -10.012170      -272.4450
   5   2.0000     -10.010895      -272.4103
   6   2.0000     -10.009811      -272.3808
   7   2.0000      -0.791465       -21.5368
   8   2.0000      -0.731216       -19.8974
   9   2.0000      -0.651279       -17.7222
  10   2.0000      -0.649711       -17.6795
  11   2.0000      -0.640930       -17.4406
  12   2.0000      -0.556617       -15.1463
  13   2.0000      -0.490633       -13.3508
  14   2.0000      -0.436351       -11.8737
  15   2.0000      -0.422878       -11.5071
  16   2.0000      -0.411722       -11.2035
  17   2.0000      -0.392858       -10.6902
  18   2.0000      -0.382150       -10.3988
  19   2.0000      -0.363620        -9.8946
  20   2.0000      -0.350875        -9.5478
  21   2.0000      -0.344487        -9.3740
  22   2.0000      -0.330305        -8.9881
  23   2.0000      -0.321818        -8.7571
  24   2.0000      -0.308020        -8.3817
  25   2.0000      -0.304492        -8.2857
  26   2.0000      -0.282728        -7.6934
  27   2.0000      -0.276599        -7.5266
  28   2.0000      -0.268617        -7.3094
  29   0.0000       0.074390         2.0243
  30   0.0000       0.107133         2.9152
  31   0.0000       0.111889         3.0446
  32   0.0000       0.122278         3.3273
  33   0.0000       0.130479         3.5505

MULLIKEN ATOMIC CHARGES
-----------------------
   0 C :   -0.486817
   1 C :   -0.252495
   2 C :   -0.299905
   3 C :    0.148625
   4 C :   -0.504337
   5 C :   -0.515375
   6 C :   -0.495079
   7 H :    0.142192
   8 H :    0.149460
   9 H :    0.144722
  10 H :    0.151863
  11 H :    0.140091
  12 H :    0.151336
  13 H :    0.147521
  14 H :    0.155214
  15 H :    0.151360
  16 H :    0.148805
  17 H :    0.151301
  18 H :    0.158427
  19 H :    0.156593
  20 H :    0.152743
  21 H :    0.151442
  22 H :    0.152311
Sum of atomic charges:   -0.0000000

LOEWDIN ATOMIC CHARGES
----------------------
   0 C :   -0.428184
   1 C :   -0.313113
   2 C :   -0.297959
   3 C :   -0.212091
   4 C :   -0.407418
   5 C :   -0.407806
   6 C :   -0.411122
   7 H :    0.145243
   8 H :    0.150733
   9 H :    0.150042
  10 H :    0.153555
  11 H :    0.152672
  12 H :    0.159823
  13 H :    0.162003
  14 H :    0.156269
  15 H :    0.155983
  16 H :    0.155035
  17 H :    0.157314
  18 H :    0.157538
  19 H :    0.155455
  20 H :    0.157149
  21 H :    0.154152
  22 H :    0.154724

  Mayer bond orders larger than 0.100000
B(  0-C ,  1-C ) :   0.8746 B(  0-C ,  7-H ) :   0.9820 B(  0-C ,  8-H ) :   0.9824
B(  0-C ,  9-H ) :   0.9703 B(  1-C ,  2-C ) :   0.9084 B(  1-C , 10-H ) :   0.9841
B(  1-C , 11-H ) :   0.9682 B(  2-C ,  3-C ) :   0.8617 B(  2-C , 12-H ) :   0.9868
B(  2-C , 13-H ) :   0.9727 B(  3-C ,  4-C ) :   0.9420 B(  3-C ,  5-C ) :   0.8988
B(  3-C ,  6-C ) :   0.9306 B(  4-C , 14-H ) :   0.9799 B(  4-C , 15-H ) :   0.9624
B(  4-C , 16-H ) :   0.9784 B(  5-C , 17-H ) :   0.9729 B(  5-C , 18-H ) :   0.9785
B(  5-C , 19-H ) :   0.9718 B(  6-C , 20-H ) :   0.9765 B(  6-C , 21-H ) :   0.9793
B(  6-C , 22-H ) :   0.9765

Dispersion correction           -0.006721606
FINAL SINGLE POINT ENERGY      -276.285802492375

DIPOLE MOMENT
-------------

Method             : SCF
Type of density    : Electron Density
Multiplicity       :   1
Irrep              :   0
Energy             :  -276.2904778718241801 Eh
Relativity type    :
Basis              : AO
                                X                 Y                 Z
Electronic contribution:      0.099392097      -0.970054417       0.425547567
Nuclear contribution   :     -0.137534948       0.942309276      -0.397944603
                        -----------------------------------------
Total Dipole Moment    :     -0.038142851      -0.027745140       0.027602964
                        -----------------------------------------
Magnitude (a.u.)       :      0.054649735
Magnitude (Debye)      :      0.138908586

Rotational constants in cm-1:             0.125303             0.055619             0.053186
Rotational constants in MHz :          3756.482715          1667.420395          1594.464013

                             ****ORCA TERMINATED NORMALLY****
TOTAL RUN TIME: 0 days 0 hours 0 minutes 26 seconds 599 msec
