                         Program Version 6.0.1  -  RELEASE   -
|  1> ! pbe def2-sv(p) def2/J RI DEFGRID1 loosescf d4 GCP(DFT/SV(P)) printgap
|  2> %output
|  3>     printlevel normal
|  4> end
|  5> * xyz 0 1
|  6> C -2.2225477021 -1.0200553598 -0.3738828973
|  7> C -1.1749241079 -0.2071319065 0.3998845923
|  8> H -1.6563217591 0.2126075591 1.294194288
|  9> C -0.5944046607 0.9371471304 -0.4444306427
| 10> H -0.4287532948 0.5901266074 -1.4722228723
| 11> C 0.7538853596 1.3322089069 0.1748804709
| 12> H 0.6384213141 1.4819695686 1.2567194923
| 13> C 1.7340956796 0.1694543435 -0.0535522579
| 14> H 2.0709993652 0.1912446312 -1.1031737476
| 15> C 1.0192464453 -1.1774135909 0.1638637041
| 16> H 1.6722228766 -1.8091278538 0.7834611453
| 17> O -0.1592197688 -1.071304689 0.9141070917
| 18> O 0.7970465317 -1.741407254 -1.0941883781
| 19> O 2.8316085081 0.2386173334 0.8154785763
| 20> O 1.2577303284 2.5438515682 -0.324523757
| 21> O -1.4782782569 2.0164602258 -0.5594767237
| 22> O -2.7938915935 -2.0117146186 0.4374404228
| 23> H -1.7520508679 -1.4660003143 -1.2621746647
| 24> H -3.0294873348 -0.3589508591 -0.6964330863
| 25> H 0.4447196205 -2.6337976326 -0.9877179702
| 26> H 3.1676416814 1.1441006388 0.7940592246
| 27> H 1.0691622336 2.5982812546 -1.2690363052
| 28> H -1.5635484252 2.4532082065 0.2970637145
| 29> H -2.0801132723 -2.4065856462 0.9554260416
| 30> *
| 31>
| 32>                          ****END OF INPUT****

CARTESIAN COORDINATES (ANGSTROEM)
---------------------------------
  C     -2.222548   -1.020055   -0.373883
  C     -1.174924   -0.207132    0.399885
  H     -1.656322    0.212608    1.294194
  C     -0.594405    0.937147   -0.444431
  H     -0.428753    0.590127   -1.472223
  C      0.753885    1.332209    0.174880
  H      0.638421    1.481970    1.256719
  C      1.734096    0.169454   -0.053552
  H      2.070999    0.191245   -1.103174
  C      1.019246   -1.177414    0.163864
  H      1.672223   -1.809128    0.783461
  O     -0.159220   -1.071305    0.914107
  O      0.797047   -1.741407   -1.094188
  O      2.831609    0.238617    0.815479
  O      1.257730    2.543852   -0.324524
  O     -1.478278    2.016460   -0.559477
  O     -2.793892   -2.011715    0.437440
  H     -1.752051   -1.466000   -1.262175
  H     -3.029487   -0.358951   -0.696433
  H      0.444720   -2.633798   -0.987718
  H      3.167642    1.144101    0.794059
  H      1.069162    2.598281   -1.269036
  H     -1.563548    2.453208    0.297064
  H     -2.080113   -2.406586    0.955426

 Total Charge           Charge          ....    0
 Multiplicity           Mult            ....    1
 Number of Electrons    NEL             ....   96
 Basis Dimension        Dim             ....  192

ORBITAL ENERGIES
----------------

  NO   OCC          E(Eh)            E(eV)
   0   2.0000     -18.782191      -511.0894
   1   2.0000     -18.774439      -510.8785
   2   2.0000     -18.764937      -510.6199
   3   2.0000     -18.763314      -510.5757
   4   2.0000     -18.755284      -510.3572
   5   2.0000     -18.741903      -509.9931
   6   2.0000      -9.993994      -271.9504
   7   2.0000      -9.952956      -270.8337
   8   2.0000      -9.950102      -270.7560
   9   2.0000      -9.948751      -270.7193
  10   2.0000      -9.945169      -270.6218
  11   2.0000      -9.928214      -270.1604
  12   2.0000      -0.993340       -27.0301
  13   2.0000      -0.957046       -26.0425
  14   2.0000      -0.940040       -25.5798
  15   2.0000      -0.929246       -25.2861
  16   2.0000      -0.925278       -25.1781
  17   2.0000      -0.914460       -24.8837
  18   2.0000      -0.712732       -19.3944
  19   2.0000      -0.698220       -18.9995
  20   2.0000      -0.624086       -16.9822
  21   2.0000      -0.593126       -16.1398
  22   2.0000      -0.575504       -15.6603
  23   2.0000      -0.532426       -14.4880
  24   2.0000      -0.517584       -14.0842
  25   2.0000      -0.500315       -13.6143
  26   2.0000      -0.476882       -12.9766
  27   2.0000      -0.458605       -12.4793
  28   2.0000      -0.445268       -12.1164
  29   2.0000      -0.427111       -11.6223
  30   2.0000      -0.415113       -11.2958
  31   2.0000      -0.406760       -11.0685
  32   2.0000      -0.395676       -10.7669
  33   2.0000      -0.387377       -10.5411
  34   2.0000      -0.365303        -9.9404
  35   2.0000      -0.358794        -9.7633
  36   2.0000      -0.338308        -9.2058
  37   2.0000      -0.322278        -8.7696
  38   2.0000      -0.317705        -8.6452
  39   2.0000      -0.295041        -8.0285
  40   2.0000      -0.286840        -7.8053
  41   2.0000      -0.276838        -7.5332
  42   2.0000      -0.263266        -7.1638
  43   2.0000      -0.249398        -6.7865
  44   2.0000      -0.240587        -6.5467
  45   2.0000      -0.232415        -6.3243
  46   2.0000      -0.216665        -5.8958
  47   2.0000      -0.204463        -5.5637
  48   0.0000       0.009567         0.2603
  49   0.0000       0.020907         0.5689
  50   0.0000       0.024497         0.6666
  51   0.0000       0.042336         1.1520
  52   0.0000       0.055665         1.5147

MULLIKEN ATOMIC CHARGES
-----------------------
   0 C :    0.080454
   1 C :    0.025428
   2 H :    0.060721
   3 C :   -0.007528
   4 H :    0.073004
   5 C :    0.019181
   6 H :    0.058049
   7 C :    0.091863
   8 H :    0.060676
   9 C :    0.170614
  10 H :    0.079421
  11 O :   -0.327483
  12 O :   -0.396274
  13 O :   -0.410874
  14 O :   -0.408871
  15 O :   -0.399960
  16 O :   -0.433936
  17 H :    0.063239
  18 H :    0.088755
  19 H :    0.307283
  20 H :    0.306586
  21 H :    0.305009
  22 H :    0.302659
  23 H :    0.291981
Sum of atomic charges:   -0.0000000

LOEWDIN ATOMIC CHARGES
----------------------
   0 C :   -0.135403
   1 C :   -0.076164
   2 H :    0.112695
   3 C :   -0.086902
   4 H :    0.117416
   5 C :   -0.090325
   6 H :    0.114142
   7 C :   -0.080616
   8 H :    0.105668
   9 C :    0.000916
  10 H :    0.107729
  11 O :   -0.147660
  12 O :   -0.307415
  13 O :   -0.315790
  14 O :   -0.312847
  15 O :   -0.302952
  16 O :   -0.339421
  17 H :    0.093337
  18 H :    0.117931
  19 H :    0.287250
  20 H :    0.288170
  21 H :    0.288514
  22 H :    0.288010
  23 H :    0.273716

  Mayer bond orders larger than 0.100000
B(  0-C ,  1-C ) :   1.0777 B(  0-C , 16-O ) :   1.0752 B(  0-C , 17-H ) :   0.8961
B(  0-C , 18-H ) :   0.9114 B(  1-C ,  2-H ) :   0.8776 B(  1-C ,  3-C ) :   0.9650
B(  1-C , 11-O ) :   0.9476 B(  3-C ,  4-H ) :   0.8715 B(  3-C ,  5-C ) :   1.0212
B(  3-C , 15-O ) :   1.0530 B(  5-C ,  6-H ) :   0.8500 B(  5-C ,  7-C ) :   1.0196
B(  5-C , 14-O ) :   1.0733 B(  7-C ,  8-H ) :   0.8795 B(  7-C ,  9-C ) :   0.9752
B(  7-C , 13-O ) :   1.0940 B(  9-C , 10-H ) :   0.8910 B(  9-C , 11-O ) :   1.0687
B(  9-C , 12-O ) :   1.0975 B( 12-O , 19-H ) :   0.8344 B( 13-O , 20-H ) :   0.8409
B( 14-O , 21-H ) :   0.8458 B( 15-O , 22-H ) :   0.8475 B( 16-O , 23-H ) :   0.8404

Dispersion correction           -0.024555835
FINAL SINGLE POINT ENERGY      -685.691454692634

DIPOLE MOMENT
-------------

Method             : SCF
Type of density    : Electron Density
Multiplicity       :   1
Irrep              :   0
Energy             :  -685.8224060565578384 Eh
Relativity type    :
Basis              : AO
                                X                 Y                 Z
Electronic contribution:      1.749212912       0.167598503       1.212721580
Nuclear contribution   :     -1.350892824      -0.003120791      -1.319867297
                        -----------------------------------------
Total Dipole Moment    :      0.398320089       0.164477712      -0.107145717
                        -----------------------------------------
Magnitude (a.u.)       :      0.444063076
Magnitude (Debye)      :      1.128718638

Rotational constants in cm-1:             0.042696             0.026088             0.018658
Rotational constants in MHz :          1279.984255           782.085969           559.366021

                             ****ORCA TERMINATED NORMALLY****
TOTAL RUN TIME: 0 days 0 hours 0 minutes 8 seconds 497 msec
