                         Program Version 6.0.1  -  RELEASE   -
|  1> ! pbe def2-sv(p) def2/J RI DEFGRID1 loosescf d4 GCP(DFT/SV(P)) printgap
|  2> %output
|  3>     printlevel normal
|  4> end
|  5> * xyz 0 1
|  6> C -2.4163141971 -0.8370585982 0.354998368
|  7> C -0.9620412824 -0.4135910776 0.6024834949
|  8> H -0.7185291598 -0.5707175013 1.6635262451
|  9> C -0.7383171161 1.0770744158 0.2667474606
| 10> H -1.5456930695 1.4246082483 -0.3940725359
| 11> C 0.602507627 1.2361267891 -0.4864059749
| 12> H 0.9190304352 2.2856587075 -0.4601576702
| 13> C 1.6683919871 0.3682988492 0.2132889137
| 14> H 2.6290627941 0.4685699838 -0.306139951
| 15> C 1.239856072 -1.1241328327 0.1051302589
| 16> H 1.4411246142 -1.6261806372 1.063477773
| 17> O -0.1446865798 -1.2344333113 -0.2094794845
| 18> O 1.9433894298 -1.8137869427 -0.8574644021
| 19> O 1.8943638325 0.7744528827 1.533726366
| 20> O 0.4672837361 0.8985770974 -1.8417670019
| 21> O -0.7453091918 1.7825889203 1.4911891461
| 22> O -2.7718824971 -0.7040905446 -0.9937308258
| 23> H -3.0810559049 -0.1845330513 0.9235159384
| 24> H -2.5452332604 -1.8716688965 0.6959995846
| 25> H 1.8403492584 -1.3694540417 -1.7100814973
| 26> H 1.0499509983 1.0242476848 1.9409157226
| 27> H -0.0061230122 0.0547608291 -1.8857160059
| 28> H -0.7498038861 2.730355616 1.3149129559
| 29> H -2.2219534848 -1.3110701826 -1.5034245342
| 30> *
| 31>
| 32>                          ****END OF INPUT****

CARTESIAN COORDINATES (ANGSTROEM)
---------------------------------
  C     -2.416314   -0.837059    0.354998
  C     -0.962041   -0.413591    0.602483
  H     -0.718529   -0.570718    1.663526
  C     -0.738317    1.077074    0.266747
  H     -1.545693    1.424608   -0.394073
  C      0.602508    1.236127   -0.486406
  H      0.919030    2.285659   -0.460158
  C      1.668392    0.368299    0.213289
  H      2.629063    0.468570   -0.306140
  C      1.239856   -1.124133    0.105130
  H      1.441125   -1.626181    1.063478
  O     -0.144687   -1.234433   -0.209479
  O      1.943389   -1.813787   -0.857464
  O      1.894364    0.774453    1.533726
  O      0.467284    0.898577   -1.841767
  O     -0.745309    1.782589    1.491189
  O     -2.771882   -0.704091   -0.993731
  H     -3.081056   -0.184533    0.923516
  H     -2.545233   -1.871669    0.696000
  H      1.840349   -1.369454   -1.710081
  H      1.049951    1.024248    1.940916
  H     -0.006123    0.054761   -1.885716
  H     -0.749804    2.730356    1.314913
  H     -2.221953   -1.311070   -1.503425

 Total Charge           Charge          ....    0
 Multiplicity           Mult            ....    1
 Number of Electrons    NEL             ....   96
 Basis Dimension        Dim             ....  192

ORBITAL ENERGIES
----------------

  NO   OCC          E(Eh)            E(eV)
   0   2.0000     -18.789377      -511.2849
   1   2.0000     -18.787459      -511.2328
   2   2.0000     -18.764361      -510.6042
   3   2.0000     -18.764112      -510.5974
   4   2.0000     -18.763101      -510.5699
   5   2.0000     -18.745741      -510.0976
   6   2.0000      -9.989531      -271.8290
   7   2.0000      -9.958759      -270.9916
   8   2.0000      -9.956819      -270.9388
   9   2.0000      -9.950961      -270.7794
  10   2.0000      -9.946003      -270.6445
  11   2.0000      -9.940072      -270.4831
  12   2.0000      -0.997862       -27.1532
  13   2.0000      -0.962751       -26.1978
  14   2.0000      -0.944921       -25.7126
  15   2.0000      -0.940762       -25.5994
  16   2.0000      -0.924409       -25.1545
  17   2.0000      -0.923563       -25.1314
  18   2.0000      -0.712554       -19.3896
  19   2.0000      -0.686786       -18.6884
  20   2.0000      -0.629461       -17.1285
  21   2.0000      -0.600497       -16.3404
  22   2.0000      -0.578160       -15.7325
  23   2.0000      -0.539244       -14.6736
  24   2.0000      -0.517187       -14.0734
  25   2.0000      -0.500543       -13.6205
  26   2.0000      -0.477402       -12.9908
  27   2.0000      -0.470363       -12.7992
  28   2.0000      -0.467487       -12.7210
  29   2.0000      -0.450605       -12.2616
  30   2.0000      -0.416104       -11.3228
  31   2.0000      -0.400776       -10.9057
  32   2.0000      -0.388343       -10.5674
  33   2.0000      -0.384453       -10.4615
  34   2.0000      -0.366235        -9.9658
  35   2.0000      -0.364786        -9.9263
  36   2.0000      -0.340759        -9.2725
  37   2.0000      -0.329038        -8.9536
  38   2.0000      -0.316952        -8.6247
  39   2.0000      -0.310005        -8.4357
  40   2.0000      -0.294319        -8.0088
  41   2.0000      -0.283237        -7.7073
  42   2.0000      -0.265614        -7.2277
  43   2.0000      -0.262779        -7.1506
  44   2.0000      -0.247263        -6.7284
  45   2.0000      -0.237929        -6.4744
  46   2.0000      -0.223696        -6.0871
  47   2.0000      -0.200909        -5.4670
  48   0.0000      -0.002065        -0.0562
  49   0.0000       0.012459         0.3390
  50   0.0000       0.032538         0.8854
  51   0.0000       0.045337         1.2337
  52   0.0000       0.059051         1.6069

MULLIKEN ATOMIC CHARGES
-----------------------
   0 C :    0.065393
   1 C :   -0.004542
   2 H :    0.069819
   3 C :   -0.000527
   4 H :    0.087701
   5 C :    0.030229
   6 H :    0.069770
   7 C :    0.026230
   8 H :    0.081640
   9 C :    0.185954
  10 H :    0.073546
  11 O :   -0.322120
  12 O :   -0.371721
  13 O :   -0.423474
  14 O :   -0.417930
  15 O :   -0.412354
  16 O :   -0.430488
  17 H :    0.100742
  18 H :    0.090208
  19 H :    0.292590
  20 H :    0.299028
  21 H :    0.292685
  22 H :    0.313998
  23 H :    0.303621
Sum of atomic charges:   -0.0000000

LOEWDIN ATOMIC CHARGES
----------------------
   0 C :   -0.121718
   1 C :   -0.077519
   2 H :    0.112348
   3 C :   -0.086728
   4 H :    0.113881
   5 C :   -0.083563
   6 H :    0.113150
   7 C :   -0.094913
   8 H :    0.119111
   9 C :   -0.002616
  10 H :    0.106690
  11 O :   -0.166381
  12 O :   -0.282589
  13 O :   -0.318774
  14 O :   -0.312121
  15 O :   -0.306564
  16 O :   -0.326454
  17 H :    0.122428
  18 H :    0.106759
  19 H :    0.277955
  20 H :    0.268079
  21 H :    0.262619
  22 H :    0.294277
  23 H :    0.282644

  Mayer bond orders larger than 0.100000
B(  0-C ,  1-C ) :   1.0440 B(  0-C , 16-O ) :   1.0697 B(  0-C , 17-H ) :   0.9224
B(  0-C , 18-H ) :   0.9154 B(  1-C ,  2-H ) :   0.8641 B(  1-C ,  3-C ) :   0.9926
B(  1-C , 11-O ) :   1.0257 B(  3-C ,  4-H ) :   0.8815 B(  3-C ,  5-C ) :   0.9947
B(  3-C , 15-O ) :   1.0260 B(  5-C ,  6-H ) :   0.8936 B(  5-C ,  7-C ) :   0.9704
B(  5-C , 14-O ) :   1.0421 B(  7-C ,  8-H ) :   0.8992 B(  7-C ,  9-C ) :   0.9325
B(  7-C , 13-O ) :   1.0791 B(  9-C , 10-H ) :   0.8973 B(  9-C , 11-O ) :   0.9617
B(  9-C , 12-O ) :   1.1576 B( 12-O , 19-H ) :   0.8350 B( 13-O , 20-H ) :   0.8073
B( 14-O , 21-H ) :   0.8138 B( 15-O , 20-H ) :   0.1114 B( 15-O , 22-H ) :   0.8397
B( 16-O , 23-H ) :   0.8390

Dispersion correction           -0.025507044
FINAL SINGLE POINT ENERGY      -685.694463727590

DIPOLE MOMENT
-------------

Method             : SCF
Type of density    : Electron Density
Multiplicity       :   1
Irrep              :   0
Energy             :  -685.8287890795859312 Eh
Relativity type    :
Basis              : AO
                                X                 Y                 Z
Electronic contribution:      2.115744627      -0.584195339      -1.203065495
Nuclear contribution   :     -2.794543901       0.984977063       1.246733474
                        -----------------------------------------
Total Dipole Moment    :     -0.678799274       0.400781724       0.043667979
                        -----------------------------------------
Magnitude (a.u.)       :      0.789494355
Magnitude (Debye)      :      2.006735174

Rotational constants in cm-1:             0.039320             0.029124             0.023220
Rotational constants in MHz :          1178.782585           873.123789           696.111604

                             ****ORCA TERMINATED NORMALLY****
TOTAL RUN TIME: 0 days 0 hours 0 minutes 7 seconds 993 msec
