                         Program Version 6.0.1  -  RELEASE   -
|  1> ! r2scan-3c def2/J RI DEFGRID2 scfconv6 printgap
|  2> %output
|  3>     printlevel normal
|  4> end
|  5> * xyz 0 1
|  6> C -3.4319591657 -0.3645139697 1.7290143186
|  7> N -2.3395429845 -0.0606120395 0.83851139
|  8> C -2.4086508038 -0.3125554802 -0.4900900603
|  9> O -3.353518765 -0.8082079056 -1.041285556
| 10> O -1.3065107563 0.0229427191 -1.2103785248
| 11> C -0.2137611394 0.6408612083 -0.6224135843
| 12> C -0.2034205399 2.0012465912 -0.4423780435
| 13> C 0.926120052 2.631188063 0.0993405997
| 14> C 2.0233789223 1.8995207891 0.4574013197
| 15> C 2.0445035586 0.4993964237 0.2849148072
| 16> C 0.9087843427 -0.1512777545 -0.265249656
| 17> C 0.927518706 -1.5503227235 -0.4392072128
| 18> C 2.0282202767 -2.2771071242 -0.08081152
| 19> C 3.1533081264 -1.6390481256 0.4641321414
| 20> C 3.1620153687 -0.28388907 0.6424162572
| 21> H -4.2325239163 -0.7928630128 1.1287190079
| 22> H -3.7916199184 0.5419196185 2.2198975373
| 23> H -3.1216780818 -1.0856875436 2.4874751901
| 24> H -1.5023867924 0.342859701 1.2297131697
| 25> H -1.0681717053 2.5811086037 -0.7281934819
| 26> H 0.9154420682 3.7027983423 0.2287613802
| 27> H 2.8936630339 2.383487388 0.8755420764
| 28> H 0.0601813749 -2.0303481816 -0.8674585084
| 29> H 2.0394766812 -3.3481826904 -0.21686333
| 30> H 4.0144967521 -2.2294990645 0.7399974024
| 31> H 4.0274532314 0.2109541778 1.0589296897
| 32> *
| 33>
| 34>                          ****END OF INPUT****

CARTESIAN COORDINATES (ANGSTROEM)
---------------------------------
  C     -3.431959   -0.364514    1.729014
  N     -2.339543   -0.060612    0.838511
  C     -2.408651   -0.312555   -0.490090
  O     -3.353519   -0.808208   -1.041286
  O     -1.306511    0.022943   -1.210379
  C     -0.213761    0.640861   -0.622414
  C     -0.203421    2.001247   -0.442378
  C      0.926120    2.631188    0.099341
  C      2.023379    1.899521    0.457401
  C      2.044504    0.499396    0.284915
  C      0.908784   -0.151278   -0.265250
  C      0.927519   -1.550323   -0.439207
  C      2.028220   -2.277107   -0.080812
  C      3.153308   -1.639048    0.464132
  C      3.162015   -0.283889    0.642416
  H     -4.232524   -0.792863    1.128719
  H     -3.791620    0.541920    2.219898
  H     -3.121678   -1.085688    2.487475
  H     -1.502387    0.342860    1.229713
  H     -1.068172    2.581109   -0.728193
  H      0.915442    3.702798    0.228761
  H      2.893663    2.383487    0.875542
  H      0.060181   -2.030348   -0.867459
  H      2.039477   -3.348183   -0.216863
  H      4.014497   -2.229499    0.739997
  H      4.027453    0.210954    1.058930

 Total Charge           Charge          ....    0
 Multiplicity           Mult            ....    1
 Number of Electrons    NEL             ....  106
 Basis Dimension        Dim             ....  355

ORBITAL ENERGIES
----------------

  NO   OCC          E(Eh)            E(eV)
   0   2.0000     -19.004932      -517.1505
   1   2.0000     -18.913624      -514.6659
   2   2.0000     -14.193149      -386.2152
   3   2.0000     -10.174700      -276.8677
   4   2.0000     -10.112971      -275.1879
   5   2.0000     -10.066969      -273.9362
   6   2.0000     -10.062168      -273.8055
   7   2.0000     -10.061779      -273.7949
   8   2.0000     -10.053662      -273.5741
   9   2.0000     -10.052924      -273.5540
  10   2.0000     -10.050334      -273.4835
  11   2.0000     -10.049700      -273.4662
  12   2.0000     -10.048610      -273.4366
  13   2.0000     -10.048107      -273.4229
  14   2.0000     -10.047560      -273.4080
  15   2.0000      -1.082466       -29.4554
  16   2.0000      -0.990189       -26.9444
  17   2.0000      -0.897887       -24.4328
  18   2.0000      -0.860662       -23.4198
  19   2.0000      -0.808532       -22.0013
  20   2.0000      -0.758063       -20.6279
  21   2.0000      -0.729925       -19.8623
  22   2.0000      -0.708132       -19.2692
  23   2.0000      -0.682618       -18.5750
  24   2.0000      -0.624455       -16.9923
  25   2.0000      -0.602819       -16.4035
  26   2.0000      -0.599531       -16.3141
  27   2.0000      -0.560216       -15.2442
  28   2.0000      -0.542068       -14.7504
  29   2.0000      -0.503238       -13.6938
  30   2.0000      -0.486591       -13.2408
  31   2.0000      -0.479589       -13.0503
  32   2.0000      -0.459215       -12.4959
  33   2.0000      -0.445775       -12.1302
  34   2.0000      -0.426487       -11.6053
  35   2.0000      -0.412547       -11.2260
  36   2.0000      -0.408308       -11.1106
  37   2.0000      -0.403018       -10.9667
  38   2.0000      -0.392620       -10.6837
  39   2.0000      -0.389397       -10.5960
  40   2.0000      -0.379497       -10.3266
  41   2.0000      -0.372899       -10.1471
  42   2.0000      -0.365185        -9.9372
  43   2.0000      -0.355255        -9.6670
  44   2.0000      -0.327884        -8.9222
  45   2.0000      -0.324058        -8.8181
  46   2.0000      -0.318126        -8.6567
  47   2.0000      -0.280280        -7.6268
  48   2.0000      -0.275169        -7.4877
  49   2.0000      -0.249799        -6.7974
  50   2.0000      -0.246546        -6.7089
  51   2.0000      -0.234143        -6.3714
  52   2.0000      -0.213718        -5.8156
  53   0.0000      -0.082118        -2.2345
  54   0.0000      -0.052234        -1.4214
  55   0.0000      -0.014421        -0.3924
  56   0.0000       0.027851         0.7579
  57   0.0000       0.046328         1.2607

MULLIKEN ATOMIC CHARGES
-----------------------
   0 C :   -0.400613
   1 N :   -0.172022
   2 C :    0.334192
   3 O :   -0.438124
   4 O :   -0.141770
   5 C :    0.169543
   6 C :   -0.191924
   7 C :   -0.133135
   8 C :   -0.264663
   9 C :    0.175884
  10 C :   -0.005503
  11 C :   -0.233776
  12 C :   -0.145425
  13 C :   -0.137447
  14 C :   -0.215170
  15 H :    0.197279
  16 H :    0.143435
  17 H :    0.144972
  18 H :    0.245920
  19 H :    0.163298
  20 H :    0.149897
  21 H :    0.146725
  22 H :    0.167271
  23 H :    0.148484
  24 H :    0.147440
  25 H :    0.145231
Sum of atomic charges:   -0.0000000

LOEWDIN ATOMIC CHARGES
----------------------
   0 C :   -0.110801
   1 N :   -0.626627
   2 C :    0.451931
   3 O :   -0.380232
   4 O :   -0.491538
   5 C :    0.194648
   6 C :   -0.129312
   7 C :   -0.156420
   8 C :   -0.145552
   9 C :   -0.055221
  10 C :   -0.029132
  11 C :   -0.122542
  12 C :   -0.154991
  13 C :   -0.156162
  14 C :   -0.141335
  15 H :    0.207621
  16 H :    0.168372
  17 H :    0.169222
  18 H :    0.278469
  19 H :    0.184903
  20 H :    0.171594
  21 H :    0.172711
  22 H :    0.188069
  23 H :    0.170536
  24 H :    0.169516
  25 H :    0.172275

  Mayer bond orders larger than 0.100000
B(  0-C ,  1-N ) :   0.8974 B(  0-C , 15-H ) :   0.9543 B(  0-C , 16-H ) :   0.9625
B(  0-C , 17-H ) :   0.9615 B(  1-N ,  2-C ) :   1.1405 B(  1-N , 18-H ) :   0.9175
B(  2-C ,  3-O ) :   1.9607 B(  2-C ,  4-O ) :   1.0215 B(  4-O ,  5-C ) :   0.9105
B(  5-C ,  6-C ) :   1.5253 B(  5-C , 10-C ) :   1.2755 B(  6-C ,  7-C ) :   1.2158
B(  6-C , 19-H ) :   0.9360 B(  7-C ,  8-C ) :   1.4935 B(  7-C , 20-H ) :   0.9572
B(  8-C ,  9-C ) :   1.1769 B(  8-C , 21-H ) :   0.9475 B(  9-C , 10-C ) :   1.3978
B(  9-C , 14-C ) :   1.1861 B( 10-C , 11-C ) :   1.2912 B( 11-C , 12-C ) :   1.4829
B( 11-C , 22-H ) :   0.9591 B( 12-C , 13-C ) :   1.2570 B( 12-C , 23-H ) :   0.9536
B( 13-C , 14-C ) :   1.5103 B( 13-C , 24-H ) :   0.9492 B( 14-C , 25-H ) :   0.9503

Dispersion correction           -0.011046005
FINAL SINGLE POINT ENERGY      -668.975278895528

DIPOLE MOMENT
-------------

Method             : SCF
Type of density    : Electron Density
Multiplicity       :   1
Irrep              :   0
Energy             :  -668.9789438207192234 Eh
Relativity type    :
Basis              : AO
                                X                 Y                 Z
Electronic contribution:      0.996324108       0.323707266      -6.137184166
Nuclear contribution   :      0.137982811       0.247486249       7.623470423
                        -----------------------------------------
Total Dipole Moment    :      1.134306919       0.571193515       1.486286256
                        -----------------------------------------
Magnitude (a.u.)       :      1.954983646
Magnitude (Debye)      :      4.969173520

Rotational constants in cm-1:             0.033953             0.014848             0.012232
Rotational constants in MHz :          1017.871774           445.125172           366.718617

                             ****ORCA TERMINATED NORMALLY****
TOTAL RUN TIME: 0 days 0 hours 0 minutes 46 seconds 145 msec
