                         Program Version 6.0.1  -  RELEASE   -
|  1> ! pbe def2-sv(p) def2/J RI DEFGRID1 loosescf d4 GCP(DFT/SV(P)) printgap
|  2> %output
|  3>     printlevel normal
|  4> end
|  5> * xyz 0 1
|  6> C -1.7937576593 -1.0577207173 -0.6990674402
|  7> C -1.0386345128 -0.4959215492 0.5168112853
|  8> H -1.7189641418 -0.5999556758 1.373261459
|  9> C -0.7148193751 0.9965895791 0.3380074236
| 10> H -1.5551453512 1.4571207675 -0.1996468113
| 11> C 0.5768021683 1.242305804 -0.4777764775
| 12> H 0.8327201997 2.302051493 -0.3514718542
| 13> C 1.7153625371 0.3873105101 0.0963907162
| 14> H 2.5802990748 0.4351265943 -0.5755942115
| 15> C 1.2656166543 -1.0892682809 0.1636649561
| 16> H 2.0165211215 -1.6553697457 0.7351763665
| 17> O 0.0835644041 -1.2822724275 0.8852488378
| 18> O 1.1699576838 -1.5757260542 -1.1542187894
| 19> O 2.1454313971 0.8334494038 1.3470226582
| 20> O 0.3932456999 1.0230989872 -1.8495724038
| 21> O -0.5211645673 1.6278277753 1.589690432
| 22> O -3.0951170705 -0.5156755841 -0.651594529
| 23> H -1.8240343409 -2.1537489022 -0.6120006435
| 24> H -1.2928814915 -0.783608688 -1.6334408737
| 25> H 0.9463281015 -2.5134501286 -1.1262877123
| 26> H 1.3598404959 1.0663953525 1.866845961
| 27> H 0.641794884 0.107519852 -2.0431900164
| 28> H -1.3318639628 1.5570926502 2.105897066
| 29> H -3.5730878712 -0.777391236 -1.4452965653
| 30> *
| 31>
| 32>                          ****END OF INPUT****

CARTESIAN COORDINATES (ANGSTROEM)
---------------------------------
  C     -1.793758   -1.057721   -0.699067
  C     -1.038635   -0.495922    0.516811
  H     -1.718964   -0.599956    1.373261
  C     -0.714819    0.996590    0.338007
  H     -1.555145    1.457121   -0.199647
  C      0.576802    1.242306   -0.477776
  H      0.832720    2.302051   -0.351472
  C      1.715363    0.387311    0.096391
  H      2.580299    0.435127   -0.575594
  C      1.265617   -1.089268    0.163665
  H      2.016521   -1.655370    0.735176
  O      0.083564   -1.282272    0.885249
  O      1.169958   -1.575726   -1.154219
  O      2.145431    0.833449    1.347023
  O      0.393246    1.023099   -1.849572
  O     -0.521165    1.627828    1.589690
  O     -3.095117   -0.515676   -0.651595
  H     -1.824034   -2.153749   -0.612001
  H     -1.292881   -0.783609   -1.633441
  H      0.946328   -2.513450   -1.126288
  H      1.359840    1.066395    1.866846
  H      0.641795    0.107520   -2.043190
  H     -1.331864    1.557093    2.105897
  H     -3.573088   -0.777391   -1.445297

 Total Charge           Charge          ....    0
 Multiplicity           Mult            ....    1
 Number of Electrons    NEL             ....   96
 Basis Dimension        Dim             ....  192

ORBITAL ENERGIES
----------------

  NO   OCC          E(Eh)            E(eV)
   0   2.0000     -18.784481      -511.1517
   1   2.0000     -18.774282      -510.8742
   2   2.0000     -18.770558      -510.7728
   3   2.0000     -18.758571      -510.4467
   4   2.0000     -18.743800      -510.0447
   5   2.0000     -18.736065      -509.8343
   6   2.0000      -9.987967      -271.7864
   7   2.0000      -9.949890      -270.7503
   8   2.0000      -9.943774      -270.5838
   9   2.0000      -9.938862      -270.4502
  10   2.0000      -9.938300      -270.4349
  11   2.0000      -9.937661      -270.4175
  12   2.0000      -0.992381       -27.0041
  13   2.0000      -0.949193       -25.8288
  14   2.0000      -0.934943       -25.4411
  15   2.0000      -0.927174       -25.2297
  16   2.0000      -0.922868       -25.1125
  17   2.0000      -0.913988       -24.8709
  18   2.0000      -0.706764       -19.2320
  19   2.0000      -0.686115       -18.6701
  20   2.0000      -0.628805       -17.1107
  21   2.0000      -0.585089       -15.9211
  22   2.0000      -0.574108       -15.6223
  23   2.0000      -0.522597       -14.2206
  24   2.0000      -0.515450       -14.0261
  25   2.0000      -0.489764       -13.3272
  26   2.0000      -0.479616       -13.0510
  27   2.0000      -0.461587       -12.5604
  28   2.0000      -0.436003       -11.8642
  29   2.0000      -0.417302       -11.3554
  30   2.0000      -0.415049       -11.2941
  31   2.0000      -0.406250       -11.0546
  32   2.0000      -0.399445       -10.8695
  33   2.0000      -0.383124       -10.4253
  34   2.0000      -0.364612        -9.9216
  35   2.0000      -0.356888        -9.7114
  36   2.0000      -0.337804        -9.1921
  37   2.0000      -0.326509        -8.8848
  38   2.0000      -0.310139        -8.4393
  39   2.0000      -0.297712        -8.1011
  40   2.0000      -0.281261        -7.6535
  41   2.0000      -0.272711        -7.4208
  42   2.0000      -0.257618        -7.0101
  43   2.0000      -0.245631        -6.6840
  44   2.0000      -0.232303        -6.3213
  45   2.0000      -0.227366        -6.1869
  46   2.0000      -0.213932        -5.8214
  47   2.0000      -0.202918        -5.5217
  48   0.0000       0.009121         0.2482
  49   0.0000       0.016775         0.4565
  50   0.0000       0.019299         0.5252
  51   0.0000       0.057310         1.5595
  52   0.0000       0.069805         1.8995

MULLIKEN ATOMIC CHARGES
-----------------------
   0 C :    0.010278
   1 C :    0.054318
   2 H :    0.065434
   3 C :    0.037875
   4 H :    0.088549
   5 C :    0.044819
   6 H :    0.086039
   7 C :    0.019363
   8 H :    0.086061
   9 C :    0.176027
  10 H :    0.076154
  11 O :   -0.303036
  12 O :   -0.415638
  13 O :   -0.422161
  14 O :   -0.417965
  15 O :   -0.427419
  16 O :   -0.435361
  17 H :    0.065704
  18 H :    0.065707
  19 H :    0.310757
  20 H :    0.302134
  21 H :    0.316358
  22 H :    0.310535
  23 H :    0.305468
Sum of atomic charges:    0.0000000

LOEWDIN ATOMIC CHARGES
----------------------
   0 C :   -0.144708
   1 C :   -0.066425
   2 H :    0.115019
   3 C :   -0.076288
   4 H :    0.115495
   5 C :   -0.066905
   6 H :    0.118594
   7 C :   -0.084652
   8 H :    0.120061
   9 C :   -0.009478
  10 H :    0.104741
  11 O :   -0.135099
  12 O :   -0.315380
  13 O :   -0.314005
  14 O :   -0.315771
  15 O :   -0.311448
  16 O :   -0.340960
  17 H :    0.093288
  18 H :    0.097088
  19 H :    0.290151
  20 H :    0.272567
  21 H :    0.272075
  22 H :    0.291513
  23 H :    0.290526

  Mayer bond orders larger than 0.100000
B(  0-C ,  1-C ) :   1.0579 B(  0-C , 16-O ) :   1.0683 B(  0-C , 17-H ) :   0.9058
B(  0-C , 18-H ) :   0.8962 B(  1-C ,  2-H ) :   0.8910 B(  1-C ,  3-C ) :   0.9933
B(  1-C , 11-O ) :   1.0077 B(  3-C ,  4-H ) :   0.8876 B(  3-C ,  5-C ) :   0.9645
B(  3-C , 15-O ) :   0.9899 B(  5-C ,  6-H ) :   0.9019 B(  5-C ,  7-C ) :   1.0115
B(  5-C , 14-O ) :   1.0908 B(  7-C ,  8-H ) :   0.8952 B(  7-C ,  9-C ) :   0.9720
B(  7-C , 13-O ) :   1.0783 B(  9-C , 10-H ) :   0.9045 B(  9-C , 11-O ) :   1.0713
B(  9-C , 12-O ) :   1.0560 B( 12-O , 19-H ) :   0.8322 B( 13-O , 20-H ) :   0.8090
B( 14-O , 21-H ) :   0.7986 B( 15-O , 20-H ) :   0.1042 B( 15-O , 22-H ) :   0.8424
B( 16-O , 23-H ) :   0.8492

Dispersion correction           -0.025965921
FINAL SINGLE POINT ENERGY      -685.698505472436

DIPOLE MOMENT
-------------

Method             : SCF
Type of density    : Electron Density
Multiplicity       :   1
Irrep              :   0
Energy             :  -685.8320704672094053 Eh
Relativity type    :
Basis              : AO
                                X                 Y                 Z
Electronic contribution:      1.706076803       0.361418966       1.514457143
Nuclear contribution   :     -2.735418294      -1.460233257      -1.785447930
                        -----------------------------------------
Total Dipole Moment    :     -1.029341491      -1.098814291      -0.270990787
                        -----------------------------------------
Magnitude (a.u.)       :      1.529827689
Magnitude (Debye)      :      3.888512960

Rotational constants in cm-1:             0.041214             0.028531             0.024639
Rotational constants in MHz :          1235.554526           855.346320           738.663282

                             ****ORCA TERMINATED NORMALLY****
TOTAL RUN TIME: 0 days 0 hours 0 minutes 9 seconds 735 msec
