                         Program Version 6.0.0  -   RELEASE  -
|  1> ! r2SCAN-3c DEF2-TZVP FREQ
|  2> * xyzfile 0 1 censo.xyz
|  3>
|  4>                          ****END OF INPUT****

CARTESIAN COORDINATES (ANGSTROEM)
---------------------------------
  C     -2.341941   -1.089854    0.511890
  N     -1.625265   -0.100067   -0.296395
  C     -2.327909    1.181752   -0.390273
  C     -0.240184   -0.041500   -0.130958
  C      0.484563   -1.133700    0.392956
  C      1.870632   -1.089544    0.492289
  C      2.588568    0.034881    0.091545
  C      1.882041    1.126147   -0.408746
  C      0.496218    1.100137   -0.515281
  H     -3.409188   -1.009848    0.298041
  H     -2.188989   -0.940620    1.592734
  H     -2.035960   -2.106682    0.253424
  H     -2.165631    1.815070    0.495797
  H     -3.397438    0.988774   -0.487907
  H     -2.017543    1.738400   -1.277638
  H     -0.028491   -2.027862    0.723423
  H      2.392753   -1.951087    0.898437
  H      3.669741    0.063608    0.175333
  H      2.413056    2.022141   -0.717650
  H     -0.008010    1.975378   -0.904346

 Total Charge           Charge          ....    0
 Multiplicity           Mult            ....    1
 Number of Electrons    NEL             ....   66
 Basis Dimension        Dim             ....  345

ORBITAL ENERGIES
----------------

  NO   OCC          E(Eh)            E(eV)
   0   2.0000     -14.182764      -385.9326
   1   2.0000     -10.069242      -273.9980
   2   2.0000     -10.062123      -273.8043
   3   2.0000     -10.061938      -273.7992
   4   2.0000     -10.029048      -272.9043
   5   2.0000     -10.029039      -272.9040
   6   2.0000     -10.025088      -272.7965
   7   2.0000     -10.025038      -272.7951
   8   2.0000     -10.020119      -272.6613
   9   2.0000      -0.911145       -24.7935
  10   2.0000      -0.803539       -21.8654
  11   2.0000      -0.710424       -19.3316
  12   2.0000      -0.707070       -19.2403
  13   2.0000      -0.682355       -18.5678
  14   2.0000      -0.624806       -17.0018
  15   2.0000      -0.563537       -15.3346
  16   2.0000      -0.541232       -14.7277
  17   2.0000      -0.493732       -13.4351
  18   2.0000      -0.443267       -12.0619
  19   2.0000      -0.439874       -11.9696
  20   2.0000      -0.432975       -11.7818
  21   2.0000      -0.412184       -11.2161
  22   2.0000      -0.387090       -10.5332
  23   2.0000      -0.383830       -10.4446
  24   2.0000      -0.370629       -10.0853
  25   2.0000      -0.362928        -9.8758
  26   2.0000      -0.346905        -9.4398
  27   2.0000      -0.337156        -9.1745
  28   2.0000      -0.320067        -8.7095
  29   2.0000      -0.298295        -8.1170
  30   2.0000      -0.260860        -7.0984
  31   2.0000      -0.228280        -6.2118
  32   2.0000      -0.177971        -4.8428
  33   0.0000      -0.026347        -0.7169
  34   0.0000      -0.013134        -0.3574
  35   0.0000       0.041806         1.1376
  36   0.0000       0.063203         1.7198
  37   0.0000       0.076671         2.0863

MULLIKEN ATOMIC CHARGES
-----------------------
   0 C :   -0.244147
   1 N :   -0.089160
   2 C :   -0.243031
   3 C :    0.281890
   4 C :   -0.270649
   5 C :   -0.077700
   6 C :   -0.176252
   7 C :   -0.077448
   8 C :   -0.270073
   9 H :    0.108862
  10 H :    0.112231
  11 H :    0.119151
  12 H :    0.112270
  13 H :    0.108515
  14 H :    0.118801
  15 H :    0.090839
  16 H :    0.102070
  17 H :    0.101319
  18 H :    0.102048
  19 H :    0.090466
Sum of atomic charges:   -0.0000000

LOEWDIN ATOMIC CHARGES
----------------------
   0 C :   -0.295246
   1 N :    0.127118
   2 C :   -0.295070
   3 C :   -0.194971
   4 C :   -0.136734
   5 C :   -0.146956
   6 C :   -0.168488
   7 C :   -0.147047
   8 C :   -0.136426
   9 H :    0.116362
  10 H :    0.109697
  11 H :    0.116227
  12 H :    0.109737
  13 H :    0.116328
  14 H :    0.116003
  15 H :    0.143087
  16 H :    0.142152
  17 H :    0.139005
  18 H :    0.142189
  19 H :    0.143034

  Mayer bond orders larger than 0.100000
B(  0-C ,  1-N ) :   0.9463 B(  0-C ,  9-H ) :   0.9728 B(  0-C , 10-H ) :   0.9613
B(  0-C , 11-H ) :   0.9659 B(  1-N ,  2-C ) :   0.9461 B(  1-N ,  3-C ) :   1.1749
B(  2-C , 12-H ) :   0.9615 B(  2-C , 13-H ) :   0.9727 B(  2-C , 14-H ) :   0.9661
B(  3-C ,  4-C ) :   1.2714 B(  3-C ,  8-C ) :   1.2712 B(  4-C ,  5-C ) :   1.4361
B(  4-C , 15-H ) :   0.9800 B(  5-C ,  6-C ) :   1.3857 B(  5-C , 16-H ) :   0.9687
B(  6-C ,  7-C ) :   1.3850 B(  6-C , 17-H ) :   0.9771 B(  7-C ,  8-C ) :   1.4373
B(  7-C , 18-H ) :   0.9687 B(  8-C , 19-H ) :   0.9801

Dispersion correction           -0.006684524
FINAL SINGLE POINT ENERGY      -366.129696467805

DIPOLE MOMENT
-------------

Method             : SCF
Type of density    : Electron Density
Multiplicity       :   1
Irrep              :   0
Energy             :  -366.1354513964585635 Eh
Relativity type    :
Basis              : AO
                                X                 Y                 Z
Electronic contribution:      5.613897151      -0.448310855      -1.051693550
Nuclear contribution   :     -6.312533189       0.511971145       1.202272249
                        -----------------------------------------
Total Dipole Moment    :     -0.698636039       0.063660290       0.150578699
                        -----------------------------------------
Magnitude (a.u.)       :      0.717508809
Magnitude (Debye)      :      1.823762457

VIBRATIONAL FREQUENCIES
-----------------------

Scaling factor for frequencies =  1.000000000  (already applied!)

     0:       0.00 cm**-1
     1:       0.00 cm**-1
     2:       0.00 cm**-1
     3:       0.00 cm**-1
     4:       0.00 cm**-1
     5:       0.00 cm**-1
     6:      67.58 cm**-1
     7:     145.60 cm**-1
     8:     184.15 cm**-1
     9:     195.25 cm**-1
    10:     305.77 cm**-1
    11:     308.94 cm**-1
    12:     417.86 cm**-1
    13:     426.20 cm**-1
    14:     470.72 cm**-1
    15:     518.86 cm**-1
    16:     558.82 cm**-1
    17:     635.30 cm**-1
    18:     695.54 cm**-1
    19:     751.71 cm**-1
    20:     759.12 cm**-1
    21:     806.47 cm**-1
    22:     864.64 cm**-1
    23:     937.08 cm**-1
    24:     938.69 cm**-1
    25:     955.00 cm**-1
    26:    1009.82 cm**-1
    27:    1051.34 cm**-1
    28:    1053.02 cm**-1
    29:    1110.38 cm**-1
    30:    1111.70 cm**-1
    31:    1151.24 cm**-1
    32:    1182.69 cm**-1
    33:    1187.72 cm**-1
    34:    1221.22 cm**-1
    35:    1223.12 cm**-1
    36:    1340.34 cm**-1
    37:    1343.73 cm**-1
    38:    1363.53 cm**-1
    39:    1432.40 cm**-1
    40:    1469.75 cm**-1
    41:    1473.12 cm**-1
    42:    1481.41 cm**-1
    43:    1486.49 cm**-1
    44:    1500.55 cm**-1
    45:    1518.77 cm**-1
    46:    1531.90 cm**-1
    47:    1599.80 cm**-1
    48:    1634.24 cm**-1
    49:    2953.77 cm**-1
    50:    2961.69 cm**-1
    51:    3067.94 cm**-1
    52:    3070.42 cm**-1
    53:    3108.79 cm**-1
    54:    3116.75 cm**-1
    55:    3151.76 cm**-1
    56:    3157.61 cm**-1
    57:    3180.02 cm**-1
    58:    3201.37 cm**-1
    59:    3203.12 cm**-1

IR SPECTRUM
-----------

 Mode   freq       eps      Int      T**2         TX        TY        TZ
       cm**-1   L/(mol*cm) km/mol    a.u.
----------------------------------------------------------------------------
  6:     67.58   0.000002    0.01  0.000010  (-0.002241  0.001633 -0.001424)
  7:    145.60   0.000726    3.67  0.001557  ( 0.024249  0.011341  0.028984)
  8:    184.15   0.000259    1.31  0.000438  (-0.019155 -0.004925 -0.006871)
  9:    195.25   0.000672    3.40  0.001075  (-0.030280 -0.003505 -0.012066)
 10:    305.77   0.000229    1.16  0.000234  (-0.010620  0.006640 -0.008770)
 11:    308.94   0.002224   11.24  0.002246  ( 0.042071  0.010056  0.019369)
 12:    417.86   0.000032    0.16  0.000024  ( 0.000124  0.004464 -0.001923)
 13:    426.20   0.000261    1.32  0.000191  ( 0.009685  0.003652  0.009155)
 14:    470.72   0.000716    3.62  0.000475  ( 0.000588  0.020164 -0.008239)
 15:    518.86   0.003082   15.57  0.001853  (-0.019683  0.014754  0.035333)
 16:    558.82   0.000694    3.51  0.000387  (-0.018062  0.003075  0.007195)
 17:    635.30   0.000017    0.08  0.000008  ( 0.000062  0.002672 -0.001044)
 18:    695.54   0.006333   32.01  0.002842  ( 0.009913 -0.019849 -0.048469)
 19:    751.71   0.003218   16.26  0.001336  (-0.014775 -0.012329 -0.031073)
 20:    759.12   0.007837   39.61  0.003222  ( 0.004159  0.021190  0.052492)
 21:    806.47   0.000003    0.02  0.000001  ( 0.000299 -0.001016  0.000310)
 22:    864.64   0.001120    5.66  0.000404  (-0.007643 -0.007159 -0.017158)
 23:    937.08   0.000008    0.04  0.000003  (-0.000904  0.001308 -0.000550)
 24:    938.69   0.004464   22.56  0.001484  (-0.034867  0.006012  0.015234)
 25:    955.00   0.000121    0.61  0.000040  (-0.005696  0.001039  0.002477)
 26:   1009.82   0.002848   14.39  0.000880  (-0.029634  0.000493  0.001287)
 27:   1051.34   0.003985   20.14  0.001183  ( 0.000228  0.031984 -0.012646)
 28:   1053.02   0.001915    9.68  0.000567  ( 0.023810 -0.000266  0.000640)
 29:   1110.38   0.000079    0.40  0.000022  ( 0.000369  0.004302 -0.001924)
 30:   1111.70   0.000354    1.79  0.000099  (-0.000659  0.009160 -0.003864)
 31:   1151.24   0.011304   57.12  0.003064  ( 0.054337  0.003769  0.009866)
 32:   1182.69   0.000064    0.32  0.000017  ( 0.000311 -0.003758  0.001633)
 33:   1187.72   0.001850    9.35  0.000486  ( 0.022040 -0.000347  0.000254)
 34:   1221.22   0.001977    9.99  0.000505  ( 0.022317 -0.002686  0.000259)
 35:   1223.12   0.004312   21.79  0.001100  (-0.002098 -0.030704  0.012371)
 36:   1340.34   0.000430    2.17  0.000100  (-0.006698  0.006932 -0.002695)
 37:   1343.73   0.019932  100.73  0.004629  ( 0.068017 -0.000177 -0.001619)
 38:   1363.53   0.000821    4.15  0.000188  (-0.000299  0.012716 -0.005109)
 39:   1432.40   0.000031    0.16  0.000007  (-0.000007  0.002374 -0.001104)
 40:   1469.75   0.002306   11.65  0.000490  ( 0.021255  0.002234  0.005731)
 41:   1473.12   0.000238    1.20  0.000050  ( 0.000297 -0.006423  0.002996)
 42:   1481.41   0.000822    4.15  0.000173  ( 0.000482 -0.011972  0.005431)
 43:   1486.49   0.003009   15.21  0.000632  ( 0.013928  0.008281  0.019213)
 44:   1500.55   0.000735    3.71  0.000153  (-0.001114  0.011345 -0.004777)
 45:   1518.77   0.011298   57.10  0.002321  ( 0.047352  0.003278  0.008279)
 46:   1531.90   0.018133   91.64  0.003694  (-0.060610  0.001789  0.004137)
 47:   1599.80   0.001872    9.46  0.000365  (-0.000479 -0.017679  0.007233)
 48:   1634.24   0.022227  112.33  0.004244  (-0.065141  0.000078 -0.000998)
 49:   2953.77   0.011966   60.47  0.001264  (-0.009327 -0.026665  0.021590)
 50:   2961.69   0.019975  100.95  0.002105  ( 0.029486 -0.021664 -0.027676)
 51:   3067.94   0.005007   25.30  0.000509  ( 0.008727  0.018004  0.010442)
 52:   3070.42   0.005965   30.14  0.000606  ( 0.010259 -0.002666  0.022223)
 53:   3108.79   0.001236    6.25  0.000124  (-0.003433  0.009785 -0.004067)
 54:   3116.75   0.007201   36.39  0.000721  (-0.026819 -0.001011  0.000836)
 55:   3151.76   0.000747    3.78  0.000074  ( 0.008341  0.002099 -0.000161)
 56:   3157.61   0.003127   15.80  0.000309  ( 0.000529 -0.016284  0.006604)
 57:   3180.02   0.004383   22.15  0.000430  ( 0.020678  0.000375  0.001542)
 58:   3201.37   0.003159   15.96  0.000308  ( 0.001410  0.016386 -0.006116)
 59:   3203.12   0.000576    2.91  0.000056  ( 0.005639 -0.003798  0.003145)

--------------------------
THERMOCHEMISTRY AT 298.15K
--------------------------

Temperature         ...   298.15 K
Pressure            ...     1.00 atm
Total Mass          ...   121.18 AMU
Quasi RRHO          ...     True
Cut-Off Frequency   ...     1.00 cm^-1

Throughout the following assumptions are being made:
  (1) The electronic state is orbitally nondegenerate
  (2) There are no thermally accessible electronically excited states
  (3) Hindered rotations indicated by low frequency modes are not
      treated as such but are treated as vibrations and this may
      cause some error
  (4) All equations used are the standard statistical mechanics
      equations for an ideal gas
  (5) All vibrations are strictly harmonic

freq.      67.58  E(vib)   ...       0.50
freq.     145.60  E(vib)   ...       0.41
freq.     184.15  E(vib)   ...       0.37
freq.     195.25  E(vib)   ...       0.36
freq.     305.77  E(vib)   ...       0.26
freq.     308.94  E(vib)   ...       0.26
freq.     417.86  E(vib)   ...       0.18
freq.     426.20  E(vib)   ...       0.18
freq.     470.72  E(vib)   ...       0.15
freq.     518.86  E(vib)   ...       0.13
freq.     558.82  E(vib)   ...       0.12
freq.     635.30  E(vib)   ...       0.09
freq.     695.54  E(vib)   ...       0.07
freq.     751.71  E(vib)   ...       0.06
freq.     759.12  E(vib)   ...       0.06
freq.     806.47  E(vib)   ...       0.05
freq.     864.64  E(vib)   ...       0.04
freq.     937.08  E(vib)   ...       0.03
freq.     938.69  E(vib)   ...       0.03
freq.     955.00  E(vib)   ...       0.03
freq.    1009.82  E(vib)   ...       0.02
freq.    1051.34  E(vib)   ...       0.02
freq.    1053.02  E(vib)   ...       0.02
freq.    1110.38  E(vib)   ...       0.02
freq.    1111.70  E(vib)   ...       0.01
freq.    1151.24  E(vib)   ...       0.01
freq.    1182.69  E(vib)   ...       0.01
freq.    1187.72  E(vib)   ...       0.01
freq.    1221.22  E(vib)   ...       0.01
freq.    1223.12  E(vib)   ...       0.01
freq.    1340.34  E(vib)   ...       0.01
freq.    1343.73  E(vib)   ...       0.01
freq.    1363.53  E(vib)   ...       0.01
freq.    1432.40  E(vib)   ...       0.00
freq.    1469.75  E(vib)   ...       0.00
freq.    1473.12  E(vib)   ...       0.00
freq.    1481.41  E(vib)   ...       0.00
freq.    1486.49  E(vib)   ...       0.00
freq.    1500.55  E(vib)   ...       0.00
freq.    1518.77  E(vib)   ...       0.00
freq.    1531.90  E(vib)   ...       0.00
freq.    1599.80  E(vib)   ...       0.00
freq.    1634.24  E(vib)   ...       0.00
freq.    2953.77  E(vib)   ...       0.00
freq.    2961.69  E(vib)   ...       0.00
freq.    3067.94  E(vib)   ...       0.00
freq.    3070.42  E(vib)   ...       0.00
freq.    3108.79  E(vib)   ...       0.00
freq.    3116.75  E(vib)   ...       0.00
freq.    3151.76  E(vib)   ...       0.00
freq.    3157.61  E(vib)   ...       0.00
freq.    3180.02  E(vib)   ...       0.00
freq.    3201.37  E(vib)   ...       0.00
freq.    3203.12  E(vib)   ...       0.00

------------
INNER ENERGY
------------

The inner energy is: U= E(el) + E(ZPE) + E(vib) + E(rot) + E(trans)
    E(el)   - is the total energy from the electronic structure calculation
              = E(kin-el) + E(nuc-el) + E(el-el) + E(nuc-nuc)
    E(ZPE)  - the the zero temperature vibrational energy from the frequency calculation
    E(vib)  - the the finite temperature correction to E(ZPE) due to population
              of excited vibrational states
    E(rot)  - is the rotational thermal energy
    E(trans)- is the translational thermal energy

Summary of contributions to the inner energy U:
Electronic energy                ...   -366.12969647 Eh
Zero point energy                ...      0.17221760 Eh     108.07 kcal/mol
Thermal vibrational correction   ...      0.00566612 Eh       3.56 kcal/mol
Thermal rotational correction    ...      0.00141627 Eh       0.89 kcal/mol
Thermal translational correction ...      0.00141627 Eh       0.89 kcal/mol
-----------------------------------------------------------------------
Total thermal energy                   -365.94898021 Eh

Summary of corrections to the electronic energy:
(perhaps to be used in another calculation)
Total thermal correction                  0.00849866 Eh       5.33 kcal/mol
Non-thermal (ZPE) correction              0.17221760 Eh     108.07 kcal/mol
-----------------------------------------------------------------------
Total correction                          0.18071626 Eh     113.40 kcal/mol

--------
ENTHALPY
--------

The enthalpy is H = U + kB*T
                kB is Boltzmann's constant
Total thermal energy              ...   -365.94898021 Eh
Thermal Enthalpy correction       ...      0.00094421 Eh       0.59 kcal/mol
-----------------------------------------------------------------------
Total Enthalpy                    ...   -365.94803600 Eh

Note: Only C1 symmetry has been detected, increase convergence thresholds
      if your molecule has a higher symmetry. Symmetry factor of 1.0 is
      used for the rotational entropy correction.

Note: Rotational entropy computed according to Herzberg
Infrared and Raman Spectra, Chapter V,1, Van Nostrand Reinhold, 1945
Point Group:  C1, Symmetry Number:   1
Rotational constants in cm-1:     0.116800     0.041005     0.030917

Vibrational entropy computed according to the QRRHO of S. Grimme
Chem.Eur.J. 2012 18 9955 using a reference frequency of 100.0 cm-1

-------
ENTROPY
-------

The entropy contributions are T*S = T*(S(el)+S(vib)+S(rot)+S(trans))
     S(el)   - electronic entropy
     S(vib)  - vibrational entropy
     S(rot)  - rotational entropy
     S(trans)- translational entropy
The entropies will be listed as multiplied by the temperature to get
units of energy

Electronic entropy                ...      0.00000000 Eh      0.00 kcal/mol
Vibrational entropy               ...      0.00933199 Eh      5.86 kcal/mol
Rotational entropy                ...      0.01367360 Eh      8.58 kcal/mol
Translational entropy             ...      0.01914335 Eh     12.01 kcal/mol
-----------------------------------------------------------------------
Final entropy term                ...      0.04214894 Eh     26.45 kcal/mol

In case the symmetry of your molecule has not been determined correctly
or in case you have a reason to use a different symmetry number we print
out the resulting rotational entropy values for sn=1,12:

 non-linear molecules -----------------------------------
|  sn= 1 | S(rot)=       0.01367360 Eh      8.58 kcal/mol|
|  sn= 2 | S(rot)=       0.01301914 Eh      8.17 kcal/mol|
|  sn= 3 | S(rot)=       0.01263631 Eh      7.93 kcal/mol|
|  sn= 4 | S(rot)=       0.01236469 Eh      7.76 kcal/mol|
|  sn= 5 | S(rot)=       0.01215400 Eh      7.63 kcal/mol|
|  sn= 6 | S(rot)=       0.01198186 Eh      7.52 kcal/mol|

                             ****ORCA TERMINATED NORMALLY****
TOTAL RUN TIME: 0 days 0 hours 17 minutes 7 seconds 410 msec
