                         Program Version 6.0.0  -   RELEASE  -
|  1> ! r2SCAN-3c DEF2-TZVP FREQ
|  2> * xyzfile 0 1 vacuum_censo.xyz
|  3>
|  4>                          ****END OF INPUT****

CARTESIAN COORDINATES (ANGSTROEM)
---------------------------------
  C     -2.337098   -1.249874   -0.000307
  N     -1.620556   -0.001285    0.203420
  C     -2.336783    1.219648   -0.132264
  C     -0.236746   -0.006809    0.082945
  C      0.493011    1.196238   -0.011940
  C      1.879183    1.183920   -0.088870
  C      2.591153   -0.011312   -0.086908
  C      1.880146   -1.204527   -0.010968
  C      0.493736   -1.212962    0.067215
  H     -3.405357   -1.074761    0.140776
  H     -2.031469   -1.999087    0.737607
  H     -2.183005   -1.674909   -1.006678
  H     -2.061939    2.035019    0.545821
  H     -3.408345    1.048182   -0.014195
  H     -2.148792    1.554263   -1.166463
  H     -0.018208    2.150153   -0.023463
  H      2.407579    2.130151   -0.157290
  H      3.673403   -0.012950   -0.151674
  H      2.408761   -2.153109   -0.019227
  H     -0.016258   -2.166415    0.114606

 Total Charge           Charge          ....    0
 Multiplicity           Mult            ....    1
 Number of Electrons    NEL             ....   66
 Basis Dimension        Dim             ....  345

ORBITAL ENERGIES
----------------

  NO   OCC          E(Eh)            E(eV)
   0   2.0000     -14.182532      -385.9263
   1   2.0000     -10.068538      -273.9788
   2   2.0000     -10.063773      -273.8492
   3   2.0000     -10.063683      -273.8467
   4   2.0000     -10.027317      -272.8572
   5   2.0000     -10.027305      -272.8568
   6   2.0000     -10.023074      -272.7417
   7   2.0000     -10.023035      -272.7407
   8   2.0000     -10.017572      -272.5920
   9   2.0000      -0.913623       -24.8609
  10   2.0000      -0.803381       -21.8611
  11   2.0000      -0.710796       -19.3418
  12   2.0000      -0.707657       -19.2563
  13   2.0000      -0.685137       -18.6435
  14   2.0000      -0.624705       -16.9991
  15   2.0000      -0.562907       -15.3175
  16   2.0000      -0.540503       -14.7078
  17   2.0000      -0.494565       -13.4578
  18   2.0000      -0.446064       -12.1380
  19   2.0000      -0.439716       -11.9653
  20   2.0000      -0.433377       -11.7928
  21   2.0000      -0.411497       -11.1974
  22   2.0000      -0.386811       -10.5257
  23   2.0000      -0.383463       -10.4345
  24   2.0000      -0.373861       -10.1733
  25   2.0000      -0.363613        -9.8944
  26   2.0000      -0.348218        -9.4755
  27   2.0000      -0.336810        -9.1651
  28   2.0000      -0.319122        -8.6838
  29   2.0000      -0.298082        -8.1112
  30   2.0000      -0.260074        -7.0770
  31   2.0000      -0.227278        -6.1845
  32   2.0000      -0.173861        -4.7310
  33   0.0000      -0.024825        -0.6755
  34   0.0000      -0.009476        -0.2578
  35   0.0000       0.041136         1.1194
  36   0.0000       0.064774         1.7626
  37   0.0000       0.075563         2.0562

MULLIKEN ATOMIC CHARGES
-----------------------
   0 C :   -0.243539
   1 N :   -0.082364
   2 C :   -0.242343
   3 C :    0.294744
   4 C :   -0.279270
   5 C :   -0.074528
   6 C :   -0.182875
   7 C :   -0.075121
   8 C :   -0.280858
   9 H :    0.109747
  10 H :    0.118713
  11 H :    0.110335
  12 H :    0.118342
  13 H :    0.109434
  14 H :    0.110893
  15 H :    0.092990
  16 H :    0.101268
  17 H :    0.100004
  18 H :    0.101321
  19 H :    0.093108
Sum of atomic charges:    0.0000000

LOEWDIN ATOMIC CHARGES
----------------------
   0 C :   -0.297326
   1 N :    0.134875
   2 C :   -0.296491
   3 C :   -0.195090
   4 C :   -0.138940
   5 C :   -0.147756
   6 C :   -0.171223
   7 C :   -0.147738
   8 C :   -0.139528
   9 H :    0.117203
  10 H :    0.117183
  11 H :    0.110220
  12 H :    0.116555
  13 H :    0.117338
  14 H :    0.110840
  15 H :    0.143451
  16 H :    0.142150
  17 H :    0.138747
  18 H :    0.142143
  19 H :    0.143388

  Mayer bond orders larger than 0.100000
B(  0-C ,  1-N ) :   0.9519 B(  0-C ,  9-H ) :   0.9719 B(  0-C , 10-H ) :   0.9651
B(  0-C , 11-H ) :   0.9600 B(  1-N ,  2-C ) :   0.9504 B(  1-N ,  3-C ) :   1.1876
B(  2-C , 12-H ) :   0.9651 B(  2-C , 13-H ) :   0.9717 B(  2-C , 14-H ) :   0.9602
B(  3-C ,  4-C ) :   1.2611 B(  3-C ,  8-C ) :   1.2601 B(  4-C ,  5-C ) :   1.4426
B(  4-C , 15-H ) :   0.9803 B(  5-C ,  6-C ) :   1.3846 B(  5-C , 16-H ) :   0.9692
B(  6-C ,  7-C ) :   1.3863 B(  6-C , 17-H ) :   0.9784 B(  7-C ,  8-C ) :   1.4409
B(  7-C , 18-H ) :   0.9690 B(  8-C , 19-H ) :   0.9804

Dispersion correction           -0.006674157
FINAL SINGLE POINT ENERGY      -366.130521334052

DIPOLE MOMENT
-------------

Method             : SCF
Type of density    : Electron Density
Multiplicity       :   1
Irrep              :   0
Energy             :  -366.1363162721353319 Eh
Relativity type    :
Basis              : AO
                                X                 Y                 Z
Electronic contribution:      5.559165837       0.044757820       0.806382038
Nuclear contribution   :     -6.339842602      -0.050108769      -0.908763401
                        -----------------------------------------
Total Dipole Moment    :     -0.780676765      -0.005350949      -0.102381363
                        -----------------------------------------
Magnitude (a.u.)       :      0.787379697
Magnitude (Debye)      :      2.001360140

VIBRATIONAL FREQUENCIES
-----------------------

Scaling factor for frequencies =  1.000000000  (already applied!)

     0:       0.00 cm**-1
     1:       0.00 cm**-1
     2:       0.00 cm**-1
     3:       0.00 cm**-1
     4:       0.00 cm**-1
     5:       0.00 cm**-1
     6:      75.14 cm**-1
     7:     127.68 cm**-1
     8:     176.55 cm**-1
     9:     201.94 cm**-1
    10:     288.24 cm**-1
    11:     293.30 cm**-1
    12:     412.28 cm**-1
    13:     419.36 cm**-1
    14:     473.45 cm**-1
    15:     514.19 cm**-1
    16:     556.37 cm**-1
    17:     634.94 cm**-1
    18:     694.63 cm**-1
    19:     751.81 cm**-1
    20:     755.95 cm**-1
    21:     803.55 cm**-1
    22:     857.65 cm**-1
    23:     934.69 cm**-1
    24:     950.97 cm**-1
    25:     955.21 cm**-1
    26:    1011.64 cm**-1
    27:    1056.09 cm**-1
    28:    1067.22 cm**-1
    29:    1114.65 cm**-1
    30:    1128.46 cm**-1
    31:    1145.51 cm**-1
    32:    1183.63 cm**-1
    33:    1192.80 cm**-1
    34:    1221.61 cm**-1
    35:    1253.20 cm**-1
    36:    1355.59 cm**-1
    37:    1359.74 cm**-1
    38:    1367.35 cm**-1
    39:    1438.46 cm**-1
    40:    1474.81 cm**-1
    41:    1477.53 cm**-1
    42:    1482.25 cm**-1
    43:    1483.56 cm**-1
    44:    1507.37 cm**-1
    45:    1522.18 cm**-1
    46:    1536.36 cm**-1
    47:    1606.10 cm**-1
    48:    1641.04 cm**-1
    49:    2938.20 cm**-1
    50:    2946.10 cm**-1
    51:    3039.09 cm**-1
    52:    3042.75 cm**-1
    53:    3100.96 cm**-1
    54:    3110.91 cm**-1
    55:    3154.47 cm**-1
    56:    3159.75 cm**-1
    57:    3184.25 cm**-1
    58:    3201.96 cm**-1
    59:    3203.67 cm**-1

IR SPECTRUM
-----------

 Mode   freq       eps      Int      T**2         TX        TY        TZ
       cm**-1   L/(mol*cm) km/mol    a.u.
----------------------------------------------------------------------------
  6:     75.14   0.000001    0.00  0.000003  (-0.000900  0.001308 -0.000190)
  7:    127.68   0.001534    7.75  0.003750  (-0.045675  0.001739  0.040747)
  8:    176.55   0.000655    3.31  0.001157  ( 0.033600 -0.000247 -0.005312)
  9:    201.94   0.000006    0.03  0.000010  (-0.002185  0.001899  0.001132)
 10:    288.24   0.000984    4.97  0.001066  (-0.028700  0.003036  0.015252)
 11:    293.30   0.000127    0.64  0.000135  (-0.007647 -0.008002  0.003582)
 12:    412.28   0.000076    0.39  0.000058  ( 0.005311 -0.000455 -0.005409)
 13:    419.36   0.000033    0.16  0.000024  (-0.001068 -0.004776  0.000579)
 14:    473.45   0.000940    4.75  0.000620  (-0.001215 -0.024867 -0.000076)
 15:    514.19   0.003138   15.86  0.001904  (-0.017154  0.000057 -0.040124)
 16:    556.37   0.000191    0.96  0.000107  (-0.009270  0.000100 -0.004586)
 17:    634.94   0.000013    0.07  0.000007  (-0.000037 -0.002554 -0.000241)
 18:    694.63   0.006402   32.35  0.002876  ( 0.006888  0.001431  0.053167)
 19:    751.81   0.008581   43.37  0.003562  ( 0.010648 -0.002093 -0.058687)
 20:    755.95   0.002004   10.13  0.000827  ( 0.005308  0.000987  0.028249)
 21:    803.55   0.000003    0.02  0.000001  (-0.000221  0.001136 -0.000091)
 22:    857.65   0.001114    5.63  0.000405  (-0.005338  0.000274  0.019413)
 23:    934.69   0.000004    0.02  0.000001  (-0.000010 -0.001074 -0.000440)
 24:    950.97   0.000978    4.94  0.000321  ( 0.016740  0.000506  0.006352)
 25:    955.21   0.002283   11.54  0.000746  (-0.025138 -0.000230 -0.010672)
 26:   1011.64   0.003031   15.32  0.000935  (-0.030502  0.000063 -0.002133)
 27:   1056.09   0.001889    9.54  0.000558  (-0.023623  0.000084  0.000144)
 28:   1067.22   0.004623   23.36  0.001352  ( 0.000375 -0.036725  0.001683)
 29:   1114.65   0.000093    0.47  0.000026  ( 0.000003  0.005113  0.000101)
 30:   1128.46   0.000147    0.74  0.000041  ( 0.001320  0.006216 -0.000496)
 31:   1145.51   0.007649   38.66  0.002084  (-0.045242 -0.000138  0.006088)
 32:   1183.63   0.000167    0.84  0.000044  ( 0.000548 -0.006608  0.000118)
 33:   1192.80   0.001606    8.12  0.000420  (-0.020491 -0.000489 -0.000201)
 34:   1221.61   0.002759   13.94  0.000705  (-0.026540  0.000111 -0.000731)
 35:   1253.20   0.006296   31.82  0.001568  ( 0.000745 -0.039557  0.001550)
 36:   1355.59   0.000035    0.18  0.000008  (-0.000222  0.002841 -0.000142)
 37:   1359.74   0.024404  123.33  0.005601  (-0.074828 -0.000013 -0.001243)
 38:   1367.35   0.001312    6.63  0.000300  ( 0.001984  0.017177 -0.000745)
 39:   1438.46   0.000035    0.18  0.000008  ( 0.000057  0.002703  0.000483)
 40:   1474.81   0.000477    2.41  0.000101  ( 0.001630 -0.009857 -0.001006)
 41:   1477.53   0.002691   13.60  0.000568  (-0.023732 -0.000308  0.002262)
 42:   1482.25   0.000669    3.38  0.000141  ( 0.001005  0.011513 -0.002701)
 43:   1483.56   0.003367   17.01  0.000708  ( 0.013896 -0.000730 -0.022683)
 44:   1507.37   0.000380    1.92  0.000079  ( 0.000340  0.008857 -0.000350)
 45:   1522.18   0.007339   37.09  0.001505  (-0.038482  0.000341  0.004850)
 46:   1536.36   0.025165  127.17  0.005111  ( 0.071452  0.000094  0.002455)
 47:   1606.10   0.002079   10.51  0.000404  (-0.000311  0.020091 -0.000509)
 48:   1641.04   0.025781  130.29  0.004903  ( 0.070015  0.000043 -0.000694)
 49:   2938.20   0.015128   76.45  0.001607  (-0.005103 -0.039584 -0.003718)
 50:   2946.10   0.020013  101.14  0.002120  ( 0.031191 -0.004393  0.033581)
 51:   3039.09   0.006347   32.07  0.000652  (-0.007863  0.014913  0.019170)
 52:   3042.75   0.006484   32.77  0.000665  (-0.008346 -0.012154  0.021156)
 53:   3100.96   0.000631    3.19  0.000064  (-0.000884  0.007916 -0.000292)
 54:   3110.91   0.007543   38.12  0.000757  ( 0.027480  0.000088 -0.001231)
 55:   3154.47   0.000855    4.32  0.000085  ( 0.009182 -0.000416 -0.000309)
 56:   3159.75   0.003253   16.44  0.000321  ( 0.000162  0.017915 -0.000544)
 57:   3184.25   0.004485   22.67  0.000440  ( 0.020937 -0.000007 -0.001111)
 58:   3201.96   0.003342   16.89  0.000326  ( 0.000044 -0.018038  0.000562)
 59:   3203.67   0.000351    1.77  0.000034  ( 0.005770  0.000234 -0.000906)

--------------------------
THERMOCHEMISTRY AT 298.15K
--------------------------

Temperature         ...   298.15 K
Pressure            ...     1.00 atm
Total Mass          ...   121.18 AMU
Quasi RRHO          ...     True
Cut-Off Frequency   ...     1.00 cm^-1

Throughout the following assumptions are being made:
  (1) The electronic state is orbitally nondegenerate
  (2) There are no thermally accessible electronically excited states
  (3) Hindered rotations indicated by low frequency modes are not
      treated as such but are treated as vibrations and this may
      cause some error
  (4) All equations used are the standard statistical mechanics
      equations for an ideal gas
  (5) All vibrations are strictly harmonic

freq.      75.14  E(vib)   ...       0.49
freq.     127.68  E(vib)   ...       0.43
freq.     176.55  E(vib)   ...       0.38
freq.     201.94  E(vib)   ...       0.35
freq.     288.24  E(vib)   ...       0.27
freq.     293.30  E(vib)   ...       0.27
freq.     412.28  E(vib)   ...       0.19
freq.     419.36  E(vib)   ...       0.18
freq.     473.45  E(vib)   ...       0.15
freq.     514.19  E(vib)   ...       0.13
freq.     556.37  E(vib)   ...       0.12
freq.     634.94  E(vib)   ...       0.09
freq.     694.63  E(vib)   ...       0.07
freq.     751.81  E(vib)   ...       0.06
freq.     755.95  E(vib)   ...       0.06
freq.     803.55  E(vib)   ...       0.05
freq.     857.65  E(vib)   ...       0.04
freq.     934.69  E(vib)   ...       0.03
freq.     950.97  E(vib)   ...       0.03
freq.     955.21  E(vib)   ...       0.03
freq.    1011.64  E(vib)   ...       0.02
freq.    1056.09  E(vib)   ...       0.02
freq.    1067.22  E(vib)   ...       0.02
freq.    1114.65  E(vib)   ...       0.01
freq.    1128.46  E(vib)   ...       0.01
freq.    1145.51  E(vib)   ...       0.01
freq.    1183.63  E(vib)   ...       0.01
freq.    1192.80  E(vib)   ...       0.01
freq.    1221.61  E(vib)   ...       0.01
freq.    1253.20  E(vib)   ...       0.01
freq.    1355.59  E(vib)   ...       0.01
freq.    1359.74  E(vib)   ...       0.01
freq.    1367.35  E(vib)   ...       0.01
freq.    1438.46  E(vib)   ...       0.00
freq.    1474.81  E(vib)   ...       0.00
freq.    1477.53  E(vib)   ...       0.00
freq.    1482.25  E(vib)   ...       0.00
freq.    1483.56  E(vib)   ...       0.00
freq.    1507.37  E(vib)   ...       0.00
freq.    1522.18  E(vib)   ...       0.00
freq.    1536.36  E(vib)   ...       0.00
freq.    1606.10  E(vib)   ...       0.00
freq.    1641.04  E(vib)   ...       0.00
freq.    2938.20  E(vib)   ...       0.00
freq.    2946.10  E(vib)   ...       0.00
freq.    3039.09  E(vib)   ...       0.00
freq.    3042.75  E(vib)   ...       0.00
freq.    3100.96  E(vib)   ...       0.00
freq.    3110.91  E(vib)   ...       0.00
freq.    3154.47  E(vib)   ...       0.00
freq.    3159.75  E(vib)   ...       0.00
freq.    3184.25  E(vib)   ...       0.00
freq.    3201.96  E(vib)   ...       0.00
freq.    3203.67  E(vib)   ...       0.00

------------
INNER ENERGY
------------

The inner energy is: U= E(el) + E(ZPE) + E(vib) + E(rot) + E(trans)
    E(el)   - is the total energy from the electronic structure calculation
              = E(kin-el) + E(nuc-el) + E(el-el) + E(nuc-nuc)
    E(ZPE)  - the the zero temperature vibrational energy from the frequency calculation
    E(vib)  - the the finite temperature correction to E(ZPE) due to population
              of excited vibrational states
    E(rot)  - is the rotational thermal energy
    E(trans)- is the translational thermal energy

Summary of contributions to the inner energy U:
Electronic energy                ...   -366.13052133 Eh
Zero point energy                ...      0.17220030 Eh     108.06 kcal/mol
Thermal vibrational correction   ...      0.00573460 Eh       3.60 kcal/mol
Thermal rotational correction    ...      0.00141627 Eh       0.89 kcal/mol
Thermal translational correction ...      0.00141627 Eh       0.89 kcal/mol
-----------------------------------------------------------------------
Total thermal energy                   -365.94975389 Eh

Summary of corrections to the electronic energy:
(perhaps to be used in another calculation)
Total thermal correction                  0.00856714 Eh       5.38 kcal/mol
Non-thermal (ZPE) correction              0.17220030 Eh     108.06 kcal/mol
-----------------------------------------------------------------------
Total correction                          0.18076744 Eh     113.43 kcal/mol

--------
ENTHALPY
--------

The enthalpy is H = U + kB*T
                kB is Boltzmann's constant
Total thermal energy              ...   -365.94975389 Eh
Thermal Enthalpy correction       ...      0.00094421 Eh       0.59 kcal/mol
-----------------------------------------------------------------------
Total Enthalpy                    ...   -365.94880969 Eh

Note: Only C1 symmetry has been detected, increase convergence thresholds
      if your molecule has a higher symmetry. Symmetry factor of 1.0 is
      used for the rotational entropy correction.

Note: Rotational entropy computed according to Herzberg
Infrared and Raman Spectra, Chapter V,1, Van Nostrand Reinhold, 1945
Point Group:  C1, Symmetry Number:   1
Rotational constants in cm-1:     0.116669     0.041033     0.030818

Vibrational entropy computed according to the QRRHO of S. Grimme
Chem.Eur.J. 2012 18 9955 using a reference frequency of 100.0 cm-1

-------
ENTROPY
-------

The entropy contributions are T*S = T*(S(el)+S(vib)+S(rot)+S(trans))
     S(el)   - electronic entropy
     S(vib)  - vibrational entropy
     S(rot)  - rotational entropy
     S(trans)- translational entropy
The entropies will be listed as multiplied by the temperature to get
units of energy

Electronic entropy                ...      0.00000000 Eh      0.00 kcal/mol
Vibrational entropy               ...      0.00950845 Eh      5.97 kcal/mol
Rotational entropy                ...      0.01367533 Eh      8.58 kcal/mol
Translational entropy             ...      0.01914335 Eh     12.01 kcal/mol
-----------------------------------------------------------------------
Final entropy term                ...      0.04232713 Eh     26.56 kcal/mol

In case the symmetry of your molecule has not been determined correctly
or in case you have a reason to use a different symmetry number we print
out the resulting rotational entropy values for sn=1,12:

 non-linear molecules -----------------------------------
|  sn= 1 | S(rot)=       0.01367533 Eh      8.58 kcal/mol|
|  sn= 2 | S(rot)=       0.01302087 Eh      8.17 kcal/mol|
|  sn= 3 | S(rot)=       0.01263804 Eh      7.93 kcal/mol|
|  sn= 4 | S(rot)=       0.01236642 Eh      7.76 kcal/mol|
|  sn= 5 | S(rot)=       0.01215573 Eh      7.63 kcal/mol|
|  sn= 6 | S(rot)=       0.01198358 Eh      7.52 kcal/mol|

                             ****ORCA TERMINATED NORMALLY****
TOTAL RUN TIME: 0 days 0 hours 16 minutes 12 seconds 276 msec
