                         Program Version 6.0.1  -  RELEASE   -
|  1> ! pbe def2-sv(p) def2/J RI DEFGRID1 loosescf d4 GCP(DFT/SV(P)) printgap
|  2> %output
|  3>     printlevel normal
|  4> end
|  5> * xyz 0 1
|  6> C -1.8454111738 0.1562262709 0.2967332249
|  7> C -0.6248662667 -0.5234768007 -0.3120728557
|  8> C 0.5941202306 0.4154973688 -0.3969832145
|  9> O 1.6895224399 -0.0209528867 0.3749640946
| 10> H -2.1516189016 1.0052257622 -0.3102830083
| 11> H -2.6781885552 -0.5410380598 0.3563862657
| 12> H -1.6196175313 0.5106528778 1.2994106182
| 13> H -0.878175429 -0.8968307866 -1.3063301642
| 14> H -0.3541039401 -1.3826706921 0.3065585418
| 15> H 0.90357078 0.5469393059 -1.4435641422
| 16> H 0.3425313826 1.398646942 0.0061920172
| 17> H 1.9740275564 -0.8832699938 0.0530438616
| 18> *
| 19>
| 20>                          ****END OF INPUT****

CARTESIAN COORDINATES (ANGSTROEM)
---------------------------------
  C     -1.845411    0.156226    0.296733
  C     -0.624866   -0.523477   -0.312073
  C      0.594120    0.415497   -0.396983
  O      1.689522   -0.020953    0.374964
  H     -2.151619    1.005226   -0.310283
  H     -2.678189   -0.541038    0.356386
  H     -1.619618    0.510653    1.299411
  H     -0.878175   -0.896831   -1.306330
  H     -0.354104   -1.382671    0.306559
  H      0.903571    0.546939   -1.443564
  H      0.342531    1.398647    0.006192
  H      1.974028   -0.883270    0.053044

 Total Charge           Charge          ....    0
 Multiplicity           Mult            ....    1
 Number of Electrons    NEL             ....   34
 Basis Dimension        Dim             ....   72

ORBITAL ENERGIES
----------------

  NO   OCC          E(Eh)            E(eV)
   0   2.0000     -18.735716      -509.8248
   1   2.0000      -9.924613      -270.0625
   2   2.0000      -9.884340      -268.9666
   3   2.0000      -9.876346      -268.7490
   4   2.0000      -0.914652       -24.8889
   5   2.0000      -0.697911       -18.9911
   6   2.0000      -0.599635       -16.3169
   7   2.0000      -0.534768       -14.5518
   8   2.0000      -0.447520       -12.1776
   9   2.0000      -0.408810       -11.1243
  10   2.0000      -0.390626       -10.6295
  11   2.0000      -0.366073        -9.9614
  12   2.0000      -0.325457        -8.8561
  13   2.0000      -0.312531        -8.5044
  14   2.0000      -0.300358        -8.1732
  15   2.0000      -0.263667        -7.1748
  16   2.0000      -0.207729        -5.6526
  17   0.0000       0.033573         0.9136
  18   0.0000       0.050389         1.3711
  19   0.0000       0.075061         2.0425
  20   0.0000       0.082996         2.2584
  21   0.0000       0.115340         3.1386

MULLIKEN ATOMIC CHARGES
-----------------------
   0 C :   -0.306973
   1 C :   -0.207699
   2 C :    0.014810
   3 O :   -0.442141
   4 H :    0.106786
   5 H :    0.103561
   6 H :    0.112904
   7 H :    0.085494
   8 H :    0.084197
   9 H :    0.069916
  10 H :    0.088146
  11 H :    0.290999
Sum of atomic charges:   -0.0000000

LOEWDIN ATOMIC CHARGES
----------------------
   0 C :   -0.341000
   1 C :   -0.264320
   2 C :   -0.122363
   3 O :   -0.342393
   4 H :    0.117286
   5 H :    0.118450
   6 H :    0.120919
   7 H :    0.114731
   8 H :    0.116522
   9 H :    0.093249
  10 H :    0.110734
  11 H :    0.278186

  Mayer bond orders larger than 0.100000
B(  0-C ,  1-C ) :   1.1572 B(  0-C ,  4-H ) :   0.9567 B(  0-C ,  5-H ) :   0.9525
B(  0-C ,  6-H ) :   0.9547 B(  1-C ,  2-C ) :   1.0604 B(  1-C ,  7-H ) :   0.9272
B(  1-C ,  8-H ) :   0.9322 B(  2-C ,  3-O ) :   1.0651 B(  2-C ,  9-H ) :   0.9296
B(  2-C , 10-H ) :   0.9448 B(  3-O , 11-H ) :   0.8570

Dispersion correction           -0.006245478
FINAL SINGLE POINT ENERGY      -193.868383881830

DIPOLE MOMENT
-------------

Method             : SCF
Type of density    : Electron Density
Multiplicity       :   1
Irrep              :   0
Energy             :  -193.9178282970596285 Eh
Relativity type    :
Basis              : AO
                                X                 Y                 Z
Electronic contribution:      3.930864876      -0.162902225       0.535691660
Nuclear contribution   :     -4.160616856      -0.227669925      -0.968799680
                        -----------------------------------------
Total Dipole Moment    :     -0.229751980      -0.390572150      -0.433108021
                        -----------------------------------------
Magnitude (a.u.)       :      0.626829430
Magnitude (Debye)      :      1.593273791

Rotational constants in cm-1:             0.668440             0.131870             0.130593
Rotational constants in MHz :         20039.321689          3953.360528          3915.076132

                             ****ORCA TERMINATED NORMALLY****
TOTAL RUN TIME: 0 days 0 hours 0 minutes 6 seconds 548 msec
