                         Program Version 6.0.1  -  RELEASE   -
|  1> ! pbe def2-sv(p) def2/J RI DEFGRID1 loosescf d4 GCP(DFT/SV(P)) printgap
|  2> %output
|  3>     printlevel normal
|  4> end
|  5> * xyz 0 1
|  6> C -2.434488246 1.0613844467 -0.4280604599
|  7> C -1.7021528983 -0.277183142 -0.2954343493
|  8> C -2.3141152143 -1.0643941569 0.8670183829
|  9> C -0.2014285748 -0.1029813061 -0.149580591
| 10> C 0.457383269 0.9837480483 -0.7168901956
| 11> C 1.8279606583 1.1350193097 -0.6014333258
| 12> C 2.5802065422 0.1980280466 0.08312949
| 13> C 1.9434488936 -0.8947258843 0.6424783754
| 14> C 0.5726270585 -1.0424581055 0.5248703793
| 15> H -2.1708481731 1.7213109799 0.395655711
| 16> H -3.5098307912 0.8973689686 -0.4061903677
| 17> H -2.1988881001 1.5581077938 -1.3651886627
| 18> H -1.8755171943 -0.8490399178 -1.2179735205
| 19> H -3.3989616659 -1.0611428601 0.7838963147
| 20> H -2.0410786149 -0.6112206388 1.8176773924
| 21> H -1.9894828846 -2.1012858251 0.8661615361
| 22> H -0.0951595908 1.7315583113 -1.263037443
| 23> H 2.3091100361 1.9920191067 -1.0508179562
| 24> H 3.6497617703 0.3159275981 0.1762581909
| 25> H 2.5159357313 -1.6406321559 1.1752299861
| 26> H 0.1123096966 -1.9105146561 0.9690118762
| 27> *
| 28>
| 29>                          ****END OF INPUT****

CARTESIAN COORDINATES (ANGSTROEM)
---------------------------------
  C     -2.434488    1.061384   -0.428060
  C     -1.702153   -0.277183   -0.295434
  C     -2.314115   -1.064394    0.867018
  C     -0.201429   -0.102981   -0.149581
  C      0.457383    0.983748   -0.716890
  C      1.827961    1.135019   -0.601433
  C      2.580207    0.198028    0.083129
  C      1.943449   -0.894726    0.642478
  C      0.572627   -1.042458    0.524870
  H     -2.170848    1.721311    0.395656
  H     -3.509831    0.897369   -0.406190
  H     -2.198888    1.558108   -1.365189
  H     -1.875517   -0.849040   -1.217974
  H     -3.398962   -1.061143    0.783896
  H     -2.041079   -0.611221    1.817677
  H     -1.989483   -2.101286    0.866162
  H     -0.095160    1.731558   -1.263037
  H      2.309110    1.992019   -1.050818
  H      3.649762    0.315928    0.176258
  H      2.515936   -1.640632    1.175230
  H      0.112310   -1.910515    0.969012

 Total Charge           Charge          ....    0
 Multiplicity           Mult            ....    1
 Number of Electrons    NEL             ....   66
 Basis Dimension        Dim             ....  150

ORBITAL ENERGIES
----------------

  NO   OCC          E(Eh)            E(eV)
   0   2.0000      -9.902299      -269.4552
   1   2.0000      -9.899011      -269.3658
   2   2.0000      -9.886143      -269.0156
   3   2.0000      -9.886116      -269.0149
   4   2.0000      -9.884989      -268.9842
   5   2.0000      -9.884961      -268.9835
   6   2.0000      -9.884414      -268.9686
   7   2.0000      -9.876024      -268.7403
   8   2.0000      -9.875975      -268.7389
   9   2.0000      -0.776044       -21.1172
  10   2.0000      -0.723677       -19.6922
  11   2.0000      -0.665650       -18.1133
  12   2.0000      -0.653101       -17.7718
  13   2.0000      -0.613483       -16.6937
  14   2.0000      -0.553024       -15.0486
  15   2.0000      -0.533115       -14.5068
  16   2.0000      -0.502188       -13.6652
  17   2.0000      -0.462136       -12.5753
  18   2.0000      -0.417466       -11.3598
  19   2.0000      -0.405045       -11.0218
  20   2.0000      -0.393600       -10.7104
  21   2.0000      -0.389015       -10.5856
  22   2.0000      -0.370567       -10.0836
  23   2.0000      -0.348966        -9.4959
  24   2.0000      -0.334018        -9.0891
  25   2.0000      -0.332326        -9.0431
  26   2.0000      -0.324749        -8.8369
  27   2.0000      -0.311435        -8.4746
  28   2.0000      -0.299954        -8.1622
  29   2.0000      -0.282576        -7.6893
  30   2.0000      -0.279621        -7.6089
  31   2.0000      -0.224266        -6.1026
  32   2.0000      -0.217157        -5.9091
  33   0.0000      -0.029814        -0.8113
  34   0.0000      -0.029610        -0.8057
  35   0.0000       0.037540         1.0215
  36   0.0000       0.056141         1.5277
  37   0.0000       0.071649         1.9497

MULLIKEN ATOMIC CHARGES
-----------------------
   0 C :   -0.257062
   1 C :   -0.146974
   2 C :   -0.257720
   3 C :    0.127926
   4 C :   -0.134811
   5 C :   -0.044289
   6 C :   -0.047503
   7 C :   -0.044257
   8 C :   -0.134213
   9 H :    0.102821
  10 H :    0.098518
  11 H :    0.113570
  12 H :    0.092106
  13 H :    0.098605
  14 H :    0.102886
  15 H :    0.113702
  16 H :    0.035768
  17 H :    0.047835
  18 H :    0.049700
  19 H :    0.047813
  20 H :    0.035579
Sum of atomic charges:   -0.0000000

LOEWDIN ATOMIC CHARGES
----------------------
   0 C :   -0.329007
   1 C :   -0.143115
   2 C :   -0.329105
   3 C :   -0.030929
   4 C :   -0.125521
   5 C :   -0.122036
   6 C :   -0.129020
   7 C :   -0.122037
   8 C :   -0.125520
   9 H :    0.121876
  10 H :    0.118486
  11 H :    0.118085
  12 H :    0.129636
  13 H :    0.118520
  14 H :    0.121888
  15 H :    0.118097
  16 H :    0.122075
  17 H :    0.121828
  18 H :    0.121917
  19 H :    0.121815
  20 H :    0.122068

  Mayer bond orders larger than 0.100000
B(  0-C ,  1-C ) :   1.1383 B(  0-C ,  9-H ) :   0.9506 B(  0-C , 10-H ) :   0.9461
B(  0-C , 11-H ) :   0.9337 B(  1-C ,  2-C ) :   1.1389 B(  1-C ,  3-C ) :   0.9968
B(  1-C , 12-H ) :   0.8727 B(  2-C , 13-H ) :   0.9460 B(  2-C , 14-H ) :   0.9505
B(  2-C , 15-H ) :   0.9337 B(  3-C ,  4-C ) :   1.3973 B(  3-C ,  8-C ) :   1.3976
B(  4-C ,  5-C ) :   1.3753 B(  4-C , 16-H ) :   0.9556 B(  5-C ,  6-C ) :   1.3780
B(  5-C , 17-H ) :   0.9611 B(  6-C ,  7-C ) :   1.3783 B(  6-C , 18-H ) :   0.9660
B(  7-C ,  8-C ) :   1.3748 B(  7-C , 19-H ) :   0.9612 B(  8-C , 20-H ) :   0.9555

Dispersion correction           -0.021349759
FINAL SINGLE POINT ENERGY      -349.364420594695

DIPOLE MOMENT
-------------

Method             : SCF
Type of density    : Electron Density
Multiplicity       :   1
Irrep              :   0
Energy             :  -349.4245617892448763 Eh
Relativity type    :
Basis              : AO
                                X                 Y                 Z
Electronic contribution:      7.982977856      -0.078486061      -0.873510573
Nuclear contribution   :     -8.155157600       0.039831481       0.826227826
                        -----------------------------------------
Total Dipole Moment    :     -0.172179743      -0.038654580      -0.047282747
                        -----------------------------------------
Magnitude (a.u.)       :      0.182690172
Magnitude (Debye)      :      0.464361513

Rotational constants in cm-1:             0.113103             0.039795             0.030453
Rotational constants in MHz :          3390.731742          1193.009806           912.947827

                             ****ORCA TERMINATED NORMALLY****
TOTAL RUN TIME: 0 days 0 hours 0 minutes 11 seconds 946 msec
