                         Program Version 6.0.1  -  RELEASE   -
|  1> ! pbe def2-sv(p) def2/J RI DEFGRID1 loosescf d4 GCP(DFT/SV(P)) printgap
|  2> %output
|  3>     printlevel normal
|  4> end
|  5> * xyz 0 1
|  6> C -2.832031137 1.3416034847 -0.2497440797
|  7> C -2.3707624595 -0.0466156401 0.1775989947
|  8> C -0.8850672795 -0.2893853225 0.1028386758
|  9> C -0.4182311212 -1.5985204391 0.1680434416
| 10> C 0.9365803021 -1.8697319608 0.1202954964
| 11> C 1.8548172491 -0.8438473837 0.0042722387
| 12> C 1.4013021388 0.4674101173 -0.061743609
| 13> C 0.0387168153 0.7381306764 -0.0107106525
| 14> O 2.3232476369 1.4645347907 -0.1762321826
| 15> H -3.9191364877 1.3817575179 -0.2554977717
| 16> H -2.4765851143 1.5730301831 -1.2515262093
| 17> H -2.4736867258 2.1046075121 0.4373826524
| 18> H -2.8683081398 -0.7939445102 -0.4464395068
| 19> H -2.693958365 -0.2275781053 1.2081326318
| 20> H -1.1265226155 -2.4093988128 0.2572351158
| 21> H 1.2828044271 -2.8913244067 0.1715892158
| 22> H 2.9149958703 -1.0343310245 -0.0372032312
| 23> H -0.287567205 1.7675858682 -0.0622145207
| 24> H 1.8757241451 2.3183746298 -0.2132990795
| 25> *
| 26>
| 27>                          ****END OF INPUT****

CARTESIAN COORDINATES (ANGSTROEM)
---------------------------------
  C     -2.832031    1.341603   -0.249744
  C     -2.370762   -0.046616    0.177599
  C     -0.885067   -0.289385    0.102839
  C     -0.418231   -1.598520    0.168043
  C      0.936580   -1.869732    0.120295
  C      1.854817   -0.843847    0.004272
  C      1.401302    0.467410   -0.061744
  C      0.038717    0.738131   -0.010711
  O      2.323248    1.464535   -0.176232
  H     -3.919136    1.381758   -0.255498
  H     -2.476585    1.573030   -1.251526
  H     -2.473687    2.104608    0.437383
  H     -2.868308   -0.793945   -0.446440
  H     -2.693958   -0.227578    1.208133
  H     -1.126523   -2.409399    0.257235
  H      1.282804   -2.891324    0.171589
  H      2.914996   -1.034331   -0.037203
  H     -0.287567    1.767586   -0.062215
  H      1.875724    2.318375   -0.213299

 Total Charge           Charge          ....    0
 Multiplicity           Mult            ....    1
 Number of Electrons    NEL             ....   66
 Basis Dimension        Dim             ....  146

ORBITAL ENERGIES
----------------

  NO   OCC          E(Eh)            E(eV)
   0   2.0000     -18.776661      -510.9389
   1   2.0000      -9.947082      -270.6739
   2   2.0000      -9.900252      -269.3995
   3   2.0000      -9.893280      -269.2098
   4   2.0000      -9.888100      -269.0689
   5   2.0000      -9.885965      -269.0108
   6   2.0000      -9.881178      -268.8805
   7   2.0000      -9.879694      -268.8401
   8   2.0000      -9.878427      -268.8057
   9   2.0000      -0.959615       -26.1125
  10   2.0000      -0.772435       -21.0190
  11   2.0000      -0.709493       -19.3063
  12   2.0000      -0.659737       -17.9524
  13   2.0000      -0.650041       -17.6885
  14   2.0000      -0.579758       -15.7760
  15   2.0000      -0.547768       -14.9055
  16   2.0000      -0.513446       -13.9716
  17   2.0000      -0.487597       -13.2682
  18   2.0000      -0.442916       -12.0524
  19   2.0000      -0.413547       -11.2532
  20   2.0000      -0.406145       -11.0518
  21   2.0000      -0.387306       -10.5391
  22   2.0000      -0.379986       -10.3399
  23   2.0000      -0.358481        -9.7548
  24   2.0000      -0.346227        -9.4213
  25   2.0000      -0.326471        -8.8837
  26   2.0000      -0.323404        -8.8003
  27   2.0000      -0.319704        -8.6996
  28   2.0000      -0.300508        -8.1773
  29   2.0000      -0.285584        -7.7711
  30   2.0000      -0.282814        -7.6958
  31   2.0000      -0.220522        -6.0007
  32   2.0000      -0.189577        -5.1586
  33   0.0000      -0.027881        -0.7587
  34   0.0000      -0.016487        -0.4486
  35   0.0000       0.024764         0.6739
  36   0.0000       0.045026         1.2252
  37   0.0000       0.061499         1.6735

MULLIKEN ATOMIC CHARGES
-----------------------
   0 C :   -0.273667
   1 C :   -0.152842
   2 C :    0.071845
   3 C :   -0.119853
   4 C :   -0.044468
   5 C :   -0.131939
   6 C :    0.261374
   7 C :   -0.247573
   8 O :   -0.335132
   9 H :    0.105540
  10 H :    0.106961
  11 H :    0.108973
  12 H :    0.096168
  13 H :    0.105905
  14 H :    0.030666
  15 H :    0.050777
  16 H :    0.041671
  17 H :    0.011701
  18 H :    0.313893
Sum of atomic charges:    0.0000000

LOEWDIN ATOMIC CHARGES
----------------------
   0 C :   -0.341775
   1 C :   -0.219809
   2 C :   -0.033619
   3 C :   -0.149627
   4 C :   -0.112445
   5 C :   -0.156623
   6 C :    0.025985
   7 C :   -0.181364
   8 O :   -0.237565
   9 H :    0.123199
  10 H :    0.121007
  11 H :    0.118422
  12 H :    0.127439
  13 H :    0.132153
  14 H :    0.118934
  15 H :    0.123795
  16 H :    0.129135
  17 H :    0.117288
  18 H :    0.295469

  Mayer bond orders larger than 0.100000
B(  0-C ,  1-C ) :   1.1923 B(  0-C ,  9-H ) :   0.9467 B(  0-C , 10-H ) :   0.9513
B(  0-C , 11-H ) :   0.9381 B(  1-C ,  2-C ) :   1.0505 B(  1-C , 12-H ) :   0.9109
B(  1-C , 13-H ) :   0.8993 B(  2-C ,  3-C ) :   1.3881 B(  2-C ,  7-C ) :   1.3974
B(  3-C ,  4-C ) :   1.3632 B(  3-C , 14-H ) :   0.9668 B(  4-C ,  5-C ) :   1.3595
B(  4-C , 15-H ) :   0.9630 B(  5-C ,  6-C ) :   1.3804 B(  5-C , 16-H ) :   0.9652
B(  6-C ,  7-C ) :   1.2684 B(  6-C ,  8-O ) :   1.1818 B(  7-C , 17-H ) :   0.9382
B(  8-O , 18-H ) :   0.8436

Dispersion correction           -0.018653971
FINAL SINGLE POINT ENERGY      -385.234938224438

DIPOLE MOMENT
-------------

Method             : SCF
Type of density    : Electron Density
Multiplicity       :   1
Irrep              :   0
Energy             :  -385.2946421623785795 Eh
Relativity type    :
Basis              : AO
                                X                 Y                 Z
Electronic contribution:      8.617858951      -1.256088933       0.193152289
Nuclear contribution   :     -9.133579458       1.699880874      -0.182590720
                        -----------------------------------------
Total Dipole Moment    :     -0.515720507       0.443791940       0.010561569
                        -----------------------------------------
Magnitude (a.u.)       :      0.680463426
Magnitude (Debye)      :      1.729600575

Rotational constants in cm-1:             0.091353             0.041928             0.029138
Rotational constants in MHz :          2738.691853          1256.974228           873.524188

                             ****ORCA TERMINATED NORMALLY****
TOTAL RUN TIME: 0 days 0 hours 0 minutes 7 seconds 885 msec
