                         Program Version 6.0.1  -  RELEASE   -
|  1> ! pbe def2-sv(p) def2/J RI DEFGRID1 loosescf d4 GCP(DFT/SV(P)) printgap
|  2> %output
|  3>     printlevel normal
|  4> end
|  5> * xyz 0 1
|  6> C -1.8809962041 0.9850146595 -0.7593361286
|  7> C -1.4544696008 -0.3501877335 -0.1542547482
|  8> C -2.5897391991 -0.887209638 0.7208798437
|  9> C -0.1831340501 -0.2654967644 0.7030790662
| 10> C 1.1697932449 0.0468303184 0.0262416569
| 11> C 1.3125112888 -0.6714355429 -1.3167187535
| 12> C 1.3760165649 1.5515312015 -0.1687989383
| 13> C 2.2753283387 -0.4558978001 0.9656547252
| 14> H -1.9052230928 1.7601916568 0.0035092417
| 15> H -1.2084828804 1.297208259 -1.5530122884
| 16> H -2.8778553446 0.897266576 -1.187929943
| 17> H -1.2915668523 -1.0659982024 -0.9655071213
| 18> H -2.3321598797 -1.8575351793 1.1399761271
| 19> H -2.7916161844 -0.2024180956 1.542199879
| 20> H -3.5015796528 -1.0000593903 0.1383906913
| 21> H -0.3491405409 0.4734684091 1.4912692927
| 22> H -0.078506942 -1.2370765471 1.1938196976
| 23> H 2.3233270653 -0.54554264 -1.6996830979
| 24> H 0.6219525562 -0.2708919592 -2.0539207417
| 25> H 1.1222141929 -1.7365358522 -1.2035368912
| 26> H 1.2880628175 2.0741116459 0.7813912941
| 27> H 0.6516397212 1.9718650507 -0.8578612408
| 28> H 2.3701777512 1.7417142081 -0.5691955789
| 29> H 3.256967175 -0.1996685428 0.5727537348
| 30> H 2.2260784108 -1.5370467168 1.0772605262
| 31> H 2.1740914676 -0.0047324497 1.9505081135
| 32> *
| 33>
| 34>                          ****END OF INPUT****

CARTESIAN COORDINATES (ANGSTROEM)
---------------------------------
  C     -1.880996    0.985015   -0.759336
  C     -1.454470   -0.350188   -0.154255
  C     -2.589739   -0.887210    0.720880
  C     -0.183134   -0.265497    0.703079
  C      1.169793    0.046830    0.026242
  C      1.312511   -0.671436   -1.316719
  C      1.376017    1.551531   -0.168799
  C      2.275328   -0.455898    0.965655
  H     -1.905223    1.760192    0.003509
  H     -1.208483    1.297208   -1.553012
  H     -2.877855    0.897267   -1.187930
  H     -1.291567   -1.065998   -0.965507
  H     -2.332160   -1.857535    1.139976
  H     -2.791616   -0.202418    1.542200
  H     -3.501580   -1.000059    0.138391
  H     -0.349141    0.473468    1.491269
  H     -0.078507   -1.237077    1.193820
  H      2.323327   -0.545543   -1.699683
  H      0.621953   -0.270892   -2.053921
  H      1.122214   -1.736536   -1.203537
  H      1.288063    2.074112    0.781391
  H      0.651640    1.971865   -0.857861
  H      2.370178    1.741714   -0.569196
  H      3.256967   -0.199669    0.572754
  H      2.226078   -1.537047    1.077261
  H      2.174091   -0.004732    1.950508

 Total Charge           Charge          ....    0
 Multiplicity           Mult            ....    1
 Number of Electrons    NEL             ....   66
 Basis Dimension        Dim             ....  148

ORBITAL ENERGIES
----------------

  NO   OCC          E(Eh)            E(eV)
   0   2.0000      -9.901950      -269.4458
   1   2.0000      -9.890039      -269.1216
   2   2.0000      -9.875800      -268.7342
   3   2.0000      -9.868852      -268.5451
   4   2.0000      -9.868703      -268.5411
   5   2.0000      -9.868184      -268.5269
   6   2.0000      -9.867247      -268.5014
   7   2.0000      -9.866432      -268.4793
   8   2.0000      -0.747912       -20.3517
   9   2.0000      -0.706671       -19.2295
  10   2.0000      -0.614216       -16.7137
  11   2.0000      -0.609979       -16.5984
  12   2.0000      -0.602240       -16.3878
  13   2.0000      -0.599764       -16.3204
  14   2.0000      -0.502584       -13.6760
  15   2.0000      -0.466425       -12.6921
  16   2.0000      -0.421434       -11.4678
  17   2.0000      -0.404753       -11.0139
  18   2.0000      -0.400634       -10.9018
  19   2.0000      -0.385610       -10.4930
  20   2.0000      -0.367133        -9.9902
  21   2.0000      -0.353937        -9.6311
  22   2.0000      -0.344970        -9.3871
  23   2.0000      -0.339357        -9.2344
  24   2.0000      -0.332641        -9.0516
  25   2.0000      -0.317033        -8.6269
  26   2.0000      -0.314383        -8.5548
  27   2.0000      -0.305137        -8.3032
  28   2.0000      -0.288474        -7.8498
  29   2.0000      -0.285889        -7.7794
  30   2.0000      -0.271588        -7.3903
  31   2.0000      -0.266497        -7.2517
  32   2.0000      -0.257161        -6.9977
  33   0.0000       0.027001         0.7347
  34   0.0000       0.056575         1.5395
  35   0.0000       0.065645         1.7863
  36   0.0000       0.071876         1.9558
  37   0.0000       0.079662         2.1677

MULLIKEN ATOMIC CHARGES
-----------------------
   0 C :   -0.249152
   1 C :   -0.172917
   2 C :   -0.242184
   3 C :   -0.087701
   4 C :   -0.234505
   5 C :   -0.219280
   6 C :   -0.215167
   7 C :   -0.214561
   8 H :    0.091101
   9 H :    0.116251
  10 H :    0.093336
  11 H :    0.072592
  12 H :    0.095997
  13 H :    0.091417
  14 H :    0.096499
  15 H :    0.066339
  16 H :    0.067244
  17 H :    0.091858
  18 H :    0.103929
  19 H :    0.094392
  20 H :    0.089987
  21 H :    0.097267
  22 H :    0.090085
  23 H :    0.090930
  24 H :    0.093355
  25 H :    0.092891
Sum of atomic charges:    0.0000000

LOEWDIN ATOMIC CHARGES
----------------------
   0 C :   -0.330851
   1 C :   -0.157829
   2 C :   -0.326904
   3 C :   -0.199110
   4 C :   -0.105261
   5 C :   -0.317358
   6 C :   -0.318281
   7 C :   -0.315616
   8 H :    0.116733
   9 H :    0.114708
  10 H :    0.116674
  11 H :    0.114921
  12 H :    0.114962
  13 H :    0.115475
  14 H :    0.115161
  15 H :    0.112712
  16 H :    0.113784
  17 H :    0.116786
  18 H :    0.115803
  19 H :    0.115996
  20 H :    0.114985
  21 H :    0.115298
  22 H :    0.114910
  23 H :    0.113504
  24 H :    0.113548
  25 H :    0.115250

  Mayer bond orders larger than 0.100000
B(  0-C ,  1-C ) :   1.1171 B(  0-C ,  8-H ) :   0.9459 B(  0-C ,  9-H ) :   0.9343
B(  0-C , 10-H ) :   0.9459 B(  1-C ,  2-C ) :   1.1101 B(  1-C ,  3-C ) :   1.1027
B(  1-C , 11-H ) :   0.8857 B(  2-C , 12-H ) :   0.9491 B(  2-C , 13-H ) :   0.9512
B(  2-C , 14-H ) :   0.9492 B(  3-C ,  4-C ) :   1.0326 B(  3-C , 15-H ) :   0.9079
B(  3-C , 16-H ) :   0.9105 B(  4-C ,  5-C ) :   1.0871 B(  4-C ,  6-C ) :   1.0799
B(  4-C ,  7-C ) :   1.0753 B(  5-C , 17-H ) :   0.9449 B(  5-C , 18-H ) :   0.9359
B(  5-C , 19-H ) :   0.9449 B(  6-C , 20-H ) :   0.9459 B(  6-C , 21-H ) :   0.9377
B(  6-C , 22-H ) :   0.9461 B(  7-C , 23-H ) :   0.9467 B(  7-C , 24-H ) :   0.9445
B(  7-C , 25-H ) :   0.9490

Dispersion correction           -0.023384703
FINAL SINGLE POINT ENERGY      -314.872394679944

DIPOLE MOMENT
-------------

Method             : SCF
Type of density    : Electron Density
Multiplicity       :   1
Irrep              :   0
Energy             :  -314.9591203885223649 Eh
Relativity type    :
Basis              : AO
                                X                 Y                 Z
Electronic contribution:      0.269555999      -0.551886416       0.146365447
Nuclear contribution   :     -0.282968511       0.523794619      -0.187227327
                        -----------------------------------------
Total Dipole Moment    :     -0.013412512      -0.028091798      -0.040861880
                        -----------------------------------------
Magnitude (a.u.)       :      0.051368646
Magnitude (Debye)      :      0.130568722

Rotational constants in cm-1:             0.099868             0.040939             0.037125
Rotational constants in MHz :          2993.960425          1227.332266          1112.979480

                             ****ORCA TERMINATED NORMALLY****
TOTAL RUN TIME: 0 days 0 hours 0 minutes 23 seconds 343 msec
