                         Program Version 6.0.1  -  RELEASE   -
|  1> ! pbe def2-sv(p) def2/J RI DEFGRID1 loosescf d4 GCP(DFT/SV(P)) printgap
|  2> %output
|  3>     printlevel normal
|  4> end
|  5> * xyz 0 1
|  6> C -2.3253572186 -0.9593754352 -0.1459392871
|  7> C -1.2148561928 -0.1235060089 0.5578385213
|  8> H -1.6298080003 0.3495440436 1.4543908903
|  9> C -0.6555160873 0.9928589318 -0.3348291744
| 10> H -0.5923610238 0.6459568485 -1.3810488215
| 11> C 0.7640372049 1.3360264813 0.1433038855
| 12> H 0.7368513767 1.5729088736 1.2131527627
| 13> C 1.6844193788 0.1288010909 -0.0831916287
| 14> H 2.0091019568 0.1165121393 -1.1380127391
| 15> C 0.8865343601 -1.1706902801 0.1513941131
| 16> H 1.5409457031 -1.8882361602 0.671276466
| 17> O -0.1831917362 -0.9765774382 1.0372897063
| 18> O 0.4763691431 -1.6465390173 -1.0886503302
| 19> O 2.7936189477 0.1403251035 0.7731308982
| 20> O 1.234863745 2.5054790011 -0.4865895243
| 21> O -1.4988586884 2.1118826901 -0.2572570641
| 22> O -2.0415330825 -2.3379635846 -0.1157133365
| 23> H -2.3981369789 -0.6907405427 -1.2010634035
| 24> H -3.29108909 -0.7576182527 0.3313549824
| 25> H -0.2943571867 -2.2308617204 -0.9540644369
| 26> H 3.1989481612 1.0157825703 0.736059771
| 27> H 1.329888197 2.334385947 -1.4327728078
| 28> H -0.9421208698 2.8998723441 -0.3451519261
| 29> H -1.8124140011 -2.5712492482 0.7942275506
| 30> *
| 31>
| 32>                          ****END OF INPUT****

CARTESIAN COORDINATES (ANGSTROEM)
---------------------------------
  C     -2.325357   -0.959375   -0.145939
  C     -1.214856   -0.123506    0.557839
  H     -1.629808    0.349544    1.454391
  C     -0.655516    0.992859   -0.334829
  H     -0.592361    0.645957   -1.381049
  C      0.764037    1.336026    0.143304
  H      0.736851    1.572909    1.213153
  C      1.684419    0.128801   -0.083192
  H      2.009102    0.116512   -1.138013
  C      0.886534   -1.170690    0.151394
  H      1.540946   -1.888236    0.671276
  O     -0.183192   -0.976577    1.037290
  O      0.476369   -1.646539   -1.088650
  O      2.793619    0.140325    0.773131
  O      1.234864    2.505479   -0.486590
  O     -1.498859    2.111883   -0.257257
  O     -2.041533   -2.337964   -0.115713
  H     -2.398137   -0.690741   -1.201063
  H     -3.291089   -0.757618    0.331355
  H     -0.294357   -2.230862   -0.954064
  H      3.198948    1.015783    0.736060
  H      1.329888    2.334386   -1.432773
  H     -0.942121    2.899872   -0.345152
  H     -1.812414   -2.571249    0.794228

 Total Charge           Charge          ....    0
 Multiplicity           Mult            ....    1
 Number of Electrons    NEL             ....   96
 Basis Dimension        Dim             ....  192

ORBITAL ENERGIES
----------------

  NO   OCC          E(Eh)            E(eV)
   0   2.0000     -18.777732      -510.9681
   1   2.0000     -18.777601      -510.9645
   2   2.0000     -18.772077      -510.8142
   3   2.0000     -18.754826      -510.3447
   4   2.0000     -18.752041      -510.2690
   5   2.0000     -18.750511      -510.2273
   6   2.0000      -9.985388      -271.7162
   7   2.0000      -9.949928      -270.7513
   8   2.0000      -9.949441      -270.7381
   9   2.0000      -9.945060      -270.6189
  10   2.0000      -9.944420      -270.6014
  11   2.0000      -9.939824      -270.4764
  12   2.0000      -0.991254       -26.9734
  13   2.0000      -0.961842       -26.1730
  14   2.0000      -0.942277       -25.6407
  15   2.0000      -0.933055       -25.3897
  16   2.0000      -0.923362       -25.1260
  17   2.0000      -0.907992       -24.7077
  18   2.0000      -0.709196       -19.2982
  19   2.0000      -0.695244       -18.9186
  20   2.0000      -0.627760       -17.0822
  21   2.0000      -0.586411       -15.9571
  22   2.0000      -0.577527       -15.7153
  23   2.0000      -0.529325       -14.4037
  24   2.0000      -0.510690       -13.8966
  25   2.0000      -0.481980       -13.1153
  26   2.0000      -0.477967       -13.0061
  27   2.0000      -0.465231       -12.6596
  28   2.0000      -0.455041       -12.3823
  29   2.0000      -0.429613       -11.6904
  30   2.0000      -0.418536       -11.3889
  31   2.0000      -0.401233       -10.9181
  32   2.0000      -0.396143       -10.7796
  33   2.0000      -0.387088       -10.5332
  34   2.0000      -0.371418       -10.1068
  35   2.0000      -0.356399        -9.6981
  36   2.0000      -0.343962        -9.3597
  37   2.0000      -0.324176        -8.8213
  38   2.0000      -0.309240        -8.4148
  39   2.0000      -0.297219        -8.0878
  40   2.0000      -0.294640        -8.0176
  41   2.0000      -0.267361        -7.2753
  42   2.0000      -0.262592        -7.1455
  43   2.0000      -0.254605        -6.9281
  44   2.0000      -0.237590        -6.4652
  45   2.0000      -0.224467        -6.1080
  46   2.0000      -0.221017        -6.0142
  47   2.0000      -0.211883        -5.7656
  48   0.0000       0.007877         0.2143
  49   0.0000       0.019946         0.5427
  50   0.0000       0.040434         1.1003
  51   0.0000       0.048890         1.3304
  52   0.0000       0.061323         1.6687

MULLIKEN ATOMIC CHARGES
-----------------------
   0 C :    0.050769
   1 C :    0.051705
   2 H :    0.078467
   3 C :    0.011711
   4 H :    0.056851
   5 C :   -0.021043
   6 H :    0.073476
   7 C :    0.116483
   8 H :    0.055538
   9 C :    0.158107
  10 H :    0.072099
  11 O :   -0.318874
  12 O :   -0.420450
  13 O :   -0.407069
  14 O :   -0.421133
  15 O :   -0.413292
  16 O :   -0.434973
  17 H :    0.100950
  18 H :    0.091604
  19 H :    0.303733
  20 H :    0.304978
  21 H :    0.302808
  22 H :    0.299471
  23 H :    0.308086
Sum of atomic charges:   -0.0000000

LOEWDIN ATOMIC CHARGES
----------------------
   0 C :   -0.133996
   1 C :   -0.069809
   2 H :    0.121128
   3 C :   -0.086808
   4 H :    0.098336
   5 C :   -0.089030
   6 H :    0.122446
   7 C :   -0.082065
   8 H :    0.103181
   9 C :    0.006711
  10 H :    0.102736
  11 O :   -0.140814
  12 O :   -0.322708
  13 O :   -0.314057
  14 O :   -0.310334
  15 O :   -0.324728
  16 O :   -0.316214
  17 H :    0.118713
  18 H :    0.108089
  19 H :    0.273429
  20 H :    0.287620
  21 H :    0.286328
  22 H :    0.278344
  23 H :    0.283502

  Mayer bond orders larger than 0.100000
B(  0-C ,  1-C ) :   1.0190 B(  0-C , 16-O ) :   1.0369 B(  0-C , 17-H ) :   0.9273
B(  0-C , 18-H ) :   0.9229 B(  1-C ,  2-H ) :   0.8831 B(  1-C ,  3-C ) :   0.9852
B(  1-C , 11-O ) :   1.0253 B(  3-C ,  4-H ) :   0.8671 B(  3-C ,  5-C ) :   1.0510
B(  3-C , 15-O ) :   1.1017 B(  5-C ,  6-H ) :   0.8479 B(  5-C ,  7-C ) :   1.0289
B(  5-C , 14-O ) :   1.0053 B(  7-C ,  8-H ) :   0.8729 B(  7-C ,  9-C ) :   0.9737
B(  7-C , 13-O ) :   1.0942 B(  9-C , 10-H ) :   0.8914 B(  9-C , 11-O ) :   1.0488
B(  9-C , 12-O ) :   1.1045 B( 12-O , 19-H ) :   0.7767 B( 13-O , 20-H ) :   0.8448
B( 14-O , 21-H ) :   0.8463 B( 15-O , 22-H ) :   0.8238 B( 16-O , 19-H ) :   0.1331
B( 16-O , 23-H ) :   0.8297

Dispersion correction           -0.025147286
FINAL SINGLE POINT ENERGY      -685.692117704394

DIPOLE MOMENT
-------------

Method             : SCF
Type of density    : Electron Density
Multiplicity       :   1
Irrep              :   0
Energy             :  -685.8264550310950654 Eh
Relativity type    :
Basis              : AO
                                X                 Y                 Z
Electronic contribution:      2.048430800      -0.278907913       1.089751864
Nuclear contribution   :     -2.000380281       0.744011208      -1.176303518
                        -----------------------------------------
Total Dipole Moment    :      0.048050520       0.465103295      -0.086551654
                        -----------------------------------------
Magnitude (a.u.)       :      0.475521941
Magnitude (Debye)      :      1.208680720

Rotational constants in cm-1:             0.043324             0.028140             0.019733
Rotational constants in MHz :          1298.831497           843.621639           591.587565

                             ****ORCA TERMINATED NORMALLY****
TOTAL RUN TIME: 0 days 0 hours 0 minutes 8 seconds 199 msec
