                         Program Version 6.0.0  -   RELEASE  -
|  1> ! r2SCAN-3c DEF2-TZVP FREQ
|  2> * xyzfile 0 1 censo.xyz
|  3>
|  4>                          ****END OF INPUT****

CARTESIAN COORDINATES (ANGSTROEM)
---------------------------------
  C     -1.641341   -0.481572    0.000001
  C     -0.604638    0.650211    0.000067
  C      0.751576    0.140198    0.000669
  N      1.827982   -0.288325   -0.000638
  H     -1.532361   -1.107732    0.888620
  H     -2.643017   -0.045941   -0.000197
  H     -1.532092   -1.107900   -0.888465
  H     -0.720771    1.288824    0.882426
  H     -0.720409    1.288637   -0.882472

 Total Charge           Charge          ....    0
 Multiplicity           Mult            ....    1
 Number of Electrons    NEL             ....   30
 Basis Dimension        Dim             ....  154

ORBITAL ENERGIES
----------------

  NO   OCC          E(Eh)            E(eV)
   0   2.0000     -14.153294      -385.1307
   1   2.0000     -10.090137      -274.5666
   2   2.0000     -10.069907      -274.0161
   3   2.0000     -10.054939      -273.6088
   4   2.0000      -0.869060       -23.6483
   5   2.0000      -0.779387       -21.2082
   6   2.0000      -0.646938       -17.6041
   7   2.0000      -0.493123       -13.4186
   8   2.0000      -0.460765       -12.5381
   9   2.0000      -0.406179       -11.0527
  10   2.0000      -0.373351       -10.1594
  11   2.0000      -0.364416        -9.9163
  12   2.0000      -0.324395        -8.8272
  13   2.0000      -0.301566        -8.2060
  14   2.0000      -0.299919        -8.1612
  15   0.0000      -0.001690        -0.0460
  16   0.0000       0.004614         0.1256
  17   0.0000       0.036681         0.9982
  18   0.0000       0.083013         2.2589
  19   0.0000       0.093032         2.5315

MULLIKEN ATOMIC CHARGES
-----------------------
   0 C :   -0.317430
   1 C :   -0.047636
   2 C :   -0.176683
   3 N :   -0.078037
   4 H :    0.123146
   5 H :    0.118445
   6 H :    0.123158
   7 H :    0.127479
   8 H :    0.127559
Sum of atomic charges:    0.0000000

LOEWDIN ATOMIC CHARGES
----------------------
   0 C :   -0.276818
   1 C :   -0.264050
   2 C :   -0.208711
   3 N :    0.045758
   4 H :    0.127299
   5 H :    0.123801
   6 H :    0.127301
   7 H :    0.162700
   8 H :    0.162719

  Mayer bond orders larger than 0.100000
B(  0-C ,  1-C ) :   0.9673 B(  0-C ,  4-H ) :   0.9703 B(  0-C ,  5-H ) :   0.9703
B(  0-C ,  6-H ) :   0.9703 B(  1-C ,  2-C ) :   0.9835 B(  1-C ,  7-H ) :   0.9439
B(  1-C ,  8-H ) :   0.9439 B(  2-C ,  3-N ) :   3.0285

Dispersion correction           -0.001532526
FINAL SINGLE POINT ENERGY      -172.023973597437

DIPOLE MOMENT
-------------

Method             : SCF
Type of density    : Electron Density
Multiplicity       :   1
Irrep              :   0
Energy             :  -172.0260277561430371 Eh
Relativity type    :
Basis              : AO
                                X                 Y                 Z
Electronic contribution:      5.178023070       0.204418794       0.000494821
Nuclear contribution   :     -6.734950763       0.295684701      -0.000071499
                        -----------------------------------------
Total Dipole Moment    :     -1.556927694       0.500103496       0.000423322
                        -----------------------------------------
Magnitude (a.u.)       :      1.635275979
Magnitude (Debye)      :      4.156541214

VIBRATIONAL FREQUENCIES
-----------------------

Scaling factor for frequencies =  1.000000000  (already applied!)

     0:       0.00 cm**-1
     1:       0.00 cm**-1
     2:       0.00 cm**-1
     3:       0.00 cm**-1
     4:       0.00 cm**-1
     5:       0.00 cm**-1
     6:     219.98 cm**-1
     7:     238.75 cm**-1
     8:     396.54 cm**-1
     9:     555.70 cm**-1
    10:     794.81 cm**-1
    11:     855.47 cm**-1
    12:    1016.50 cm**-1
    13:    1089.78 cm**-1
    14:    1111.96 cm**-1
    15:    1286.42 cm**-1
    16:    1338.52 cm**-1
    17:    1406.13 cm**-1
    18:    1460.36 cm**-1
    19:    1491.78 cm**-1
    20:    1498.45 cm**-1
    21:    2300.01 cm**-1
    22:    3027.29 cm**-1
    23:    3030.70 cm**-1
    24:    3071.13 cm**-1
    25:    3115.90 cm**-1
    26:    3119.77 cm**-1

IR SPECTRUM
-----------

 Mode   freq       eps      Int      T**2         TX        TY        TZ
       cm**-1   L/(mol*cm) km/mol    a.u.
----------------------------------------------------------------------------
  6:    219.98   0.000753    3.80  0.001068  (-0.018086 -0.027215 -0.000049)
  7:    238.75   0.000187    0.95  0.000245  ( 0.000066  0.000052 -0.015642)
  8:    396.54   0.000024    0.12  0.000019  (-0.000010  0.000007 -0.004345)
  9:    555.70   0.000156    0.79  0.000088  (-0.009070  0.002302  0.000005)
 10:    794.81   0.000611    3.09  0.000240  (-0.000009 -0.000004 -0.015486)
 11:    855.47   0.000002    0.01  0.000001  ( 0.000227 -0.000881  0.000004)
 12:   1016.50   0.000020    0.10  0.000006  ( 0.001498  0.002010  0.000007)
 13:   1089.78   0.000727    3.67  0.000208  ( 0.011554 -0.008635  0.000012)
 14:   1111.96   0.000085    0.43  0.000024  (-0.000053  0.000022  0.004898)
 15:   1286.42   0.000000    0.00  0.000000  ( 0.000031 -0.000015  0.000250)
 16:   1338.52   0.000529    2.67  0.000123  ( 0.009076 -0.006394  0.000004)
 17:   1406.13   0.000308    1.56  0.000068  (-0.002012 -0.008024  0.000002)
 18:   1460.36   0.001267    6.40  0.000271  (-0.000873 -0.016431 -0.000004)
 19:   1491.78   0.001669    8.43  0.000349  (-0.000021  0.000013  0.018684)
 20:   1498.45   0.001340    6.77  0.000279  (-0.011065  0.012512 -0.000017)
 21:   2300.01   0.002317   11.71  0.000314  (-0.017216  0.004243 -0.000029)
 22:   3027.29   0.001305    6.60  0.000135  (-0.011477  0.001691  0.000012)
 23:   3030.70   0.003539   17.88  0.000364  (-0.012059 -0.014797 -0.000009)
 24:   3071.13   0.000089    0.45  0.000009  (-0.000014  0.000001  0.003015)
 25:   3115.90   0.003314   16.75  0.000332  (-0.013640  0.012079 -0.000028)
 26:   3119.77   0.002847   14.39  0.000285  (-0.000020  0.000021  0.016876)

--------------------------
THERMOCHEMISTRY AT 298.15K
--------------------------

Temperature         ...   298.15 K
Pressure            ...     1.00 atm
Total Mass          ...    55.08 AMU
Quasi RRHO          ...     True
Cut-Off Frequency   ...     1.00 cm^-1

Throughout the following assumptions are being made:
  (1) The electronic state is orbitally nondegenerate
  (2) There are no thermally accessible electronically excited states
  (3) Hindered rotations indicated by low frequency modes are not
      treated as such but are treated as vibrations and this may
      cause some error
  (4) All equations used are the standard statistical mechanics
      equations for an ideal gas
  (5) All vibrations are strictly harmonic

freq.     219.98  E(vib)   ...       0.33
freq.     238.75  E(vib)   ...       0.32
freq.     396.54  E(vib)   ...       0.20
freq.     555.70  E(vib)   ...       0.12
freq.     794.81  E(vib)   ...       0.05
freq.     855.47  E(vib)   ...       0.04
freq.    1016.50  E(vib)   ...       0.02
freq.    1089.78  E(vib)   ...       0.02
freq.    1111.96  E(vib)   ...       0.01
freq.    1286.42  E(vib)   ...       0.01
freq.    1338.52  E(vib)   ...       0.01
freq.    1406.13  E(vib)   ...       0.00
freq.    1460.36  E(vib)   ...       0.00
freq.    1491.78  E(vib)   ...       0.00
freq.    1498.45  E(vib)   ...       0.00
freq.    2300.01  E(vib)   ...       0.00
freq.    3027.29  E(vib)   ...       0.00
freq.    3030.70  E(vib)   ...       0.00
freq.    3071.13  E(vib)   ...       0.00
freq.    3115.90  E(vib)   ...       0.00
freq.    3119.77  E(vib)   ...       0.00

------------
INNER ENERGY
------------

The inner energy is: U= E(el) + E(ZPE) + E(vib) + E(rot) + E(trans)
    E(el)   - is the total energy from the electronic structure calculation
              = E(kin-el) + E(nuc-el) + E(el-el) + E(nuc-nuc)
    E(ZPE)  - the the zero temperature vibrational energy from the frequency calculation
    E(vib)  - the the finite temperature correction to E(ZPE) due to population
              of excited vibrational states
    E(rot)  - is the rotational thermal energy
    E(trans)- is the translational thermal energy

Summary of contributions to the inner energy U:
Electronic energy                ...   -172.02397360 Eh
Zero point energy                ...      0.07387173 Eh      46.36 kcal/mol
Thermal vibrational correction   ...      0.00180415 Eh       1.13 kcal/mol
Thermal rotational correction    ...      0.00141627 Eh       0.89 kcal/mol
Thermal translational correction ...      0.00141627 Eh       0.89 kcal/mol
-----------------------------------------------------------------------
Total thermal energy                   -171.94546517 Eh

Summary of corrections to the electronic energy:
(perhaps to be used in another calculation)
Total thermal correction                  0.00463669 Eh       2.91 kcal/mol
Non-thermal (ZPE) correction              0.07387173 Eh      46.36 kcal/mol
-----------------------------------------------------------------------
Total correction                          0.07850843 Eh      49.26 kcal/mol

--------
ENTHALPY
--------

The enthalpy is H = U + kB*T
                kB is Boltzmann's constant
Total thermal energy              ...   -171.94546517 Eh
Thermal Enthalpy correction       ...      0.00094421 Eh       0.59 kcal/mol
-----------------------------------------------------------------------
Total Enthalpy                    ...   -171.94452096 Eh

Note: Only C1 symmetry has been detected, increase convergence thresholds
      if your molecule has a higher symmetry. Symmetry factor of 1.0 is
      used for the rotational entropy correction.

Note: Rotational entropy computed according to Herzberg
Infrared and Raman Spectra, Chapter V,1, Van Nostrand Reinhold, 1945
Point Group:  C1, Symmetry Number:   1
Rotational constants in cm-1:     0.923769     0.158558     0.142567

Vibrational entropy computed according to the QRRHO of S. Grimme
Chem.Eur.J. 2012 18 9955 using a reference frequency of 100.0 cm-1

-------
ENTROPY
-------

The entropy contributions are T*S = T*(S(el)+S(vib)+S(rot)+S(trans))
     S(el)   - electronic entropy
     S(vib)  - vibrational entropy
     S(rot)  - rotational entropy
     S(trans)- translational entropy
The entropies will be listed as multiplied by the temperature to get
units of energy

Electronic entropy                ...      0.00000000 Eh      0.00 kcal/mol
Vibrational entropy               ...      0.00284634 Eh      1.79 kcal/mol
Rotational entropy                ...      0.01133727 Eh      7.11 kcal/mol
Translational entropy             ...      0.01802660 Eh     11.31 kcal/mol
-----------------------------------------------------------------------
Final entropy term                ...      0.03221021 Eh     20.21 kcal/mol

In case the symmetry of your molecule has not been determined correctly
or in case you have a reason to use a different symmetry number we print
out the resulting rotational entropy values for sn=1,12:

 non-linear molecules -----------------------------------
|  sn= 1 | S(rot)=       0.01133727 Eh      7.11 kcal/mol|
|  sn= 2 | S(rot)=       0.01068281 Eh      6.70 kcal/mol|
|  sn= 3 | S(rot)=       0.01029998 Eh      6.46 kcal/mol|
|  sn= 4 | S(rot)=       0.01002836 Eh      6.29 kcal/mol|
|  sn= 5 | S(rot)=       0.00981767 Eh      6.16 kcal/mol|
|  sn= 6 | S(rot)=       0.00964552 Eh      6.05 kcal/mol|
|  sn= 7 | S(rot)=       0.00949998 Eh      5.96 kcal/mol|
|  sn= 8 | S(rot)=       0.00937390 Eh      5.88 kcal/mol|
|  sn= 9 | S(rot)=       0.00926269 Eh      5.81 kcal/mol|
|  sn=10 | S(rot)=       0.00916321 Eh      5.75 kcal/mol|
|  sn=11 | S(rot)=       0.00907322 Eh      5.69 kcal/mol|
|  sn=12 | S(rot)=       0.00899107 Eh      5.64 kcal/mol|
 linear molecules ---------------------------------------
|  Dinfh | S(rot)=       0.00716502 Eh      4.50 kcal/mol|
|  Cinfv | S(rot)=       0.00781948 Eh      4.91 kcal/mol|
 --------------------------------------------------------

-------------------
GIBBS FREE ENERGY
-------------------

The Gibbs free energy is G = H - T*S

Total enthalpy                    ...   -171.94452096 Eh
Total entropy correction          ...     -0.03221021 Eh    -20.21 kcal/mol
-----------------------------------------------------------------------
Final Gibbs free energy         ...   -171.97673117 Eh

For completeness - the Gibbs free energy minus the electronic energy
G-E(el)                           ...      0.04724243 Eh     29.65 kcal/mol

                             ****ORCA TERMINATED NORMALLY****
TOTAL RUN TIME: 0 days 0 hours 2 minutes 9 seconds 243 msec
