                         Program Version 6.0.0  -   RELEASE  -
|  1> ! r2SCAN-3c DEF2-TZVP FREQ
|  2> * xyzfile 0 1 vacuum_censo.xyz
|  3>
|  4>                          ****END OF INPUT****

CARTESIAN COORDINATES (ANGSTROEM)
---------------------------------
  C     -1.642771   -0.481606    0.000006
  C     -0.603924    0.649913   -0.000131
  C      0.760051    0.142045   -0.001093
  N      1.833778   -0.284053    0.001111
  H     -1.528716   -1.110697    0.885549
  H     -2.649737   -0.057461    0.000086
  H     -1.528863   -1.110743   -0.885525
  H     -0.728872    1.290192    0.880240
  H     -0.729422    1.290402   -0.880276

 Total Charge           Charge          ....    0
 Multiplicity           Mult            ....    1
 Number of Electrons    NEL             ....   30
 Basis Dimension        Dim             ....  154

ORBITAL ENERGIES
----------------

  NO   OCC          E(Eh)            E(eV)
   0   2.0000     -14.153009      -385.1230
   1   2.0000     -10.090864      -274.5864
   2   2.0000     -10.069927      -274.0166
   3   2.0000     -10.054778      -273.6044
   4   2.0000      -0.870297       -23.6820
   5   2.0000      -0.778410       -21.1816
   6   2.0000      -0.646167       -17.5831
   7   2.0000      -0.493232       -13.4215
   8   2.0000      -0.459448       -12.5022
   9   2.0000      -0.406165       -11.0523
  10   2.0000      -0.373154       -10.1540
  11   2.0000      -0.363374        -9.8879
  12   2.0000      -0.324650        -8.8342
  13   2.0000      -0.302900        -8.2423
  14   2.0000      -0.301046        -8.1919
  15   0.0000      -0.001314        -0.0357
  16   0.0000       0.005059         0.1377
  17   0.0000       0.036548         0.9945
  18   0.0000       0.083328         2.2675
  19   0.0000       0.093450         2.5429

MULLIKEN ATOMIC CHARGES
-----------------------
   0 C :   -0.319343
   1 C :   -0.049451
   2 C :   -0.179369
   3 N :   -0.071679
   4 H :    0.122831
   5 H :    0.119365
   6 H :    0.122817
   7 H :    0.127482
   8 H :    0.127348
Sum of atomic charges:    0.0000000

LOEWDIN ATOMIC CHARGES
----------------------
   0 C :   -0.278137
   1 C :   -0.263095
   2 C :   -0.207514
   3 N :    0.047488
   4 H :    0.126999
   5 H :    0.123593
   6 H :    0.126998
   7 H :    0.161849
   8 H :    0.161819

  Mayer bond orders larger than 0.100000
B(  0-C ,  1-C ) :   0.9673 B(  0-C ,  4-H ) :   0.9706 B(  0-C ,  5-H ) :   0.9699
B(  0-C ,  6-H ) :   0.9706 B(  1-C ,  2-C ) :   0.9831 B(  1-C ,  7-H ) :   0.9446
B(  1-C ,  8-H ) :   0.9446 B(  2-C ,  3-N ) :   3.0304

Dispersion correction           -0.001531163
FINAL SINGLE POINT ENERGY      -172.024094289759

DIPOLE MOMENT
-------------

Method             : SCF
Type of density    : Electron Density
Multiplicity       :   1
Irrep              :   0
Energy             :  -172.0261446223549910 Eh
Relativity type    :
Basis              : AO
                                X                 Y                 Z
Electronic contribution:      5.208558401       0.218089224      -0.000743505
Nuclear contribution   :     -6.764238780       0.276957128      -0.000009899
                        -----------------------------------------
Total Dipole Moment    :     -1.555680379       0.495046352      -0.000753404
                        -----------------------------------------
Magnitude (a.u.)       :      1.632547978
Magnitude (Debye)      :      4.149607184

VIBRATIONAL FREQUENCIES
-----------------------

Scaling factor for frequencies =  1.000000000  (already applied!)

     0:       0.00 cm**-1
     1:       0.00 cm**-1
     2:       0.00 cm**-1
     3:       0.00 cm**-1
     4:       0.00 cm**-1
     5:       0.00 cm**-1
     6:     209.88 cm**-1
     7:     231.07 cm**-1
     8:     388.70 cm**-1
     9:     549.59 cm**-1
    10:     793.30 cm**-1
    11:     846.32 cm**-1
    12:    1010.56 cm**-1
    13:    1088.99 cm**-1
    14:    1109.68 cm**-1
    15:    1285.96 cm**-1
    16:    1337.26 cm**-1
    17:    1406.93 cm**-1
    18:    1462.52 cm**-1
    19:    1490.88 cm**-1
    20:    1499.14 cm**-1
    21:    2319.21 cm**-1
    22:    3026.47 cm**-1
    23:    3031.17 cm**-1
    24:    3067.15 cm**-1
    25:    3115.67 cm**-1
    26:    3120.23 cm**-1

IR SPECTRUM
-----------

 Mode   freq       eps      Int      T**2         TX        TY        TZ
       cm**-1   L/(mol*cm) km/mol    a.u.
----------------------------------------------------------------------------
  6:    209.88   0.000758    3.83  0.001127  (-0.018450 -0.028049  0.000084)
  7:    231.07   0.000195    0.99  0.000263  ( 0.000049  0.000110  0.016225)
  8:    388.70   0.000024    0.12  0.000019  (-0.000100  0.000049  0.004391)
  9:    549.59   0.000158    0.80  0.000090  (-0.009233  0.002097 -0.000010)
 10:    793.30   0.000640    3.23  0.000252  ( 0.000028  0.000001 -0.015866)
 11:    846.32   0.000002    0.01  0.000001  ( 0.000088  0.000820  0.000010)
 12:   1010.56   0.000030    0.15  0.000009  ( 0.002519  0.001679 -0.000012)
 13:   1088.99   0.000724    3.66  0.000207  ( 0.011400 -0.008800 -0.000020)
 14:   1109.68   0.000091    0.46  0.000026  (-0.000102  0.000043 -0.005056)
 15:   1285.96   0.000001    0.01  0.000000  (-0.000059  0.000028  0.000589)
 16:   1337.26   0.000542    2.74  0.000126  (-0.009187  0.006478  0.000007)
 17:   1406.93   0.000294    1.49  0.000065  ( 0.001677  0.007903  0.000004)
 18:   1462.52   0.001275    6.45  0.000272  (-0.000947 -0.016469  0.000010)
 19:   1490.88   0.001706    8.62  0.000357  (-0.000035  0.000013 -0.018897)
 20:   1499.14   0.001322    6.68  0.000275  ( 0.010932 -0.012480 -0.000020)
 21:   2319.21   0.002130   10.77  0.000287  (-0.016458  0.003970  0.000048)
 22:   3026.47   0.000888    4.49  0.000092  ( 0.006100 -0.007373  0.000027)
 23:   3031.17   0.004038   20.41  0.000416  ( 0.015645  0.013076 -0.000009)
 24:   3067.15   0.000130    0.66  0.000013  (-0.000023 -0.000002 -0.003632)
 25:   3115.67   0.003206   16.20  0.000321  (-0.012890  0.012446  0.000027)
 26:   3120.23   0.002967   14.99  0.000297  (-0.000017  0.000021 -0.017226)

--------------------------
THERMOCHEMISTRY AT 298.15K
--------------------------

Temperature         ...   298.15 K
Pressure            ...     1.00 atm
Total Mass          ...    55.08 AMU
Quasi RRHO          ...     True
Cut-Off Frequency   ...     1.00 cm^-1

Throughout the following assumptions are being made:
  (1) The electronic state is orbitally nondegenerate
  (2) There are no thermally accessible electronically excited states
  (3) Hindered rotations indicated by low frequency modes are not
      treated as such but are treated as vibrations and this may
      cause some error
  (4) All equations used are the standard statistical mechanics
      equations for an ideal gas
  (5) All vibrations are strictly harmonic

freq.     209.88  E(vib)   ...       0.34
freq.     231.07  E(vib)   ...       0.32
freq.     388.70  E(vib)   ...       0.20
freq.     549.59  E(vib)   ...       0.12
freq.     793.30  E(vib)   ...       0.05
freq.     846.32  E(vib)   ...       0.04
freq.    1010.56  E(vib)   ...       0.02
freq.    1088.99  E(vib)   ...       0.02
freq.    1109.68  E(vib)   ...       0.02
freq.    1285.96  E(vib)   ...       0.01
freq.    1337.26  E(vib)   ...       0.01
freq.    1406.93  E(vib)   ...       0.00
freq.    1462.52  E(vib)   ...       0.00
freq.    1490.88  E(vib)   ...       0.00
freq.    1499.14  E(vib)   ...       0.00
freq.    2319.21  E(vib)   ...       0.00
freq.    3026.47  E(vib)   ...       0.00
freq.    3031.17  E(vib)   ...       0.00
freq.    3067.15  E(vib)   ...       0.00
freq.    3115.67  E(vib)   ...       0.00
freq.    3120.23  E(vib)   ...       0.00

------------
INNER ENERGY
------------

The inner energy is: U= E(el) + E(ZPE) + E(vib) + E(rot) + E(trans)
    E(el)   - is the total energy from the electronic structure calculation
              = E(kin-el) + E(nuc-el) + E(el-el) + E(nuc-nuc)
    E(ZPE)  - the the zero temperature vibrational energy from the frequency calculation
    E(vib)  - the the finite temperature correction to E(ZPE) due to population
              of excited vibrational states
    E(rot)  - is the rotational thermal energy
    E(trans)- is the translational thermal energy

Summary of contributions to the inner energy U:
Electronic energy                ...   -172.02409429 Eh
Zero point energy                ...      0.07379139 Eh      46.30 kcal/mol
Thermal vibrational correction   ...      0.00184604 Eh       1.16 kcal/mol
Thermal rotational correction    ...      0.00141627 Eh       0.89 kcal/mol
Thermal translational correction ...      0.00141627 Eh       0.89 kcal/mol
-----------------------------------------------------------------------
Total thermal energy                   -171.94562432 Eh

Summary of corrections to the electronic energy:
(perhaps to be used in another calculation)
Total thermal correction                  0.00467858 Eh       2.94 kcal/mol
Non-thermal (ZPE) correction              0.07379139 Eh      46.30 kcal/mol
-----------------------------------------------------------------------
Total correction                          0.07846997 Eh      49.24 kcal/mol

--------
ENTHALPY
--------

The enthalpy is H = U + kB*T
                kB is Boltzmann's constant
Total thermal energy              ...   -171.94562432 Eh
Thermal Enthalpy correction       ...      0.00094421 Eh       0.59 kcal/mol
-----------------------------------------------------------------------
Total Enthalpy                    ...   -171.94468011 Eh

Note: Only C1 symmetry has been detected, increase convergence thresholds
      if your molecule has a higher symmetry. Symmetry factor of 1.0 is
      used for the rotational entropy correction.

Note: Rotational entropy computed according to Herzberg
Infrared and Raman Spectra, Chapter V,1, Van Nostrand Reinhold, 1945
Point Group:  C1, Symmetry Number:   1
Rotational constants in cm-1:     0.925277     0.157792     0.141938

Vibrational entropy computed according to the QRRHO of S. Grimme
Chem.Eur.J. 2012 18 9955 using a reference frequency of 100.0 cm-1

-------
ENTROPY
-------

The entropy contributions are T*S = T*(S(el)+S(vib)+S(rot)+S(trans))
     S(el)   - electronic entropy
     S(vib)  - vibrational entropy
     S(rot)  - rotational entropy
     S(trans)- translational entropy
The entropies will be listed as multiplied by the temperature to get
units of energy

Electronic entropy                ...      0.00000000 Eh      0.00 kcal/mol
Vibrational entropy               ...      0.00293916 Eh      1.84 kcal/mol
Rotational entropy                ...      0.01134087 Eh      7.12 kcal/mol
Translational entropy             ...      0.01802660 Eh     11.31 kcal/mol
-----------------------------------------------------------------------
Final entropy term                ...      0.03230663 Eh     20.27 kcal/mol

In case the symmetry of your molecule has not been determined correctly
or in case you have a reason to use a different symmetry number we print
out the resulting rotational entropy values for sn=1,12:

 non-linear molecules -----------------------------------
|  sn= 1 | S(rot)=       0.01134087 Eh      7.12 kcal/mol|
|  sn= 2 | S(rot)=       0.01068642 Eh      6.71 kcal/mol|
|  sn= 3 | S(rot)=       0.01030358 Eh      6.47 kcal/mol|
|  sn= 4 | S(rot)=       0.01003196 Eh      6.30 kcal/mol|
|  sn= 5 | S(rot)=       0.00982127 Eh      6.16 kcal/mol|
|  sn= 6 | S(rot)=       0.00964913 Eh      6.05 kcal/mol|
|  sn= 7 | S(rot)=       0.00950358 Eh      5.96 kcal/mol|
|  sn= 8 | S(rot)=       0.00937750 Eh      5.88 kcal/mol|
|  sn= 9 | S(rot)=       0.00926630 Eh      5.81 kcal/mol|
|  sn=10 | S(rot)=       0.00916682 Eh      5.75 kcal/mol|
|  sn=11 | S(rot)=       0.00907683 Eh      5.70 kcal/mol|
|  sn=12 | S(rot)=       0.00899467 Eh      5.64 kcal/mol|
 linear molecules ---------------------------------------
|  Dinfh | S(rot)=       0.00716919 Eh      4.50 kcal/mol|
|  Cinfv | S(rot)=       0.00782365 Eh      4.91 kcal/mol|
 --------------------------------------------------------

-------------------
GIBBS FREE ENERGY
-------------------

The Gibbs free energy is G = H - T*S

Total enthalpy                    ...   -171.94468011 Eh
Total entropy correction          ...     -0.03230663 Eh    -20.27 kcal/mol
-----------------------------------------------------------------------
Final Gibbs free energy         ...   -171.97698674 Eh

For completeness - the Gibbs free energy minus the electronic energy
G-E(el)                           ...      0.04710755 Eh     29.56 kcal/mol

                             ****ORCA TERMINATED NORMALLY****
TOTAL RUN TIME: 0 days 0 hours 2 minutes 8 seconds 543 msec
