                         Program Version 6.0.1  -  RELEASE   -
|  1> ! pbe def2-sv(p) def2/J RI DEFGRID1 loosescf d4 GCP(DFT/SV(P)) printgap
|  2> %output
|  3>     printlevel normal
|  4> end
|  5> * xyz 0 1
|  6> C -1.8042842605 -1.0859596283 -0.6329929634
|  7> C -1.0280077145 -0.506416637 0.5681464285
|  8> H -1.6679782658 -0.6048315207 1.4574514913
|  9> C -0.7268218339 0.9955682488 0.40264672
| 10> H -1.6024941758 1.4711730329 -0.0579288706
| 11> C 0.5140398629 1.2327283485 -0.4825408006
| 12> H 0.7798587633 2.3017886242 -0.3965953327
| 13> C 1.6954806996 0.3898110329 0.0351577613
| 14> H 2.517176785 0.4520356388 -0.6935870005
| 15> C 1.2803432869 -1.0921420203 0.1324967731
| 16> H 2.0411340565 -1.6414720522 0.7001846954
| 17> O 0.1196678889 -1.2650847491 0.9035463311
| 18> O 1.2154381827 -1.6710701369 -1.1264154743
| 19> O 2.1131832993 0.8115819136 1.3105774687
| 20> O 0.3052530355 0.8933577587 -1.8359626619
| 21> O -0.5555026654 1.6217072516 1.6461974137
| 22> O -3.0386674825 -0.4354323765 -0.812317939
| 23> H -1.9323967521 -2.1632804277 -0.4691812927
| 24> H -1.2622137475 -0.9441247962 -1.5678402063
| 25> H 0.8348356383 -1.0332675291 -1.7497580305
| 26> H 2.4639184785 1.7084071274 1.2515329203
| 27> H -0.4774152632 1.3563653675 -2.1584140921
| 28> H 0.1921522226 1.1896947721 2.0890738174
| 29> H -3.5912103914 -0.587699234 -0.0372130449
| 30> *
| 31>
| 32>                          ****END OF INPUT****

CARTESIAN COORDINATES (ANGSTROEM)
---------------------------------
  C     -1.804284   -1.085960   -0.632993
  C     -1.028008   -0.506417    0.568146
  H     -1.667978   -0.604832    1.457451
  C     -0.726822    0.995568    0.402647
  H     -1.602494    1.471173   -0.057929
  C      0.514040    1.232728   -0.482541
  H      0.779859    2.301789   -0.396595
  C      1.695481    0.389811    0.035158
  H      2.517177    0.452036   -0.693587
  C      1.280343   -1.092142    0.132497
  H      2.041134   -1.641472    0.700185
  O      0.119668   -1.265085    0.903546
  O      1.215438   -1.671070   -1.126415
  O      2.113183    0.811582    1.310577
  O      0.305253    0.893358   -1.835963
  O     -0.555503    1.621707    1.646197
  O     -3.038667   -0.435432   -0.812318
  H     -1.932397   -2.163280   -0.469181
  H     -1.262214   -0.944125   -1.567840
  H      0.834836   -1.033268   -1.749758
  H      2.463918    1.708407    1.251533
  H     -0.477415    1.356365   -2.158414
  H      0.192152    1.189695    2.089074
  H     -3.591210   -0.587699   -0.037213

 Total Charge           Charge          ....    0
 Multiplicity           Mult            ....    1
 Number of Electrons    NEL             ....   96
 Basis Dimension        Dim             ....  192

ORBITAL ENERGIES
----------------

  NO   OCC          E(Eh)            E(eV)
   0   2.0000     -18.788815      -511.2696
   1   2.0000     -18.780248      -511.0365
   2   2.0000     -18.762412      -510.5512
   3   2.0000     -18.756773      -510.3977
   4   2.0000     -18.749543      -510.2010
   5   2.0000     -18.744230      -510.0564
   6   2.0000      -9.982759      -271.6447
   7   2.0000      -9.958883      -270.9950
   8   2.0000      -9.955923      -270.9144
   9   2.0000      -9.944818      -270.6123
  10   2.0000      -9.942586      -270.5515
  11   2.0000      -9.931454      -270.2486
  12   2.0000      -0.982875       -26.7454
  13   2.0000      -0.958429       -26.0802
  14   2.0000      -0.951606       -25.8945
  15   2.0000      -0.933692       -25.4070
  16   2.0000      -0.926133       -25.2014
  17   2.0000      -0.905748       -24.6466
  18   2.0000      -0.704264       -19.1640
  19   2.0000      -0.695770       -18.9329
  20   2.0000      -0.619016       -16.8443
  21   2.0000      -0.598359       -16.2822
  22   2.0000      -0.579815       -15.7776
  23   2.0000      -0.531514       -14.4632
  24   2.0000      -0.504388       -13.7251
  25   2.0000      -0.495748       -13.4900
  26   2.0000      -0.476604       -12.9691
  27   2.0000      -0.464118       -12.6293
  28   2.0000      -0.451220       -12.2783
  29   2.0000      -0.433563       -11.7978
  30   2.0000      -0.432730       -11.7752
  31   2.0000      -0.403750       -10.9866
  32   2.0000      -0.389587       -10.6012
  33   2.0000      -0.380543       -10.3551
  34   2.0000      -0.363812        -9.8998
  35   2.0000      -0.349571        -9.5123
  36   2.0000      -0.340392        -9.2625
  37   2.0000      -0.328776        -8.9465
  38   2.0000      -0.306729        -8.3465
  39   2.0000      -0.302777        -8.2390
  40   2.0000      -0.289677        -7.8825
  41   2.0000      -0.270947        -7.3728
  42   2.0000      -0.258086        -7.0229
  43   2.0000      -0.255609        -6.9555
  44   2.0000      -0.240098        -6.5334
  45   2.0000      -0.227535        -6.1915
  46   2.0000      -0.219965        -5.9855
  47   2.0000      -0.201596        -5.4857
  48   0.0000      -0.000545        -0.0148
  49   0.0000       0.008321         0.2264
  50   0.0000       0.023103         0.6287
  51   0.0000       0.059816         1.6277
  52   0.0000       0.066655         1.8138

MULLIKEN ATOMIC CHARGES
-----------------------
   0 C :    0.027457
   1 C :    0.009790
   2 H :    0.066644
   3 C :    0.069671
   4 H :    0.065397
   5 C :    0.011575
   6 H :    0.066769
   7 C :   -0.027756
   8 H :    0.091807
   9 C :    0.225210
  10 H :    0.076684
  11 O :   -0.301555
  12 O :   -0.403758
  13 O :   -0.406751
  14 O :   -0.416072
  15 O :   -0.430838
  16 O :   -0.431670
  17 H :    0.091947
  18 H :    0.065222
  19 H :    0.317721
  20 H :    0.309713
  21 H :    0.323374
  22 H :    0.298954
  23 H :    0.300466
Sum of atomic charges:   -0.0000000

LOEWDIN ATOMIC CHARGES
----------------------
   0 C :   -0.145792
   1 C :   -0.080360
   2 H :    0.113247
   3 C :   -0.080488
   4 H :    0.111609
   5 C :   -0.082754
   6 H :    0.099277
   7 C :   -0.090054
   8 H :    0.112785
   9 C :    0.002297
  10 H :    0.113693
  11 O :   -0.136950
  12 O :   -0.304998
  13 O :   -0.299561
  14 O :   -0.307365
  15 O :   -0.319861
  16 O :   -0.332586
  17 H :    0.105876
  18 H :    0.103223
  19 H :    0.271840
  20 H :    0.291369
  21 H :    0.298732
  22 H :    0.270985
  23 H :    0.285835

  Mayer bond orders larger than 0.100000
B(  0-C ,  1-C ) :   1.0265 B(  0-C , 16-O ) :   1.0415 B(  0-C , 17-H ) :   0.9134
B(  0-C , 18-H ) :   0.9027 B(  1-C ,  2-H ) :   0.8939 B(  1-C ,  3-C ) :   0.9935
B(  1-C , 11-O ) :   1.0157 B(  3-C ,  4-H ) :   0.8811 B(  3-C ,  5-C ) :   0.9613
B(  3-C , 15-O ) :   1.0505 B(  5-C ,  6-H ) :   0.9035 B(  5-C ,  7-C ) :   0.9845
B(  5-C , 14-O ) :   1.0336 B(  7-C ,  8-H ) :   0.8986 B(  7-C ,  9-C ) :   1.0007
B(  7-C , 13-O ) :   1.0430 B(  9-C , 10-H ) :   0.9046 B(  9-C , 11-O ) :   1.0463
B(  9-C , 12-O ) :   1.1416 B( 12-O , 19-H ) :   0.7993 B( 13-O , 20-H ) :   0.8379
B( 14-O , 21-H ) :   0.8300 B( 15-O , 22-H ) :   0.8155 B( 16-O , 23-H ) :   0.8499

Dispersion correction           -0.026140625
FINAL SINGLE POINT ENERGY      -685.696910378944

DIPOLE MOMENT
-------------

Method             : SCF
Type of density    : Electron Density
Multiplicity       :   1
Irrep              :   0
Energy             :  -685.8303292901600798 Eh
Relativity type    :
Basis              : AO
                                X                 Y                 Z
Electronic contribution:      1.584164650      -0.433902364       1.324434778
Nuclear contribution   :     -1.596874397       1.411082308      -1.530083086
                        -----------------------------------------
Total Dipole Moment    :     -0.012709747       0.977179944      -0.205648308
                        -----------------------------------------
Magnitude (a.u.)       :      0.998665814
Magnitude (Debye)      :      2.538406768

Rotational constants in cm-1:             0.041231             0.028876             0.024854
Rotational constants in MHz :          1236.071865           865.689824           745.099616

                             ****ORCA TERMINATED NORMALLY****
TOTAL RUN TIME: 0 days 0 hours 1 minutes 41 seconds 375 msec
