                         Program Version 6.0.1  -  RELEASE   -
|  1> ! pbe def2-sv(p) def2/J RI DEFGRID1 loosescf d4 GCP(DFT/SV(P)) printgap
|  2> %output
|  3>     printlevel normal
|  4> end
|  5> * xyz 0 1
|  6> C -2.6331259653 -0.6088023115 -0.7600142235
|  7> C -1.8523120464 -0.5706620339 0.5546491271
|  8> C -0.3852014411 -0.3849603623 0.2952739866
|  9> C 0.4791371235 -1.4649801073 0.2212610082
| 10> C 1.82685327 -1.2961232521 -0.0485587775
| 11> C 2.3298728895 -0.024335921 -0.2495173954
| 12> C 1.485062635 1.0691277546 -0.1809938887
| 13> C 0.1336490813 0.8968531683 0.0854084612
| 14> O -0.7171236213 1.9620182804 0.1559505836
| 15> H -2.2764870852 -1.4212696027 -1.3898261657
| 16> H -2.5046767924 0.3274877917 -1.2969304704
| 17> H -3.6932990504 -0.7559921638 -0.5674201221
| 18> H -2.0124370476 -1.501957941 1.1013351502
| 19> H -2.2179172963 0.2594086904 1.1610361926
| 20> H 0.0850708061 -2.4582919585 0.3819536476
| 21> H 2.4804069667 -2.1537707774 -0.1002556917
| 22> H 3.3788447934 0.1225967692 -0.459460195
| 23> H 1.8738136556 2.0679049586 -0.3364930796
| 24> H -0.2218636293 2.7772081946 0.0135436845
| 25> *
| 26>
| 27>                          ****END OF INPUT****

CARTESIAN COORDINATES (ANGSTROEM)
---------------------------------
  C     -2.633126   -0.608802   -0.760014
  C     -1.852312   -0.570662    0.554649
  C     -0.385201   -0.384960    0.295274
  C      0.479137   -1.464980    0.221261
  C      1.826853   -1.296123   -0.048559
  C      2.329873   -0.024336   -0.249517
  C      1.485063    1.069128   -0.180994
  C      0.133649    0.896853    0.085408
  O     -0.717124    1.962018    0.155951
  H     -2.276487   -1.421270   -1.389826
  H     -2.504677    0.327488   -1.296930
  H     -3.693299   -0.755992   -0.567420
  H     -2.012437   -1.501958    1.101335
  H     -2.217917    0.259409    1.161036
  H      0.085071   -2.458292    0.381954
  H      2.480407   -2.153771   -0.100256
  H      3.378845    0.122597   -0.459460
  H      1.873814    2.067905   -0.336493
  H     -0.221864    2.777208    0.013544

 Total Charge           Charge          ....    0
 Multiplicity           Mult            ....    1
 Number of Electrons    NEL             ....   66
 Basis Dimension        Dim             ....  146

ORBITAL ENERGIES
----------------

  NO   OCC          E(Eh)            E(eV)
   0   2.0000     -18.781694      -511.0759
   1   2.0000      -9.947378      -270.6819
   2   2.0000      -9.892581      -269.1908
   3   2.0000      -9.889140      -269.0972
   4   2.0000      -9.888707      -269.0854
   5   2.0000      -9.886688      -269.0305
   6   2.0000      -9.883304      -268.9384
   7   2.0000      -9.881783      -268.8970
   8   2.0000      -9.870483      -268.5895
   9   2.0000      -0.963807       -26.2265
  10   2.0000      -0.771569       -20.9955
  11   2.0000      -0.707076       -19.2405
  12   2.0000      -0.660566       -17.9749
  13   2.0000      -0.643808       -17.5189
  14   2.0000      -0.565038       -15.3755
  15   2.0000      -0.559013       -15.2115
  16   2.0000      -0.513234       -13.9658
  17   2.0000      -0.487383       -13.2624
  18   2.0000      -0.436891       -11.8884
  19   2.0000      -0.425848       -11.5879
  20   2.0000      -0.391013       -10.6400
  21   2.0000      -0.380282       -10.3480
  22   2.0000      -0.374271       -10.1844
  23   2.0000      -0.363381        -9.8881
  24   2.0000      -0.346501        -9.4288
  25   2.0000      -0.325622        -8.8606
  26   2.0000      -0.318375        -8.6634
  27   2.0000      -0.314266        -8.5516
  28   2.0000      -0.295485        -8.0406
  29   2.0000      -0.288066        -7.8387
  30   2.0000      -0.280017        -7.6197
  31   2.0000      -0.219906        -5.9840
  32   2.0000      -0.191435        -5.2092
  33   0.0000      -0.029685        -0.8078
  34   0.0000      -0.015552        -0.4232
  35   0.0000       0.021555         0.5866
  36   0.0000       0.049486         1.3466
  37   0.0000       0.058727         1.5980

MULLIKEN ATOMIC CHARGES
-----------------------
   0 C :   -0.272639
   1 C :   -0.108424
   2 C :   -0.006933
   3 C :   -0.143906
   4 C :   -0.043598
   5 C :   -0.051343
   6 C :   -0.160909
   7 C :    0.177191
   8 O :   -0.337398
   9 H :    0.096643
  10 H :    0.108958
  11 H :    0.102272
  12 H :    0.078235
  13 H :    0.094467
  14 H :    0.035605
  15 H :    0.044632
  16 H :    0.049871
  17 H :    0.020961
  18 H :    0.316313
Sum of atomic charges:    0.0000000

LOEWDIN ATOMIC CHARGES
----------------------
   0 C :   -0.333346
   1 C :   -0.216045
   2 C :   -0.061149
   3 C :   -0.116238
   4 C :   -0.146504
   5 C :   -0.122784
   6 C :   -0.175377
   7 C :    0.024558
   8 O :   -0.235937
   9 H :    0.117027
  10 H :    0.121133
  11 H :    0.117165
  12 H :    0.119349
  13 H :    0.126254
  14 H :    0.121824
  15 H :    0.121567
  16 H :    0.122875
  17 H :    0.118134
  18 H :    0.297494

  Mayer bond orders larger than 0.100000
B(  0-C ,  1-C ) :   1.1486 B(  0-C ,  9-H ) :   0.9549 B(  0-C , 10-H ) :   0.9542
B(  0-C , 11-H ) :   0.9502 B(  1-C ,  2-C ) :   1.0820 B(  1-C , 12-H ) :   0.9055
B(  1-C , 13-H ) :   0.9014 B(  2-C ,  3-C ) :   1.4202 B(  2-C ,  7-C ) :   1.3865
B(  3-C ,  4-C ) :   1.3437 B(  3-C , 14-H ) :   0.9626 B(  4-C ,  5-C ) :   1.3762
B(  4-C , 15-H ) :   0.9670 B(  5-C ,  6-C ) :   1.3595 B(  5-C , 16-H ) :   0.9627
B(  6-C ,  7-C ) :   1.3289 B(  6-C , 17-H ) :   0.9546 B(  7-C ,  8-O ) :   1.1883
B(  8-O , 18-H ) :   0.8418

Dispersion correction           -0.019161478
FINAL SINGLE POINT ENERGY      -385.236431987226

DIPOLE MOMENT
-------------

Method             : SCF
Type of density    : Electron Density
Multiplicity       :   1
Irrep              :   0
Energy             :  -385.2961995033051608 Eh
Relativity type    :
Basis              : AO
                                X                 Y                 Z
Electronic contribution:      5.013200960       2.985928292       1.318510590
Nuclear contribution   :     -4.803304665      -2.538386633      -1.397921619
                        -----------------------------------------
Total Dipole Moment    :      0.209896294       0.447541659      -0.079411030
                        -----------------------------------------
Magnitude (a.u.)       :      0.500655673
Magnitude (Debye)      :      1.272565588

Rotational constants in cm-1:             0.088743             0.048745             0.034132
Rotational constants in MHz :          2660.440467          1461.337125          1023.242314

                             ****ORCA TERMINATED NORMALLY****
TOTAL RUN TIME: 0 days 0 hours 0 minutes 8 seconds 946 msec
