                         Program Version 6.0.0  -   RELEASE  -
|  1> ! r2SCAN-3c DEF2-TZVP FREQ
|  2> * xyzfile 0 1 censo.xyz
|  3>
|  4>                          ****END OF INPUT****

CARTESIAN COORDINATES (ANGSTROEM)
---------------------------------
  C     -2.473712    0.696006    0.000017
  C     -2.473733   -0.695934    0.000013
  C     -1.272506   -1.394835    0.000008
  C     -0.067875   -0.697976    0.000004
  C     -0.067853    0.697974    0.000003
  C     -1.272463    1.394870    0.000010
  Cl     1.430874    1.598353   -0.000001
  Cl     1.430825   -1.598402   -0.000005
  H     -3.408188    1.246373    0.000021
  H     -3.408227   -1.246272    0.000019
  H     -1.262046   -2.478901    0.000007
  H     -1.261970    2.478936    0.000011

 Total Charge           Charge          ....    0
 Multiplicity           Mult            ....    1
 Number of Electrons    NEL             ....   74
 Basis Dimension        Dim             ....  284

ORBITAL ENERGIES
----------------

  NO   OCC          E(Eh)            E(eV)
   0   2.0000    -101.200056     -2753.7935
   1   2.0000    -101.200049     -2753.7933
   2   2.0000     -10.117374      -275.3077
   3   2.0000     -10.116963      -275.2965
   4   2.0000     -10.063877      -273.8520
   5   2.0000     -10.063863      -273.8516
   6   2.0000     -10.059165      -273.7238
   7   2.0000     -10.058734      -273.7121
   8   2.0000      -9.375776      -255.1278
   9   2.0000      -9.375770      -255.1277
  10   2.0000      -7.120926      -193.7702
  11   2.0000      -7.120924      -193.7702
  12   2.0000      -7.110763      -193.4937
  13   2.0000      -7.110762      -193.4937
  14   2.0000      -7.110029      -193.4737
  15   2.0000      -7.110028      -193.4737
  16   2.0000      -0.884191       -24.0601
  17   2.0000      -0.823443       -22.4070
  18   2.0000      -0.810864       -22.0647
  19   2.0000      -0.727771       -19.8037
  20   2.0000      -0.707061       -19.2401
  21   2.0000      -0.600659       -16.3448
  22   2.0000      -0.580246       -15.7893
  23   2.0000      -0.501956       -13.6589
  24   2.0000      -0.461882       -12.5685
  25   2.0000      -0.449632       -12.2351
  26   2.0000      -0.417900       -11.3716
  27   2.0000      -0.417049       -11.3485
  28   2.0000      -0.398182       -10.8351
  29   2.0000      -0.354823        -9.6552
  30   2.0000      -0.351003        -9.5513
  31   2.0000      -0.326204        -8.8765
  32   2.0000      -0.319823        -8.7028
  33   2.0000      -0.302904        -8.2424
  34   2.0000      -0.282823        -7.6960
  35   2.0000      -0.250619        -6.8197
  36   2.0000      -0.235843        -6.4176
  37   0.0000      -0.059127        -1.6089
  38   0.0000      -0.055818        -1.5189
  39   0.0000      -0.029437        -0.8010
  40   0.0000       0.030252         0.8232
  41   0.0000       0.065940         1.7943

MULLIKEN ATOMIC CHARGES
-----------------------
   0 C :   -0.106522
   1 C :   -0.106533
   2 C :   -0.165954
   3 C :    0.109962
   4 C :    0.109971
   5 C :   -0.165956
   6 Cl:   -0.086762
   7 Cl:   -0.086765
   8 H :    0.119405
   9 H :    0.119404
  10 H :    0.129875
  11 H :    0.129874
Sum of atomic charges:    0.0000000

LOEWDIN ATOMIC CHARGES
----------------------
   0 C :   -0.134607
   1 C :   -0.134607
   2 C :   -0.137500
   3 C :   -0.427067
   4 C :   -0.427067
   5 C :   -0.137500
   6 Cl:    0.399618
   7 Cl:    0.399618
   8 H :    0.147960
   9 H :    0.147960
  10 H :    0.151596
  11 H :    0.151596

  Mayer bond orders larger than 0.100000
B(  0-C ,  1-C ) :   1.3859 B(  0-C ,  5-C ) :   1.3981 B(  0-C ,  8-H ) :   0.9683
B(  1-C ,  2-C ) :   1.3981 B(  1-C ,  9-H ) :   0.9683 B(  2-C ,  3-C ) :   1.3620
B(  2-C , 10-H ) :   0.9605 B(  3-C ,  4-C ) :   1.2677 B(  3-C ,  7-Cl) :   1.0633
B(  4-C ,  5-C ) :   1.3620 B(  4-C ,  6-Cl) :   1.0633 B(  5-C , 11-H ) :   0.9605

Dispersion correction           -0.004775196
FINAL SINGLE POINT ENERGY     -1151.368322036166

DIPOLE MOMENT
-------------

Method             : SCF
Type of density    : Electron Density
Multiplicity       :   1
Irrep              :   0
Energy             : -1151.3684173179724439 Eh
Relativity type    :
Basis              : AO
                                X                 Y                 Z
Electronic contribution:     11.611613920      -0.000178769      -0.000054090
Nuclear contribution   :    -12.607011431       0.000193805       0.000058854
                        -----------------------------------------
Total Dipole Moment    :     -0.995397511       0.000015036       0.000004764
                        -----------------------------------------
Magnitude (a.u.)       :      0.995397511
Magnitude (Debye)      :      2.530099403

VIBRATIONAL FREQUENCIES
-----------------------

Scaling factor for frequencies =  1.000000000  (already applied!)

     0:       0.00 cm**-1
     1:       0.00 cm**-1
     2:       0.00 cm**-1
     3:       0.00 cm**-1
     4:       0.00 cm**-1
     5:       0.00 cm**-1
     6:     142.07 cm**-1
     7:     205.07 cm**-1
     8:     239.56 cm**-1
     9:     337.70 cm**-1
    10:     426.60 cm**-1
    11:     447.44 cm**-1
    12:     469.58 cm**-1
    13:     525.29 cm**-1
    14:     668.22 cm**-1
    15:     715.72 cm**-1
    16:     739.35 cm**-1
    17:     755.87 cm**-1
    18:     864.72 cm**-1
    19:     943.00 cm**-1
    20:     967.11 cm**-1
    21:    1039.69 cm**-1
    22:    1053.14 cm**-1
    23:    1123.60 cm**-1
    24:    1147.87 cm**-1
    25:    1184.69 cm**-1
    26:    1273.32 cm**-1
    27:    1332.04 cm**-1
    28:    1458.29 cm**-1
    29:    1478.95 cm**-1
    30:    1603.35 cm**-1
    31:    1603.81 cm**-1
    32:    3171.55 cm**-1
    33:    3182.77 cm**-1
    34:    3192.03 cm**-1
    35:    3196.94 cm**-1

IR SPECTRUM
-----------

 Mode   freq       eps      Int      T**2         TX        TY        TZ
       cm**-1   L/(mol*cm) km/mol    a.u.
----------------------------------------------------------------------------
  6:    142.07   0.000000    0.00  0.000000  ( 0.000000  0.000000 -0.000000)
  7:    205.07   0.000007    0.03  0.000010  ( 0.003209 -0.000000 -0.000000)
  8:    239.56   0.000189    0.95  0.000246  (-0.000001 -0.000002  0.015679)
  9:    337.70   0.000123    0.62  0.000114  (-0.000000 -0.010673 -0.000000)
 10:    426.60   0.000237    1.20  0.000173  (-0.000000 -0.013159 -0.000000)
 11:    447.44   0.000965    4.88  0.000673  (-0.000000 -0.000000 -0.025949)
 12:    469.58   0.001987   10.04  0.001321  ( 0.036339 -0.000001 -0.000000)
 13:    525.29   0.000000    0.00  0.000000  ( 0.000003 -0.000000  0.000000)
 14:    668.22   0.003365   17.01  0.001572  (-0.039644  0.000001  0.000000)
 15:    715.72   0.000000    0.00  0.000000  ( 0.000004  0.000000  0.000000)
 16:    739.35   0.004769   24.10  0.002013  ( 0.000001  0.044866  0.000001)
 17:    755.87   0.012655   63.95  0.005225  ( 0.000001  0.000001 -0.072281)
 18:    864.72   0.000000    0.00  0.000000  (-0.000000 -0.000000  0.000000)
 19:    943.00   0.000364    1.84  0.000120  (-0.000000 -0.000000 -0.010970)
 20:    967.11   0.000000    0.00  0.000000  ( 0.000000  0.000000  0.000000)
 21:   1039.69   0.007130   36.03  0.002140  ( 0.000001  0.046261  0.000000)
 22:   1053.14   0.002934   14.83  0.000869  (-0.029484  0.000000  0.000000)
 23:   1123.60   0.009870   49.88  0.002741  (-0.052358  0.000001  0.000000)
 24:   1147.87   0.000085    0.43  0.000023  ( 0.000000  0.004818  0.000000)
 25:   1184.69   0.000106    0.53  0.000028  (-0.005272  0.000000  0.000000)
 26:   1273.32   0.000618    3.12  0.000151  (-0.000000 -0.012304 -0.000000)
 27:   1332.04   0.000172    0.87  0.000040  ( 0.006347 -0.000000 -0.000000)
 28:   1458.29   0.003267   16.51  0.000699  ( 0.000000  0.026442  0.000000)
 29:   1478.95   0.011873   60.00  0.002505  (-0.050052  0.000001  0.000000)
 30:   1603.35   0.001514    7.65  0.000295  (-0.000002  0.017164  0.000000)
 31:   1603.81   0.000665    3.36  0.000129  (-0.011371 -0.000004  0.000000)
 32:   3171.55   0.000238    1.20  0.000023  (-0.000000 -0.004836 -0.000000)
 33:   3182.77   0.001034    5.23  0.000101  ( 0.010071 -0.000000 -0.000000)
 34:   3192.03   0.000388    1.96  0.000038  (-0.000000 -0.006160 -0.000000)
 35:   3196.94   0.000805    4.07  0.000079  ( 0.008862 -0.000000 -0.000000)

--------------------------
THERMOCHEMISTRY AT 298.15K
--------------------------

Temperature         ...   298.15 K
Pressure            ...     1.00 atm
Total Mass          ...   147.00 AMU
Quasi RRHO          ...     True
Cut-Off Frequency   ...     1.00 cm^-1

Throughout the following assumptions are being made:
  (1) The electronic state is orbitally nondegenerate
  (2) There are no thermally accessible electronically excited states
  (3) Hindered rotations indicated by low frequency modes are not
      treated as such but are treated as vibrations and this may
      cause some error
  (4) All equations used are the standard statistical mechanics
      equations for an ideal gas
  (5) All vibrations are strictly harmonic

freq.     142.07  E(vib)   ...       0.41
freq.     205.07  E(vib)   ...       0.35
freq.     239.56  E(vib)   ...       0.31
freq.     337.70  E(vib)   ...       0.24
freq.     426.60  E(vib)   ...       0.18
freq.     447.44  E(vib)   ...       0.17
freq.     469.58  E(vib)   ...       0.16
freq.     525.29  E(vib)   ...       0.13
freq.     668.22  E(vib)   ...       0.08
freq.     715.72  E(vib)   ...       0.07
freq.     739.35  E(vib)   ...       0.06
freq.     755.87  E(vib)   ...       0.06
freq.     864.72  E(vib)   ...       0.04
freq.     943.00  E(vib)   ...       0.03
freq.     967.11  E(vib)   ...       0.03
freq.    1039.69  E(vib)   ...       0.02
freq.    1053.14  E(vib)   ...       0.02
freq.    1123.60  E(vib)   ...       0.01
freq.    1147.87  E(vib)   ...       0.01
freq.    1184.69  E(vib)   ...       0.01
freq.    1273.32  E(vib)   ...       0.01
freq.    1332.04  E(vib)   ...       0.01
freq.    1458.29  E(vib)   ...       0.00
freq.    1478.95  E(vib)   ...       0.00
freq.    1603.35  E(vib)   ...       0.00
freq.    1603.81  E(vib)   ...       0.00
freq.    3171.55  E(vib)   ...       0.00
freq.    3182.77  E(vib)   ...       0.00
freq.    3192.03  E(vib)   ...       0.00
freq.    3196.94  E(vib)   ...       0.00

------------
INNER ENERGY
------------

The inner energy is: U= E(el) + E(ZPE) + E(vib) + E(rot) + E(trans)
    E(el)   - is the total energy from the electronic structure calculation
              = E(kin-el) + E(nuc-el) + E(el-el) + E(nuc-nuc)
    E(ZPE)  - the the zero temperature vibrational energy from the frequency calculation
    E(vib)  - the the finite temperature correction to E(ZPE) due to population
              of excited vibrational states
    E(rot)  - is the rotational thermal energy
    E(trans)- is the translational thermal energy

Summary of contributions to the inner energy U:
Electronic energy                ...  -1151.36832204 Eh
Zero point energy                ...      0.08085068 Eh      50.73 kcal/mol
Thermal vibrational correction   ...      0.00382519 Eh       2.40 kcal/mol
Thermal rotational correction    ...      0.00141627 Eh       0.89 kcal/mol
Thermal translational correction ...      0.00141627 Eh       0.89 kcal/mol
-----------------------------------------------------------------------
Total thermal energy                  -1151.28081362 Eh

Summary of corrections to the electronic energy:
(perhaps to be used in another calculation)
Total thermal correction                  0.00665773 Eh       4.18 kcal/mol
Non-thermal (ZPE) correction              0.08085068 Eh      50.73 kcal/mol
-----------------------------------------------------------------------
Total correction                          0.08750841 Eh      54.91 kcal/mol

--------
ENTHALPY
--------

The enthalpy is H = U + kB*T
                kB is Boltzmann's constant
Total thermal energy              ...  -1151.28081362 Eh
Thermal Enthalpy correction       ...      0.00094421 Eh       0.59 kcal/mol
-----------------------------------------------------------------------
Total Enthalpy                    ...  -1151.27986941 Eh

Note: Rotational entropy computed according to Herzberg
Infrared and Raman Spectra, Chapter V,1, Van Nostrand Reinhold, 1945
Point Group:  C2v, Symmetry Number:   2
Rotational constants in cm-1:     0.063197     0.047115     0.026992

Vibrational entropy computed according to the QRRHO of S. Grimme
Chem.Eur.J. 2012 18 9955 using a reference frequency of 100.0 cm-1

-------
ENTROPY
-------

The entropy contributions are T*S = T*(S(el)+S(vib)+S(rot)+S(trans))
     S(el)   - electronic entropy
     S(vib)  - vibrational entropy
     S(rot)  - rotational entropy
     S(trans)- translational entropy
The entropies will be listed as multiplied by the temperature to get
units of energy

Electronic entropy                ...      0.00000000 Eh      0.00 kcal/mol
Vibrational entropy               ...      0.00608108 Eh      3.82 kcal/mol
Rotational entropy                ...      0.01330764 Eh      8.35 kcal/mol
Translational entropy             ...      0.01941692 Eh     12.18 kcal/mol
-----------------------------------------------------------------------
Final entropy term                ...      0.03880564 Eh     24.35 kcal/mol

In case the symmetry of your molecule has not been determined correctly
or in case you have a reason to use a different symmetry number we print
out the resulting rotational entropy values for sn=1,12:

 non-linear molecules -----------------------------------
|  sn= 1 | S(rot)=       0.01396210 Eh      8.76 kcal/mol|
|  sn= 2 | S(rot)=       0.01330764 Eh      8.35 kcal/mol|
|  sn= 3 | S(rot)=       0.01292481 Eh      8.11 kcal/mol|
|  sn= 4 | S(rot)=       0.01265319 Eh      7.94 kcal/mol|
|  sn= 5 | S(rot)=       0.01244250 Eh      7.81 kcal/mol|
|  sn= 6 | S(rot)=       0.01227036 Eh      7.70 kcal/mol|
|  sn= 7 | S(rot)=       0.01212481 Eh      7.61 kcal/mol|
|  sn= 8 | S(rot)=       0.01199873 Eh      7.53 kcal/mol|
|  sn= 9 | S(rot)=       0.01188752 Eh      7.46 kcal/mol|
|  sn=10 | S(rot)=       0.01178804 Eh      7.40 kcal/mol|
|  sn=11 | S(rot)=       0.01169805 Eh      7.34 kcal/mol|
|  sn=12 | S(rot)=       0.01161590 Eh      7.29 kcal/mol|
 linear molecules ---------------------------------------
|  Dinfh | S(rot)=       0.00873640 Eh      5.48 kcal/mol|
|  Cinfv | S(rot)=       0.00939086 Eh      5.89 kcal/mol|
 --------------------------------------------------------

-------------------
GIBBS FREE ENERGY
-------------------

The Gibbs free energy is G = H - T*S

Total enthalpy                    ...  -1151.27986941 Eh
Total entropy correction          ...     -0.03880564 Eh    -24.35 kcal/mol
-----------------------------------------------------------------------
Final Gibbs free energy         ...  -1151.31867505 Eh

For completeness - the Gibbs free energy minus the electronic energy
G-E(el)                           ...      0.04964699 Eh     31.15 kcal/mol

                             ****ORCA TERMINATED NORMALLY****
TOTAL RUN TIME: 0 days 0 hours 7 minutes 2 seconds 382 msec
