                         Program Version 6.0.0  -   RELEASE  -
|  1> ! r2SCAN-3c DEF2-TZVP FREQ
|  2> * xyzfile 0 1 vacuum_censo.xyz
|  3>
|  4>                          ****END OF INPUT****

CARTESIAN COORDINATES (ANGSTROEM)
---------------------------------
  C     -2.471881    0.695835    0.000014
  C     -2.471934   -0.695670   -0.000067
  C     -1.270135   -1.391644   -0.000100
  C     -0.062580   -0.698431   -0.000044
  C     -0.062528    0.698417    0.000054
  C     -1.270032    1.391720    0.000077
  Cl     1.428425    1.598100    0.000148
  Cl     1.428304   -1.598227   -0.000111
  H     -3.406587    1.245766    0.000031
  H     -3.406680   -1.245532   -0.000110
  H     -1.253431   -2.475298   -0.000173
  H     -1.253247    2.475373    0.000144

 Total Charge           Charge          ....    0
 Multiplicity           Mult            ....    1
 Number of Electrons    NEL             ....   74
 Basis Dimension        Dim             ....  284

ORBITAL ENERGIES
----------------

  NO   OCC          E(Eh)            E(eV)
   0   2.0000    -101.200337     -2753.8012
   1   2.0000    -101.200331     -2753.8010
   2   2.0000     -10.116654      -275.2881
   3   2.0000     -10.116246      -275.2770
   4   2.0000     -10.063190      -273.8333
   5   2.0000     -10.063176      -273.8330
   6   2.0000     -10.058704      -273.7113
   7   2.0000     -10.058271      -273.6995
   8   2.0000      -9.376164      -255.1384
   9   2.0000      -9.376158      -255.1382
  10   2.0000      -7.121279      -193.7799
  11   2.0000      -7.121277      -193.7798
  12   2.0000      -7.111158      -193.5044
  13   2.0000      -7.111157      -193.5044
  14   2.0000      -7.110414      -193.4842
  15   2.0000      -7.110414      -193.4842
  16   2.0000      -0.885083       -24.0843
  17   2.0000      -0.825113       -22.4525
  18   2.0000      -0.811299       -22.0766
  19   2.0000      -0.727188       -19.7878
  20   2.0000      -0.706741       -19.2314
  21   2.0000      -0.600312       -16.3353
  22   2.0000      -0.580063       -15.7843
  23   2.0000      -0.501929       -13.6582
  24   2.0000      -0.461804       -12.5663
  25   2.0000      -0.449927       -12.2431
  26   2.0000      -0.418632       -11.3916
  27   2.0000      -0.416383       -11.3303
  28   2.0000      -0.398525       -10.8444
  29   2.0000      -0.355360        -9.6698
  30   2.0000      -0.350503        -9.5377
  31   2.0000      -0.327111        -8.9011
  32   2.0000      -0.320123        -8.7110
  33   2.0000      -0.302706        -8.2370
  34   2.0000      -0.283388        -7.7114
  35   2.0000      -0.250095        -6.8054
  36   2.0000      -0.235303        -6.4029
  37   0.0000      -0.058608        -1.5948
  38   0.0000      -0.055626        -1.5137
  39   0.0000      -0.026937        -0.7330
  40   0.0000       0.032113         0.8738
  41   0.0000       0.066344         1.8053

MULLIKEN ATOMIC CHARGES
-----------------------
   0 C :   -0.107206
   1 C :   -0.107235
   2 C :   -0.164918
   3 C :    0.108278
   4 C :    0.108280
   5 C :   -0.164937
   6 Cl:   -0.084207
   7 Cl:   -0.084207
   8 H :    0.119219
   9 H :    0.119215
  10 H :    0.128861
  11 H :    0.128858
Sum of atomic charges:    0.0000000

LOEWDIN ATOMIC CHARGES
----------------------
   0 C :   -0.135021
   1 C :   -0.135021
   2 C :   -0.137875
   3 C :   -0.433309
   4 C :   -0.433307
   5 C :   -0.137875
   6 Cl:    0.406939
   7 Cl:    0.406940
   8 H :    0.147977
   9 H :    0.147977
  10 H :    0.151288
  11 H :    0.151288

  Mayer bond orders larger than 0.100000
B(  0-C ,  1-C ) :   1.3842 B(  0-C ,  5-C ) :   1.3999 B(  0-C ,  8-H ) :   0.9687
B(  1-C ,  2-C ) :   1.3999 B(  1-C ,  9-H ) :   0.9687 B(  2-C ,  3-C ) :   1.3615
B(  2-C , 10-H ) :   0.9607 B(  3-C ,  4-C ) :   1.2674 B(  3-C ,  7-Cl) :   1.0677
B(  4-C ,  5-C ) :   1.3614 B(  4-C ,  6-Cl) :   1.0677 B(  5-C , 11-H ) :   0.9607

Dispersion correction           -0.004778642
FINAL SINGLE POINT ENERGY     -1151.368541136605

DIPOLE MOMENT
-------------

Method             : SCF
Type of density    : Electron Density
Multiplicity       :   1
Irrep              :   0
Energy             : -1151.3686625769560123 Eh
Relativity type    :
Basis              : AO
                                X                 Y                 Z
Electronic contribution:     11.606512879      -0.000434789       0.000141606
Nuclear contribution   :    -12.581653319       0.000470958      -0.000155855
                        -----------------------------------------
Total Dipole Moment    :     -0.975140440       0.000036168      -0.000014250
                        -----------------------------------------
Magnitude (a.u.)       :      0.975140441
Magnitude (Debye)      :      2.478610022

VIBRATIONAL FREQUENCIES
-----------------------

Scaling factor for frequencies =  1.000000000  (already applied!)

     0:       0.00 cm**-1
     1:       0.00 cm**-1
     2:       0.00 cm**-1
     3:       0.00 cm**-1
     4:       0.00 cm**-1
     5:       0.00 cm**-1
     6:     139.05 cm**-1
     7:     204.11 cm**-1
     8:     237.50 cm**-1
     9:     339.26 cm**-1
    10:     429.03 cm**-1
    11:     445.68 cm**-1
    12:     474.01 cm**-1
    13:     524.74 cm**-1
    14:     670.50 cm**-1
    15:     715.54 cm**-1
    16:     744.34 cm**-1
    17:     755.93 cm**-1
    18:     864.54 cm**-1
    19:     942.61 cm**-1
    20:     966.83 cm**-1
    21:    1044.05 cm**-1
    22:    1055.55 cm**-1
    23:    1128.62 cm**-1
    24:    1148.69 cm**-1
    25:    1184.57 cm**-1
    26:    1274.70 cm**-1
    27:    1331.54 cm**-1
    28:    1457.63 cm**-1
    29:    1481.40 cm**-1
    30:    1603.21 cm**-1
    31:    1606.11 cm**-1
    32:    3172.07 cm**-1
    33:    3183.95 cm**-1
    34:    3194.22 cm**-1
    35:    3198.51 cm**-1

IR SPECTRUM
-----------

 Mode   freq       eps      Int      T**2         TX        TY        TZ
       cm**-1   L/(mol*cm) km/mol    a.u.
----------------------------------------------------------------------------
  6:    139.05   0.000000    0.00  0.000000  (-0.000010 -0.000002 -0.000000)
  7:    204.11   0.000007    0.03  0.000010  (-0.003172  0.000000 -0.000000)
  8:    237.50   0.000200    1.01  0.000263  ( 0.000002  0.000002  0.016205)
  9:    339.26   0.000106    0.54  0.000098  (-0.000001 -0.009885 -0.000001)
 10:    429.03   0.000210    1.06  0.000153  ( 0.000001  0.012361  0.000003)
 11:    445.68   0.000976    4.93  0.000683  (-0.000002  0.000015  0.026141)
 12:    474.01   0.001825    9.22  0.001202  (-0.034664  0.000001 -0.000001)
 13:    524.74   0.000000    0.00  0.000000  ( 0.000008  0.000002  0.000000)
 14:    670.50   0.003229   16.32  0.001503  ( 0.038769 -0.000001  0.000000)
 15:    715.54   0.000000    0.00  0.000000  (-0.000007  0.000000 -0.000000)
 16:    744.34   0.004614   23.31  0.001934  (-0.000002 -0.043980  0.000001)
 17:    755.93   0.012599   63.67  0.005201  (-0.000002 -0.000012 -0.072119)
 18:    864.54   0.000000    0.00  0.000000  (-0.000000 -0.000001  0.000001)
 19:    942.61   0.000356    1.80  0.000118  (-0.000001  0.000003  0.010853)
 20:    966.83   0.000000    0.00  0.000000  (-0.000002 -0.000000 -0.000000)
 21:   1044.05   0.007193   36.35  0.002150  ( 0.000002  0.046368  0.000004)
 22:   1055.55   0.002842   14.36  0.000840  (-0.028985  0.000002 -0.000000)
 23:   1128.62   0.010039   50.73  0.002776  ( 0.052686 -0.000002  0.000000)
 24:   1148.69   0.000119    0.60  0.000032  ( 0.000000 -0.005676 -0.000001)
 25:   1184.57   0.000099    0.50  0.000026  ( 0.005103  0.000000  0.000000)
 26:   1274.70   0.000686    3.47  0.000168  (-0.000000 -0.012960 -0.000001)
 27:   1331.54   0.000243    1.23  0.000057  (-0.007548  0.000000 -0.000000)
 28:   1457.63   0.003350   16.93  0.000717  (-0.000002 -0.026780 -0.000002)
 29:   1481.40   0.011972   60.50  0.002522  (-0.050220  0.000002 -0.000001)
 30:   1603.21   0.000696    3.52  0.000136  ( 0.011643 -0.000006  0.000000)
 31:   1606.11   0.001493    7.55  0.000290  ( 0.000005  0.017033  0.000002)
 32:   3172.07   0.000240    1.21  0.000024  (-0.000002  0.004859  0.000000)
 33:   3183.95   0.001151    5.82  0.000113  (-0.010621 -0.000000 -0.000000)
 34:   3194.22   0.000431    2.18  0.000042  (-0.000002  0.006486  0.000000)
 35:   3198.51   0.000672    3.39  0.000066  (-0.008094 -0.000001 -0.000000)

--------------------------
THERMOCHEMISTRY AT 298.15K
--------------------------

Temperature         ...   298.15 K
Pressure            ...     1.00 atm
Total Mass          ...   147.00 AMU
Quasi RRHO          ...     True
Cut-Off Frequency   ...     1.00 cm^-1

Throughout the following assumptions are being made:
  (1) The electronic state is orbitally nondegenerate
  (2) There are no thermally accessible electronically excited states
  (3) Hindered rotations indicated by low frequency modes are not
      treated as such but are treated as vibrations and this may
      cause some error
  (4) All equations used are the standard statistical mechanics
      equations for an ideal gas
  (5) All vibrations are strictly harmonic

freq.     139.05  E(vib)   ...       0.42
freq.     204.11  E(vib)   ...       0.35
freq.     237.50  E(vib)   ...       0.32
freq.     339.26  E(vib)   ...       0.23
freq.     429.03  E(vib)   ...       0.18
freq.     445.68  E(vib)   ...       0.17
freq.     474.01  E(vib)   ...       0.15
freq.     524.74  E(vib)   ...       0.13
freq.     670.50  E(vib)   ...       0.08
freq.     715.54  E(vib)   ...       0.07
freq.     744.34  E(vib)   ...       0.06
freq.     755.93  E(vib)   ...       0.06
freq.     864.54  E(vib)   ...       0.04
freq.     942.61  E(vib)   ...       0.03
freq.     966.83  E(vib)   ...       0.03
freq.    1044.05  E(vib)   ...       0.02
freq.    1055.55  E(vib)   ...       0.02
freq.    1128.62  E(vib)   ...       0.01
freq.    1148.69  E(vib)   ...       0.01
freq.    1184.57  E(vib)   ...       0.01
freq.    1274.70  E(vib)   ...       0.01
freq.    1331.54  E(vib)   ...       0.01
freq.    1457.63  E(vib)   ...       0.00
freq.    1481.40  E(vib)   ...       0.00
freq.    1603.21  E(vib)   ...       0.00
freq.    1606.11  E(vib)   ...       0.00
freq.    3172.07  E(vib)   ...       0.00
freq.    3183.95  E(vib)   ...       0.00
freq.    3194.22  E(vib)   ...       0.00
freq.    3198.51  E(vib)   ...       0.00

------------
INNER ENERGY
------------

The inner energy is: U= E(el) + E(ZPE) + E(vib) + E(rot) + E(trans)
    E(el)   - is the total energy from the electronic structure calculation
              = E(kin-el) + E(nuc-el) + E(el-el) + E(nuc-nuc)
    E(ZPE)  - the the zero temperature vibrational energy from the frequency calculation
    E(vib)  - the the finite temperature correction to E(ZPE) due to population
              of excited vibrational states
    E(rot)  - is the rotational thermal energy
    E(trans)- is the translational thermal energy

Summary of contributions to the inner energy U:
Electronic energy                ...  -1151.36854114 Eh
Zero point energy                ...      0.08091705 Eh      50.78 kcal/mol
Thermal vibrational correction   ...      0.00382537 Eh       2.40 kcal/mol
Thermal rotational correction    ...      0.00141627 Eh       0.89 kcal/mol
Thermal translational correction ...      0.00141627 Eh       0.89 kcal/mol
-----------------------------------------------------------------------
Total thermal energy                  -1151.28096617 Eh

Summary of corrections to the electronic energy:
(perhaps to be used in another calculation)
Total thermal correction                  0.00665792 Eh       4.18 kcal/mol
Non-thermal (ZPE) correction              0.08091705 Eh      50.78 kcal/mol
-----------------------------------------------------------------------
Total correction                          0.08757497 Eh      54.95 kcal/mol

--------
ENTHALPY
--------

The enthalpy is H = U + kB*T
                kB is Boltzmann's constant
Total thermal energy              ...  -1151.28096617 Eh
Thermal Enthalpy correction       ...      0.00094421 Eh       0.59 kcal/mol
-----------------------------------------------------------------------
Total Enthalpy                    ...  -1151.28002196 Eh

Note: Rotational entropy computed according to Herzberg
Infrared and Raman Spectra, Chapter V,1, Van Nostrand Reinhold, 1945
Point Group:  C2v, Symmetry Number:   2
Rotational constants in cm-1:     0.063266     0.047240     0.027045

Vibrational entropy computed according to the QRRHO of S. Grimme
Chem.Eur.J. 2012 18 9955 using a reference frequency of 100.0 cm-1

-------
ENTROPY
-------

The entropy contributions are T*S = T*(S(el)+S(vib)+S(rot)+S(trans))
     S(el)   - electronic entropy
     S(vib)  - vibrational entropy
     S(rot)  - rotational entropy
     S(trans)- translational entropy
The entropies will be listed as multiplied by the temperature to get
units of energy

Electronic entropy                ...      0.00000000 Eh      0.00 kcal/mol
Vibrational entropy               ...      0.00609275 Eh      3.82 kcal/mol
Rotational entropy                ...      0.01330493 Eh      8.35 kcal/mol
Translational entropy             ...      0.01941692 Eh     12.18 kcal/mol
-----------------------------------------------------------------------
Final entropy term                ...      0.03881460 Eh     24.36 kcal/mol

In case the symmetry of your molecule has not been determined correctly
or in case you have a reason to use a different symmetry number we print
out the resulting rotational entropy values for sn=1,12:

 non-linear molecules -----------------------------------
|  sn= 1 | S(rot)=       0.01395939 Eh      8.76 kcal/mol|
|  sn= 2 | S(rot)=       0.01330493 Eh      8.35 kcal/mol|
|  sn= 3 | S(rot)=       0.01292210 Eh      8.11 kcal/mol|
|  sn= 4 | S(rot)=       0.01265048 Eh      7.94 kcal/mol|
|  sn= 5 | S(rot)=       0.01243979 Eh      7.81 kcal/mol|
|  sn= 6 | S(rot)=       0.01226765 Eh      7.70 kcal/mol|
|  sn= 7 | S(rot)=       0.01212210 Eh      7.61 kcal/mol|
|  sn= 8 | S(rot)=       0.01199602 Eh      7.53 kcal/mol|
|  sn= 9 | S(rot)=       0.01188481 Eh      7.46 kcal/mol|
|  sn=10 | S(rot)=       0.01178533 Eh      7.40 kcal/mol|
|  sn=11 | S(rot)=       0.01169534 Eh      7.34 kcal/mol|
|  sn=12 | S(rot)=       0.01161319 Eh      7.29 kcal/mol|
 linear molecules ---------------------------------------
|  Dinfh | S(rot)=       0.00873452 Eh      5.48 kcal/mol|
|  Cinfv | S(rot)=       0.00938898 Eh      5.89 kcal/mol|
 --------------------------------------------------------

-------------------
GIBBS FREE ENERGY
-------------------

The Gibbs free energy is G = H - T*S

Total enthalpy                    ...  -1151.28002196 Eh
Total entropy correction          ...     -0.03881460 Eh    -24.36 kcal/mol
-----------------------------------------------------------------------
Final Gibbs free energy         ...  -1151.31883656 Eh

For completeness - the Gibbs free energy minus the electronic energy
G-E(el)                           ...      0.04970458 Eh     31.19 kcal/mol

                             ****ORCA TERMINATED NORMALLY****
TOTAL RUN TIME: 0 days 0 hours 7 minutes 2 seconds 840 msec
