                         Program Version 6.0.1  -  RELEASE   -
|  1> ! pbe def2-sv(p) def2/J RI DEFGRID1 loosescf d4 GCP(DFT/SV(P)) printgap
|  2> %output
|  3>     printlevel normal
|  4> end
|  5> * xyz 0 1
|  6> C -2.1040997433 -0.8906892041 -0.4077352613
|  7> C -1.2451796163 -0.3237652955 0.7394574395
|  8> H -1.886171991 -0.378158157 1.6310068708
|  9> C -0.7728737885 1.1311864435 0.6145596
| 10> H -1.6132144938 1.7790493833 0.3416533922
| 11> C 0.3585421851 1.3242504987 -0.4211246136
| 12> H 0.8010183043 2.3114052051 -0.2261253639
| 13> C 1.4844910196 0.2934294511 -0.1625001274
| 14> H 2.0556312837 0.1553896617 -1.0873418
| 15> C 1.0001724537 -1.1129808744 0.2690036941
| 16> H 1.7957597126 -1.54049826 0.8977326944
| 17> O -0.1318194791 -1.1443749373 1.0993049032
| 18> O 0.8205487223 -1.9127139249 -0.8757315115
| 19> O 2.3836194148 0.7790439933 0.8051159181
| 20> O -0.0813279054 1.3839290529 -1.7385686605
| 21> O -0.3063249897 1.5519877459 1.8854773461
| 22> O -1.5340997134 -0.8853043205 -1.6877246597
| 23> H -3.0121436984 -0.2866738712 -0.4765457593
| 24> H -2.385668669 -1.9146063565 -0.1237010432
| 25> H 0.7152758049 -2.8332141389 -0.6052844647
| 26> H 1.8911988047 1.2888069174 1.4633606139
| 27> H -0.6664603852 0.6246847709 -1.9333008897
| 28> H -0.0263647179 0.7671179077 2.3759600781
| 29> H -0.6923822626 -1.3851754531 -1.6553284974
| 30> *
| 31>
| 32>                          ****END OF INPUT****

CARTESIAN COORDINATES (ANGSTROEM)
---------------------------------
  C     -2.104100   -0.890689   -0.407735
  C     -1.245180   -0.323765    0.739457
  H     -1.886172   -0.378158    1.631007
  C     -0.772874    1.131186    0.614560
  H     -1.613214    1.779049    0.341653
  C      0.358542    1.324250   -0.421125
  H      0.801018    2.311405   -0.226125
  C      1.484491    0.293429   -0.162500
  H      2.055631    0.155390   -1.087342
  C      1.000172   -1.112981    0.269004
  H      1.795760   -1.540498    0.897733
  O     -0.131819   -1.144375    1.099305
  O      0.820549   -1.912714   -0.875732
  O      2.383619    0.779044    0.805116
  O     -0.081328    1.383929   -1.738569
  O     -0.306325    1.551988    1.885477
  O     -1.534100   -0.885304   -1.687725
  H     -3.012144   -0.286674   -0.476546
  H     -2.385669   -1.914606   -0.123701
  H      0.715276   -2.833214   -0.605284
  H      1.891199    1.288807    1.463361
  H     -0.666460    0.624685   -1.933301
  H     -0.026365    0.767118    2.375960
  H     -0.692382   -1.385175   -1.655328

 Total Charge           Charge          ....    0
 Multiplicity           Mult            ....    1
 Number of Electrons    NEL             ....   96
 Basis Dimension        Dim             ....  192

ORBITAL ENERGIES
----------------

  NO   OCC          E(Eh)            E(eV)
   0   2.0000     -18.802252      -511.6353
   1   2.0000     -18.793108      -511.3865
   2   2.0000     -18.770864      -510.7812
   3   2.0000     -18.769105      -510.7333
   4   2.0000     -18.750586      -510.2294
   5   2.0000     -18.729675      -509.6604
   6   2.0000     -10.002558      -272.1834
   7   2.0000      -9.964784      -271.1555
   8   2.0000      -9.954209      -270.8678
   9   2.0000      -9.952919      -270.8327
  10   2.0000      -9.943411      -270.5740
  11   2.0000      -9.939703      -270.4731
  12   2.0000      -1.008155       -27.4333
  13   2.0000      -0.957185       -26.0463
  14   2.0000      -0.947871       -25.7929
  15   2.0000      -0.935144       -25.4466
  16   2.0000      -0.929342       -25.2887
  17   2.0000      -0.910622       -24.7793
  18   2.0000      -0.715606       -19.4726
  19   2.0000      -0.690426       -18.7875
  20   2.0000      -0.637777       -17.3548
  21   2.0000      -0.599522       -16.3138
  22   2.0000      -0.590809       -16.0767
  23   2.0000      -0.537245       -14.6192
  24   2.0000      -0.509771       -13.8716
  25   2.0000      -0.500659       -13.6236
  26   2.0000      -0.488442       -13.2912
  27   2.0000      -0.463665       -12.6170
  28   2.0000      -0.447830       -12.1861
  29   2.0000      -0.442004       -12.0275
  30   2.0000      -0.426412       -11.6033
  31   2.0000      -0.418401       -11.3853
  32   2.0000      -0.406174       -11.0526
  33   2.0000      -0.382827       -10.4172
  34   2.0000      -0.374198       -10.1824
  35   2.0000      -0.363643        -9.8952
  36   2.0000      -0.348735        -9.4896
  37   2.0000      -0.324497        -8.8300
  38   2.0000      -0.312619        -8.5068
  39   2.0000      -0.307645        -8.3715
  40   2.0000      -0.290904        -7.9159
  41   2.0000      -0.285257        -7.7622
  42   2.0000      -0.272982        -7.4282
  43   2.0000      -0.264089        -7.1862
  44   2.0000      -0.247910        -6.7460
  45   2.0000      -0.233528        -6.3546
  46   2.0000      -0.223560        -6.0834
  47   2.0000      -0.199823        -5.4375
  48   0.0000      -0.002852        -0.0776
  49   0.0000       0.019653         0.5348
  50   0.0000       0.033858         0.9213
  51   0.0000       0.053088         1.4446
  52   0.0000       0.062431         1.6988

MULLIKEN ATOMIC CHARGES
-----------------------
   0 C :    0.039902
   1 C :   -0.032496
   2 H :    0.088290
   3 C :    0.038334
   4 H :    0.081797
   5 C :    0.055896
   6 H :    0.084539
   7 C :    0.037661
   8 H :    0.090403
   9 C :    0.164739
  10 H :    0.083669
  11 O :   -0.318870
  12 O :   -0.405475
  13 O :   -0.420934
  14 O :   -0.415334
  15 O :   -0.418673
  16 O :   -0.438490
  17 H :    0.100399
  18 H :    0.085816
  19 H :    0.317251
  20 H :    0.289502
  21 H :    0.284887
  22 H :    0.302409
  23 H :    0.304775
Sum of atomic charges:    0.0000000

LOEWDIN ATOMIC CHARGES
----------------------
   0 C :   -0.135177
   1 C :   -0.086579
   2 H :    0.125481
   3 C :   -0.071261
   4 H :    0.119675
   5 C :   -0.082463
   6 H :    0.120398
   7 C :   -0.081498
   8 H :    0.126471
   9 C :   -0.013602
  10 H :    0.110259
  11 O :   -0.150930
  12 O :   -0.300515
  13 O :   -0.314658
  14 O :   -0.326850
  15 O :   -0.314572
  16 O :   -0.330068
  17 H :    0.125137
  18 H :    0.107023
  19 H :    0.294737
  20 H :    0.269748
  21 H :    0.264333
  22 H :    0.276229
  23 H :    0.268684

  Mayer bond orders larger than 0.100000
B(  0-C ,  1-C ) :   1.0469 B(  0-C , 16-O ) :   1.0623 B(  0-C , 17-H ) :   0.9182
B(  0-C , 18-H ) :   0.9108 B(  1-C ,  2-H ) :   0.8834 B(  1-C ,  3-C ) :   1.0230
B(  1-C , 11-O ) :   0.9617 B(  3-C ,  4-H ) :   0.8957 B(  3-C ,  5-C ) :   0.9581
B(  3-C , 15-O ) :   1.0381 B(  5-C ,  6-H ) :   0.9010 B(  5-C ,  7-C ) :   0.9641
B(  5-C , 14-O ) :   1.1191 B(  7-C ,  8-H ) :   0.8877 B(  7-C ,  9-C ) :   0.9686
B(  7-C , 13-O ) :   1.0573 B(  9-C , 10-H ) :   0.9014 B(  9-C , 11-O ) :   1.0488
B(  9-C , 12-O ) :   1.0353 B( 12-O , 19-H ) :   0.8314 B( 12-O , 23-H ) :   0.1495
B( 13-O , 20-H ) :   0.8222 B( 14-O , 21-H ) :   0.7710 B( 15-O , 22-H ) :   0.8230
B( 16-O , 21-H ) :   0.1683 B( 16-O , 23-H ) :   0.7554

Dispersion correction           -0.026660377
FINAL SINGLE POINT ENERGY      -685.703048741242

DIPOLE MOMENT
-------------

Method             : SCF
Type of density    : Electron Density
Multiplicity       :   1
Irrep              :   0
Energy             :  -685.8404805823322476 Eh
Relativity type    :
Basis              : AO
                                X                 Y                 Z
Electronic contribution:      2.275298453      -0.088979539       0.258844519
Nuclear contribution   :     -2.819532785      -1.327945782       0.557272039
                        -----------------------------------------
Total Dipole Moment    :     -0.544234332      -1.416925322       0.816116558
                        -----------------------------------------
Magnitude (a.u.)       :      1.723344020
Magnitude (Debye)      :      4.380392384

Rotational constants in cm-1:             0.039208             0.031059             0.028204
Rotational constants in MHz :          1175.438580           931.121320           845.549046

                             ****ORCA TERMINATED NORMALLY****
TOTAL RUN TIME: 0 days 0 hours 0 minutes 10 seconds 629 msec
