                         Program Version 6.0.1  -  RELEASE   -
|  1> ! pbe def2-sv(p) def2/J RI DEFGRID1 loosescf d4 GCP(DFT/SV(P)) printgap
|  2> %output
|  3>     printlevel normal
|  4> end
|  5> * xyz 0 1
|  6> C 2.0832128621 0.0753144825 -0.1181762255
|  7> C 0.7546317163 0.6844802985 0.3196588101
|  8> C -0.4594306587 0.005011442 -0.3297794688
|  9> H -0.3210668194 0.0084367676 -1.4255905564
| 10> C -1.7490088787 0.7448696579 0.0093733039
| 11> O -0.6199768179 -1.3275341536 0.1152441174
| 12> H 2.9115085794 0.6374722039 0.30634777
| 13> H 2.1754388552 0.0970303407 -1.2028046835
| 14> H 2.1766777487 -0.9563837542 0.2175668543
| 15> H 0.7381818887 1.7418063371 0.0505896117
| 16> H 0.6549943784 0.60816843 1.4043464001
| 17> H -2.5943067781 0.219600955 -0.4258925969
| 18> H -1.8810951728 0.7741175135 1.0875625031
| 19> H -1.7185546016 1.7592225797 -0.3780447667
| 20> H 0.1992013366 -1.8067916127 -0.0462698483
| 21> *
| 22>
| 23>                          ****END OF INPUT****

CARTESIAN COORDINATES (ANGSTROEM)
---------------------------------
  C      2.083213    0.075314   -0.118176
  C      0.754632    0.684480    0.319659
  C     -0.459431    0.005011   -0.329779
  H     -0.321067    0.008437   -1.425591
  C     -1.749009    0.744870    0.009373
  O     -0.619977   -1.327534    0.115244
  H      2.911509    0.637472    0.306348
  H      2.175439    0.097030   -1.202805
  H      2.176678   -0.956384    0.217567
  H      0.738182    1.741806    0.050590
  H      0.654994    0.608168    1.404346
  H     -2.594307    0.219601   -0.425893
  H     -1.881095    0.774118    1.087563
  H     -1.718555    1.759223   -0.378045
  H      0.199201   -1.806792   -0.046270

 Total Charge           Charge          ....    0
 Multiplicity           Mult            ....    1
 Number of Electrons    NEL             ....   42
 Basis Dimension        Dim             ....   90

ORBITAL ENERGIES
----------------

  NO   OCC          E(Eh)            E(eV)
   0   2.0000     -18.737394      -509.8704
   1   2.0000      -9.933929      -270.3159
   2   2.0000      -9.883995      -268.9572
   3   2.0000      -9.882752      -268.9234
   4   2.0000      -9.868402      -268.5329
   5   2.0000      -0.917213       -24.9586
   6   2.0000      -0.706205       -19.2168
   7   2.0000      -0.655336       -17.8326
   8   2.0000      -0.563483       -15.3332
   9   2.0000      -0.516895       -14.0654
  10   2.0000      -0.462348       -12.5811
  11   2.0000      -0.413497       -11.2518
  12   2.0000      -0.385608       -10.4929
  13   2.0000      -0.377242       -10.2653
  14   2.0000      -0.340537        -9.2665
  15   2.0000      -0.333693        -9.0802
  16   2.0000      -0.313705        -8.5363
  17   2.0000      -0.310443        -8.4476
  18   2.0000      -0.298738        -8.1291
  19   2.0000      -0.266550        -7.2532
  20   2.0000      -0.210503        -5.7281
  21   0.0000       0.022588         0.6146
  22   0.0000       0.059251         1.6123
  23   0.0000       0.072392         1.9699
  24   0.0000       0.076082         2.0703
  25   0.0000       0.093654         2.5484

MULLIKEN ATOMIC CHARGES
-----------------------
   0 C :   -0.284784
   1 C :   -0.181496
   2 C :    0.001108
   3 H :    0.053520
   4 C :   -0.227734
   5 O :   -0.425868
   6 H :    0.111432
   7 H :    0.101908
   8 H :    0.088885
   9 H :    0.081521
  10 H :    0.087850
  11 H :    0.107768
  12 H :    0.098540
  13 H :    0.094449
  14 H :    0.292901
Sum of atomic charges:    0.0000000

LOEWDIN ATOMIC CHARGES
----------------------
   0 C :   -0.347678
   1 C :   -0.249925
   2 C :   -0.058024
   3 H :    0.091721
   4 C :   -0.339291
   5 O :   -0.332265
   6 H :    0.124946
   7 H :    0.118076
   8 H :    0.109475
   9 H :    0.119151
  10 H :    0.119058
  11 H :    0.124108
  12 H :    0.122117
  13 H :    0.120476
  14 H :    0.278056

  Mayer bond orders larger than 0.100000
B(  0-C ,  1-C ) :   1.1478 B(  0-C ,  6-H ) :   0.9512 B(  0-C ,  7-H ) :   0.9532
B(  0-C ,  8-H ) :   0.9428 B(  1-C ,  2-C ) :   1.0674 B(  1-C ,  9-H ) :   0.9147
B(  1-C , 10-H ) :   0.9138 B(  2-C ,  3-H ) :   0.9054 B(  2-C ,  4-C ) :   1.1230
B(  2-C ,  5-O ) :   1.0597 B(  4-C , 11-H ) :   0.9456 B(  4-C , 12-H ) :   0.9441
B(  4-C , 13-H ) :   0.9467 B(  5-O , 14-H ) :   0.8495

Dispersion correction           -0.009494005
FINAL SINGLE POINT ENERGY      -233.092870215829

DIPOLE MOMENT
-------------

Method             : SCF
Type of density    : Electron Density
Multiplicity       :   1
Irrep              :   0
Energy             :  -233.1526366602986400 Eh
Relativity type    :
Basis              : AO
                                X                 Y                 Z
Electronic contribution:     -1.645108817      -2.681272056       0.181638224
Nuclear contribution   :      2.187021542       2.872357757      -0.384990844
                        -----------------------------------------
Total Dipole Moment    :      0.541912726       0.191085701      -0.203352620
                        -----------------------------------------
Magnitude (a.u.)       :      0.609537067
Magnitude (Debye)      :      1.549320097

Rotational constants in cm-1:             0.270037             0.114661             0.089026
Rotational constants in MHz :          8095.509549          3437.438892          2668.926825

                             ****ORCA TERMINATED NORMALLY****
TOTAL RUN TIME: 0 days 0 hours 0 minutes 3 seconds 806 msec
