                         Program Version 6.0.1  -  RELEASE   -
|  1> ! pbe def2-sv(p) def2/J RI DEFGRID1 loosescf d4 GCP(DFT/SV(P)) printgap
|  2> %output
|  3>     printlevel normal
|  4> end
|  5> * xyz 0 1
|  6> C -1.533104987 0.9246189821 0.2317072377
|  7> C -1.3228101425 -0.5139671638 -0.2216345149
|  8> C 0.08251964 -1.0140908537 -0.3947577509
|  9> C 1.2650805382 -0.4761258526 -0.1338260231
| 10> C 1.6032658492 0.8681060696 0.4364396098
| 11> H -2.5998207118 1.1150013148 0.3401505163
| 12> H -1.1419735316 1.6246558051 -0.5014884765
| 13> H -1.0575185497 1.1075853369 1.1902244478
| 14> H -1.8119079598 -1.1835564435 0.4959970246
| 15> H -1.8389778017 -0.6588554702 -1.1773425378
| 16> H 0.0885552044 -2.0221713772 -0.7973822648
| 17> H 2.1319172825 -1.0928709098 -0.3401834641
| 18> H 2.6615973489 1.0739843511 0.2931326733
| 19> H 1.4017517157 0.891217888 1.5076014406
| 20> H 1.0348607479 1.6649339697 -0.0326757421
| 21> *
| 22>
| 23>                          ****END OF INPUT****

CARTESIAN COORDINATES (ANGSTROEM)
---------------------------------
  C     -1.533105    0.924619    0.231707
  C     -1.322810   -0.513967   -0.221635
  C      0.082520   -1.014091   -0.394758
  C      1.265081   -0.476126   -0.133826
  C      1.603266    0.868106    0.436440
  H     -2.599821    1.115001    0.340151
  H     -1.141974    1.624656   -0.501488
  H     -1.057519    1.107585    1.190224
  H     -1.811908   -1.183556    0.495997
  H     -1.838978   -0.658855   -1.177343
  H      0.088555   -2.022171   -0.797382
  H      2.131917   -1.092871   -0.340183
  H      2.661597    1.073984    0.293133
  H      1.401752    0.891218    1.507601
  H      1.034861    1.664934   -0.032676

 Total Charge           Charge          ....    0
 Multiplicity           Mult            ....    1
 Number of Electrons    NEL             ....   40
 Basis Dimension        Dim             ....   90

ORBITAL ENERGIES
----------------

  NO   OCC          E(Eh)            E(eV)
   0   2.0000      -9.888238      -269.0726
   1   2.0000      -9.879589      -268.8373
   2   2.0000      -9.878936      -268.8195
   3   2.0000      -9.874421      -268.6967
   4   2.0000      -9.873715      -268.6774
   5   2.0000      -0.720092       -19.5947
   6   2.0000      -0.669175       -18.2092
   7   2.0000      -0.613566       -16.6960
   8   2.0000      -0.549329       -14.9480
   9   2.0000      -0.458589       -12.4788
  10   2.0000      -0.419535       -11.4161
  11   2.0000      -0.402008       -10.9392
  12   2.0000      -0.371297       -10.1035
  13   2.0000      -0.361027        -9.8240
  14   2.0000      -0.343531        -9.3480
  15   2.0000      -0.334707        -9.1078
  16   2.0000      -0.312448        -8.5021
  17   2.0000      -0.293690        -7.9917
  18   2.0000      -0.273160        -7.4331
  19   2.0000      -0.206663        -5.6236
  20   0.0000      -0.004578        -0.1246
  21   0.0000       0.036866         1.0032
  22   0.0000       0.062221         1.6931
  23   0.0000       0.073478         1.9994
  24   0.0000       0.088808         2.4166

MULLIKEN ATOMIC CHARGES
-----------------------
   0 C :   -0.282888
   1 C :   -0.141488
   2 C :   -0.133936
   3 C :   -0.178632
   4 C :   -0.230073
   5 H :    0.098512
   6 H :    0.113172
   7 H :    0.109623
   8 H :    0.095892
   9 H :    0.092155
  10 H :    0.061382
  11 H :    0.064263
  12 H :    0.098278
  13 H :    0.119015
  14 H :    0.114725
Sum of atomic charges:   -0.0000000

LOEWDIN ATOMIC CHARGES
----------------------
   0 C :   -0.341592
   1 C :   -0.232128
   2 C :   -0.150971
   3 C :   -0.162554
   4 C :   -0.343795
   5 H :    0.120044
   6 H :    0.119620
   7 H :    0.119992
   8 H :    0.127204
   9 H :    0.125234
  10 H :    0.118542
  11 H :    0.119214
  12 H :    0.123148
  13 H :    0.130270
  14 H :    0.127772

  Mayer bond orders larger than 0.100000
B(  0-C ,  1-C ) :   1.1666 B(  0-C ,  5-H ) :   0.9434 B(  0-C ,  6-H ) :   0.9493
B(  0-C ,  7-H ) :   0.9489 B(  1-C ,  2-C ) :   1.0889 B(  1-C ,  8-H ) :   0.9071
B(  1-C ,  9-H ) :   0.9109 B(  2-C ,  3-C ) :   2.0394 B(  2-C , 10-H ) :   0.9152
B(  3-C ,  4-C ) :   1.1086 B(  3-C , 11-H ) :   0.9188 B(  4-C , 12-H ) :   0.9406
B(  4-C , 13-H ) :   0.9345 B(  4-C , 14-H ) :   0.9381

Dispersion correction           -0.010260505
FINAL SINGLE POINT ENERGY      -196.025105477116

DIPOLE MOMENT
-------------

Method             : SCF
Type of density    : Electron Density
Multiplicity       :   1
Irrep              :   0
Energy             :  -196.0730164561204845 Eh
Relativity type    :
Basis              : AO
                                X                 Y                 Z
Electronic contribution:      0.958703575      -2.295622056      -0.865829196
Nuclear contribution   :     -1.061546729       2.364099996       0.917554991
                        -----------------------------------------
Total Dipole Moment    :     -0.102843155       0.068477940       0.051725795
                        -----------------------------------------
Magnitude (a.u.)       :      0.133945887
Magnitude (Debye)      :      0.340463387

Rotational constants in cm-1:             0.253899             0.124510             0.087676
Rotational constants in MHz :          7611.706921          3732.713693          2628.457556

                             ****ORCA TERMINATED NORMALLY****
TOTAL RUN TIME: 0 days 0 hours 0 minutes 44 seconds 142 msec
