                         Program Version 6.0.0  -   RELEASE  -
|  1> ! r2SCAN-3c DEF2-TZVP FREQ
|  2> * xyzfile 0 1 censo.xyz
|  3>
|  4>                          ****END OF INPUT****

CARTESIAN COORDINATES (ANGSTROEM)
---------------------------------
  C     -0.244985    0.002520    0.009988
  N      1.377269   -0.016888   -0.250704
  O      1.885984   -1.109132   -0.305132
  O      1.911110    1.063557   -0.302451
  Cl    -0.908345    1.461873   -0.710211
  Cl    -0.941723   -1.449757   -0.692207
  Cl    -0.396163    0.015101    1.779036

 Total Charge           Charge          ....    0
 Multiplicity           Mult            ....    1
 Number of Electrons    NEL             ....   80
 Basis Dimension        Dim             ....  235

ORBITAL ENERGIES
----------------

  NO   OCC          E(Eh)            E(eV)
   0   2.0000    -101.240111     -2754.8835
   1   2.0000    -101.239083     -2754.8555
   2   2.0000    -101.239024     -2754.8539
   3   2.0000     -19.029927      -517.8306
   4   2.0000     -19.029176      -517.8102
   5   2.0000     -14.427791      -392.6002
   6   2.0000     -10.278918      -279.7036
   7   2.0000      -9.416085      -256.2247
   8   2.0000      -9.415088      -256.1976
   9   2.0000      -9.415032      -256.1961
  10   2.0000      -7.161877      -194.8846
  11   2.0000      -7.160757      -194.8541
  12   2.0000      -7.160704      -194.8527
  13   2.0000      -7.150471      -194.5742
  14   2.0000      -7.150267      -194.5687
  15   2.0000      -7.149524      -194.5484
  16   2.0000      -7.149470      -194.5470
  17   2.0000      -7.149343      -194.5435
  18   2.0000      -7.149284      -194.5419
  19   2.0000      -1.238064       -33.6894
  20   2.0000      -1.072634       -29.1879
  21   2.0000      -0.942152       -25.6373
  22   2.0000      -0.833813       -22.6892
  23   2.0000      -0.832729       -22.6597
  24   2.0000      -0.715439       -19.4681
  25   2.0000      -0.592888       -16.1333
  26   2.0000      -0.549137       -14.9428
  27   2.0000      -0.545034       -14.8311
  28   2.0000      -0.519784       -14.1441
  29   2.0000      -0.480510       -13.0753
  30   2.0000      -0.475053       -12.9268
  31   2.0000      -0.373696       -10.1688
  32   2.0000      -0.358648        -9.7593
  33   2.0000      -0.352857        -9.6017
  34   2.0000      -0.335720        -9.1354
  35   2.0000      -0.328463        -8.9379
  36   2.0000      -0.326389        -8.8815
  37   2.0000      -0.308248        -8.3879
  38   2.0000      -0.299030        -8.1370
  39   2.0000      -0.290773        -7.9123
  40   0.0000      -0.133798        -3.6408
  41   0.0000      -0.091487        -2.4895
  42   0.0000      -0.037435        -1.0186
  43   0.0000      -0.029545        -0.8040
  44   0.0000      -0.026829        -0.7301

MULLIKEN ATOMIC CHARGES
-----------------------
   0 C :    0.123734
   1 N :    0.454785
   2 O :   -0.271642
   3 O :   -0.271295
   4 Cl:   -0.004708
   5 Cl:   -0.004394
   6 Cl:   -0.026479
Sum of atomic charges:    0.0000000

LOEWDIN ATOMIC CHARGES
----------------------
   0 C :   -1.123123
   1 N :   -0.122052
   2 O :    0.023747
   3 O :    0.024246
   4 Cl:    0.407121
   5 Cl:    0.407443
   6 Cl:    0.382618

  Mayer bond orders larger than 0.100000
B(  0-C ,  1-N ) :   0.7806 B(  0-C ,  4-Cl) :   1.1697 B(  0-C ,  5-Cl) :   1.1703
B(  0-C ,  6-Cl) :   1.1306 B(  1-N ,  2-O ) :   1.6164 B(  1-N ,  3-O ) :   1.6172
B(  2-O ,  3-O ) :   0.2454

Dispersion correction           -0.002886890
FINAL SINGLE POINT ENERGY     -1623.716303965667

DIPOLE MOMENT
-------------

Method             : SCF
Type of density    : Electron Density
Multiplicity       :   1
Irrep              :   0
Energy             : -1623.7268311280708986 Eh
Relativity type    :
Basis              : AO
                                X                 Y                 Z
Electronic contribution:     -3.719972736       0.045495315       0.569428944
Nuclear contribution   :      3.017041262      -0.036581784      -0.510041130
                        -----------------------------------------
Total Dipole Moment    :     -0.702931474       0.008913531       0.059387813
                        -----------------------------------------
Magnitude (a.u.)       :      0.705492042
Magnitude (Debye)      :      1.793218260

VIBRATIONAL FREQUENCIES
-----------------------

Scaling factor for frequencies =  1.000000000  (already applied!)

     0:       0.00 cm**-1
     1:       0.00 cm**-1
     2:       0.00 cm**-1
     3:       0.00 cm**-1
     4:       0.00 cm**-1
     5:       0.00 cm**-1
     6:      54.94 cm**-1
     7:     185.87 cm**-1
     8:     203.41 cm**-1
     9:     276.04 cm**-1
    10:     280.91 cm**-1
    11:     285.68 cm**-1
    12:     414.96 cm**-1
    13:     427.75 cm**-1
    14:     656.28 cm**-1
    15:     663.18 cm**-1
    16:     817.13 cm**-1
    17:     837.66 cm**-1
    18:     839.47 cm**-1
    19:    1344.01 cm**-1
    20:    1667.84 cm**-1

IR SPECTRUM
-----------

 Mode   freq       eps      Int      T**2         TX        TY        TZ
       cm**-1   L/(mol*cm) km/mol    a.u.
----------------------------------------------------------------------------
  6:     54.94   0.000026    0.13  0.000150  (-0.000101 -0.012251  0.000372)
  7:    185.87   0.000246    1.24  0.000413  ( 0.006675  0.000021  0.019199)
  8:    203.41   0.000031    0.16  0.000048  ( 0.000018  0.006909 -0.000213)
  9:    276.04   0.000001    0.00  0.000001  (-0.000346 -0.000004 -0.000922)
 10:    280.91   0.000001    0.01  0.000002  ( 0.000110 -0.001235  0.000056)
 11:    285.68   0.000018    0.09  0.000020  ( 0.000437 -0.000025 -0.004398)
 12:    414.96   0.000103    0.52  0.000077  (-0.007256  0.000065  0.004970)
 13:    427.75   0.001023    5.17  0.000746  (-0.000260 -0.027317 -0.000004)
 14:    656.28   0.009873   49.89  0.004694  ( 0.020444 -0.000150 -0.065395)
 15:    663.18   0.014110   71.31  0.006640  (-0.043037  0.000532 -0.069191)
 16:    817.13   0.022846  115.45  0.008725  ( 0.028012 -0.000148  0.089108)
 17:    837.66   0.012347   62.40  0.004600  (-0.066151  0.000279  0.014954)
 18:    839.47   0.036456  184.24  0.013552  ( 0.001220  0.116408 -0.000068)
 19:   1344.01   0.032400  163.74  0.007523  (-0.085423  0.000919  0.014998)
 20:   1667.84   0.048247  243.82  0.009027  (-0.000918 -0.095007 -0.000153)

--------------------------
THERMOCHEMISTRY AT 298.15K
--------------------------

Temperature         ...   298.15 K
Pressure            ...     1.00 atm
Total Mass          ...   164.38 AMU
Quasi RRHO          ...     True
Cut-Off Frequency   ...     1.00 cm^-1

Throughout the following assumptions are being made:
  (1) The electronic state is orbitally nondegenerate
  (2) There are no thermally accessible electronically excited states
  (3) Hindered rotations indicated by low frequency modes are not
      treated as such but are treated as vibrations and this may
      cause some error
  (4) All equations used are the standard statistical mechanics
      equations for an ideal gas
  (5) All vibrations are strictly harmonic

freq.      54.94  E(vib)   ...       0.52
freq.     185.87  E(vib)   ...       0.37
freq.     203.41  E(vib)   ...       0.35
freq.     276.04  E(vib)   ...       0.28
freq.     280.91  E(vib)   ...       0.28
freq.     285.68  E(vib)   ...       0.28
freq.     414.96  E(vib)   ...       0.19
freq.     427.75  E(vib)   ...       0.18
freq.     656.28  E(vib)   ...       0.08
freq.     663.18  E(vib)   ...       0.08
freq.     817.13  E(vib)   ...       0.05
freq.     837.66  E(vib)   ...       0.04
freq.     839.47  E(vib)   ...       0.04
freq.    1344.01  E(vib)   ...       0.01
freq.    1667.84  E(vib)   ...       0.00

------------
INNER ENERGY
------------

The inner energy is: U= E(el) + E(ZPE) + E(vib) + E(rot) + E(trans)
    E(el)   - is the total energy from the electronic structure calculation
              = E(kin-el) + E(nuc-el) + E(el-el) + E(nuc-nuc)
    E(ZPE)  - the the zero temperature vibrational energy from the frequency calculation
    E(vib)  - the the finite temperature correction to E(ZPE) due to population
              of excited vibrational states
    E(rot)  - is the rotational thermal energy
    E(trans)- is the translational thermal energy

Summary of contributions to the inner energy U:
Electronic energy                ...  -1623.71630397 Eh
Zero point energy                ...      0.02040124 Eh      12.80 kcal/mol
Thermal vibrational correction   ...      0.00435693 Eh       2.73 kcal/mol
Thermal rotational correction    ...      0.00141627 Eh       0.89 kcal/mol
Thermal translational correction ...      0.00141627 Eh       0.89 kcal/mol
-----------------------------------------------------------------------
Total thermal energy                  -1623.68871325 Eh

Summary of corrections to the electronic energy:
(perhaps to be used in another calculation)
Total thermal correction                  0.00718948 Eh       4.51 kcal/mol
Non-thermal (ZPE) correction              0.02040124 Eh      12.80 kcal/mol
-----------------------------------------------------------------------
Total correction                          0.02759071 Eh      17.31 kcal/mol

--------
ENTHALPY
--------

The enthalpy is H = U + kB*T
                kB is Boltzmann's constant
Total thermal energy              ...  -1623.68871325 Eh
Thermal Enthalpy correction       ...      0.00094421 Eh       0.59 kcal/mol
-----------------------------------------------------------------------
Total Enthalpy                    ...  -1623.68776904 Eh

Note: Only C1 symmetry has been detected, increase convergence thresholds
      if your molecule has a higher symmetry. Symmetry factor of 1.0 is
      used for the rotational entropy correction.

Note: Rotational entropy computed according to Herzberg
Infrared and Raman Spectra, Chapter V,1, Van Nostrand Reinhold, 1945
Point Group:  C1, Symmetry Number:   1
Rotational constants in cm-1:     0.049744     0.046858     0.042461

Vibrational entropy computed according to the QRRHO of S. Grimme
Chem.Eur.J. 2012 18 9955 using a reference frequency of 100.0 cm-1

-------
ENTROPY
-------

The entropy contributions are T*S = T*(S(el)+S(vib)+S(rot)+S(trans))
     S(el)   - electronic entropy
     S(vib)  - vibrational entropy
     S(rot)  - rotational entropy
     S(trans)- translational entropy
The entropies will be listed as multiplied by the temperature to get
units of energy

Electronic entropy                ...      0.00000000 Eh      0.00 kcal/mol
Vibrational entropy               ...      0.00740866 Eh      4.65 kcal/mol
Rotational entropy                ...      0.01386380 Eh      8.70 kcal/mol
Translational entropy             ...      0.01957510 Eh     12.28 kcal/mol
-----------------------------------------------------------------------
Final entropy term                ...      0.04084757 Eh     25.63 kcal/mol

In case the symmetry of your molecule has not been determined correctly
or in case you have a reason to use a different symmetry number we print
out the resulting rotational entropy values for sn=1,12:

 non-linear molecules -----------------------------------
|  sn= 1 | S(rot)=       0.01386380 Eh      8.70 kcal/mol|
|  sn= 2 | S(rot)=       0.01320935 Eh      8.29 kcal/mol|
|  sn= 3 | S(rot)=       0.01282652 Eh      8.05 kcal/mol|
|  sn= 4 | S(rot)=       0.01255489 Eh      7.88 kcal/mol|
|  sn= 5 | S(rot)=       0.01234420 Eh      7.75 kcal/mol|
|  sn= 6 | S(rot)=       0.01217206 Eh      7.64 kcal/mol|
|  sn= 7 | S(rot)=       0.01202651 Eh      7.55 kcal/mol|
|  sn= 8 | S(rot)=       0.01190044 Eh      7.47 kcal/mol|
|  sn= 9 | S(rot)=       0.01178923 Eh      7.40 kcal/mol|
|  sn=10 | S(rot)=       0.01168975 Eh      7.34 kcal/mol|
|  sn=11 | S(rot)=       0.01159976 Eh      7.28 kcal/mol|
|  sn=12 | S(rot)=       0.01151760 Eh      7.23 kcal/mol|
 linear molecules ---------------------------------------
|  Dinfh | S(rot)=       0.00830863 Eh      5.21 kcal/mol|
|  Cinfv | S(rot)=       0.00896309 Eh      5.62 kcal/mol|
 --------------------------------------------------------

-------------------
GIBBS FREE ENERGY
-------------------

The Gibbs free energy is G = H - T*S

Total enthalpy                    ...  -1623.68776904 Eh
Total entropy correction          ...     -0.04084757 Eh    -25.63 kcal/mol
-----------------------------------------------------------------------
Final Gibbs free energy         ...  -1623.72861661 Eh

For completeness - the Gibbs free energy minus the electronic energy
G-E(el)                           ...     -0.01231265 Eh     -7.73 kcal/mol

                             ****ORCA TERMINATED NORMALLY****
TOTAL RUN TIME: 0 days 0 hours 3 minutes 15 seconds 422 msec
