                         Program Version 6.0.0  -   RELEASE  -
|  1> ! r2SCAN-3c DEF2-TZVP FREQ
|  2> * xyzfile 0 1 vacuum_censo.xyz
|  3>
|  4>                          ****END OF INPUT****

CARTESIAN COORDINATES (ANGSTROEM)
---------------------------------
  C      0.239020    0.020816    0.030184
  N     -1.392103    0.011142   -0.216163
  O     -1.866430    0.978977   -0.752646
  O     -1.941278   -0.989757    0.172056
  Cl     0.871295   -1.353861   -0.889616
  Cl     0.905299    1.541873   -0.535328
  Cl     0.473906   -0.190742    1.770618

 Total Charge           Charge          ....    0
 Multiplicity           Mult            ....    1
 Number of Electrons    NEL             ....   80
 Basis Dimension        Dim             ....  235

ORBITAL ENERGIES
----------------

  NO   OCC          E(Eh)            E(eV)
   0   2.0000    -101.238649     -2754.8437
   1   2.0000    -101.238610     -2754.8426
   2   2.0000    -101.238325     -2754.8349
   3   2.0000     -19.031404      -517.8708
   4   2.0000     -19.027890      -517.7752
   5   2.0000     -14.429100      -392.6358
   6   2.0000     -10.278384      -279.6890
   7   2.0000      -9.414739      -256.1881
   8   2.0000      -9.414705      -256.1872
   9   2.0000      -9.414464      -256.1806
  10   2.0000      -7.160491      -194.8469
  11   2.0000      -7.160453      -194.8458
  12   2.0000      -7.160059      -194.8351
  13   2.0000      -7.149156      -194.5384
  14   2.0000      -7.149124      -194.5375
  15   2.0000      -7.148915      -194.5319
  16   2.0000      -7.148884      -194.5310
  17   2.0000      -7.148841      -194.5298
  18   2.0000      -7.148820      -194.5293
  19   2.0000      -1.239101       -33.7177
  20   2.0000      -1.074714       -29.2445
  21   2.0000      -0.940684       -25.5973
  22   2.0000      -0.832764       -22.6607
  23   2.0000      -0.832008       -22.6401
  24   2.0000      -0.713656       -19.4196
  25   2.0000      -0.592956       -16.1352
  26   2.0000      -0.549144       -14.9430
  27   2.0000      -0.545671       -14.8485
  28   2.0000      -0.519974       -14.1492
  29   2.0000      -0.479967       -13.0606
  30   2.0000      -0.474726       -12.9179
  31   2.0000      -0.373598       -10.1661
  32   2.0000      -0.357057        -9.7160
  33   2.0000      -0.354422        -9.6443
  34   2.0000      -0.335424        -9.1274
  35   2.0000      -0.330568        -8.9952
  36   2.0000      -0.323049        -8.7906
  37   2.0000      -0.306931        -8.3520
  38   2.0000      -0.298170        -8.1136
  39   2.0000      -0.292888        -7.9699
  40   0.0000      -0.133324        -3.6279
  41   0.0000      -0.091702        -2.4953
  42   0.0000      -0.037342        -1.0161
  43   0.0000      -0.028810        -0.7839
  44   0.0000      -0.028467        -0.7746

MULLIKEN ATOMIC CHARGES
-----------------------
   0 C :    0.124115
   1 N :    0.455093
   2 O :   -0.261538
   3 O :   -0.278717
   4 Cl:   -0.021160
   5 Cl:    0.001512
   6 Cl:   -0.019305
Sum of atomic charges:    0.0000000

LOEWDIN ATOMIC CHARGES
----------------------
   0 C :   -1.119271
   1 N :   -0.122968
   2 O :    0.028402
   3 O :    0.023874
   4 Cl:    0.387746
   5 Cl:    0.412119
   6 Cl:    0.390098

  Mayer bond orders larger than 0.100000
B(  0-C ,  1-N ) :   0.7772 B(  0-C ,  4-Cl) :   1.1430 B(  0-C ,  5-Cl) :   1.1819
B(  0-C ,  6-Cl) :   1.1463 B(  1-N ,  2-O ) :   1.6117 B(  1-N ,  3-O ) :   1.6264
B(  2-O ,  3-O ) :   0.2426

Dispersion correction           -0.002885785
FINAL SINGLE POINT ENERGY     -1623.716335555717

DIPOLE MOMENT
-------------

Method             : SCF
Type of density    : Electron Density
Multiplicity       :   1
Irrep              :   0
Energy             : -1623.7267878557395306 Eh
Relativity type    :
Basis              : AO
                                X                 Y                 Z
Electronic contribution:      3.705642892       0.045868096       0.551674525
Nuclear contribution   :     -3.030243240       0.006888794      -0.466431921
                        -----------------------------------------
Total Dipole Moment    :      0.675399652       0.052756890       0.085242603
                        -----------------------------------------
Magnitude (a.u.)       :      0.682798859
Magnitude (Debye)      :      1.735536773

VIBRATIONAL FREQUENCIES
-----------------------

Scaling factor for frequencies =  1.000000000  (already applied!)

     0:       0.00 cm**-1
     1:       0.00 cm**-1
     2:       0.00 cm**-1
     3:       0.00 cm**-1
     4:       0.00 cm**-1
     5:       0.00 cm**-1
     6:      58.27 cm**-1
     7:     193.68 cm**-1
     8:     196.23 cm**-1
     9:     272.94 cm**-1
    10:     279.57 cm**-1
    11:     285.16 cm**-1
    12:     412.56 cm**-1
    13:     425.62 cm**-1
    14:     655.01 cm**-1
    15:     656.65 cm**-1
    16:     817.39 cm**-1
    17:     831.72 cm**-1
    18:     834.58 cm**-1
    19:    1344.86 cm**-1
    20:    1676.66 cm**-1

IR SPECTRUM
-----------

 Mode   freq       eps      Int      T**2         TX        TY        TZ
       cm**-1   L/(mol*cm) km/mol    a.u.
----------------------------------------------------------------------------
  6:     58.27   0.000038    0.19  0.000201  ( 0.001921 -0.005226 -0.013046)
  7:    193.68   0.000210    1.06  0.000339  (-0.001391  0.009957  0.015428)
  8:    196.23   0.000055    0.28  0.000087  ( 0.003022  0.003822 -0.007952)
  9:    272.94   0.000001    0.00  0.000001  ( 0.000391  0.000816 -0.000444)
 10:    279.57   0.000011    0.05  0.000012  (-0.003150  0.000933 -0.001038)
 11:    285.16   0.000012    0.06  0.000013  ( 0.000597 -0.001490 -0.003261)
 12:    412.56   0.000126    0.64  0.000095  (-0.008567  0.003847 -0.002641)
 13:    425.62   0.001058    5.35  0.000776  (-0.000855 -0.025240  0.011748)
 14:    655.01   0.005872   29.68  0.002798  (-0.044481  0.010285  0.026709)
 15:    656.65   0.017556   88.72  0.008343  (-0.003495 -0.040182 -0.081953)
 16:    817.39   0.023127  116.87  0.008829  ( 0.012482 -0.043807 -0.082186)
 17:    831.72   0.013394   67.69  0.005025  ( 0.070007  0.007340  0.008397)
 18:    834.58   0.036211  182.99  0.013540  (-0.010336 -0.103681  0.051799)
 19:   1344.86   0.033311  168.34  0.007729  ( 0.086996  0.001315  0.012630)
 20:   1676.66   0.048779  246.51  0.009079  ( 0.000921  0.086112 -0.040776)

--------------------------
THERMOCHEMISTRY AT 298.15K
--------------------------

Temperature         ...   298.15 K
Pressure            ...     1.00 atm
Total Mass          ...   164.38 AMU
Quasi RRHO          ...     True
Cut-Off Frequency   ...     1.00 cm^-1

Throughout the following assumptions are being made:
  (1) The electronic state is orbitally nondegenerate
  (2) There are no thermally accessible electronically excited states
  (3) Hindered rotations indicated by low frequency modes are not
      treated as such but are treated as vibrations and this may
      cause some error
  (4) All equations used are the standard statistical mechanics
      equations for an ideal gas
  (5) All vibrations are strictly harmonic

freq.      58.27  E(vib)   ...       0.51
freq.     193.68  E(vib)   ...       0.36
freq.     196.23  E(vib)   ...       0.36
freq.     272.94  E(vib)   ...       0.29
freq.     279.57  E(vib)   ...       0.28
freq.     285.16  E(vib)   ...       0.28
freq.     412.56  E(vib)   ...       0.19
freq.     425.62  E(vib)   ...       0.18
freq.     655.01  E(vib)   ...       0.08
freq.     656.65  E(vib)   ...       0.08
freq.     817.39  E(vib)   ...       0.05
freq.     831.72  E(vib)   ...       0.04
freq.     834.58  E(vib)   ...       0.04
freq.    1344.86  E(vib)   ...       0.01
freq.    1676.66  E(vib)   ...       0.00

------------
INNER ENERGY
------------

The inner energy is: U= E(el) + E(ZPE) + E(vib) + E(rot) + E(trans)
    E(el)   - is the total energy from the electronic structure calculation
              = E(kin-el) + E(nuc-el) + E(el-el) + E(nuc-nuc)
    E(ZPE)  - the the zero temperature vibrational energy from the frequency calculation
    E(vib)  - the the finite temperature correction to E(ZPE) due to population
              of excited vibrational states
    E(rot)  - is the rotational thermal energy
    E(trans)- is the translational thermal energy

Summary of contributions to the inner energy U:
Electronic energy                ...  -1623.71633556 Eh
Zero point energy                ...      0.02036885 Eh      12.78 kcal/mol
Thermal vibrational correction   ...      0.00436566 Eh       2.74 kcal/mol
Thermal rotational correction    ...      0.00141627 Eh       0.89 kcal/mol
Thermal translational correction ...      0.00141627 Eh       0.89 kcal/mol
-----------------------------------------------------------------------
Total thermal energy                  -1623.68876851 Eh

Summary of corrections to the electronic energy:
(perhaps to be used in another calculation)
Total thermal correction                  0.00719820 Eh       4.52 kcal/mol
Non-thermal (ZPE) correction              0.02036885 Eh      12.78 kcal/mol
-----------------------------------------------------------------------
Total correction                          0.02756705 Eh      17.30 kcal/mol

--------
ENTHALPY
--------

The enthalpy is H = U + kB*T
                kB is Boltzmann's constant
Total thermal energy              ...  -1623.68876851 Eh
Thermal Enthalpy correction       ...      0.00094421 Eh       0.59 kcal/mol
-----------------------------------------------------------------------
Total Enthalpy                    ...  -1623.68782430 Eh

Note: Only C1 symmetry has been detected, increase convergence thresholds
      if your molecule has a higher symmetry. Symmetry factor of 1.0 is
      used for the rotational entropy correction.

Note: Rotational entropy computed according to Herzberg
Infrared and Raman Spectra, Chapter V,1, Van Nostrand Reinhold, 1945
Point Group:  C1, Symmetry Number:   1
Rotational constants in cm-1:     0.049640     0.046629     0.042497

Vibrational entropy computed according to the QRRHO of S. Grimme
Chem.Eur.J. 2012 18 9955 using a reference frequency of 100.0 cm-1

-------
ENTROPY
-------

The entropy contributions are T*S = T*(S(el)+S(vib)+S(rot)+S(trans))
     S(el)   - electronic entropy
     S(vib)  - vibrational entropy
     S(rot)  - rotational entropy
     S(trans)- translational entropy
The entropies will be listed as multiplied by the temperature to get
units of energy

Electronic entropy                ...      0.00000000 Eh      0.00 kcal/mol
Vibrational entropy               ...      0.00741547 Eh      4.65 kcal/mol
Rotational entropy                ...      0.01386669 Eh      8.70 kcal/mol
Translational entropy             ...      0.01957510 Eh     12.28 kcal/mol
-----------------------------------------------------------------------
Final entropy term                ...      0.04085726 Eh     25.64 kcal/mol

In case the symmetry of your molecule has not been determined correctly
or in case you have a reason to use a different symmetry number we print
out the resulting rotational entropy values for sn=1,12:

 non-linear molecules -----------------------------------
|  sn= 1 | S(rot)=       0.01386669 Eh      8.70 kcal/mol|
|  sn= 2 | S(rot)=       0.01321224 Eh      8.29 kcal/mol|
|  sn= 3 | S(rot)=       0.01282940 Eh      8.05 kcal/mol|
|  sn= 4 | S(rot)=       0.01255778 Eh      7.88 kcal/mol|
|  sn= 5 | S(rot)=       0.01234709 Eh      7.75 kcal/mol|
|  sn= 6 | S(rot)=       0.01217495 Eh      7.64 kcal/mol|
|  sn= 7 | S(rot)=       0.01202940 Eh      7.55 kcal/mol|
|  sn= 8 | S(rot)=       0.01190332 Eh      7.47 kcal/mol|
|  sn= 9 | S(rot)=       0.01179212 Eh      7.40 kcal/mol|
|  sn=10 | S(rot)=       0.01169264 Eh      7.34 kcal/mol|
|  sn=11 | S(rot)=       0.01160265 Eh      7.28 kcal/mol|
|  sn=12 | S(rot)=       0.01152049 Eh      7.23 kcal/mol|
 linear molecules ---------------------------------------
|  Dinfh | S(rot)=       0.00830784 Eh      5.21 kcal/mol|
|  Cinfv | S(rot)=       0.00896229 Eh      5.62 kcal/mol|
 --------------------------------------------------------

-------------------
GIBBS FREE ENERGY
-------------------

The Gibbs free energy is G = H - T*S

Total enthalpy                    ...  -1623.68782430 Eh
Total entropy correction          ...     -0.04085726 Eh    -25.64 kcal/mol
-----------------------------------------------------------------------
Final Gibbs free energy         ...  -1623.72868156 Eh

For completeness - the Gibbs free energy minus the electronic energy
G-E(el)                           ...     -0.01234601 Eh     -7.75 kcal/mol

                             ****ORCA TERMINATED NORMALLY****
TOTAL RUN TIME: 0 days 0 hours 3 minutes 22 seconds 808 msec
