                         Program Version 6.0.1  -  RELEASE   -
|  1> ! pbe def2-sv(p) def2/J RI DEFGRID1 loosescf d4 GCP(DFT/SV(P)) printgap
|  2> %output
|  3>     printlevel normal
|  4> end
|  5> * xyz 0 1
|  6> C -2.0782489127 -1.2539471247 -0.1568582567
|  7> C -1.2241578985 -0.3832048998 0.7916252859
|  8> H -1.800754175 -0.2391021493 1.7132982709
|  9> C -0.9229070008 0.9916984179 0.1605401022
| 10> H -1.2245016603 0.9819911187 -0.89368452
| 11> C 0.5788508106 1.2858018474 0.2375978224
| 12> H 0.8797299156 1.37783872 1.2969966902
| 13> C 1.3562659 0.1260638188 -0.3903836631
| 14> H 1.0391509104 0.0153066353 -1.4389505758
| 15> C 1.0294249569 -1.168287729 0.3706501324
| 16> H 1.8866335588 -1.4091460967 1.014789993
| 17> O -0.0471305479 -1.0407663161 1.2576259135
| 18> O 0.8179762096 -2.1891702585 -0.5667531739
| 19> O 2.7381080283 0.3394154068 -0.3167563894
| 20> O 0.9026038663 2.46858263 -0.451918775
| 21> O -1.6587093827 2.0408123051 0.7425088196
| 22> O -1.6268913108 -1.2735392773 -1.4792020341
| 23> H -3.0844112068 -0.8290966156 -0.1877940786
| 24> H -2.1344005168 -2.2681653092 0.2635660435
| 25> H 0.7374305684 -3.0331183064 -0.1051917395
| 26> H 2.9037572779 1.2323533764 -0.6473584256
| 27> H 0.1559864424 3.0747388898 -0.3579261781
| 28> H -1.4690155285 2.0751769007 1.6886296139
| 29> H -0.7385985436 -1.6715204665 -1.4908938274
| 30> *
| 31>
| 32>                          ****END OF INPUT****

CARTESIAN COORDINATES (ANGSTROEM)
---------------------------------
  C     -2.078249   -1.253947   -0.156858
  C     -1.224158   -0.383205    0.791625
  H     -1.800754   -0.239102    1.713298
  C     -0.922907    0.991698    0.160540
  H     -1.224502    0.981991   -0.893685
  C      0.578851    1.285802    0.237598
  H      0.879730    1.377839    1.296997
  C      1.356266    0.126064   -0.390384
  H      1.039151    0.015307   -1.438951
  C      1.029425   -1.168288    0.370650
  H      1.886634   -1.409146    1.014790
  O     -0.047131   -1.040766    1.257626
  O      0.817976   -2.189170   -0.566753
  O      2.738108    0.339415   -0.316756
  O      0.902604    2.468583   -0.451919
  O     -1.658709    2.040812    0.742509
  O     -1.626891   -1.273539   -1.479202
  H     -3.084411   -0.829097   -0.187794
  H     -2.134401   -2.268165    0.263566
  H      0.737431   -3.033118   -0.105192
  H      2.903757    1.232353   -0.647358
  H      0.155986    3.074739   -0.357926
  H     -1.469016    2.075177    1.688630
  H     -0.738599   -1.671520   -1.490894

 Total Charge           Charge          ....    0
 Multiplicity           Mult            ....    1
 Number of Electrons    NEL             ....   96
 Basis Dimension        Dim             ....  192

ORBITAL ENERGIES
----------------

  NO   OCC          E(Eh)            E(eV)
   0   2.0000     -18.788125      -511.2509
   1   2.0000     -18.777370      -510.9582
   2   2.0000     -18.768008      -510.7035
   3   2.0000     -18.756891      -510.4009
   4   2.0000     -18.750531      -510.2279
   5   2.0000     -18.739496      -509.9276
   6   2.0000      -9.996619      -272.0218
   7   2.0000      -9.950160      -270.7576
   8   2.0000      -9.945898      -270.6416
   9   2.0000      -9.945479      -270.6303
  10   2.0000      -9.944043      -270.5912
  11   2.0000      -9.933033      -270.2916
  12   2.0000      -0.995588       -27.0913
  13   2.0000      -0.955815       -26.0090
  14   2.0000      -0.938598       -25.5406
  15   2.0000      -0.928913       -25.2770
  16   2.0000      -0.919086       -25.0096
  17   2.0000      -0.917757       -24.9734
  18   2.0000      -0.706696       -19.2302
  19   2.0000      -0.699894       -19.0451
  20   2.0000      -0.625610       -17.0237
  21   2.0000      -0.592101       -16.1119
  22   2.0000      -0.575583       -15.6624
  23   2.0000      -0.523853       -14.2548
  24   2.0000      -0.512989       -13.9591
  25   2.0000      -0.493562       -13.4305
  26   2.0000      -0.487207       -13.2576
  27   2.0000      -0.461741       -12.5646
  28   2.0000      -0.440403       -11.9840
  29   2.0000      -0.437459       -11.9039
  30   2.0000      -0.420864       -11.4523
  31   2.0000      -0.400784       -10.9059
  32   2.0000      -0.394966       -10.7476
  33   2.0000      -0.383611       -10.4386
  34   2.0000      -0.365892        -9.9564
  35   2.0000      -0.355718        -9.6796
  36   2.0000      -0.339958        -9.2507
  37   2.0000      -0.321987        -8.7617
  38   2.0000      -0.309175        -8.4131
  39   2.0000      -0.300586        -8.1794
  40   2.0000      -0.289832        -7.8867
  41   2.0000      -0.275365        -7.4931
  42   2.0000      -0.259487        -7.0610
  43   2.0000      -0.253114        -6.8876
  44   2.0000      -0.246786        -6.7154
  45   2.0000      -0.224987        -6.1222
  46   2.0000      -0.218943        -5.9577
  47   2.0000      -0.204290        -5.5590
  48   0.0000       0.012579         0.3423
  49   0.0000       0.015668         0.4264
  50   0.0000       0.032597         0.8870
  51   0.0000       0.055195         1.5019
  52   0.0000       0.062352         1.6967

MULLIKEN ATOMIC CHARGES
-----------------------
   0 C :    0.026447
   1 C :    0.038050
   2 H :    0.060125
   3 C :    0.008153
   4 H :    0.091991
   5 C :    0.052809
   6 H :    0.043670
   7 C :    0.035512
   8 H :    0.067487
   9 C :    0.195185
  10 H :    0.083001
  11 O :   -0.306357
  12 O :   -0.402136
  13 O :   -0.413048
  14 O :   -0.424374
  15 O :   -0.414579
  16 O :   -0.440033
  17 H :    0.094163
  18 H :    0.070267
  19 H :    0.312664
  20 H :    0.311967
  21 H :    0.306140
  22 H :    0.299508
  23 H :    0.303387
Sum of atomic charges:    0.0000000

LOEWDIN ATOMIC CHARGES
----------------------
   0 C :   -0.135808
   1 C :   -0.077854
   2 H :    0.117862
   3 C :   -0.087238
   4 H :    0.124720
   5 C :   -0.085050
   6 H :    0.098171
   7 C :   -0.076774
   8 H :    0.110081
   9 C :    0.002550
  10 H :    0.112924
  11 O :   -0.145581
  12 O :   -0.297368
  13 O :   -0.314024
  14 O :   -0.326982
  15 O :   -0.309403
  16 O :   -0.341929
  17 H :    0.120255
  18 H :    0.095972
  19 H :    0.291980
  20 H :    0.289861
  21 H :    0.285764
  22 H :    0.283075
  23 H :    0.264794

  Mayer bond orders larger than 0.100000
B(  0-C ,  1-C ) :   1.0297 B(  0-C , 16-O ) :   1.1067 B(  0-C , 17-H ) :   0.9186
B(  0-C , 18-H ) :   0.9102 B(  1-C ,  2-H ) :   0.8819 B(  1-C ,  3-C ) :   0.9713
B(  1-C , 11-O ) :   1.0096 B(  3-C ,  4-H ) :   0.8623 B(  3-C ,  5-C ) :   1.0239
B(  3-C , 15-O ) :   1.0063 B(  5-C ,  6-H ) :   0.8617 B(  5-C ,  7-C ) :   1.0197
B(  5-C , 14-O ) :   1.0897 B(  7-C ,  8-H ) :   0.8772 B(  7-C ,  9-C ) :   0.9999
B(  7-C , 13-O ) :   1.0878 B(  9-C , 10-H ) :   0.8853 B(  9-C , 11-O ) :   1.0819
B(  9-C , 12-O ) :   1.0632 B( 12-O , 19-H ) :   0.8344 B( 12-O , 23-H ) :   0.1172
B( 13-O , 20-H ) :   0.8367 B( 14-O , 21-H ) :   0.8270 B( 15-O , 22-H ) :   0.8488
B( 16-O , 23-H ) :   0.7868

Dispersion correction           -0.025282056
FINAL SINGLE POINT ENERGY      -685.700626311461

DIPOLE MOMENT
-------------

Method             : SCF
Type of density    : Electron Density
Multiplicity       :   1
Irrep              :   0
Energy             :  -685.8341221642685923 Eh
Relativity type    :
Basis              : AO
                                X                 Y                 Z
Electronic contribution:      2.555553307       0.484405737       0.154421234
Nuclear contribution   :     -2.656159581      -0.644795111       0.790520622
                        -----------------------------------------
Total Dipole Moment    :     -0.100606274      -0.160389374       0.944941856
                        -----------------------------------------
Magnitude (a.u.)       :      0.963722722
Magnitude (Debye)      :      2.449588488

Rotational constants in cm-1:             0.036259             0.032526             0.021469
Rotational constants in MHz :          1087.007319           975.106637           643.632739

                             ****ORCA TERMINATED NORMALLY****
TOTAL RUN TIME: 0 days 0 hours 0 minutes 7 seconds 996 msec
