                         Program Version 6.0.0  -   RELEASE  -
|  1> ! r2SCAN-3c DEF2-TZVP FREQ
|  2> * xyzfile 0 1 censo.xyz
|  3>
|  4>                          ****END OF INPUT****

CARTESIAN COORDINATES (ANGSTROEM)
---------------------------------
  C     -1.751072   -0.659016    0.016367
  C     -0.461243    0.086054   -0.096135
  O     -0.345302    1.259503   -0.408865
  O      0.595250   -0.705616    0.180431
  C      1.899927   -0.080926    0.068253
  H     -2.588459    0.029217   -0.091027
  H     -1.806851   -1.178881    0.976350
  H     -1.795900   -1.417432   -0.772084
  H      1.982943    0.750522    0.772165
  H      2.062581    0.272601   -0.952594
  H      2.616275   -0.862539    0.318033

 Total Charge           Charge          ....    0
 Multiplicity           Mult            ....    1
 Number of Electrons    NEL             ....   40
 Basis Dimension        Dim             ....  191

ORBITAL ENERGIES
----------------

  NO   OCC          E(Eh)            E(eV)
   0   2.0000     -19.001043      -517.0447
   1   2.0000     -18.933745      -515.2134
   2   2.0000     -10.158273      -276.4206
   3   2.0000     -10.088367      -274.5184
   4   2.0000     -10.044187      -273.3162
   5   2.0000      -1.064372       -28.9630
   6   2.0000      -0.972991       -26.4764
   7   2.0000      -0.737781       -20.0760
   8   2.0000      -0.671211       -18.2646
   9   2.0000      -0.535680       -14.5766
  10   2.0000      -0.463807       -12.6208
  11   2.0000      -0.455744       -12.4014
  12   2.0000      -0.442781       -12.0487
  13   2.0000      -0.403783       -10.9875
  14   2.0000      -0.386748       -10.5239
  15   2.0000      -0.374007       -10.1772
  16   2.0000      -0.340209        -9.2576
  17   2.0000      -0.327150        -8.9022
  18   2.0000      -0.277509        -7.5514
  19   2.0000      -0.240156        -6.5350
  20   0.0000      -0.021083        -0.5737
  21   0.0000       0.047105         1.2818
  22   0.0000       0.071312         1.9405
  23   0.0000       0.087378         2.3777
  24   0.0000       0.118624         3.2279

MULLIKEN ATOMIC CHARGES
-----------------------
   0 C :   -0.307476
   1 C :    0.331787
   2 O :   -0.369526
   3 O :   -0.260674
   4 C :   -0.147006
   5 H :    0.134377
   6 H :    0.126255
   7 H :    0.126621
   8 H :    0.123357
   9 H :    0.122796
  10 H :    0.119488
Sum of atomic charges:   -0.0000000

LOEWDIN ATOMIC CHARGES
----------------------
   0 C :   -0.258048
   1 C :   -0.507451
   2 O :    0.084004
   3 O :    0.223732
   4 C :   -0.291399
   5 H :    0.135756
   6 H :    0.137368
   7 H :    0.141076
   8 H :    0.112268
   9 H :    0.112145
  10 H :    0.110550

  Mayer bond orders larger than 0.100000
B(  0-C ,  1-C ) :   0.9810 B(  0-C ,  5-H ) :   0.9760 B(  0-C ,  6-H ) :   0.9519
B(  0-C ,  7-H ) :   0.9452 B(  1-C ,  2-O ) :   1.9792 B(  1-C ,  3-O ) :   1.1584
B(  3-O ,  4-C ) :   0.8884 B(  4-C ,  8-H ) :   0.9729 B(  4-C ,  9-H ) :   0.9730
B(  4-C , 10-H ) :   0.9682

Dispersion correction           -0.002013495
FINAL SINGLE POINT ENERGY      -268.351317098738

DIPOLE MOMENT
-------------

Method             : SCF
Type of density    : Electron Density
Multiplicity       :   1
Irrep              :   0
Energy             :  -268.3571972663499992 Eh
Relativity type    :
Basis              : AO
                                X                 Y                 Z
Electronic contribution:     -0.208556203       1.402695118      -0.312006701
Nuclear contribution   :      0.390101435      -2.141228062       0.502377252
                        -----------------------------------------
Total Dipole Moment    :      0.181545232      -0.738532944       0.190370550
                        -----------------------------------------
Magnitude (a.u.)       :      0.783983754
Magnitude (Debye)      :      1.992728339

VIBRATIONAL FREQUENCIES
-----------------------

Scaling factor for frequencies =  1.000000000  (already applied!)

     0:       0.00 cm**-1
     1:       0.00 cm**-1
     2:       0.00 cm**-1
     3:       0.00 cm**-1
     4:       0.00 cm**-1
     5:       0.00 cm**-1
     6:      90.63 cm**-1
     7:     147.72 cm**-1
     8:     194.97 cm**-1
     9:     288.54 cm**-1
    10:     430.59 cm**-1
    11:     616.65 cm**-1
    12:     649.69 cm**-1
    13:     851.45 cm**-1
    14:     977.72 cm**-1
    15:    1045.46 cm**-1
    16:    1062.81 cm**-1
    17:    1165.88 cm**-1
    18:    1199.12 cm**-1
    19:    1267.48 cm**-1
    20:    1390.79 cm**-1
    21:    1458.56 cm**-1
    22:    1461.55 cm**-1
    23:    1470.74 cm**-1
    24:    1478.00 cm**-1
    25:    1483.94 cm**-1
    26:    1723.82 cm**-1
    27:    3029.64 cm**-1
    28:    3032.00 cm**-1
    29:    3102.30 cm**-1
    30:    3120.69 cm**-1
    31:    3147.87 cm**-1
    32:    3151.21 cm**-1

IR SPECTRUM
-----------

 Mode   freq       eps      Int      T**2         TX        TY        TZ
       cm**-1   L/(mol*cm) km/mol    a.u.
----------------------------------------------------------------------------
  6:     90.63   0.000089    0.45  0.000308  (-0.000393  0.001074  0.017515)
  7:    147.72   0.000123    0.62  0.000259  (-0.001470  0.004319  0.015448)
  8:    194.97   0.001265    6.39  0.002024  (-0.003644  0.013378  0.042800)
  9:    288.54   0.002357   11.91  0.002549  (-0.038013  0.031196 -0.011450)
 10:    430.59   0.001172    5.92  0.000849  (-0.027569 -0.009329  0.001535)
 11:    616.65   0.000771    3.90  0.000390  ( 0.002521  0.006336  0.018541)
 12:    649.69   0.000793    4.01  0.000381  (-0.017752 -0.006713  0.004569)
 13:    851.45   0.003371   17.04  0.001236  ( 0.002681 -0.033781  0.009344)
 14:    977.72   0.001298    6.56  0.000414  (-0.019152 -0.006507  0.002306)
 15:   1045.46   0.016159   81.66  0.004823  ( 0.069360 -0.000697  0.003467)
 16:   1062.81   0.001330    6.72  0.000390  ( 0.005198  0.007005  0.017731)
 17:   1165.88   0.000165    0.83  0.000044  (-0.000761  0.002043  0.006282)
 18:   1199.12   0.000281    1.42  0.000073  (-0.005010  0.006604 -0.002119)
 19:   1267.48   0.059264  299.49  0.014591  (-0.115773  0.030783 -0.015496)
 20:   1390.79   0.010226   51.68  0.002294  (-0.047295 -0.006674 -0.003615)
 21:   1458.56   0.003019   15.26  0.000646  ( 0.022372 -0.009731  0.007125)
 22:   1461.55   0.005533   27.96  0.001181  ( 0.019744  0.027762 -0.004570)
 23:   1470.74   0.001805    9.12  0.000383  (-0.009417  0.005943  0.016091)
 24:   1478.00   0.002098   10.60  0.000443  (-0.002144  0.006708  0.019834)
 25:   1483.94   0.001704    8.61  0.000358  (-0.013534  0.012053 -0.005462)
 26:   1723.82   0.047424  239.66  0.008585  ( 0.008406 -0.089124  0.023906)
 27:   3029.64   0.000210    1.06  0.000022  ( 0.001167 -0.004499  0.000169)
 28:   3032.00   0.005783   29.22  0.000595  (-0.023608 -0.006132  0.000512)
 29:   3102.30   0.000885    4.47  0.000089  (-0.002162  0.000381  0.009177)
 30:   3120.69   0.003623   18.31  0.000362  (-0.000743  0.005078  0.018328)
 31:   3147.87   0.002680   13.54  0.000266  ( 0.009097 -0.012849  0.004227)
 32:   3151.21   0.001229    6.21  0.000122  (-0.007983  0.007188 -0.002507)

--------------------------
THERMOCHEMISTRY AT 298.15K
--------------------------

Temperature         ...   298.15 K
Pressure            ...     1.00 atm
Total Mass          ...    74.08 AMU
Quasi RRHO          ...     True
Cut-Off Frequency   ...     1.00 cm^-1

Throughout the following assumptions are being made:
  (1) The electronic state is orbitally nondegenerate
  (2) There are no thermally accessible electronically excited states
  (3) Hindered rotations indicated by low frequency modes are not
      treated as such but are treated as vibrations and this may
      cause some error
  (4) All equations used are the standard statistical mechanics
      equations for an ideal gas
  (5) All vibrations are strictly harmonic

freq.      90.63  E(vib)   ...       0.47
freq.     147.72  E(vib)   ...       0.41
freq.     194.97  E(vib)   ...       0.36
freq.     288.54  E(vib)   ...       0.27
freq.     430.59  E(vib)   ...       0.18
freq.     616.65  E(vib)   ...       0.09
freq.     649.69  E(vib)   ...       0.08
freq.     851.45  E(vib)   ...       0.04
freq.     977.72  E(vib)   ...       0.03
freq.    1045.46  E(vib)   ...       0.02
freq.    1062.81  E(vib)   ...       0.02
freq.    1165.88  E(vib)   ...       0.01
freq.    1199.12  E(vib)   ...       0.01
freq.    1267.48  E(vib)   ...       0.01
freq.    1390.79  E(vib)   ...       0.00
freq.    1458.56  E(vib)   ...       0.00
freq.    1461.55  E(vib)   ...       0.00
freq.    1470.74  E(vib)   ...       0.00
freq.    1478.00  E(vib)   ...       0.00
freq.    1483.94  E(vib)   ...       0.00
freq.    1723.82  E(vib)   ...       0.00
freq.    3029.64  E(vib)   ...       0.00
freq.    3032.00  E(vib)   ...       0.00
freq.    3102.30  E(vib)   ...       0.00
freq.    3120.69  E(vib)   ...       0.00
freq.    3147.87  E(vib)   ...       0.00
freq.    3151.21  E(vib)   ...       0.00

------------
INNER ENERGY
------------

The inner energy is: U= E(el) + E(ZPE) + E(vib) + E(rot) + E(trans)
    E(el)   - is the total energy from the electronic structure calculation
              = E(kin-el) + E(nuc-el) + E(el-el) + E(nuc-nuc)
    E(ZPE)  - the the zero temperature vibrational energy from the frequency calculation
    E(vib)  - the the finite temperature correction to E(ZPE) due to population
              of excited vibrational states
    E(rot)  - is the rotational thermal energy
    E(trans)- is the translational thermal energy

Summary of contributions to the inner energy U:
Electronic energy                ...   -268.35131710 Eh
Zero point energy                ...      0.08893917 Eh      55.81 kcal/mol
Thermal vibrational correction   ...      0.00322083 Eh       2.02 kcal/mol
Thermal rotational correction    ...      0.00141627 Eh       0.89 kcal/mol
Thermal translational correction ...      0.00141627 Eh       0.89 kcal/mol
-----------------------------------------------------------------------
Total thermal energy                   -268.25632455 Eh

Summary of corrections to the electronic energy:
(perhaps to be used in another calculation)
Total thermal correction                  0.00605338 Eh       3.80 kcal/mol
Non-thermal (ZPE) correction              0.08893917 Eh      55.81 kcal/mol
-----------------------------------------------------------------------
Total correction                          0.09499255 Eh      59.61 kcal/mol

--------
ENTHALPY
--------

The enthalpy is H = U + kB*T
                kB is Boltzmann's constant
Total thermal energy              ...   -268.25632455 Eh
Thermal Enthalpy correction       ...      0.00094421 Eh       0.59 kcal/mol
-----------------------------------------------------------------------
Total Enthalpy                    ...   -268.25538034 Eh

Note: Only C1 symmetry has been detected, increase convergence thresholds
      if your molecule has a higher symmetry. Symmetry factor of 1.0 is
      used for the rotational entropy correction.

Note: Rotational entropy computed according to Herzberg
Infrared and Raman Spectra, Chapter V,1, Van Nostrand Reinhold, 1945
Point Group:  C1, Symmetry Number:   1
Rotational constants in cm-1:     0.340249     0.137829     0.101876

Vibrational entropy computed according to the QRRHO of S. Grimme
Chem.Eur.J. 2012 18 9955 using a reference frequency of 100.0 cm-1

-------
ENTROPY
-------

The entropy contributions are T*S = T*(S(el)+S(vib)+S(rot)+S(trans))
     S(el)   - electronic entropy
     S(vib)  - vibrational entropy
     S(rot)  - rotational entropy
     S(trans)- translational entropy
The entropies will be listed as multiplied by the temperature to get
units of energy

Electronic entropy                ...      0.00000000 Eh      0.00 kcal/mol
Vibrational entropy               ...      0.00562811 Eh      3.53 kcal/mol
Rotational entropy                ...      0.01203358 Eh      7.55 kcal/mol
Translational entropy             ...      0.01844631 Eh     11.58 kcal/mol
-----------------------------------------------------------------------
Final entropy term                ...      0.03610799 Eh     22.66 kcal/mol

In case the symmetry of your molecule has not been determined correctly
or in case you have a reason to use a different symmetry number we print
out the resulting rotational entropy values for sn=1,12:

 non-linear molecules -----------------------------------
|  sn= 1 | S(rot)=       0.01203358 Eh      7.55 kcal/mol|
|  sn= 2 | S(rot)=       0.01137912 Eh      7.14 kcal/mol|
|  sn= 3 | S(rot)=       0.01099629 Eh      6.90 kcal/mol|
|  sn= 4 | S(rot)=       0.01072467 Eh      6.73 kcal/mol|
|  sn= 5 | S(rot)=       0.01051398 Eh      6.60 kcal/mol|
|  sn= 6 | S(rot)=       0.01034183 Eh      6.49 kcal/mol|
|  sn= 7 | S(rot)=       0.01019629 Eh      6.40 kcal/mol|
|  sn= 8 | S(rot)=       0.01007021 Eh      6.32 kcal/mol|
|  sn= 9 | S(rot)=       0.00995900 Eh      6.25 kcal/mol|
|  sn=10 | S(rot)=       0.00985952 Eh      6.19 kcal/mol|
|  sn=11 | S(rot)=       0.00976953 Eh      6.13 kcal/mol|
|  sn=12 | S(rot)=       0.00968738 Eh      6.08 kcal/mol|
 linear molecules ---------------------------------------
|  Dinfh | S(rot)=       0.00748232 Eh      4.70 kcal/mol|
|  Cinfv | S(rot)=       0.00813677 Eh      5.11 kcal/mol|
 --------------------------------------------------------

-------------------
GIBBS FREE ENERGY
-------------------

The Gibbs free energy is G = H - T*S

Total enthalpy                    ...   -268.25538034 Eh
Total entropy correction          ...     -0.03610799 Eh    -22.66 kcal/mol
-----------------------------------------------------------------------
Final Gibbs free energy         ...   -268.29148833 Eh

For completeness - the Gibbs free energy minus the electronic energy
G-E(el)                           ...      0.05982877 Eh     37.54 kcal/mol

                             ****ORCA TERMINATED NORMALLY****
TOTAL RUN TIME: 0 days 0 hours 3 minutes 20 seconds 870 msec
