                         Program Version 6.0.0  -   RELEASE  -
|  1> ! r2SCAN-3c DEF2-TZVP FREQ
|  2> * xyzfile 0 1 vacuum_censo.xyz
|  3>
|  4>                          ****END OF INPUT****

CARTESIAN COORDINATES (ANGSTROEM)
---------------------------------
  C      1.763135    0.632299    0.010101
  C      0.449114   -0.083639   -0.135369
  O      0.318708   -1.244680   -0.443700
  O     -0.591995    0.735528    0.152092
  C     -1.889673    0.107054    0.079828
  H      1.649588    1.713767   -0.069999
  H      2.459251    0.256564   -0.740802
  H      2.173985    0.396213    0.997141
  H     -2.069703   -0.279502   -0.926323
  H     -2.606377    0.889689    0.327376
  H     -1.953777   -0.717035    0.794948

 Total Charge           Charge          ....    0
 Multiplicity           Mult            ....    1
 Number of Electrons    NEL             ....   40
 Basis Dimension        Dim             ....  191

ORBITAL ENERGIES
----------------

  NO   OCC          E(Eh)            E(eV)
   0   2.0000     -19.001578      -517.0592
   1   2.0000     -18.935730      -515.2674
   2   2.0000     -10.158327      -276.4221
   3   2.0000     -10.086675      -274.4724
   4   2.0000     -10.043657      -273.3018
   5   2.0000      -1.066201       -29.0128
   6   2.0000      -0.979464       -26.6526
   7   2.0000      -0.735248       -20.0071
   8   2.0000      -0.669579       -18.2202
   9   2.0000      -0.535979       -14.5847
  10   2.0000      -0.464325       -12.6349
  11   2.0000      -0.455388       -12.3918
  12   2.0000      -0.444401       -12.0928
  13   2.0000      -0.403140       -10.9700
  14   2.0000      -0.387970       -10.5572
  15   2.0000      -0.371436       -10.1073
  16   2.0000      -0.340621        -9.2688
  17   2.0000      -0.329344        -8.9619
  18   2.0000      -0.278555        -7.5799
  19   2.0000      -0.243554        -6.6274
  20   0.0000      -0.020136        -0.5479
  21   0.0000       0.047929         1.3042
  22   0.0000       0.074477         2.0266
  23   0.0000       0.091181         2.4812
  24   0.0000       0.112044         3.0489

MULLIKEN ATOMIC CHARGES
-----------------------
   0 C :   -0.310825
   1 C :    0.329313
   2 O :   -0.357051
   3 O :   -0.264009
   4 C :   -0.144683
   5 H :    0.124335
   6 H :    0.132756
   7 H :    0.128661
   8 H :    0.122021
   9 H :    0.119115
  10 H :    0.120367
Sum of atomic charges:    0.0000000

LOEWDIN ATOMIC CHARGES
----------------------
   0 C :   -0.259349
   1 C :   -0.508586
   2 O :    0.100017
   3 O :    0.221854
   4 C :   -0.298935
   5 H :    0.130498
   6 H :    0.137403
   7 H :    0.142720
   8 H :    0.112105
   9 H :    0.110589
  10 H :    0.111684

  Mayer bond orders larger than 0.100000
B(  0-C ,  1-C ) :   0.9720 B(  0-C ,  5-H ) :   0.9641 B(  0-C ,  6-H ) :   0.9672
B(  0-C ,  7-H ) :   0.9436 B(  1-C ,  2-O ) :   1.9822 B(  1-C ,  3-O ) :   1.1574
B(  3-O ,  4-C ) :   0.8892 B(  4-C ,  8-H ) :   0.9729 B(  4-C ,  9-H ) :   0.9682
B(  4-C , 10-H ) :   0.9728

Dispersion correction           -0.002014440
FINAL SINGLE POINT ENERGY      -268.351676073974

DIPOLE MOMENT
-------------

Method             : SCF
Type of density    : Electron Density
Multiplicity       :   1
Irrep              :   0
Energy             :  -268.3575955983043286 Eh
Relativity type    :
Basis              : AO
                                X                 Y                 Z
Electronic contribution:      0.121649559      -1.288666385      -0.495087571
Nuclear contribution   :     -0.264868707       1.959107792       0.723017472
                        -----------------------------------------
Total Dipole Moment    :     -0.143219148       0.670441407       0.227929901
                        -----------------------------------------
Magnitude (a.u.)       :      0.722464840
Magnitude (Debye)      :      1.836359685

VIBRATIONAL FREQUENCIES
-----------------------

Scaling factor for frequencies =  1.000000000  (already applied!)

     0:       0.00 cm**-1
     1:       0.00 cm**-1
     2:       0.00 cm**-1
     3:       0.00 cm**-1
     4:       0.00 cm**-1
     5:       0.00 cm**-1
     6:      77.24 cm**-1
     7:     157.05 cm**-1
     8:     192.36 cm**-1
     9:     295.30 cm**-1
    10:     432.65 cm**-1
    11:     609.48 cm**-1
    12:     644.75 cm**-1
    13:     845.58 cm**-1
    14:     990.03 cm**-1
    15:    1046.76 cm**-1
    16:    1059.55 cm**-1
    17:    1169.44 cm**-1
    18:    1205.44 cm**-1
    19:    1244.56 cm**-1
    20:    1384.35 cm**-1
    21:    1456.70 cm**-1
    22:    1467.69 cm**-1
    23:    1475.09 cm**-1
    24:    1476.55 cm**-1
    25:    1488.85 cm**-1
    26:    1778.91 cm**-1
    27:    3028.91 cm**-1
    28:    3034.36 cm**-1
    29:    3112.16 cm**-1
    30:    3112.54 cm**-1
    31:    3145.29 cm**-1
    32:    3147.69 cm**-1

IR SPECTRUM
-----------

 Mode   freq       eps      Int      T**2         TX        TY        TZ
       cm**-1   L/(mol*cm) km/mol    a.u.
----------------------------------------------------------------------------
  6:     77.24   0.000164    0.83  0.000663  (-0.000387  0.004324  0.025383)
  7:    157.05   0.000194    0.98  0.000386  (-0.000575  0.004876 -0.019023)
  8:    192.36   0.001161    5.87  0.001883  (-0.001380  0.011634 -0.041786)
  9:    295.30   0.002392   12.09  0.002528  ( 0.037899 -0.031503 -0.009968)
 10:    432.65   0.001232    6.22  0.000888  (-0.028098 -0.009944 -0.000208)
 11:    609.48   0.000826    4.17  0.000423  ( 0.007936 -0.003010  0.018725)
 12:    644.75   0.000778    3.93  0.000377  (-0.015608 -0.008639  0.007632)
 13:    845.58   0.004152   20.98  0.001532  (-0.009626  0.036279  0.011111)
 14:    990.03   0.000971    4.90  0.000306  (-0.013913 -0.010500  0.001445)
 15:   1046.76   0.012152   61.41  0.003623  ( 0.059518 -0.000188 -0.008969)
 16:   1059.55   0.003450   17.43  0.001016  (-0.025929  0.001385 -0.018488)
 17:   1169.44   0.000142    0.72  0.000038  (-0.000421 -0.001141  0.006035)
 18:   1205.44   0.000285    1.44  0.000074  ( 0.002621 -0.007827 -0.002390)
 19:   1244.56   0.064410  325.50  0.016150  (-0.122890  0.029121  0.014153)
 20:   1384.35   0.007639   38.61  0.001722  (-0.041338 -0.000898 -0.003534)
 21:   1456.70   0.001011    5.11  0.000217  (-0.014084  0.004248 -0.000524)
 22:   1467.69   0.003202   16.18  0.000681  (-0.014574 -0.016688 -0.013779)
 23:   1475.09   0.000820    4.14  0.000173  (-0.011293 -0.002055 -0.006459)
 24:   1476.55   0.003669   18.54  0.000775  ( 0.011918  0.009571 -0.023275)
 25:   1488.85   0.001733    8.76  0.000363  (-0.012657  0.013912  0.003081)
 26:   1778.91   0.049342  249.35  0.008656  ( 0.007335 -0.088977 -0.026172)
 27:   3028.91   0.005492   27.75  0.000566  ( 0.023226  0.005075 -0.000765)
 28:   3034.36   0.000612    3.09  0.000063  (-0.007005 -0.003048 -0.002136)
 29:   3112.16   0.004286   21.66  0.000430  ( 0.000906 -0.005992  0.019826)
 30:   3112.54   0.000702    3.55  0.000070  (-0.004068 -0.005457  0.004906)
 31:   3145.29   0.002640   13.34  0.000262  ( 0.009013 -0.012776 -0.004185)
 32:   3147.69   0.001499    7.58  0.000149  ( 0.003263 -0.011203 -0.003536)

--------------------------
THERMOCHEMISTRY AT 298.15K
--------------------------

Temperature         ...   298.15 K
Pressure            ...     1.00 atm
Total Mass          ...    74.08 AMU
Quasi RRHO          ...     True
Cut-Off Frequency   ...     1.00 cm^-1

Throughout the following assumptions are being made:
  (1) The electronic state is orbitally nondegenerate
  (2) There are no thermally accessible electronically excited states
  (3) Hindered rotations indicated by low frequency modes are not
      treated as such but are treated as vibrations and this may
      cause some error
  (4) All equations used are the standard statistical mechanics
      equations for an ideal gas
  (5) All vibrations are strictly harmonic

freq.      77.24  E(vib)   ...       0.49
freq.     157.05  E(vib)   ...       0.40
freq.     192.36  E(vib)   ...       0.36
freq.     295.30  E(vib)   ...       0.27
freq.     432.65  E(vib)   ...       0.18
freq.     609.48  E(vib)   ...       0.10
freq.     644.75  E(vib)   ...       0.09
freq.     845.58  E(vib)   ...       0.04
freq.     990.03  E(vib)   ...       0.02
freq.    1046.76  E(vib)   ...       0.02
freq.    1059.55  E(vib)   ...       0.02
freq.    1169.44  E(vib)   ...       0.01
freq.    1205.44  E(vib)   ...       0.01
freq.    1244.56  E(vib)   ...       0.01
freq.    1384.35  E(vib)   ...       0.00
freq.    1456.70  E(vib)   ...       0.00
freq.    1467.69  E(vib)   ...       0.00
freq.    1475.09  E(vib)   ...       0.00
freq.    1476.55  E(vib)   ...       0.00
freq.    1488.85  E(vib)   ...       0.00
freq.    1778.91  E(vib)   ...       0.00
freq.    3028.91  E(vib)   ...       0.00
freq.    3034.36  E(vib)   ...       0.00
freq.    3112.16  E(vib)   ...       0.00
freq.    3112.54  E(vib)   ...       0.00
freq.    3145.29  E(vib)   ...       0.00
freq.    3147.69  E(vib)   ...       0.00

------------
INNER ENERGY
------------

The inner energy is: U= E(el) + E(ZPE) + E(vib) + E(rot) + E(trans)
    E(el)   - is the total energy from the electronic structure calculation
              = E(kin-el) + E(nuc-el) + E(el-el) + E(nuc-nuc)
    E(ZPE)  - the the zero temperature vibrational energy from the frequency calculation
    E(vib)  - the the finite temperature correction to E(ZPE) due to population
              of excited vibrational states
    E(rot)  - is the rotational thermal energy
    E(trans)- is the translational thermal energy

Summary of contributions to the inner energy U:
Electronic energy                ...   -268.35167607 Eh
Zero point energy                ...      0.08902916 Eh      55.87 kcal/mol
Thermal vibrational correction   ...      0.00323081 Eh       2.03 kcal/mol
Thermal rotational correction    ...      0.00141627 Eh       0.89 kcal/mol
Thermal translational correction ...      0.00141627 Eh       0.89 kcal/mol
-----------------------------------------------------------------------
Total thermal energy                   -268.25658357 Eh

Summary of corrections to the electronic energy:
(perhaps to be used in another calculation)
Total thermal correction                  0.00606335 Eh       3.80 kcal/mol
Non-thermal (ZPE) correction              0.08902916 Eh      55.87 kcal/mol
-----------------------------------------------------------------------
Total correction                          0.09509251 Eh      59.67 kcal/mol

--------
ENTHALPY
--------

The enthalpy is H = U + kB*T
                kB is Boltzmann's constant
Total thermal energy              ...   -268.25658357 Eh
Thermal Enthalpy correction       ...      0.00094421 Eh       0.59 kcal/mol
-----------------------------------------------------------------------
Total Enthalpy                    ...   -268.25563936 Eh

Note: Only C1 symmetry has been detected, increase convergence thresholds
      if your molecule has a higher symmetry. Symmetry factor of 1.0 is
      used for the rotational entropy correction.

Note: Rotational entropy computed according to Herzberg
Infrared and Raman Spectra, Chapter V,1, Van Nostrand Reinhold, 1945
Point Group:  C1, Symmetry Number:   1
Rotational constants in cm-1:     0.341937     0.138151     0.102178

Vibrational entropy computed according to the QRRHO of S. Grimme
Chem.Eur.J. 2012 18 9955 using a reference frequency of 100.0 cm-1

-------
ENTROPY
-------

The entropy contributions are T*S = T*(S(el)+S(vib)+S(rot)+S(trans))
     S(el)   - electronic entropy
     S(vib)  - vibrational entropy
     S(rot)  - rotational entropy
     S(trans)- translational entropy
The entropies will be listed as multiplied by the temperature to get
units of energy

Electronic entropy                ...      0.00000000 Eh      0.00 kcal/mol
Vibrational entropy               ...      0.00562698 Eh      3.53 kcal/mol
Rotational entropy                ...      0.01202874 Eh      7.55 kcal/mol
Translational entropy             ...      0.01844631 Eh     11.58 kcal/mol
-----------------------------------------------------------------------
Final entropy term                ...      0.03610202 Eh     22.65 kcal/mol

In case the symmetry of your molecule has not been determined correctly
or in case you have a reason to use a different symmetry number we print
out the resulting rotational entropy values for sn=1,12:

 non-linear molecules -----------------------------------
|  sn= 1 | S(rot)=       0.01202874 Eh      7.55 kcal/mol|
|  sn= 2 | S(rot)=       0.01137429 Eh      7.14 kcal/mol|
|  sn= 3 | S(rot)=       0.01099145 Eh      6.90 kcal/mol|
|  sn= 4 | S(rot)=       0.01071983 Eh      6.73 kcal/mol|
|  sn= 5 | S(rot)=       0.01050914 Eh      6.59 kcal/mol|
|  sn= 6 | S(rot)=       0.01033700 Eh      6.49 kcal/mol|
|  sn= 7 | S(rot)=       0.01019145 Eh      6.40 kcal/mol|
|  sn= 8 | S(rot)=       0.01006537 Eh      6.32 kcal/mol|
|  sn= 9 | S(rot)=       0.00995416 Eh      6.25 kcal/mol|
|  sn=10 | S(rot)=       0.00985468 Eh      6.18 kcal/mol|
|  sn=11 | S(rot)=       0.00976469 Eh      6.13 kcal/mol|
|  sn=12 | S(rot)=       0.00968254 Eh      6.08 kcal/mol|
 linear molecules ---------------------------------------
|  Dinfh | S(rot)=       0.00747952 Eh      4.69 kcal/mol|
|  Cinfv | S(rot)=       0.00813398 Eh      5.10 kcal/mol|
 --------------------------------------------------------

-------------------
GIBBS FREE ENERGY
-------------------

The Gibbs free energy is G = H - T*S

Total enthalpy                    ...   -268.25563936 Eh
Total entropy correction          ...     -0.03610202 Eh    -22.65 kcal/mol
-----------------------------------------------------------------------
Final Gibbs free energy         ...   -268.29174138 Eh

For completeness - the Gibbs free energy minus the electronic energy
G-E(el)                           ...      0.05993469 Eh     37.61 kcal/mol

                             ****ORCA TERMINATED NORMALLY****
TOTAL RUN TIME: 0 days 0 hours 3 minutes 22 seconds 936 msec
