                         Program Version 6.0.1  -  RELEASE   -
|  1> ! r2scan-3c def2/J RI DEFGRID2 scfconv6 printgap
|  2> %output
|  3>     printlevel normal
|  4> end
|  5> * xyz 0 1
|  6> C 1.8531473558 -0.0725682995 -0.2570081028
|  7> C 0.5395483234 0.1690899047 0.4680653637
|  8> O -0.5238569065 -0.1462426223 -0.4032490727
|  9> C -1.7855150904 0.0445447419 0.1751666826
| 10> H 2.6880299193 0.1638406609 0.3967138381
| 11> H 1.9193699782 -1.1129349562 -0.5625287968
| 12> H 1.9041352407 0.5512485834 -1.1448944981
| 13> H 0.464207877 1.2225940894 0.7839547967
| 14> H 0.4800689061 -0.4580228302 1.3727911268
| 15> H -1.9196745272 -0.5904183475 1.0609631954
| 16> H -2.5204486938 -0.2271305005 -0.5798085886
| 17> H -1.935670705 1.0912105571 0.4714074266
| 18> *
| 19>
| 20>                          ****END OF INPUT****

CARTESIAN COORDINATES (ANGSTROEM)
---------------------------------
  C      1.853147   -0.072568   -0.257008
  C      0.539548    0.169090    0.468065
  O     -0.523857   -0.146243   -0.403249
  C     -1.785515    0.044545    0.175167
  H      2.688030    0.163841    0.396714
  H      1.919370   -1.112935   -0.562529
  H      1.904135    0.551249   -1.144894
  H      0.464208    1.222594    0.783955
  H      0.480069   -0.458023    1.372791
  H     -1.919675   -0.590418    1.060963
  H     -2.520449   -0.227131   -0.579809
  H     -1.935671    1.091211    0.471407

 Total Charge           Charge          ....    0
 Multiplicity           Mult            ....    1
 Number of Electrons    NEL             ....   34
 Basis Dimension        Dim             ....  121

ORBITAL ENERGIES
----------------

  NO   OCC          E(Eh)            E(eV)
   0   2.0000     -18.949131      -515.6321
   1   2.0000     -10.074942      -274.1531
   2   2.0000     -10.067841      -273.9599
   3   2.0000     -10.018285      -272.6114
   4   2.0000      -0.998209       -27.1626
   5   2.0000      -0.727425       -19.7942
   6   2.0000      -0.639664       -17.4061
   7   2.0000      -0.569957       -15.5093
   8   2.0000      -0.455946       -12.4069
   9   2.0000      -0.446226       -12.1424
  10   2.0000      -0.419393       -11.4123
  11   2.0000      -0.387234       -10.5372
  12   2.0000      -0.354352        -9.6424
  13   2.0000      -0.330942        -9.0054
  14   2.0000      -0.321470        -8.7476
  15   2.0000      -0.283644        -7.7183
  16   2.0000      -0.219815        -5.9815
  17   0.0000       0.077846         2.1183
  18   0.0000       0.113740         3.0950
  19   0.0000       0.115860         3.1527
  20   0.0000       0.136727         3.7205
  21   0.0000       0.162427         4.4199

MULLIKEN ATOMIC CHARGES
-----------------------
   0 C :   -0.445605
   1 C :   -0.114977
   2 O :   -0.230752
   3 C :   -0.288996
   4 H :    0.137319
   5 H :    0.151838
   6 H :    0.151817
   7 H :    0.118993
   8 H :    0.118994
   9 H :    0.127703
  10 H :    0.145956
  11 H :    0.127709
Sum of atomic charges:    0.0000000

LOEWDIN ATOMIC CHARGES
----------------------
   0 C :   -0.392713
   1 C :    0.003372
   2 O :   -0.799255
   3 C :   -0.076044
   4 H :    0.155078
   5 H :    0.158147
   6 H :    0.158133
   7 H :    0.156557
   8 H :    0.156555
   9 H :    0.153176
  10 H :    0.173818
  11 H :    0.153175

  Mayer bond orders larger than 0.100000
B(  0-C ,  1-C ) :   0.9590 B(  0-C ,  4-H ) :   0.9656 B(  0-C ,  5-H ) :   0.9750
B(  0-C ,  6-H ) :   0.9750 B(  1-C ,  2-O ) :   0.8869 B(  1-C ,  7-H ) :   0.9499
B(  1-C ,  8-H ) :   0.9499 B(  2-O ,  3-C ) :   0.9073 B(  3-C ,  9-H ) :   0.9666
B(  3-C , 10-H ) :   0.9736 B(  3-C , 11-H ) :   0.9667

Dispersion correction           -0.001986230
FINAL SINGLE POINT ENERGY      -194.283894822640

DIPOLE MOMENT
-------------

Method             : SCF
Type of density    : Electron Density
Multiplicity       :   1
Irrep              :   0
Energy             :  -194.2906424690867766 Eh
Relativity type    :
Basis              : AO
                                X                 Y                 Z
Electronic contribution:     -1.024927926      -0.449651664      -1.255622011
Nuclear contribution   :      1.005460200       0.598618062       1.681396233
                        -----------------------------------------
Total Dipole Moment    :     -0.019467726       0.148966398       0.425774222
                        -----------------------------------------
Magnitude (a.u.)       :      0.451501571
Magnitude (Debye)      :      1.147625789

Rotational constants in cm-1:             0.949209             0.138728             0.129931
Rotational constants in MHz :         28456.558145          4158.971421          3895.220532

                             ****ORCA TERMINATED NORMALLY****
TOTAL RUN TIME: 0 days 0 hours 0 minutes 13 seconds 256 msec
