                         Program Version 6.0.1  -  RELEASE   -
|  1> ! r2scan-3c def2/J RI DEFGRID2 scfconv6 printgap
|  2> %output
|  3>     printlevel normal
|  4> end
|  5> * xyz 0 1
|  6> C -3.1762299836 -0.3262744378 -0.000248463
|  7> O -2.0884316542 0.5653064343 0.0001774966
|  8> C -0.826430914 0.050088708 0.0001061297
|  9> C -0.5148601384 -1.3037646003 3.5221e-05
| 10> C 0.8149395612 -1.696380657 -6.3786e-05
| 11> C 1.8370828586 -0.7716083677 -8.8327e-05
| 12> C 1.5258692002 0.5863583088 1.10274e-05
| 13> C 0.2020236044 0.9912236335 0.0001106696
| 14> O 2.548057345 1.4830765028 -7.2165e-06
| 15> H -3.1775378396 -0.9588967816 -0.8937826796
| 16> H -4.0686580707 0.2977774568 -0.0004719628
| 17> H -3.178112775 -0.9590691026 0.8931648572
| 18> H -1.2874751104 -2.0552601185 6.6345e-05
| 19> H 1.0511356559 -2.7499600977 -0.0001209013
| 20> H 2.871909913 -1.0714436038 -0.000177925
| 21> H -0.0602498386 2.0396248261 0.0001858055
| 22> H 2.1927207019 2.3801016323 7.23403e-05
| 23> *
| 24>
| 25>                          ****END OF INPUT****

CARTESIAN COORDINATES (ANGSTROEM)
---------------------------------
  C     -3.176230   -0.326274   -0.000248
  O     -2.088432    0.565306    0.000177
  C     -0.826431    0.050089    0.000106
  C     -0.514860   -1.303765    0.000035
  C      0.814940   -1.696381   -0.000064
  C      1.837083   -0.771608   -0.000088
  C      1.525869    0.586358    0.000011
  C      0.202024    0.991224    0.000111
  O      2.548057    1.483077   -0.000007
  H     -3.177538   -0.958897   -0.893783
  H     -4.068658    0.297777   -0.000472
  H     -3.178113   -0.959069    0.893165
  H     -1.287475   -2.055260    0.000066
  H      1.051136   -2.749960   -0.000121
  H      2.871910   -1.071444   -0.000178
  H     -0.060250    2.039625    0.000186
  H      2.192721    2.380102    0.000072

 Total Charge           Charge          ....    0
 Multiplicity           Mult            ....    1
 Number of Electrons    NEL             ....   66
 Basis Dimension        Dim             ....  221

ORBITAL ENERGIES
----------------

  NO   OCC          E(Eh)            E(eV)
   0   2.0000     -18.987117      -516.6657
   1   2.0000     -18.984408      -516.5920
   2   2.0000     -10.096993      -274.7531
   3   2.0000     -10.096696      -274.7451
   4   2.0000     -10.087204      -274.4868
   5   2.0000     -10.036888      -273.1176
   6   2.0000     -10.028293      -272.8837
   7   2.0000     -10.026273      -272.8287
   8   2.0000     -10.022485      -272.7257
   9   2.0000      -1.036962       -28.2172
  10   2.0000      -1.029702       -28.0196
  11   2.0000      -0.819534       -22.3006
  12   2.0000      -0.729611       -19.8537
  13   2.0000      -0.709235       -19.2993
  14   2.0000      -0.666520       -18.1369
  15   2.0000      -0.597475       -16.2581
  16   2.0000      -0.562022       -15.2934
  17   2.0000      -0.522984       -14.2311
  18   2.0000      -0.485303       -13.2058
  19   2.0000      -0.457277       -12.4431
  20   2.0000      -0.446423       -12.1478
  21   2.0000      -0.439459       -11.9583
  22   2.0000      -0.403198       -10.9716
  23   2.0000      -0.397753       -10.8234
  24   2.0000      -0.381842       -10.3904
  25   2.0000      -0.357057        -9.7160
  26   2.0000      -0.343979        -9.3602
  27   2.0000      -0.332022        -9.0348
  28   2.0000      -0.324929        -8.8418
  29   2.0000      -0.300198        -8.1688
  30   2.0000      -0.283271        -7.7082
  31   2.0000      -0.214302        -5.8314
  32   2.0000      -0.198588        -5.4038
  33   0.0000      -0.026644        -0.7250
  34   0.0000      -0.006057        -0.1648
  35   0.0000       0.058610         1.5949
  36   0.0000       0.066274         1.8034
  37   0.0000       0.086372         2.3503

MULLIKEN ATOMIC CHARGES
-----------------------
   0 C :   -0.336886
   1 O :   -0.187646
   2 C :    0.335925
   3 C :   -0.308535
   4 C :   -0.123734
   5 C :   -0.319531
   6 C :    0.477062
   7 C :   -0.498482
   8 O :   -0.408709
   9 H :    0.152840
  10 H :    0.153123
  11 H :    0.152835
  12 H :    0.148131
  13 H :    0.147149
  14 H :    0.157244
  15 H :    0.147295
  16 H :    0.311919
Sum of atomic charges:    0.0000000

LOEWDIN ATOMIC CHARGES
----------------------
   0 C :   -0.056399
   1 O :   -0.682863
   2 C :    0.198356
   3 C :   -0.200744
   4 C :   -0.141035
   5 C :   -0.167418
   6 C :    0.189311
   7 C :   -0.142979
   8 O :   -0.491125
   9 H :    0.164701
  10 H :    0.179537
  11 H :    0.164692
  12 H :    0.174252
  13 H :    0.168980
  14 H :    0.179000
  15 H :    0.181887
  16 H :    0.281849

  Mayer bond orders larger than 0.100000
B(  0-C ,  1-O ) :   0.8625 B(  0-C ,  9-H ) :   0.9638 B(  0-C , 10-H ) :   0.9679
B(  0-C , 11-H ) :   0.9638 B(  1-O ,  2-C ) :   1.0276 B(  2-C ,  3-C ) :   1.3861
B(  2-C ,  7-C ) :   1.4553 B(  3-C ,  4-C ) :   1.3895 B(  3-C , 12-H ) :   0.9241
B(  4-C ,  5-C ) :   1.4287 B(  4-C , 13-H ) :   0.9528 B(  5-C ,  6-C ) :   1.3986
B(  5-C , 14-H ) :   0.9421 B(  6-C ,  7-C ) :   1.2889 B(  6-C ,  8-O ) :   0.9100
B(  7-C , 15-H ) :   0.9142 B(  8-O , 16-H ) :   0.8843

Dispersion correction           -0.005304278
FINAL SINGLE POINT ENERGY      -421.902867352689

DIPOLE MOMENT
-------------

Method             : SCF
Type of density    : Electron Density
Multiplicity       :   1
Irrep              :   0
Energy             :  -421.9057002011690543 Eh
Relativity type    :
Basis              : AO
                                X                 Y                 Z
Electronic contribution:      4.619473957       2.863108109       0.000852857
Nuclear contribution   :     -5.299733612      -2.856524289      -0.000995804
                        -----------------------------------------
Total Dipole Moment    :     -0.680259655       0.006583820      -0.000142947
                        -----------------------------------------
Magnitude (a.u.)       :      0.680291530
Magnitude (Debye)      :      1.729163649

Rotational constants in cm-1:             0.121691             0.037846             0.029028
Rotational constants in MHz :          3648.214910          1134.598807           870.241334

                             ****ORCA TERMINATED NORMALLY****
TOTAL RUN TIME: 0 days 0 hours 0 minutes 23 seconds 105 msec
