                         Program Version 6.0.1  -  RELEASE   -
|  1> ! pbe def2-sv(p) def2/J RI DEFGRID1 loosescf d4 GCP(DFT/SV(P)) printgap
|  2> %output
|  3>     printlevel normal
|  4> end
|  5> * xyz 0 1
|  6> C -2.3887504836 -0.8844201103 0.4039185662
|  7> C -0.936732115 -0.4262991062 0.60345054
|  8> H -0.6496669822 -0.5756398683 1.6558843828
|  9> C -0.7434578811 1.0653799367 0.2326513575
| 10> H -1.528037077 1.3697550601 -0.4746375831
| 11> C 0.6189916846 1.2365651744 -0.472341313
| 12> H 0.9118447718 2.2899890923 -0.4209828954
| 13> C 1.6640712926 0.3689023604 0.2517732251
| 14> H 2.645073715 0.493391402 -0.226095516
| 15> C 1.2607555331 -1.1232543702 0.0743505824
| 16> H 1.4792245867 -1.6685293068 1.0041818423
| 17> O -0.128599576 -1.239388192 -0.2270923356
| 18> O 1.9623492638 -1.7497602937 -0.9307313685
| 19> O 1.8079803691 0.7182304675 1.6012733998
| 20> O 0.5347940295 0.9041882923 -1.8330728782
| 21> O -0.7517171107 1.8888829828 1.3809281667
| 22> O -2.8050053943 -0.7261153679 -0.9238350939
| 23> H -3.0572266604 -0.2726964082 1.0143781887
| 24> H -2.473635301 -1.9310024064 0.7221388008
| 25> H 1.8829190718 -1.2358759181 -1.7466173458
| 26> H 1.038536312 1.2363358422 1.8801584644
| 27> H 0.0677334568 0.0579554929 -1.8982701584
| 28> H -1.6463769598 1.9436799996 1.7327311297
| 29> H -2.2513130811 -1.2924615332 -1.4745838607
| 30> *
| 31>
| 32>                          ****END OF INPUT****

CARTESIAN COORDINATES (ANGSTROEM)
---------------------------------
  C     -2.388750   -0.884420    0.403919
  C     -0.936732   -0.426299    0.603451
  H     -0.649667   -0.575640    1.655884
  C     -0.743458    1.065380    0.232651
  H     -1.528037    1.369755   -0.474638
  C      0.618992    1.236565   -0.472341
  H      0.911845    2.289989   -0.420983
  C      1.664071    0.368902    0.251773
  H      2.645074    0.493391   -0.226096
  C      1.260756   -1.123254    0.074351
  H      1.479225   -1.668529    1.004182
  O     -0.128600   -1.239388   -0.227092
  O      1.962349   -1.749760   -0.930731
  O      1.807980    0.718230    1.601273
  O      0.534794    0.904188   -1.833073
  O     -0.751717    1.888883    1.380928
  O     -2.805005   -0.726115   -0.923835
  H     -3.057227   -0.272696    1.014378
  H     -2.473635   -1.931002    0.722139
  H      1.882919   -1.235876   -1.746617
  H      1.038536    1.236336    1.880158
  H      0.067733    0.057955   -1.898270
  H     -1.646377    1.943680    1.732731
  H     -2.251313   -1.292462   -1.474584

 Total Charge           Charge          ....    0
 Multiplicity           Mult            ....    1
 Number of Electrons    NEL             ....   96
 Basis Dimension        Dim             ....  192

ORBITAL ENERGIES
----------------

  NO   OCC          E(Eh)            E(eV)
   0   2.0000     -18.787864      -511.2438
   1   2.0000     -18.786692      -511.2119
   2   2.0000     -18.766976      -510.6754
   3   2.0000     -18.764933      -510.6198
   4   2.0000     -18.763286      -510.5750
   5   2.0000     -18.745552      -510.0924
   6   2.0000      -9.987748      -271.7804
   7   2.0000      -9.956876      -270.9404
   8   2.0000      -9.956738      -270.9366
   9   2.0000      -9.952238      -270.8142
  10   2.0000      -9.951645      -270.7980
  11   2.0000      -9.939286      -270.4617
  12   2.0000      -0.996562       -27.1178
  13   2.0000      -0.962383       -26.1878
  14   2.0000      -0.947768       -25.7901
  15   2.0000      -0.941743       -25.6261
  16   2.0000      -0.923805       -25.1380
  17   2.0000      -0.923595       -25.1323
  18   2.0000      -0.711019       -19.3478
  19   2.0000      -0.688661       -18.7394
  20   2.0000      -0.635231       -17.2855
  21   2.0000      -0.593126       -16.1398
  22   2.0000      -0.581312       -15.8183
  23   2.0000      -0.539231       -14.6732
  24   2.0000      -0.512533       -13.9467
  25   2.0000      -0.506735       -13.7890
  26   2.0000      -0.481736       -13.1087
  27   2.0000      -0.472462       -12.8563
  28   2.0000      -0.460493       -12.5307
  29   2.0000      -0.449201       -12.2234
  30   2.0000      -0.415808       -11.3147
  31   2.0000      -0.401229       -10.9180
  32   2.0000      -0.395216       -10.7544
  33   2.0000      -0.387225       -10.5369
  34   2.0000      -0.370375       -10.0784
  35   2.0000      -0.366616        -9.9761
  36   2.0000      -0.342151        -9.3104
  37   2.0000      -0.330303        -8.9880
  38   2.0000      -0.308924        -8.4062
  39   2.0000      -0.301913        -8.2155
  40   2.0000      -0.295190        -8.0325
  41   2.0000      -0.293045        -7.9742
  42   2.0000      -0.266596        -7.2544
  43   2.0000      -0.259625        -7.0647
  44   2.0000      -0.244626        -6.6566
  45   2.0000      -0.234157        -6.3717
  46   2.0000      -0.227279        -6.1846
  47   2.0000      -0.203585        -5.5398
  48   0.0000      -0.009113        -0.2480
  49   0.0000       0.009032         0.2458
  50   0.0000       0.036601         0.9960
  51   0.0000       0.044105         1.2002
  52   0.0000       0.058343         1.5876

MULLIKEN ATOMIC CHARGES
-----------------------
   0 C :    0.077401
   1 C :   -0.017067
   2 H :    0.060625
   3 C :    0.003857
   4 H :    0.088000
   5 C :    0.027670
   6 H :    0.092647
   7 C :    0.020320
   8 H :    0.082066
   9 C :    0.178006
  10 H :    0.077562
  11 O :   -0.323181
  12 O :   -0.371089
  13 O :   -0.420560
  14 O :   -0.416554
  15 O :   -0.412869
  16 O :   -0.429095
  17 H :    0.077884
  18 H :    0.092858
  19 H :    0.291570
  20 H :    0.307309
  21 H :    0.293263
  22 H :    0.314012
  23 H :    0.305363
Sum of atomic charges:   -0.0000000

LOEWDIN ATOMIC CHARGES
----------------------
   0 C :   -0.123915
   1 C :   -0.090913
   2 H :    0.108345
   3 C :   -0.084872
   4 H :    0.115399
   5 C :   -0.071472
   6 H :    0.123717
   7 C :   -0.094058
   8 H :    0.115632
   9 C :   -0.002454
  10 H :    0.108090
  11 O :   -0.169185
  12 O :   -0.282290
  13 O :   -0.320299
  14 O :   -0.308514
  15 O :   -0.309603
  16 O :   -0.325978
  17 H :    0.111457
  18 H :    0.108692
  19 H :    0.276344
  20 H :    0.273990
  21 H :    0.262715
  22 H :    0.294670
  23 H :    0.284503

  Mayer bond orders larger than 0.100000
B(  0-C ,  1-C ) :   1.0313 B(  0-C , 16-O ) :   1.0723 B(  0-C , 17-H ) :   0.9235
B(  0-C , 18-H ) :   0.9127 B(  1-C ,  2-H ) :   0.8589 B(  1-C ,  3-C ) :   0.9877
B(  1-C , 11-O ) :   1.0204 B(  3-C ,  4-H ) :   0.8800 B(  3-C ,  5-C ) :   1.0075
B(  3-C , 15-O ) :   1.0293 B(  5-C ,  6-H ) :   0.8910 B(  5-C ,  7-C ) :   0.9957
B(  5-C , 14-O ) :   1.0450 B(  7-C ,  8-H ) :   0.9018 B(  7-C ,  9-C ) :   0.9271
B(  7-C , 13-O ) :   1.0856 B(  9-C , 10-H ) :   0.8992 B(  9-C , 11-O ) :   0.9567
B(  9-C , 12-O ) :   1.1613 B( 12-O , 19-H ) :   0.8312 B( 13-O , 20-H ) :   0.8088
B( 14-O , 21-H ) :   0.8125 B( 15-O , 20-H ) :   0.1016 B( 15-O , 22-H ) :   0.8401
B( 16-O , 23-H ) :   0.8392

Dispersion correction           -0.025524776
FINAL SINGLE POINT ENERGY      -685.692488980102

DIPOLE MOMENT
-------------

Method             : SCF
Type of density    : Electron Density
Multiplicity       :   1
Irrep              :   0
Energy             :  -685.8271359477359965 Eh
Relativity type    :
Basis              : AO
                                X                 Y                 Z
Electronic contribution:      2.259549164      -0.315842039      -1.368871582
Nuclear contribution   :     -3.350333985       0.386226546       1.645137610
                        -----------------------------------------
Total Dipole Moment    :     -1.090784821       0.070384506       0.276266027
                        -----------------------------------------
Magnitude (a.u.)       :      1.127425573
Magnitude (Debye)      :      2.865688066

Rotational constants in cm-1:             0.039342             0.029103             0.023245
Rotational constants in MHz :          1179.451989           872.499628           696.868920

                             ****ORCA TERMINATED NORMALLY****
TOTAL RUN TIME: 0 days 0 hours 0 minutes 8 seconds 770 msec
