                         Program Version 6.0.1  -  RELEASE   -
|  1> ! r2scan-3c def2/J RI DEFGRID2 scfconv6 printgap
|  2> %output
|  3>     printlevel normal
|  4> end
|  5> * xyz 0 1
|  6> C -2.2143846752 -0.4172150311 3.888e-07
|  7> C -1.1808744003 0.687486653 -1.128e-07
|  8> Br 0.6356681592 -0.0475813552 -2.69e-08
|  9> H -3.2113248791 0.0205554608 -0.0001393069
| 10> H -2.1096446026 -1.0444493519 -0.8829877176
| 11> H -2.1098124389 -1.0442771667 0.8831291557
| 12> H -1.2513547466 1.3097648999 0.8910517441
| 13> H -1.2513605412 1.3097586294 -0.8910550307
| 14> *
| 15>
| 16>                          ****END OF INPUT****

CARTESIAN COORDINATES (ANGSTROEM)
---------------------------------
  C     -2.214385   -0.417215    0.000000
  C     -1.180874    0.687487   -0.000000
  Br     0.635668   -0.047581   -0.000000
  H     -3.211325    0.020555   -0.000139
  H     -2.109645   -1.044449   -0.882988
  H     -2.109812   -1.044277    0.883129
  H     -1.251355    1.309765    0.891052
  H     -1.251361    1.309759   -0.891055

 Total Charge           Charge          ....    0
 Multiplicity           Mult            ....    1
 Number of Electrons    NEL             ....   52
 Basis Dimension        Dim             ....   99

ORBITAL ENERGIES
----------------

  NO   OCC          E(Eh)            E(eV)
   0   2.0000    -482.211972    -13121.6549
   1   2.0000     -62.284064     -1694.8355
   2   2.0000     -56.064536     -1525.5936
   3   2.0000     -56.061844     -1525.5203
   4   2.0000     -56.061696     -1525.5163
   5   2.0000     -10.095618      -274.7157
   6   2.0000     -10.040574      -273.2179
   7   2.0000      -8.616316      -234.4619
   8   2.0000      -6.423750      -174.7991
   9   2.0000      -6.410132      -174.4286
  10   2.0000      -6.410098      -174.4276
  11   2.0000      -2.521324       -68.6087
  12   2.0000      -2.517942       -68.5167
  13   2.0000      -2.517922       -68.5161
  14   2.0000      -2.507773       -68.2400
  15   2.0000      -2.507765       -68.2397
  16   2.0000      -0.786497       -21.4017
  17   2.0000      -0.696862       -18.9626
  18   2.0000      -0.588619       -16.0171
  19   2.0000      -0.445908       -12.1338
  20   2.0000      -0.419175       -11.4063
  21   2.0000      -0.378115       -10.2890
  22   2.0000      -0.346250        -9.4219
  23   2.0000      -0.332698        -9.0532
  24   2.0000      -0.251363        -6.8399
  25   2.0000      -0.250349        -6.8123
  26   0.0000      -0.023763        -0.6466
  27   0.0000       0.097411         2.6507
  28   0.0000       0.115122         3.1326
  29   0.0000       0.149708         4.0738
  30   0.0000       0.161155         4.3853

MULLIKEN ATOMIC CHARGES
-----------------------
   0 C :   -0.431108
   1 C :   -0.174823
   2 Br:   -0.177786
   3 H :    0.144693
   4 H :    0.158543
   5 H :    0.158540
   6 H :    0.160971
   7 H :    0.160969
Sum of atomic charges:    0.0000000

LOEWDIN ATOMIC CHARGES
----------------------
   0 C :   -0.443235
   1 C :   -0.399365
   2 Br:    0.058850
   3 H :    0.157400
   4 H :    0.158270
   5 H :    0.158268
   6 H :    0.154906
   7 H :    0.154905

  Mayer bond orders larger than 0.100000
B(  0-C ,  1-C ) :   0.9302 B(  0-C ,  3-H ) :   0.9533 B(  0-C ,  4-H ) :   0.9708
B(  0-C ,  5-H ) :   0.9708 B(  1-C ,  2-Br) :   0.9748 B(  1-C ,  6-H ) :   0.9570
B(  1-C ,  7-H ) :   0.9570

Dispersion correction           -0.001392734
FINAL SINGLE POINT ENERGY     -2653.333102606333

DIPOLE MOMENT
-------------

Method             : SCF
Type of density    : Electron Density
Multiplicity       :   1
Irrep              :   0
Energy             : -2653.3359307018081381 Eh
Relativity type    :
Basis              : AO
                                X                 Y                 Z
Electronic contribution:     14.352081430      -0.712122171      -0.000003883
Nuclear contribution   :    -15.221703553       0.959069327      -0.000000834
                        -----------------------------------------
Total Dipole Moment    :     -0.869622123       0.246947156      -0.000004717
                        -----------------------------------------
Magnitude (a.u.)       :      0.904005274
Magnitude (Debye)      :      2.297798797

Rotational constants in cm-1:             1.004695             0.126153             0.117017
Rotational constants in MHz :         30120.005340          3781.983586          3508.079461

                             ****ORCA TERMINATED NORMALLY****
TOTAL RUN TIME: 0 days 0 hours 0 minutes 6 seconds 117 msec
