                         Program Version 6.0.1  -  RELEASE   -
|  1> ! pbe def2-sv(p) def2/J RI DEFGRID1 loosescf d4 GCP(DFT/SV(P)) printgap
|  2> %output
|  3>     printlevel normal
|  4> end
|  5> * xyz 0 1
|  6> C -2.811998772 -0.5703921364 0.0715943896
|  7> O -1.4573374267 -0.9610237939 0.2776556324
|  8> C -0.5277205785 -0.1161188819 -0.1778126162
|  9> O -0.7639780306 0.923799936 -0.7195705949
| 10> C 0.852849523 -0.6962110982 0.0816798825
| 11> Cl 2.0569885835 0.6003653789 0.198424368
| 12> H -2.9924656332 0.4118300312 0.5116795228
| 13> H -3.4212468158 -1.3277629203 0.5570951085
| 14> H -3.0336245379 -0.5249687881 -0.9961306666
| 15> H 1.1348231352 -1.3401308424 -0.753263398
| 16> H 0.8545237465 -1.2682968235 1.008395188
| 17> *
| 18>
| 19>                          ****END OF INPUT****

CARTESIAN COORDINATES (ANGSTROEM)
---------------------------------
  C     -2.811999   -0.570392    0.071594
  O     -1.457337   -0.961024    0.277656
  C     -0.527721   -0.116119   -0.177813
  O     -0.763978    0.923800   -0.719571
  C      0.852850   -0.696211    0.081680
  Cl     2.056989    0.600365    0.198424
  H     -2.992466    0.411830    0.511680
  H     -3.421247   -1.327763    0.557095
  H     -3.033625   -0.524969   -0.996131
  H      1.134823   -1.340131   -0.753263
  H      0.854524   -1.268297    1.008395

 Total Charge           Charge          ....    0
 Multiplicity           Mult            ....    1
 Number of Electrons    NEL             ....   56
 Basis Dimension        Dim             ....   98

ORBITAL ENERGIES
----------------

  NO   OCC          E(Eh)            E(eV)
   0   2.0000    -100.626440     -2738.1846
   1   2.0000     -18.814146      -511.9589
   2   2.0000     -18.751393      -510.2514
   3   2.0000     -10.021089      -272.6877
   4   2.0000      -9.956731      -270.9364
   5   2.0000      -9.949836      -270.7488
   6   2.0000      -9.162375      -249.3209
   7   2.0000      -6.994525      -190.3307
   8   2.0000      -6.981725      -189.9824
   9   2.0000      -6.981602      -189.9790
  10   2.0000      -1.021420       -27.7943
  11   2.0000      -0.932262       -25.3681
  12   2.0000      -0.785166       -21.3655
  13   2.0000      -0.690595       -18.7921
  14   2.0000      -0.616650       -16.7799
  15   2.0000      -0.518178       -14.1003
  16   2.0000      -0.467688       -12.7264
  17   2.0000      -0.456891       -12.4326
  18   2.0000      -0.430768       -11.7218
  19   2.0000      -0.413082       -11.2405
  20   2.0000      -0.384863       -10.4727
  21   2.0000      -0.375757       -10.2249
  22   2.0000      -0.348837        -9.4923
  23   2.0000      -0.320691        -8.7264
  24   2.0000      -0.273936        -7.4542
  25   2.0000      -0.254839        -6.9345
  26   2.0000      -0.252092        -6.8598
  27   2.0000      -0.237284        -6.4568
  28   0.0000      -0.039171        -1.0659
  29   0.0000       0.011775         0.3204
  30   0.0000       0.044216         1.2032
  31   0.0000       0.062794         1.7087
  32   0.0000       0.086281         2.3478

MULLIKEN ATOMIC CHARGES
-----------------------
   0 C :   -0.113954
   1 O :   -0.248501
   2 C :    0.123014
   3 O :   -0.164781
   4 C :   -0.171241
   5 Cl:   -0.114371
   6 H :    0.126192
   7 H :    0.125210
   8 H :    0.121548
   9 H :    0.164134
  10 H :    0.152748
Sum of atomic charges:    0.0000000

LOEWDIN ATOMIC CHARGES
----------------------
   0 C :   -0.204375
   1 O :   -0.078452
   2 C :    0.005131
   3 O :   -0.131256
   4 C :   -0.310052
   5 Cl:    0.064711
   6 H :    0.122516
   7 H :    0.122406
   8 H :    0.120492
   9 H :    0.148737
  10 H :    0.140142

  Mayer bond orders larger than 0.100000
B(  0-C ,  1-O ) :   0.9391 B(  0-C ,  6-H ) :   0.9502 B(  0-C ,  7-H ) :   0.9587
B(  0-C ,  8-H ) :   0.9531 B(  1-O ,  2-C ) :   1.1987 B(  2-C ,  3-O ) :   2.1258
B(  2-C ,  4-C ) :   0.9610 B(  4-C ,  5-Cl) :   1.0872 B(  4-C ,  9-H ) :   0.9039
B(  4-C , 10-H ) :   0.9160

Dispersion correction           -0.008188748
FINAL SINGLE POINT ENERGY      -727.082071400637

DIPOLE MOMENT
-------------

Method             : SCF
Type of density    : Electron Density
Multiplicity       :   1
Irrep              :   0
Energy             :  -727.1241386602590637 Eh
Relativity type    :
Basis              : AO
                                X                 Y                 Z
Electronic contribution:      9.077394429       3.637348851       0.173521680
Nuclear contribution   :     -9.790671964      -4.605338547       0.034642684
                        -----------------------------------------
Total Dipole Moment    :     -0.713277535      -0.967989696       0.208164364
                        -----------------------------------------
Magnitude (a.u.)       :      1.220287383
Magnitude (Debye)      :      3.101724028

Rotational constants in cm-1:             0.311642             0.047241             0.042481
Rotational constants in MHz :          9342.799352          1416.242483          1273.541625

                             ****ORCA TERMINATED NORMALLY****
TOTAL RUN TIME: 0 days 0 hours 0 minutes 7 seconds 422 msec
