                         Program Version 6.0.0  -   RELEASE  -
|  1> ! r2SCAN-3c DEF2-TZVP FREQ
|  2> * xyzfile 0 1 censo.xyz
|  3>
|  4>                          ****END OF INPUT****

CARTESIAN COORDINATES (ANGSTROEM)
---------------------------------
  C     -1.101037    0.191677    0.002321
  C     -0.191696   -1.101168   -0.002414
  C      1.101044   -0.191675    0.002452
  C      0.191703    1.101171   -0.002359
  F      0.320837    1.853197   -1.106469
  F      0.322907    1.865482    1.092799
  F      1.865445   -0.322936   -1.092630
  F      1.853002   -0.320755    1.106606
  F     -0.323041   -1.865505    1.092710
  F     -0.320686   -1.853168   -1.106558
  F     -1.853130    0.320724    1.106389
  F     -1.865305    0.322970   -1.092850

 Total Charge           Charge          ....    0
 Multiplicity           Mult            ....    1
 Number of Electrons    NEL             ....   96
 Basis Dimension        Dim             ....  372

ORBITAL ENERGIES
----------------

  NO   OCC          E(Eh)            E(eV)
   0   2.0000     -24.553156      -668.1254
   1   2.0000     -24.553156      -668.1253
   2   2.0000     -24.553151      -668.1252
   3   2.0000     -24.553149      -668.1252
   4   2.0000     -24.553116      -668.1243
   5   2.0000     -24.553109      -668.1241
   6   2.0000     -24.553108      -668.1240
   7   2.0000     -24.553100      -668.1238
   8   2.0000     -10.256823      -279.1024
   9   2.0000     -10.256759      -279.1006
  10   2.0000     -10.256757      -279.1005
  11   2.0000     -10.256690      -279.0987
  12   2.0000      -1.290387       -35.1132
  13   2.0000      -1.273043       -34.6413
  14   2.0000      -1.273043       -34.6413
  15   2.0000      -1.260005       -34.2865
  16   2.0000      -1.226928       -33.3864
  17   2.0000      -1.217031       -33.1171
  18   2.0000      -1.217027       -33.1170
  19   2.0000      -1.208467       -32.8841
  20   2.0000      -0.868884       -23.6435
  21   2.0000      -0.701023       -19.0758
  22   2.0000      -0.701005       -19.0753
  23   2.0000      -0.632880       -17.2215
  24   2.0000      -0.611721       -16.6458
  25   2.0000      -0.600672       -16.3451
  26   2.0000      -0.592317       -16.1178
  27   2.0000      -0.565759       -15.3951
  28   2.0000      -0.565755       -15.3950
  29   2.0000      -0.555590       -15.1184
  30   2.0000      -0.555569       -15.1178
  31   2.0000      -0.543018       -14.7763
  32   2.0000      -0.464036       -12.6271
  33   2.0000      -0.464032       -12.6270
  34   2.0000      -0.455542       -12.3959
  35   2.0000      -0.453956       -12.3528
  36   2.0000      -0.451444       -12.2844
  37   2.0000      -0.449139       -12.2217
  38   2.0000      -0.438627       -11.9356
  39   2.0000      -0.438627       -11.9356
  40   2.0000      -0.432173       -11.7600
  41   2.0000      -0.414190       -11.2707
  42   2.0000      -0.410007       -11.1569
  43   2.0000      -0.410004       -11.1568
  44   2.0000      -0.402663       -10.9570
  45   2.0000      -0.363854        -9.9010
  46   2.0000      -0.363824        -9.9002
  47   2.0000      -0.306732        -8.3466
  48   0.0000      -0.076856        -2.0914
  49   0.0000       0.001299         0.0354
  50   0.0000       0.071627         1.9491
  51   0.0000       0.071645         1.9496
  52   0.0000       0.120597         3.2816

MULLIKEN ATOMIC CHARGES
-----------------------
   0 C :    0.307425
   1 C :    0.307747
   2 C :    0.307429
   3 C :    0.307761
   4 F :   -0.153649
   5 F :   -0.153940
   6 F :   -0.153942
   7 F :   -0.153650
   8 F :   -0.153941
   9 F :   -0.153648
  10 F :   -0.153649
  11 F :   -0.153942
Sum of atomic charges:   -0.0000000

LOEWDIN ATOMIC CHARGES
----------------------
   0 C :   -0.447164
   1 C :   -0.447129
   2 C :   -0.447165
   3 C :   -0.447129
   4 F :    0.223537
   5 F :    0.223607
   6 F :    0.223609
   7 F :    0.223541
   8 F :    0.223606
   9 F :    0.223538
  10 F :    0.223539
  11 F :    0.223609

  Mayer bond orders larger than 0.100000
B(  0-C ,  1-C ) :   0.9335 B(  0-C ,  3-C ) :   0.9336 B(  0-C , 10-F ) :   1.1020
B(  0-C , 11-F ) :   1.1001 B(  1-C ,  2-C ) :   0.9335 B(  1-C ,  8-F ) :   1.1001
B(  1-C ,  9-F ) :   1.1020 B(  2-C ,  3-C ) :   0.9336 B(  2-C ,  6-F ) :   1.1001
B(  2-C ,  7-F ) :   1.1020 B(  3-C ,  4-F ) :   1.1020 B(  3-C ,  5-F ) :   1.1001

Dispersion correction           -0.003391373
FINAL SINGLE POINT ENERGY      -951.140598704536

DIPOLE MOMENT
-------------

Method             : SCF
Type of density    : Electron Density
Multiplicity       :   1
Irrep              :   0
Energy             :  -951.1518476822138837 Eh
Relativity type    :
Basis              : AO
                                X                 Y                 Z
Electronic contribution:      0.000000607       0.000000593       0.000000107
Nuclear contribution   :     -0.000000245       0.000000362       0.000000344
                        -----------------------------------------
Total Dipole Moment    :      0.000000362       0.000000955       0.000000451
                        -----------------------------------------
Magnitude (a.u.)       :      0.000001117
Magnitude (Debye)      :      0.000002838

VIBRATIONAL FREQUENCIES
-----------------------

Scaling factor for frequencies =  1.000000000  (already applied!)

     0:       0.00 cm**-1
     1:       0.00 cm**-1
     2:       0.00 cm**-1
     3:       0.00 cm**-1
     4:       0.00 cm**-1
     5:       0.00 cm**-1
     6:      24.88 cm**-1
     7:     199.50 cm**-1
     8:     199.54 cm**-1
     9:     210.56 cm**-1
    10:     223.67 cm**-1
    11:     262.40 cm**-1
    12:     269.33 cm**-1
    13:     285.10 cm**-1
    14:     285.11 cm**-1
    15:     337.11 cm**-1
    16:     359.31 cm**-1
    17:     445.10 cm**-1
    18:     445.14 cm**-1
    19:     556.28 cm**-1
    20:     556.29 cm**-1
    21:     597.95 cm**-1
    22:     658.23 cm**-1
    23:     687.18 cm**-1
    24:     873.13 cm**-1
    25:     955.26 cm**-1
    26:     955.27 cm**-1
    27:     956.06 cm**-1
    28:    1183.40 cm**-1
    29:    1183.42 cm**-1
    30:    1211.52 cm**-1
    31:    1256.11 cm**-1
    32:    1260.08 cm**-1
    33:    1306.71 cm**-1
    34:    1306.75 cm**-1
    35:    1383.93 cm**-1

IR SPECTRUM
-----------

 Mode   freq       eps      Int      T**2         TX        TY        TZ
       cm**-1   L/(mol*cm) km/mol    a.u.
----------------------------------------------------------------------------
  6:     24.88   0.000000    0.00  0.000000  ( 0.000001  0.000002 -0.000017)
  7:    199.50   0.000000    0.00  0.000000  (-0.000018 -0.000032  0.000000)
  8:    199.54   0.000000    0.00  0.000000  ( 0.000032 -0.000019 -0.000001)
  9:    210.56   0.000885    4.47  0.001312  (-0.000002 -0.000001  0.036226)
 10:    223.67   0.000000    0.00  0.000000  (-0.000000  0.000001 -0.000001)
 11:    262.40   0.000000    0.00  0.000000  ( 0.000002  0.000001 -0.000547)
 12:    269.33   0.000000    0.00  0.000000  (-0.000000  0.000000 -0.000075)
 13:    285.10   0.000410    2.07  0.000448  ( 0.020767 -0.004131  0.000001)
 14:    285.11   0.000410    2.07  0.000448  (-0.004131 -0.020767 -0.000001)
 15:    337.11   0.000000    0.00  0.000000  ( 0.000000  0.000000 -0.000305)
 16:    359.31   0.000000    0.00  0.000000  ( 0.000000 -0.000000 -0.000000)
 17:    445.10   0.000000    0.00  0.000000  (-0.000422  0.000002 -0.000000)
 18:    445.14   0.000000    0.00  0.000000  ( 0.000002  0.000422  0.000000)
 19:    556.28   0.005003   25.28  0.002807  ( 0.051777 -0.011214  0.000003)
 20:    556.29   0.005003   25.28  0.002806  ( 0.011213  0.051774  0.000002)
 21:    597.95   0.000000    0.00  0.000000  (-0.000000  0.000001 -0.000001)
 22:    658.23   0.000000    0.00  0.000000  ( 0.000000 -0.000000  0.000105)
 23:    687.18   0.000000    0.00  0.000000  (-0.000000 -0.000000  0.000000)
 24:    873.13   0.000000    0.00  0.000000  ( 0.000000  0.000000 -0.000000)
 25:    955.26   0.042101  212.76  0.013753  (-0.018407 -0.115822 -0.000003)
 26:    955.27   0.042090  212.70  0.013750  ( 0.115806 -0.018404  0.000007)
 27:    956.06   0.000000    0.00  0.000000  ( 0.000057  0.000011  0.000091)
 28:   1183.40   0.000000    0.00  0.000000  ( 0.000250 -0.000114  0.000005)
 29:   1183.42   0.000000    0.00  0.000000  ( 0.000114  0.000250 -0.000002)
 30:   1211.52   0.144313  729.30  0.037172  ( 0.000014  0.000003 -0.192801)
 31:   1256.11   0.000021    0.11  0.000005  ( 0.000000  0.000000  0.002279)
 32:   1260.08   0.000000    0.00  0.000000  (-0.000001  0.000000  0.000005)
 33:   1306.71   0.021865  110.50  0.005222  (-0.071005  0.013418 -0.000007)
 34:   1306.75   0.021855  110.45  0.005219  (-0.013415 -0.070988 -0.000002)
 35:   1383.93   0.000000    0.00  0.000000  ( 0.000000 -0.000000 -0.000000)

--------------------------
THERMOCHEMISTRY AT 298.15K
--------------------------

Temperature         ...   298.15 K
Pressure            ...     1.00 atm
Total Mass          ...   200.03 AMU
Quasi RRHO          ...     True
Cut-Off Frequency   ...     1.00 cm^-1

Throughout the following assumptions are being made:
  (1) The electronic state is orbitally nondegenerate
  (2) There are no thermally accessible electronically excited states
  (3) Hindered rotations indicated by low frequency modes are not
      treated as such but are treated as vibrations and this may
      cause some error
  (4) All equations used are the standard statistical mechanics
      equations for an ideal gas
  (5) All vibrations are strictly harmonic

freq.      24.88  E(vib)   ...       0.56
freq.     199.50  E(vib)   ...       0.35
freq.     199.54  E(vib)   ...       0.35
freq.     210.56  E(vib)   ...       0.34
freq.     223.67  E(vib)   ...       0.33
freq.     262.40  E(vib)   ...       0.29
freq.     269.33  E(vib)   ...       0.29
freq.     285.10  E(vib)   ...       0.28
freq.     285.11  E(vib)   ...       0.28
freq.     337.11  E(vib)   ...       0.24
freq.     359.31  E(vib)   ...       0.22
freq.     445.10  E(vib)   ...       0.17
freq.     445.14  E(vib)   ...       0.17
freq.     556.28  E(vib)   ...       0.12
freq.     556.29  E(vib)   ...       0.12
freq.     597.95  E(vib)   ...       0.10
freq.     658.23  E(vib)   ...       0.08
freq.     687.18  E(vib)   ...       0.07
freq.     873.13  E(vib)   ...       0.04
freq.     955.26  E(vib)   ...       0.03
freq.     955.27  E(vib)   ...       0.03
freq.     956.06  E(vib)   ...       0.03
freq.    1183.40  E(vib)   ...       0.01
freq.    1183.42  E(vib)   ...       0.01
freq.    1211.52  E(vib)   ...       0.01
freq.    1256.11  E(vib)   ...       0.01
freq.    1260.08  E(vib)   ...       0.01
freq.    1306.71  E(vib)   ...       0.01
freq.    1306.75  E(vib)   ...       0.01
freq.    1383.93  E(vib)   ...       0.00

------------
INNER ENERGY
------------

The inner energy is: U= E(el) + E(ZPE) + E(vib) + E(rot) + E(trans)
    E(el)   - is the total energy from the electronic structure calculation
              = E(kin-el) + E(nuc-el) + E(el-el) + E(nuc-nuc)
    E(ZPE)  - the the zero temperature vibrational energy from the frequency calculation
    E(vib)  - the the finite temperature correction to E(ZPE) due to population
              of excited vibrational states
    E(rot)  - is the rotational thermal energy
    E(trans)- is the translational thermal energy

Summary of contributions to the inner energy U:
Electronic energy                ...   -951.14059870 Eh
Zero point energy                ...      0.04655288 Eh      29.21 kcal/mol
Thermal vibrational correction   ...      0.00723114 Eh       4.54 kcal/mol
Thermal rotational correction    ...      0.00141627 Eh       0.89 kcal/mol
Thermal translational correction ...      0.00141627 Eh       0.89 kcal/mol
-----------------------------------------------------------------------
Total thermal energy                   -951.08398214 Eh

Summary of corrections to the electronic energy:
(perhaps to be used in another calculation)
Total thermal correction                  0.01006368 Eh       6.32 kcal/mol
Non-thermal (ZPE) correction              0.04655288 Eh      29.21 kcal/mol
-----------------------------------------------------------------------
Total correction                          0.05661656 Eh      35.53 kcal/mol

--------
ENTHALPY
--------

The enthalpy is H = U + kB*T
                kB is Boltzmann's constant
Total thermal energy              ...   -951.08398214 Eh
Thermal Enthalpy correction       ...      0.00094421 Eh       0.59 kcal/mol
-----------------------------------------------------------------------
Total Enthalpy                    ...   -951.08303794 Eh

Note: Rotational entropy computed according to Herzberg
Infrared and Raman Spectra, Chapter V,1, Van Nostrand Reinhold, 1945
Point Group:  C2, Symmetry Number:   2
Rotational constants in cm-1:     0.034805     0.034802     0.028042

Vibrational entropy computed according to the QRRHO of S. Grimme
Chem.Eur.J. 2012 18 9955 using a reference frequency of 100.0 cm-1

-------
ENTROPY
-------

The entropy contributions are T*S = T*(S(el)+S(vib)+S(rot)+S(trans))
     S(el)   - electronic entropy
     S(vib)  - vibrational entropy
     S(rot)  - rotational entropy
     S(trans)- translational entropy
The entropies will be listed as multiplied by the temperature to get
units of energy

Electronic entropy                ...      0.00000000 Eh      0.00 kcal/mol
Vibrational entropy               ...      0.01221464 Eh      7.66 kcal/mol
Rotational entropy                ...      0.01371422 Eh      8.61 kcal/mol
Translational entropy             ...      0.01985312 Eh     12.46 kcal/mol
-----------------------------------------------------------------------
Final entropy term                ...      0.04578199 Eh     28.73 kcal/mol

In case the symmetry of your molecule has not been determined correctly
or in case you have a reason to use a different symmetry number we print
out the resulting rotational entropy values for sn=1,12:

 non-linear molecules -----------------------------------
|  sn= 1 | S(rot)=       0.01436868 Eh      9.02 kcal/mol|
|  sn= 2 | S(rot)=       0.01371422 Eh      8.61 kcal/mol|
|  sn= 3 | S(rot)=       0.01333139 Eh      8.37 kcal/mol|
|  sn= 4 | S(rot)=       0.01305977 Eh      8.20 kcal/mol|
|  sn= 5 | S(rot)=       0.01284908 Eh      8.06 kcal/mol|
|  sn= 6 | S(rot)=       0.01267694 Eh      7.95 kcal/mol|
|  sn= 7 | S(rot)=       0.01253139 Eh      7.86 kcal/mol|
|  sn= 8 | S(rot)=       0.01240531 Eh      7.78 kcal/mol|
|  sn= 9 | S(rot)=       0.01229410 Eh      7.71 kcal/mol|
|  sn=10 | S(rot)=       0.01219462 Eh      7.65 kcal/mol|
|  sn=11 | S(rot)=       0.01210463 Eh      7.60 kcal/mol|
|  sn=12 | S(rot)=       0.01202248 Eh      7.54 kcal/mol|
 linear molecules ---------------------------------------
|  Dinfh | S(rot)=       0.00870037 Eh      5.46 kcal/mol|
|  Cinfv | S(rot)=       0.00935482 Eh      5.87 kcal/mol|
 --------------------------------------------------------

-------------------
GIBBS FREE ENERGY
-------------------

The Gibbs free energy is G = H - T*S

Total enthalpy                    ...   -951.08303794 Eh
Total entropy correction          ...     -0.04578199 Eh    -28.73 kcal/mol
-----------------------------------------------------------------------
Final Gibbs free energy         ...   -951.12881993 Eh

For completeness - the Gibbs free energy minus the electronic energy
G-E(el)                           ...      0.01177878 Eh      7.39 kcal/mol

                             ****ORCA TERMINATED NORMALLY****
TOTAL RUN TIME: 0 days 0 hours 10 minutes 25 seconds 941 msec
