                         Program Version 6.0.0  -   RELEASE  -
|  1> ! r2SCAN-3c DEF2-TZVP FREQ
|  2> * xyzfile 0 1 vacuum_censo.xyz
|  3>
|  4>                          ****END OF INPUT****

CARTESIAN COORDINATES (ANGSTROEM)
---------------------------------
  C     -1.114287   -0.018598   -0.047833
  C     -0.018599    1.114354    0.047848
  C      1.114286    0.018598   -0.047843
  C      0.018599   -1.114355    0.047921
  F      0.029174   -1.748228    1.232552
  F      0.033576   -2.003090   -0.954113
  F      2.003038    0.033624    0.954164
  F      1.748148    0.029118   -1.232483
  F     -0.033586    2.003074   -0.954193
  F     -0.029162    1.748244    1.232478
  F     -1.748156   -0.029215   -1.232469
  F     -2.003033   -0.033537    0.954180

 Total Charge           Charge          ....    0
 Multiplicity           Mult            ....    1
 Number of Electrons    NEL             ....   96
 Basis Dimension        Dim             ....  372

ORBITAL ENERGIES
----------------

  NO   OCC          E(Eh)            E(eV)
   0   2.0000     -24.553454      -668.1334
   1   2.0000     -24.553451      -668.1334
   2   2.0000     -24.553449      -668.1333
   3   2.0000     -24.553447      -668.1333
   4   2.0000     -24.553011      -668.1214
   5   2.0000     -24.553009      -668.1213
   6   2.0000     -24.553008      -668.1213
   7   2.0000     -24.553005      -668.1212
   8   2.0000     -10.256511      -279.0938
   9   2.0000     -10.256443      -279.0920
  10   2.0000     -10.256442      -279.0920
  11   2.0000     -10.256373      -279.0901
  12   2.0000      -1.290670       -35.1209
  13   2.0000      -1.273123       -34.6434
  14   2.0000      -1.273123       -34.6434
  15   2.0000      -1.260242       -34.2929
  16   2.0000      -1.227299       -33.3965
  17   2.0000      -1.217345       -33.1256
  18   2.0000      -1.217343       -33.1256
  19   2.0000      -1.209065       -32.9003
  20   2.0000      -0.869657       -23.6646
  21   2.0000      -0.701031       -19.0760
  22   2.0000      -0.701022       -19.0758
  23   2.0000      -0.633125       -17.2282
  24   2.0000      -0.611932       -16.6515
  25   2.0000      -0.600805       -16.3487
  26   2.0000      -0.592020       -16.1097
  27   2.0000      -0.566612       -15.4183
  28   2.0000      -0.566609       -15.4182
  29   2.0000      -0.555051       -15.1037
  30   2.0000      -0.555041       -15.1034
  31   2.0000      -0.543395       -14.7865
  32   2.0000      -0.464110       -12.6291
  33   2.0000      -0.464108       -12.6290
  34   2.0000      -0.456525       -12.4227
  35   2.0000      -0.453947       -12.3525
  36   2.0000      -0.451583       -12.2882
  37   2.0000      -0.448580       -12.2065
  38   2.0000      -0.438609       -11.9352
  39   2.0000      -0.438609       -11.9352
  40   2.0000      -0.432461       -11.7679
  41   2.0000      -0.415054       -11.2942
  42   2.0000      -0.410010       -11.1569
  43   2.0000      -0.410009       -11.1569
  44   2.0000      -0.403782       -10.9875
  45   2.0000      -0.363571        -9.8933
  46   2.0000      -0.363555        -9.8928
  47   2.0000      -0.306149        -8.3307
  48   0.0000      -0.073787        -2.0078
  49   0.0000       0.000993         0.0270
  50   0.0000       0.072103         1.9620
  51   0.0000       0.072112         1.9623
  52   0.0000       0.121094         3.2951

MULLIKEN ATOMIC CHARGES
-----------------------
   0 C :    0.307036
   1 C :    0.307105
   2 C :    0.307025
   3 C :    0.307096
   4 F :   -0.151470
   5 F :   -0.155593
   6 F :   -0.155594
   7 F :   -0.151473
   8 F :   -0.155590
   9 F :   -0.151474
  10 F :   -0.151472
  11 F :   -0.155594
Sum of atomic charges:    0.0000000

LOEWDIN ATOMIC CHARGES
----------------------
   0 C :   -0.448860
   1 C :   -0.448841
   2 C :   -0.448860
   3 C :   -0.448840
   4 F :    0.223490
   5 F :    0.225358
   6 F :    0.225366
   7 F :    0.223487
   8 F :    0.225366
   9 F :    0.223482
  10 F :    0.223486
  11 F :    0.225367

  Mayer bond orders larger than 0.100000
B(  0-C ,  1-C ) :   0.9278 B(  0-C ,  3-C ) :   0.9278 B(  0-C , 10-F ) :   1.1209
B(  0-C , 11-F ) :   1.0952 B(  1-C ,  2-C ) :   0.9278 B(  1-C ,  8-F ) :   1.0953
B(  1-C ,  9-F ) :   1.1209 B(  2-C ,  3-C ) :   0.9277 B(  2-C ,  6-F ) :   1.0952
B(  2-C ,  7-F ) :   1.1209 B(  3-C ,  4-F ) :   1.1209 B(  3-C ,  5-F ) :   1.0952

Dispersion correction           -0.003394487
FINAL SINGLE POINT ENERGY      -951.140889713408

DIPOLE MOMENT
-------------

Method             : SCF
Type of density    : Electron Density
Multiplicity       :   1
Irrep              :   0
Energy             :  -951.1521087709066933 Eh
Relativity type    :
Basis              : AO
                                X                 Y                 Z
Electronic contribution:     -0.000000605       0.000000977       0.000009440
Nuclear contribution   :     -0.000000282       0.000001868       0.000015344
                        -----------------------------------------
Total Dipole Moment    :     -0.000000887       0.000002845       0.000024784
                        -----------------------------------------
Magnitude (a.u.)       :      0.000024963
Magnitude (Debye)      :      0.000063450

VIBRATIONAL FREQUENCIES
-----------------------

Scaling factor for frequencies =  1.000000000  (already applied!)

     0:       0.00 cm**-1
     1:       0.00 cm**-1
     2:       0.00 cm**-1
     3:       0.00 cm**-1
     4:       0.00 cm**-1
     5:       0.00 cm**-1
     6:      26.24 cm**-1
     7:     197.91 cm**-1
     8:     197.93 cm**-1
     9:     204.51 cm**-1
    10:     223.56 cm**-1
    11:     258.18 cm**-1
    12:     273.35 cm**-1
    13:     284.84 cm**-1
    14:     284.85 cm**-1
    15:     340.68 cm**-1
    16:     358.79 cm**-1
    17:     442.75 cm**-1
    18:     442.77 cm**-1
    19:     557.21 cm**-1
    20:     557.21 cm**-1
    21:     599.41 cm**-1
    22:     657.30 cm**-1
    23:     687.97 cm**-1
    24:     873.31 cm**-1
    25:     956.53 cm**-1
    26:     956.54 cm**-1
    27:     956.62 cm**-1
    28:    1184.38 cm**-1
    29:    1184.40 cm**-1
    30:    1212.63 cm**-1
    31:    1260.92 cm**-1
    32:    1261.24 cm**-1
    33:    1308.59 cm**-1
    34:    1308.60 cm**-1
    35:    1389.47 cm**-1

IR SPECTRUM
-----------

 Mode   freq       eps      Int      T**2         TX        TY        TZ
       cm**-1   L/(mol*cm) km/mol    a.u.
----------------------------------------------------------------------------
  6:     26.24   0.000000    0.00  0.000000  ( 0.000000  0.000001  0.000008)
  7:    197.91   0.000001    0.00  0.000001  ( 0.000994 -0.000083  0.000002)
  8:    197.93   0.000001    0.00  0.000001  (-0.000083 -0.000992 -0.000007)
  9:    204.51   0.000866    4.38  0.001322  ( 0.000000 -0.000001  0.036355)
 10:    223.56   0.000000    0.00  0.000000  ( 0.000003  0.000000 -0.000000)
 11:    258.18   0.000000    0.00  0.000000  (-0.000001  0.000000 -0.000094)
 12:    273.35   0.000000    0.00  0.000000  ( 0.000004 -0.000000 -0.000222)
 13:    284.84   0.000420    2.12  0.000460  (-0.021437 -0.000528 -0.000000)
 14:    284.85   0.000420    2.12  0.000460  ( 0.000528 -0.021437 -0.000000)
 15:    340.68   0.000039    0.20  0.000036  (-0.000000 -0.000000 -0.006007)
 16:    358.79   0.000000    0.00  0.000000  (-0.000000  0.000000 -0.000001)
 17:    442.75   0.000110    0.56  0.000077  ( 0.008803 -0.000031 -0.000000)
 18:    442.77   0.000110    0.56  0.000078  ( 0.000031  0.008804 -0.000000)
 19:    557.21   0.004917   24.85  0.002754  (-0.052447 -0.001818  0.000000)
 20:    557.21   0.004917   24.85  0.002754  (-0.001818  0.052445 -0.000002)
 21:    599.41   0.000000    0.00  0.000000  ( 0.000000 -0.000002  0.000000)
 22:    657.30   0.000005    0.02  0.000002  ( 0.000000 -0.000000  0.001489)
 23:    687.97   0.000000    0.00  0.000000  (-0.000000 -0.000000 -0.000000)
 24:    873.31   0.000000    0.00  0.000000  (-0.000002 -0.000000  0.000000)
 25:    956.53   0.042129  212.90  0.013744  ( 0.005585 -0.117103  0.000003)
 26:    956.54   0.042082  212.66  0.013729  ( 0.117037  0.005589  0.000008)
 27:    956.62   0.000042    0.21  0.000014  (-0.003685  0.000014  0.000270)
 28:   1184.38   0.000115    0.58  0.000030  (-0.005490 -0.000284 -0.000001)
 29:   1184.40   0.000115    0.58  0.000030  ( 0.000284 -0.005490  0.000025)
 30:   1212.63   0.136499  689.81  0.035127  (-0.000001 -0.000012 -0.187423)
 31:   1260.92   0.007048   35.62  0.001744  ( 0.000000  0.000003  0.041764)
 32:   1261.24   0.000002    0.01  0.000001  (-0.000000  0.000005 -0.000715)
 33:   1308.59   0.022727  114.86  0.005420  (-0.073584 -0.002312  0.000002)
 34:   1308.60   0.022721  114.82  0.005418  ( 0.002312 -0.073573  0.000020)
 35:   1389.47   0.000000    0.00  0.000000  ( 0.000000 -0.000004 -0.000008)

--------------------------
THERMOCHEMISTRY AT 298.15K
--------------------------

Temperature         ...   298.15 K
Pressure            ...     1.00 atm
Total Mass          ...   200.03 AMU
Quasi RRHO          ...     True
Cut-Off Frequency   ...     1.00 cm^-1

Throughout the following assumptions are being made:
  (1) The electronic state is orbitally nondegenerate
  (2) There are no thermally accessible electronically excited states
  (3) Hindered rotations indicated by low frequency modes are not
      treated as such but are treated as vibrations and this may
      cause some error
  (4) All equations used are the standard statistical mechanics
      equations for an ideal gas
  (5) All vibrations are strictly harmonic

freq.      26.24  E(vib)   ...       0.56
freq.     197.91  E(vib)   ...       0.35
freq.     197.93  E(vib)   ...       0.35
freq.     204.51  E(vib)   ...       0.35
freq.     223.56  E(vib)   ...       0.33
freq.     258.18  E(vib)   ...       0.30
freq.     273.35  E(vib)   ...       0.29
freq.     284.84  E(vib)   ...       0.28
freq.     284.85  E(vib)   ...       0.28
freq.     340.68  E(vib)   ...       0.23
freq.     358.79  E(vib)   ...       0.22
freq.     442.75  E(vib)   ...       0.17
freq.     442.77  E(vib)   ...       0.17
freq.     557.21  E(vib)   ...       0.12
freq.     557.21  E(vib)   ...       0.12
freq.     599.41  E(vib)   ...       0.10
freq.     657.30  E(vib)   ...       0.08
freq.     687.97  E(vib)   ...       0.07
freq.     873.31  E(vib)   ...       0.04
freq.     956.53  E(vib)   ...       0.03
freq.     956.54  E(vib)   ...       0.03
freq.     956.62  E(vib)   ...       0.03
freq.    1184.38  E(vib)   ...       0.01
freq.    1184.40  E(vib)   ...       0.01
freq.    1212.63  E(vib)   ...       0.01
freq.    1260.92  E(vib)   ...       0.01
freq.    1261.24  E(vib)   ...       0.01
freq.    1308.59  E(vib)   ...       0.01
freq.    1308.60  E(vib)   ...       0.01
freq.    1389.47  E(vib)   ...       0.00

------------
INNER ENERGY
------------

The inner energy is: U= E(el) + E(ZPE) + E(vib) + E(rot) + E(trans)
    E(el)   - is the total energy from the electronic structure calculation
              = E(kin-el) + E(nuc-el) + E(el-el) + E(nuc-nuc)
    E(ZPE)  - the the zero temperature vibrational energy from the frequency calculation
    E(vib)  - the the finite temperature correction to E(ZPE) due to population
              of excited vibrational states
    E(rot)  - is the rotational thermal energy
    E(trans)- is the translational thermal energy

Summary of contributions to the inner energy U:
Electronic energy                ...   -951.14088971 Eh
Zero point energy                ...      0.04658555 Eh      29.23 kcal/mol
Thermal vibrational correction   ...      0.00724106 Eh       4.54 kcal/mol
Thermal rotational correction    ...      0.00141627 Eh       0.89 kcal/mol
Thermal translational correction ...      0.00141627 Eh       0.89 kcal/mol
-----------------------------------------------------------------------
Total thermal energy                   -951.08423055 Eh

Summary of corrections to the electronic energy:
(perhaps to be used in another calculation)
Total thermal correction                  0.01007361 Eh       6.32 kcal/mol
Non-thermal (ZPE) correction              0.04658555 Eh      29.23 kcal/mol
-----------------------------------------------------------------------
Total correction                          0.05665916 Eh      35.55 kcal/mol

--------
ENTHALPY
--------

The enthalpy is H = U + kB*T
                kB is Boltzmann's constant
Total thermal energy              ...   -951.08423055 Eh
Thermal Enthalpy correction       ...      0.00094421 Eh       0.59 kcal/mol
-----------------------------------------------------------------------
Total Enthalpy                    ...   -951.08328634 Eh

Note: Rotational entropy computed according to Herzberg
Infrared and Raman Spectra, Chapter V,1, Van Nostrand Reinhold, 1945
Point Group:  C2, Symmetry Number:   2
Rotational constants in cm-1:     0.034887     0.034886     0.028239

Vibrational entropy computed according to the QRRHO of S. Grimme
Chem.Eur.J. 2012 18 9955 using a reference frequency of 100.0 cm-1

-------
ENTROPY
-------

The entropy contributions are T*S = T*(S(el)+S(vib)+S(rot)+S(trans))
     S(el)   - electronic entropy
     S(vib)  - vibrational entropy
     S(rot)  - rotational entropy
     S(trans)- translational entropy
The entropies will be listed as multiplied by the temperature to get
units of energy

Electronic entropy                ...      0.00000000 Eh      0.00 kcal/mol
Vibrational entropy               ...      0.01222758 Eh      7.67 kcal/mol
Rotational entropy                ...      0.01370867 Eh      8.60 kcal/mol
Translational entropy             ...      0.01985312 Eh     12.46 kcal/mol
-----------------------------------------------------------------------
Final entropy term                ...      0.04578938 Eh     28.73 kcal/mol

In case the symmetry of your molecule has not been determined correctly
or in case you have a reason to use a different symmetry number we print
out the resulting rotational entropy values for sn=1,12:

 non-linear molecules -----------------------------------
|  sn= 1 | S(rot)=       0.01436313 Eh      9.01 kcal/mol|
|  sn= 2 | S(rot)=       0.01370867 Eh      8.60 kcal/mol|
|  sn= 3 | S(rot)=       0.01332584 Eh      8.36 kcal/mol|
|  sn= 4 | S(rot)=       0.01305422 Eh      8.19 kcal/mol|
|  sn= 5 | S(rot)=       0.01284353 Eh      8.06 kcal/mol|
|  sn= 6 | S(rot)=       0.01267139 Eh      7.95 kcal/mol|
|  sn= 7 | S(rot)=       0.01252584 Eh      7.86 kcal/mol|
|  sn= 8 | S(rot)=       0.01239976 Eh      7.78 kcal/mol|
|  sn= 9 | S(rot)=       0.01228855 Eh      7.71 kcal/mol|
|  sn=10 | S(rot)=       0.01218907 Eh      7.65 kcal/mol|
|  sn=11 | S(rot)=       0.01209908 Eh      7.59 kcal/mol|
|  sn=12 | S(rot)=       0.01201693 Eh      7.54 kcal/mol|
 linear molecules ---------------------------------------
|  Dinfh | S(rot)=       0.00869376 Eh      5.46 kcal/mol|
|  Cinfv | S(rot)=       0.00934821 Eh      5.87 kcal/mol|
 --------------------------------------------------------

-------------------
GIBBS FREE ENERGY
-------------------

The Gibbs free energy is G = H - T*S

Total enthalpy                    ...   -951.08328634 Eh
Total entropy correction          ...     -0.04578938 Eh    -28.73 kcal/mol
-----------------------------------------------------------------------
Final Gibbs free energy         ...   -951.12907572 Eh

For completeness - the Gibbs free energy minus the electronic energy
G-E(el)                           ...      0.01181400 Eh      7.41 kcal/mol

                             ****ORCA TERMINATED NORMALLY****
TOTAL RUN TIME: 0 days 0 hours 10 minutes 32 seconds 467 msec
