                         Program Version 6.0.1  -  RELEASE   -
|  1> ! pbe def2-sv(p) def2/J RI DEFGRID1 loosescf d4 GCP(DFT/SV(P)) printgap
|  2> %output
|  3>     printlevel normal
|  4> end
|  5> * xyz 0 1
|  6> C -1.7988155479 -1.0253258292 -0.7119496192
|  7> C -1.0488304997 -0.4494601579 0.5116010702
|  8> H -1.7406897883 -0.54476965 1.3619439009
|  9> C -0.6896155553 1.0384320482 0.3462435583
| 10> H -1.510651389 1.5473648109 -0.1854037128
| 11> C 0.5980965434 1.244872866 -0.4700908523
| 12> H 0.8906002029 2.2973988473 -0.3418810456
| 13> C 1.7325126925 0.3564032341 0.0798417818
| 14> H 2.5868332292 0.3836129572 -0.6091043139
| 15> C 1.2449072069 -1.1102408903 0.1547590964
| 16> H 1.9712002202 -1.7082014892 0.7169771845
| 17> O 0.0644438234 -1.2244414923 0.9121934063
| 18> O 1.1589630666 -1.677296689 -1.1113198168
| 19> O 2.2046166832 0.8271366592 1.3061791062
| 20> O 0.3191000156 0.961829225 -1.828142414
| 21> O -0.4651012443 1.6573913467 1.5952793643
| 22> O -3.1704603694 -0.7144382696 -0.6652414442
| 23> H -1.7307449401 -2.1142175669 -0.6659148829
| 24> H -1.3591761164 -0.6723840585 -1.6500747873
| 25> H 0.6696803125 -1.0773624257 -1.6940215679
| 26> H 1.442063639 0.9786887316 1.8850947791
| 27> H 1.0587159573 1.2675994126 -2.3654689463
| 28> H -1.2076763224 1.4710600615 2.1816598962
| 29> H -3.2969667373 0.2152910176 -0.8829589363
| 30> *
| 31>
| 32>                          ****END OF INPUT****

CARTESIAN COORDINATES (ANGSTROEM)
---------------------------------
  C     -1.798816   -1.025326   -0.711950
  C     -1.048830   -0.449460    0.511601
  H     -1.740690   -0.544770    1.361944
  C     -0.689616    1.038432    0.346244
  H     -1.510651    1.547365   -0.185404
  C      0.598097    1.244873   -0.470091
  H      0.890600    2.297399   -0.341881
  C      1.732513    0.356403    0.079842
  H      2.586833    0.383613   -0.609104
  C      1.244907   -1.110241    0.154759
  H      1.971200   -1.708201    0.716977
  O      0.064444   -1.224441    0.912193
  O      1.158963   -1.677297   -1.111320
  O      2.204617    0.827137    1.306179
  O      0.319100    0.961829   -1.828142
  O     -0.465101    1.657391    1.595279
  O     -3.170460   -0.714438   -0.665241
  H     -1.730745   -2.114218   -0.665915
  H     -1.359176   -0.672384   -1.650075
  H      0.669680   -1.077362   -1.694022
  H      1.442064    0.978689    1.885095
  H      1.058716    1.267599   -2.365469
  H     -1.207676    1.471060    2.181660
  H     -3.296967    0.215291   -0.882959

 Total Charge           Charge          ....    0
 Multiplicity           Mult            ....    1
 Number of Electrons    NEL             ....   96
 Basis Dimension        Dim             ....  192

ORBITAL ENERGIES
----------------

  NO   OCC          E(Eh)            E(eV)
   0   2.0000     -18.793426      -511.3951
   1   2.0000     -18.783507      -511.1252
   2   2.0000     -18.763633      -510.5844
   3   2.0000     -18.755179      -510.3544
   4   2.0000     -18.749802      -510.2080
   5   2.0000     -18.742225      -510.0019
   6   2.0000      -9.975773      -271.4546
   7   2.0000      -9.966287      -271.1964
   8   2.0000      -9.962955      -271.1058
   9   2.0000      -9.950390      -270.7639
  10   2.0000      -9.942507      -270.5494
  11   2.0000      -9.933318      -270.2993
  12   2.0000      -0.983965       -26.7751
  13   2.0000      -0.961609       -26.1667
  14   2.0000      -0.956994       -26.0411
  15   2.0000      -0.932059       -25.3626
  16   2.0000      -0.922589       -25.1049
  17   2.0000      -0.907130       -24.6843
  18   2.0000      -0.716951       -19.5092
  19   2.0000      -0.689769       -18.7696
  20   2.0000      -0.624704       -16.9991
  21   2.0000      -0.592297       -16.1172
  22   2.0000      -0.581764       -15.8306
  23   2.0000      -0.538320       -14.6484
  24   2.0000      -0.515450       -14.0261
  25   2.0000      -0.498433       -13.5630
  26   2.0000      -0.476884       -12.9767
  27   2.0000      -0.469568       -12.7776
  28   2.0000      -0.440384       -11.9835
  29   2.0000      -0.431234       -11.7345
  30   2.0000      -0.426954       -11.6180
  31   2.0000      -0.414808       -11.2875
  32   2.0000      -0.388974       -10.5845
  33   2.0000      -0.386563       -10.5189
  34   2.0000      -0.374971       -10.2035
  35   2.0000      -0.354955        -9.6588
  36   2.0000      -0.330983        -9.0065
  37   2.0000      -0.327640        -8.9155
  38   2.0000      -0.315513        -8.5855
  39   2.0000      -0.298624        -8.1260
  40   2.0000      -0.284136        -7.7317
  41   2.0000      -0.281369        -7.6564
  42   2.0000      -0.261377        -7.1124
  43   2.0000      -0.249637        -6.7930
  44   2.0000      -0.246435        -6.7058
  45   2.0000      -0.244659        -6.6575
  46   2.0000      -0.209881        -5.7111
  47   2.0000      -0.199108        -5.4180
  48   0.0000      -0.007484        -0.2036
  49   0.0000       0.003503         0.0953
  50   0.0000       0.019353         0.5266
  51   0.0000       0.056034         1.5248
  52   0.0000       0.064426         1.7531

MULLIKEN ATOMIC CHARGES
-----------------------
   0 C :    0.001036
   1 C :    0.019147
   2 H :    0.065275
   3 C :    0.051664
   4 H :    0.055842
   5 C :    0.001689
   6 H :    0.090370
   7 C :    0.028619
   8 H :    0.068850
   9 C :    0.203441
  10 H :    0.075541
  11 O :   -0.297541
  12 O :   -0.406830
  13 O :   -0.417967
  14 O :   -0.412532
  15 O :   -0.419200
  16 O :   -0.430899
  17 H :    0.105967
  18 H :    0.092324
  19 H :    0.296518
  20 H :    0.300550
  21 H :    0.318404
  22 H :    0.312727
  23 H :    0.297006
Sum of atomic charges:   -0.0000000

LOEWDIN ATOMIC CHARGES
----------------------
   0 C :   -0.148322
   1 C :   -0.083497
   2 H :    0.113430
   3 C :   -0.067990
   4 H :    0.097863
   5 C :   -0.072914
   6 H :    0.113603
   7 C :   -0.095498
   8 H :    0.112242
   9 C :   -0.008064
  10 H :    0.113438
  11 O :   -0.138139
  12 O :   -0.309799
  13 O :   -0.313353
  14 O :   -0.308111
  15 O :   -0.304906
  16 O :   -0.330244
  17 H :    0.124338
  18 H :    0.101480
  19 H :    0.262827
  20 H :    0.271681
  21 H :    0.297965
  22 H :    0.292491
  23 H :    0.279478

  Mayer bond orders larger than 0.100000
B(  0-C ,  1-C ) :   1.0220 B(  0-C , 16-O ) :   1.0520 B(  0-C , 17-H ) :   0.9097
B(  0-C , 18-H ) :   0.9060 B(  1-C ,  2-H ) :   0.8910 B(  1-C ,  3-C ) :   0.9807
B(  1-C , 11-O ) :   1.0300 B(  3-C ,  4-H ) :   0.8865 B(  3-C ,  5-C ) :   1.0100
B(  3-C , 15-O ) :   1.0154 B(  5-C ,  6-H ) :   0.8991 B(  5-C ,  7-C ) :   0.9739
B(  5-C , 14-O ) :   1.0303 B(  7-C ,  8-H ) :   0.8968 B(  7-C ,  9-C ) :   0.9755
B(  7-C , 13-O ) :   1.0733 B(  9-C , 10-H ) :   0.9052 B(  9-C , 11-O ) :   1.0324
B(  9-C , 12-O ) :   1.1185 B( 12-O , 19-H ) :   0.8008 B( 13-O , 20-H ) :   0.8126
B( 14-O , 21-H ) :   0.8377 B( 15-O , 22-H ) :   0.8396 B( 16-O , 23-H ) :   0.8516

Dispersion correction           -0.025997536
FINAL SINGLE POINT ENERGY      -685.693624288005

DIPOLE MOMENT
-------------

Method             : SCF
Type of density    : Electron Density
Multiplicity       :   1
Irrep              :   0
Energy             :  -685.8269406870044804 Eh
Relativity type    :
Basis              : AO
                                X                 Y                 Z
Electronic contribution:      1.561952632      -0.567083471       1.642778442
Nuclear contribution   :     -2.087475492       1.915179598      -2.106992142
                        -----------------------------------------
Total Dipole Moment    :     -0.525522860       1.348096127      -0.464213700
                        -----------------------------------------
Magnitude (a.u.)       :      1.519549868
Magnitude (Debye)      :      3.862388817

Rotational constants in cm-1:             0.041519             0.028001             0.024308
Rotational constants in MHz :          1244.694563           839.455476           728.725211

                             ****ORCA TERMINATED NORMALLY****
TOTAL RUN TIME: 0 days 0 hours 0 minutes 11 seconds 784 msec
