                         Program Version 6.0.1  -  RELEASE   -
|  1> ! pbe def2-sv(p) def2/J RI DEFGRID1 loosescf d4 GCP(DFT/SV(P)) printgap
|  2> %output
|  3>     printlevel normal
|  4> end
|  5> * xyz 0 1
|  6> C -2.4742355726 -0.4242059905 1.4202034377
|  7> C -2.0410296222 -0.4727079262 -0.0512293288
|  8> H -2.9486139877 -0.5468997192 -0.6587135526
|  9> C -1.1150737776 -1.6698730879 -0.3438205501
| 10> C 0.3077704573 -1.2409031707 -0.6924246854
| 11> C 0.7908778092 -0.2107494276 0.33486952
| 12> H 0.5495092493 -0.6003180925 1.3290835193
| 13> C 0.0135450983 1.0863010002 0.0931678388
| 14> C -1.4067409588 0.866417608 -0.3751369046
| 15> O -2.022697533 1.7350127766 -0.9433542495
| 16> C 2.2869534586 -0.012934455 0.2823307949
| 17> C 3.0550137511 -0.3878178604 1.2938181562
| 18> C 2.8712284687 0.5997427861 -0.9557285913
| 19> H -1.6144932789 -0.3397932159 2.0799900123
| 20> H -3.1270328798 0.4292457202 1.5915213177
| 21> H -3.0200710726 -1.3301582096 1.6747286374
| 22> H -1.0839475506 -2.3203481401 0.5327678098
| 23> H -1.5237597435 -2.2550748844 -1.1691884103
| 24> H 0.9645192461 -2.112825073 -0.6933502244
| 25> H 0.3247372718 -0.7993899009 -1.691047565
| 26> H -0.028294661 1.6893045723 1.0044985304
| 27> H 0.5027050035 1.6995169501 -0.6656046938
| 28> H 4.125841844 -0.2764764436 1.2668330912
| 29> H 2.6488756312 -0.8204040818 2.192854806
| 30> H 2.3966629001 0.2047239685 -1.8509438341
| 31> H 2.7335529515 1.6811266597 -0.9485308844
| 32> H 3.9386484108 0.4017453894 -1.0090475963
| 33> *
| 34>
| 35>                          ****END OF INPUT****

CARTESIAN COORDINATES (ANGSTROEM)
---------------------------------
  C     -2.474236   -0.424206    1.420203
  C     -2.041030   -0.472708   -0.051229
  H     -2.948614   -0.546900   -0.658714
  C     -1.115074   -1.669873   -0.343821
  C      0.307770   -1.240903   -0.692425
  C      0.790878   -0.210749    0.334870
  H      0.549509   -0.600318    1.329084
  C      0.013545    1.086301    0.093168
  C     -1.406741    0.866418   -0.375137
  O     -2.022698    1.735013   -0.943354
  C      2.286953   -0.012934    0.282331
  C      3.055014   -0.387818    1.293818
  C      2.871228    0.599743   -0.955729
  H     -1.614493   -0.339793    2.079990
  H     -3.127033    0.429246    1.591521
  H     -3.020071   -1.330158    1.674729
  H     -1.083948   -2.320348    0.532768
  H     -1.523760   -2.255075   -1.169188
  H      0.964519   -2.112825   -0.693350
  H      0.324737   -0.799390   -1.691048
  H     -0.028295    1.689305    1.004499
  H      0.502705    1.699517   -0.665605
  H      4.125842   -0.276476    1.266833
  H      2.648876   -0.820404    2.192855
  H      2.396663    0.204724   -1.850944
  H      2.733553    1.681127   -0.948531
  H      3.938648    0.401745   -1.009048

 Total Charge           Charge          ....    0
 Multiplicity           Mult            ....    1
 Number of Electrons    NEL             ....   84
 Basis Dimension        Dim             ....  186

ORBITAL ENERGIES
----------------

  NO   OCC          E(Eh)            E(eV)
   0   2.0000     -18.737148      -509.8637
   1   2.0000      -9.970029      -271.2983
   2   2.0000      -9.905605      -269.5452
   3   2.0000      -9.903638      -269.4917
   4   2.0000      -9.901098      -269.4226
   5   2.0000      -9.894852      -269.2526
   6   2.0000      -9.894733      -269.2494
   7   2.0000      -9.894145      -269.2334
   8   2.0000      -9.891031      -269.1486
   9   2.0000      -9.886166      -269.0162
  10   2.0000      -9.875962      -268.7386
  11   2.0000      -0.938018       -25.5248
  12   2.0000      -0.773591       -21.0505
  13   2.0000      -0.729719       -19.8567
  14   2.0000      -0.684082       -18.6148
  15   2.0000      -0.664786       -18.0897
  16   2.0000      -0.620944       -16.8967
  17   2.0000      -0.601679       -16.3725
  18   2.0000      -0.554708       -15.0944
  19   2.0000      -0.539839       -14.6898
  20   2.0000      -0.481002       -13.0887
  21   2.0000      -0.461427       -12.5561
  22   2.0000      -0.438098       -11.9213
  23   2.0000      -0.419363       -11.4114
  24   2.0000      -0.417178       -11.3520
  25   2.0000      -0.400096       -10.8872
  26   2.0000      -0.393649       -10.7117
  27   2.0000      -0.384261       -10.4563
  28   2.0000      -0.367805       -10.0085
  29   2.0000      -0.363996        -9.9048
  30   2.0000      -0.351662        -9.5692
  31   2.0000      -0.350041        -9.5251
  32   2.0000      -0.346237        -9.4216
  33   2.0000      -0.329634        -8.9698
  34   2.0000      -0.319038        -8.6815
  35   2.0000      -0.312270        -8.4973
  36   2.0000      -0.308223        -8.3872
  37   2.0000      -0.291459        -7.9310
  38   2.0000      -0.282068        -7.6755
  39   2.0000      -0.277062        -7.5392
  40   2.0000      -0.221445        -6.0258
  41   2.0000      -0.189899        -5.1674
  42   0.0000      -0.050022        -1.3612
  43   0.0000      -0.016584        -0.4513
  44   0.0000       0.027254         0.7416
  45   0.0000       0.041940         1.1412
  46   0.0000       0.050751         1.3810

MULLIKEN ATOMIC CHARGES
-----------------------
   0 C :   -0.278352
   1 C :   -0.137662
   2 H :    0.073104
   3 C :   -0.083262
   4 C :   -0.145301
   5 C :   -0.149989
   6 H :    0.056025
   7 C :   -0.110668
   8 C :   -0.009745
   9 O :   -0.151064
  10 C :   -0.012238
  11 C :   -0.236647
  12 C :   -0.236964
  13 H :    0.113226
  14 H :    0.117063
  15 H :    0.117126
  16 H :    0.075767
  17 H :    0.089740
  18 H :    0.093755
  19 H :    0.093289
  20 H :    0.117889
  21 H :    0.100370
  22 H :    0.080143
  23 H :    0.083673
  24 H :    0.112211
  25 H :    0.126025
  26 H :    0.102487
Sum of atomic charges:    0.0000000

LOEWDIN ATOMIC CHARGES
----------------------
   0 C :   -0.320059
   1 C :   -0.171381
   2 H :    0.129332
   3 C :   -0.212241
   4 C :   -0.213769
   5 C :   -0.132747
   6 H :    0.118322
   7 C :   -0.237493
   8 C :    0.047967
   9 O :   -0.124675
  10 C :   -0.047988
  11 C :   -0.266770
  12 C :   -0.325774
  13 H :    0.117929
  14 H :    0.125967
  15 H :    0.125119
  16 H :    0.117455
  17 H :    0.123777
  18 H :    0.122989
  19 H :    0.118498
  20 H :    0.146795
  21 H :    0.138435
  22 H :    0.116529
  23 H :    0.115827
  24 H :    0.125698
  25 H :    0.133701
  26 H :    0.128556

  Mayer bond orders larger than 0.100000
B(  0-C ,  1-C ) :   1.0857 B(  0-C , 13-H ) :   0.9449 B(  0-C , 14-H ) :   0.9442
B(  0-C , 15-H ) :   0.9429 B(  1-C ,  2-H ) :   0.8752 B(  1-C ,  3-C ) :   1.0255
B(  1-C ,  8-C ) :   1.0154 B(  3-C ,  4-C ) :   1.1841 B(  3-C , 16-H ) :   0.9072
B(  3-C , 17-H ) :   0.9100 B(  4-C ,  5-C ) :   1.1051 B(  4-C , 18-H ) :   0.9206
B(  4-C , 19-H ) :   0.8840 B(  5-C ,  6-H ) :   0.8598 B(  5-C ,  7-C ) :   1.0424
B(  5-C , 10-C ) :   1.0225 B(  7-C ,  8-C ) :   0.9976 B(  7-C , 20-H ) :   0.8828
B(  7-C , 21-H ) :   0.8773 B(  8-C ,  9-O ) :   2.2002 B( 10-C , 11-C ) :   2.0384
B( 10-C , 12-C ) :   1.1080 B( 11-C , 22-H ) :   0.9046 B( 11-C , 23-H ) :   0.9085
B( 12-C , 24-H ) :   0.9316 B( 12-C , 25-H ) :   0.9199 B( 12-C , 26-H ) :   0.9339

Dispersion correction           -0.028611434
FINAL SINGLE POINT ENERGY      -464.822065190264

DIPOLE MOMENT
-------------

Method             : SCF
Type of density    : Electron Density
Multiplicity       :   1
Irrep              :   0
Energy             :  -464.9076198760189982 Eh
Relativity type    :
Basis              : AO
                                X                 Y                 Z
Electronic contribution:     -4.086526293       4.242355018      -2.432860711
Nuclear contribution   :      4.509643056      -4.942824898       2.787236696
                        -----------------------------------------
Total Dipole Moment    :      0.423116763      -0.700469879       0.354375985
                        -----------------------------------------
Magnitude (a.u.)       :      0.891778103
Magnitude (Debye)      :      2.266719799

Rotational constants in cm-1:             0.061671             0.024314             0.021624
Rotational constants in MHz :          1848.845301           728.919990           648.280868

                             ****ORCA TERMINATED NORMALLY****
TOTAL RUN TIME: 0 days 0 hours 0 minutes 26 seconds 920 msec
