                         Program Version 6.0.1  -  RELEASE   -
|  1> ! r2scan-3c def2/J RI DEFGRID2 scfconv6 printgap
|  2> %output
|  3>     printlevel normal
|  4> end
|  5> * xyz 0 1
|  6> C -2.2711744151 0.3285157475 -0.263704493
|  7> C -1.2294910595 -0.0370436994 0.4609303954
|  8> C -0.0769640253 -0.8055929026 -0.0793421173
|  9> Cl 1.4019026761 0.2189735501 -0.0332642616
| 10> H -3.0869515418 0.88905634 0.1582732764
| 11> H -2.3533864385 0.074059015 -1.3076486234
| 12> H -1.1558048366 0.235480884 1.5046486323
| 13> H 0.147047464 -1.6821466766 0.5291724317
| 14> H -0.2288961658 -1.0921650963 -1.1191756283
| 15> *
| 16>
| 17>                          ****END OF INPUT****

CARTESIAN COORDINATES (ANGSTROEM)
---------------------------------
  C     -2.271174    0.328516   -0.263704
  C     -1.229491   -0.037044    0.460930
  C     -0.076964   -0.805593   -0.079342
  Cl     1.401903    0.218974   -0.033264
  H     -3.086952    0.889056    0.158273
  H     -2.353386    0.074059   -1.307649
  H     -1.155805    0.235481    1.504649
  H      0.147047   -1.682147    0.529172
  H     -0.228896   -1.092165   -1.119176

 Total Charge           Charge          ....    0
 Multiplicity           Mult            ....    1
 Number of Electrons    NEL             ....   40
 Basis Dimension        Dim             ....  109

ORBITAL ENERGIES
----------------

  NO   OCC          E(Eh)            E(eV)
   0   2.0000    -101.202747     -2753.8668
   1   2.0000     -10.099948      -274.8336
   2   2.0000     -10.052998      -273.5560
   3   2.0000     -10.040884      -273.2263
   4   2.0000      -9.358764      -254.6649
   5   2.0000      -7.105144      -193.3408
   6   2.0000      -7.094819      -193.0598
   7   2.0000      -7.094622      -193.0545
   8   2.0000      -0.828668       -22.5492
   9   2.0000      -0.750964       -20.4348
  10   2.0000      -0.644993       -17.5512
  11   2.0000      -0.545194       -14.8355
  12   2.0000      -0.464397       -12.6369
  13   2.0000      -0.426594       -11.6082
  14   2.0000      -0.409827       -11.1520
  15   2.0000      -0.376945       -10.2572
  16   2.0000      -0.343548        -9.3484
  17   2.0000      -0.276964        -7.5366
  18   2.0000      -0.267702        -7.2845
  19   2.0000      -0.256071        -6.9681
  20   0.0000      -0.046230        -1.2580
  21   0.0000       0.024153         0.6572
  22   0.0000       0.098448         2.6789
  23   0.0000       0.122283         3.3275
  24   0.0000       0.125148         3.4055

MULLIKEN ATOMIC CHARGES
-----------------------
   0 C :   -0.330735
   1 C :   -0.087154
   2 C :   -0.168193
   3 Cl:   -0.188652
   4 H :    0.148068
   5 H :    0.143090
   6 H :    0.165302
   7 H :    0.159792
   8 H :    0.158483
Sum of atomic charges:   -0.0000000

LOEWDIN ATOMIC CHARGES
----------------------
   0 C :   -0.287007
   1 C :   -0.220713
   2 C :   -0.309037
   3 Cl:    0.005045
   4 H :    0.161468
   5 H :    0.158202
   6 H :    0.166720
   7 H :    0.163664
   8 H :    0.161658

  Mayer bond orders larger than 0.100000
B(  0-C ,  1-C ) :   1.9112 B(  0-C ,  4-H ) :   0.9567 B(  0-C ,  5-H ) :   0.9796
B(  1-C ,  2-C ) :   0.9748 B(  1-C ,  6-H ) :   0.9233 B(  2-C ,  3-Cl) :   0.9579
B(  2-C ,  7-H ) :   0.9455 B(  2-C ,  8-H ) :   0.9803

Dispersion correction           -0.001867152
FINAL SINGLE POINT ENERGY      -577.438102899482

DIPOLE MOMENT
-------------

Method             : SCF
Type of density    : Electron Density
Multiplicity       :   1
Irrep              :   0
Energy             :  -577.4416517626207224 Eh
Relativity type    :
Basis              : AO
                                X                 Y                 Z
Electronic contribution:      7.465080203       1.382510132       0.172708544
Nuclear contribution   :     -8.146749141      -1.772200187      -0.175569500
                        -----------------------------------------
Total Dipole Moment    :     -0.681668938      -0.389690055      -0.002860956
                        -----------------------------------------
Magnitude (a.u.)       :      0.785200016
Magnitude (Debye)      :      1.995819830

Rotational constants in cm-1:             0.679796             0.096029             0.092528
Rotational constants in MHz :         20379.785790          2878.882620          2773.917907

                             ****ORCA TERMINATED NORMALLY****
TOTAL RUN TIME: 0 days 0 hours 0 minutes 6 seconds 41 msec
