                         Program Version 6.0.1  -  RELEASE   -
|  1> ! pbe def2-sv(p) def2/J RI DEFGRID1 loosescf d4 GCP(DFT/SV(P)) printgap
|  2> %output
|  3>     printlevel normal
|  4> end
|  5> * xyz 0 1
|  6> C -2.8838587477 0.7898591911 0.3401471752
|  7> C -1.8775986779 -0.0636223049 -0.4238935773
|  8> C -0.7707297661 -0.5858477149 0.4932700966
|  9> Br 1.0191701446 -0.0307032325 -0.0804694449
| 10> H -2.395893579 1.6591384493 0.7761186055
| 11> H -3.6650716551 1.1379480238 -0.3309865563
| 12> H -3.3489947968 0.2152569707 1.1387821309
| 13> H -1.4507001186 0.532518647 -1.2319644888
| 14> H -2.3940741108 -0.9087511835 -0.8840968312
| 15> H -0.7380940382 -1.6734000114 0.5247077417
| 16> H -0.8783601877 -0.2016267074 1.5066371634
| 17> *
| 18>
| 19>                          ****END OF INPUT****

CARTESIAN COORDINATES (ANGSTROEM)
---------------------------------
  C     -2.883859    0.789859    0.340147
  C     -1.877599   -0.063622   -0.423894
  C     -0.770730   -0.585848    0.493270
  Br     1.019170   -0.030703   -0.080469
  H     -2.395894    1.659138    0.776119
  H     -3.665072    1.137948   -0.330987
  H     -3.348995    0.215257    1.138782
  H     -1.450700    0.532519   -1.231964
  H     -2.394074   -0.908751   -0.884097
  H     -0.738094   -1.673400    0.524708
  H     -0.878360   -0.201627    1.506637

 Total Charge           Charge          ....    0
 Multiplicity           Mult            ....    1
 Number of Electrons    NEL             ....   60
 Basis Dimension        Dim             ....   88

ORBITAL ENERGIES
----------------

  NO   OCC          E(Eh)            E(eV)
   0   2.0000    -480.918837    -13086.4669
   1   2.0000     -61.761194     -1680.6075
   2   2.0000     -55.691766     -1515.4500
   3   2.0000     -55.688715     -1515.3670
   4   2.0000     -55.688659     -1515.3654
   5   2.0000      -9.938549      -270.4417
   6   2.0000      -9.899413      -269.3767
   7   2.0000      -9.884962      -268.9835
   8   2.0000      -8.386346      -228.2041
   9   2.0000      -6.268376      -170.5712
  10   2.0000      -6.253952      -170.1787
  11   2.0000      -6.253746      -170.1731
  12   2.0000      -2.469494       -67.1983
  13   2.0000      -2.465944       -67.1017
  14   2.0000      -2.465763       -67.0968
  15   2.0000      -2.454990       -66.8037
  16   2.0000      -2.454980       -66.8034
  17   2.0000      -0.746154       -20.3039
  18   2.0000      -0.686859       -18.6904
  19   2.0000      -0.599517       -16.3137
  20   2.0000      -0.533415       -14.5150
  21   2.0000      -0.429519       -11.6878
  22   2.0000      -0.405669       -11.0388
  23   2.0000      -0.381648       -10.3852
  24   2.0000      -0.353009        -9.6059
  25   2.0000      -0.320087        -8.7100
  26   2.0000      -0.317091        -8.6285
  27   2.0000      -0.300025        -8.1641
  28   2.0000      -0.232100        -6.3158
  29   2.0000      -0.230668        -6.2768
  30   0.0000      -0.028004        -0.7620
  31   0.0000       0.037732         1.0267
  32   0.0000       0.069307         1.8859
  33   0.0000       0.071256         1.9390
  34   0.0000       0.096480         2.6253

MULLIKEN ATOMIC CHARGES
-----------------------
   0 C :   -0.311725
   1 C :   -0.162879
   2 C :   -0.234354
   3 Br:   -0.131808
   4 H :    0.115920
   5 H :    0.111167
   6 H :    0.109104
   7 H :    0.117731
   8 H :    0.100047
   9 H :    0.143243
  10 H :    0.143554
Sum of atomic charges:   -0.0000000

LOEWDIN ATOMIC CHARGES
----------------------
   0 C :   -0.341149
   1 C :   -0.254880
   2 C :   -0.279826
   3 Br:    0.005580
   4 H :    0.122203
   5 H :    0.123186
   6 H :    0.118207
   7 H :    0.125213
   8 H :    0.123707
   9 H :    0.130140
  10 H :    0.127619

  Mayer bond orders larger than 0.100000
B(  0-C ,  1-C ) :   1.1495 B(  0-C ,  4-H ) :   0.9543 B(  0-C ,  5-H ) :   0.9517
B(  0-C ,  6-H ) :   0.9558 B(  1-C ,  2-C ) :   1.0594 B(  1-C ,  7-H ) :   0.9325
B(  1-C ,  8-H ) :   0.9288 B(  2-C ,  3-Br) :   1.0429 B(  2-C ,  9-H ) :   0.9306
B(  2-C , 10-H ) :   0.9360

Dispersion correction           -0.007178726
FINAL SINGLE POINT ENERGY     -2691.668664249426

DIPOLE MOMENT
-------------

Method             : SCF
Type of density    : Electron Density
Multiplicity       :   1
Irrep              :   0
Energy             : -2691.7111887324654163 Eh
Relativity type    :
Basis              : AO
                                X                 Y                 Z
Electronic contribution:     22.682767799      -1.155088664      -2.007875578
Nuclear contribution   :    -23.414920540       0.999115281       2.153681562
                        -----------------------------------------
Total Dipole Moment    :     -0.732152741      -0.155973383       0.145805983
                        -----------------------------------------
Magnitude (a.u.)       :      0.762649800
Magnitude (Debye)      :      1.938501737

Rotational constants in cm-1:             0.571279             0.058338             0.057445
Rotational constants in MHz :         17126.514040          1748.937990          1722.166365

                             ****ORCA TERMINATED NORMALLY****
TOTAL RUN TIME: 0 days 0 hours 0 minutes 12 seconds 43 msec
