                         Program Version 6.0.1  -  RELEASE   -
|  1> ! pbe def2-sv(p) def2/J RI DEFGRID1 loosescf d4 GCP(DFT/SV(P)) printgap
|  2> %output
|  3>     printlevel normal
|  4> end
|  5> * xyz 0 1
|  6> C -2.2839891311 -1.1089430049 -0.1270113942
|  7> C -0.9064706379 -0.5817824833 0.3059617771
|  8> H -0.788425593 -0.7031660345 1.3969708837
|  9> C -0.7529656076 0.9259035041 -0.0123551379
| 10> H -1.4373861394 1.2005749842 -0.8235852714
| 11> C 0.6982683282 1.2258365737 -0.4381652265
| 12> H 0.8979831996 2.287529239 -0.2210359694
| 13> C 1.6478727279 0.3562552471 0.3940172133
| 14> H 2.6847739223 0.5787746881 0.1069787377
| 15> C 1.388298674 -1.1344166631 0.0433492903
| 16> H 1.6179782345 -1.7571553223 0.9276372562
| 17> O 0.0587466252 -1.3577150826 -0.366660685
| 18> O 2.2249021476 -1.5587448887 -0.9650445966
| 19> O 1.4283231785 0.6504843811 1.7566735362
| 20> O 0.9588222428 0.9365461079 -1.7895888763
| 21> O -1.1291580622 1.7126114594 1.0874905538
| 22> O -3.3160655715 -0.1799900932 0.0604692622
| 23> H -2.4926682328 -2.0457221357 0.4081102337
| 24> H -2.2485913472 -1.3264412906 -1.1972628002
| 25> H 1.9591399891 -1.0877608799 -1.7692097146
| 26> H 2.0757812121 0.1729690602 2.2869793109
| 27> H 0.2955207388 1.3734812306 -2.3354656091
| 28> H -0.4466205296 1.6101979208 1.7662655342
| 29> H -3.2077394692 0.250644826 0.9171166343
| 30> *
| 31>
| 32>                          ****END OF INPUT****

CARTESIAN COORDINATES (ANGSTROEM)
---------------------------------
  C     -2.283989   -1.108943   -0.127011
  C     -0.906471   -0.581782    0.305962
  H     -0.788426   -0.703166    1.396971
  C     -0.752966    0.925904   -0.012355
  H     -1.437386    1.200575   -0.823585
  C      0.698268    1.225837   -0.438165
  H      0.897983    2.287529   -0.221036
  C      1.647873    0.356255    0.394017
  H      2.684774    0.578775    0.106979
  C      1.388299   -1.134417    0.043349
  H      1.617978   -1.757155    0.927637
  O      0.058747   -1.357715   -0.366661
  O      2.224902   -1.558745   -0.965045
  O      1.428323    0.650484    1.756674
  O      0.958822    0.936546   -1.789589
  O     -1.129158    1.712611    1.087491
  O     -3.316066   -0.179990    0.060469
  H     -2.492668   -2.045722    0.408110
  H     -2.248591   -1.326441   -1.197263
  H      1.959140   -1.087761   -1.769210
  H      2.075781    0.172969    2.286979
  H      0.295521    1.373481   -2.335466
  H     -0.446621    1.610198    1.766266
  H     -3.207739    0.250645    0.917117

 Total Charge           Charge          ....    0
 Multiplicity           Mult            ....    1
 Number of Electrons    NEL             ....   96
 Basis Dimension        Dim             ....  192

ORBITAL ENERGIES
----------------

  NO   OCC          E(Eh)            E(eV)
   0   2.0000     -18.785750      -511.1862
   1   2.0000     -18.774509      -510.8804
   2   2.0000     -18.767211      -510.6818
   3   2.0000     -18.751994      -510.2677
   4   2.0000     -18.750758      -510.2341
   5   2.0000     -18.744392      -510.0608
   6   2.0000      -9.988262      -271.7944
   7   2.0000      -9.953632      -270.8521
   8   2.0000      -9.953445      -270.8470
   9   2.0000      -9.942772      -270.5566
  10   2.0000      -9.942079      -270.5377
  11   2.0000      -9.928882      -270.1786
  12   2.0000      -0.986797       -26.8521
  13   2.0000      -0.957269       -26.0486
  14   2.0000      -0.948425       -25.8079
  15   2.0000      -0.934211       -25.4212
  16   2.0000      -0.921110       -25.0647
  17   2.0000      -0.911429       -24.8012
  18   2.0000      -0.704283       -19.1645
  19   2.0000      -0.689097       -18.7513
  20   2.0000      -0.616422       -16.7737
  21   2.0000      -0.595692       -16.2096
  22   2.0000      -0.567208       -15.4345
  23   2.0000      -0.532387       -14.4870
  24   2.0000      -0.513378       -13.9697
  25   2.0000      -0.500282       -13.6134
  26   2.0000      -0.480721       -13.0811
  27   2.0000      -0.460925       -12.5424
  28   2.0000      -0.446763       -12.1570
  29   2.0000      -0.439820       -11.9681
  30   2.0000      -0.424464       -11.5503
  31   2.0000      -0.396801       -10.7975
  32   2.0000      -0.385042       -10.4775
  33   2.0000      -0.368236       -10.0202
  34   2.0000      -0.361583        -9.8392
  35   2.0000      -0.349990        -9.5237
  36   2.0000      -0.345577        -9.4036
  37   2.0000      -0.333132        -9.0650
  38   2.0000      -0.314409        -8.5555
  39   2.0000      -0.304602        -8.2886
  40   2.0000      -0.279020        -7.5925
  41   2.0000      -0.274748        -7.4763
  42   2.0000      -0.261235        -7.1086
  43   2.0000      -0.248963        -6.7746
  44   2.0000      -0.240036        -6.5317
  45   2.0000      -0.225466        -6.1352
  46   2.0000      -0.216223        -5.8837
  47   2.0000      -0.197513        -5.3746
  48   0.0000      -0.002931        -0.0798
  49   0.0000       0.018099         0.4925
  50   0.0000       0.038143         1.0379
  51   0.0000       0.047348         1.2884
  52   0.0000       0.065230         1.7750

MULLIKEN ATOMIC CHARGES
-----------------------
   0 C :    0.087956
   1 C :   -0.009142
   2 H :    0.045179
   3 C :    0.026289
   4 H :    0.068312
   5 C :    0.064680
   6 H :    0.077490
   7 C :   -0.038080
   8 H :    0.088181
   9 C :    0.227685
  10 H :    0.044764
  11 O :   -0.290230
  12 O :   -0.391218
  13 O :   -0.424664
  14 O :   -0.420748
  15 O :   -0.432342
  16 O :   -0.430664
  17 H :    0.079675
  18 H :    0.086376
  19 H :    0.304486
  20 H :    0.316705
  21 H :    0.311233
  22 H :    0.306555
  23 H :    0.301522
Sum of atomic charges:    0.0000000

LOEWDIN ATOMIC CHARGES
----------------------
   0 C :   -0.122346
   1 C :   -0.081675
   2 H :    0.095356
   3 C :   -0.084973
   4 H :    0.114582
   5 C :   -0.070978
   6 H :    0.106481
   7 C :   -0.092456
   8 H :    0.114205
   9 C :    0.001426
  10 H :    0.089242
  11 O :   -0.144550
  12 O :   -0.293007
  13 O :   -0.313444
  14 O :   -0.312165
  15 O :   -0.314157
  16 O :   -0.329256
  17 H :    0.098875
  18 H :    0.114068
  19 H :    0.280313
  20 H :    0.295294
  21 H :    0.291506
  22 H :    0.275320
  23 H :    0.282339

  Mayer bond orders larger than 0.100000
B(  0-C ,  1-C ) :   1.0478 B(  0-C , 16-O ) :   1.0793 B(  0-C , 17-H ) :   0.9218
B(  0-C , 18-H ) :   0.9126 B(  1-C ,  2-H ) :   0.8729 B(  1-C ,  3-C ) :   0.9663
B(  1-C , 11-O ) :   1.0357 B(  3-C ,  4-H ) :   0.8871 B(  3-C ,  5-C ) :   0.9833
B(  3-C , 15-O ) :   1.0161 B(  5-C ,  6-H ) :   0.8952 B(  5-C ,  7-C ) :   1.0295
B(  5-C , 14-O ) :   1.0413 B(  7-C ,  8-H ) :   0.8984 B(  7-C ,  9-C ) :   0.9339
B(  7-C , 13-O ) :   1.0269 B(  9-C , 10-H ) :   0.9018 B(  9-C , 11-O ) :   1.0282
B(  9-C , 12-O ) :   1.1481 B( 12-O , 19-H ) :   0.8276 B( 13-O , 20-H ) :   0.8398
B( 14-O , 21-H ) :   0.8415 B( 15-O , 22-H ) :   0.8224 B( 16-O , 23-H ) :   0.8349

Dispersion correction           -0.025244368
FINAL SINGLE POINT ENERGY      -685.691841405528

DIPOLE MOMENT
-------------

Method             : SCF
Type of density    : Electron Density
Multiplicity       :   1
Irrep              :   0
Energy             :  -685.8245690230935452 Eh
Relativity type    :
Basis              : AO
                                X                 Y                 Z
Electronic contribution:      1.698024671      -0.086113752      -0.806934207
Nuclear contribution   :     -1.019502025       0.522687273       1.369801522
                        -----------------------------------------
Total Dipole Moment    :      0.678522646       0.436573521       0.562867315
                        -----------------------------------------
Magnitude (a.u.)       :      0.983772857
Magnitude (Debye)      :      2.500551882

Rotational constants in cm-1:             0.044102             0.025866             0.022235
Rotational constants in MHz :          1322.157482           775.455683           666.595813

                             ****ORCA TERMINATED NORMALLY****
TOTAL RUN TIME: 0 days 0 hours 0 minutes 14 seconds 1 msec
