                         Program Version 6.0.1  -  RELEASE   -
|  1> ! pbe def2-sv(p) def2/J RI DEFGRID1 loosescf d4 GCP(DFT/SV(P)) printgap
|  2> %output
|  3>     printlevel normal
|  4> end
|  5> * xyz 0 1
|  6> C 1.1595361691 -0.6975514156 0.0011147878
|  7> C 1.1595696931 0.6974845631 0.0012788293
|  8> C 2.3646731901 1.392740015 0.0005745797
|  9> C 3.5758368341 0.6960764874 -0.0003676778
| 10> C 3.5758097883 -0.6960386797 -0.0005036327
| 11> C 2.3646833324 -1.3927434008 0.0002227214
| 12> Cl 2.3334273187 -3.1033277094 1.43829e-05
| 13> Cl 5.0515600641 -1.5579548202 -0.0015795908
| 14> Cl 5.0515396941 1.5579975307 -0.0011276541
| 15> Cl 2.3333385876 3.1033225323 0.001000157
| 16> O 1.36578e-05 1.4228098443 0.0021291479
| 17> C -1.1595627214 0.6975079857 0.0012362702
| 18> C -1.1595406591 -0.6975286558 0.001235095
| 19> C -2.3646788958 -1.3927346429 0.0005926252
| 20> C -3.5758470527 -0.6960805117 -0.0002224216
| 21> C -3.5757950311 0.6960360626 -0.0003654186
| 22> C -2.3646716186 1.3927229783 0.0004154055
| 23> Cl -2.3334003106 3.1033423416 2.54645e-05
| 24> Cl -5.0515506282 1.5579601103 -0.0018152499
| 25> Cl -5.0515502439 -1.5579888439 -0.0009703545
| 26> Cl -2.3333718367 -3.103310517 0.0009260936
| 27> O -7.1407e-06 -1.4228178746 0.0017736629
| 28> *
| 29>
| 30>                          ****END OF INPUT****

CARTESIAN COORDINATES (ANGSTROEM)
---------------------------------
  C      1.159536   -0.697551    0.001115
  C      1.159570    0.697485    0.001279
  C      2.364673    1.392740    0.000575
  C      3.575837    0.696076   -0.000368
  C      3.575810   -0.696039   -0.000504
  C      2.364683   -1.392743    0.000223
  Cl     2.333427   -3.103328    0.000014
  Cl     5.051560   -1.557955   -0.001580
  Cl     5.051540    1.557998   -0.001128
  Cl     2.333339    3.103323    0.001000
  O      0.000014    1.422810    0.002129
  C     -1.159563    0.697508    0.001236
  C     -1.159541   -0.697529    0.001235
  C     -2.364679   -1.392735    0.000593
  C     -3.575847   -0.696081   -0.000222
  C     -3.575795    0.696036   -0.000365
  C     -2.364672    1.392723    0.000415
  Cl    -2.333400    3.103342    0.000025
  Cl    -5.051551    1.557960   -0.001815
  Cl    -5.051550   -1.557989   -0.000970
  Cl    -2.333372   -3.103311    0.000926
  O     -0.000007   -1.422818    0.001774

 Total Charge           Charge          ....    0
 Multiplicity           Mult            ....    1
 Number of Electrons    NEL             ....  224
 Basis Dimension        Dim             ....  340

ORBITAL ENERGIES
----------------

  NO   OCC          E(Eh)            E(eV)
   0   2.0000    -100.666038     -2739.2621
   1   2.0000    -100.666034     -2739.2620
   2   2.0000    -100.665990     -2739.2609
   3   2.0000    -100.665989     -2739.2608
   4   2.0000    -100.665264     -2739.2411
   5   2.0000    -100.665262     -2739.2410
   6   2.0000    -100.665179     -2739.2388
   7   2.0000    -100.665176     -2739.2387
   8   2.0000     -18.854358      -513.0532
   9   2.0000     -18.854169      -513.0480
  10   2.0000     -10.004620      -272.2396
  11   2.0000     -10.004584      -272.2386
  12   2.0000     -10.004395      -272.2334
  13   2.0000     -10.004323      -272.2315
  14   2.0000      -9.986255      -271.7398
  15   2.0000      -9.986235      -271.7393
  16   2.0000      -9.986057      -271.7344
  17   2.0000      -9.986045      -271.7341
  18   2.0000      -9.985851      -271.7288
  19   2.0000      -9.985783      -271.7270
  20   2.0000      -9.985727      -271.7255
  21   2.0000      -9.985708      -271.7249
  22   2.0000      -9.201661      -250.3899
  23   2.0000      -9.201657      -250.3898
  24   2.0000      -9.201623      -250.3889
  25   2.0000      -9.201622      -250.3889
  26   2.0000      -9.201057      -250.3735
  27   2.0000      -9.201055      -250.3734
  28   2.0000      -9.200985      -250.3715
  29   2.0000      -9.200983      -250.3715
  30   2.0000      -7.033489      -191.3910
  31   2.0000      -7.033488      -191.3909
  32   2.0000      -7.033482      -191.3908
  33   2.0000      -7.033481      -191.3907
  34   2.0000      -7.032816      -191.3727
  35   2.0000      -7.032814      -191.3726
  36   2.0000      -7.032798      -191.3722
  37   2.0000      -7.032797      -191.3721
  38   2.0000      -7.021574      -191.0668
  39   2.0000      -7.021574      -191.0667
  40   2.0000      -7.021573      -191.0667
  41   2.0000      -7.021572      -191.0667
  42   2.0000      -7.021021      -191.0517
  43   2.0000      -7.021019      -191.0516
  44   2.0000      -7.021007      -191.0513
  45   2.0000      -7.021006      -191.0513
  46   2.0000      -7.020545      -191.0387
  47   2.0000      -7.020543      -191.0387
  48   2.0000      -7.020539      -191.0386
  49   2.0000      -7.020538      -191.0386
  50   2.0000      -7.019940      -191.0223
  51   2.0000      -7.019938      -191.0222
  52   2.0000      -7.019902      -191.0212
  53   2.0000      -7.019901      -191.0212
  54   2.0000      -1.061667       -28.8894
  55   2.0000      -1.026627       -27.9359
  56   2.0000      -0.883868       -24.0513
  57   2.0000      -0.875142       -23.8138
  58   2.0000      -0.843373       -22.9493
  59   2.0000      -0.837053       -22.7774
  60   2.0000      -0.825949       -22.4752
  61   2.0000      -0.812572       -22.1112
  62   2.0000      -0.793038       -21.5797
  63   2.0000      -0.790269       -21.5043
  64   2.0000      -0.780818       -21.2471
  65   2.0000      -0.766477       -20.8569
  66   2.0000      -0.706609       -19.2278
  67   2.0000      -0.705194       -19.1893
  68   2.0000      -0.668278       -18.1848
  69   2.0000      -0.663584       -18.0570
  70   2.0000      -0.626865       -17.0579
  71   2.0000      -0.595422       -16.2022
  72   2.0000      -0.581334       -15.8189
  73   2.0000      -0.555628       -15.1194
  74   2.0000      -0.549849       -14.9621
  75   2.0000      -0.526660       -14.3311
  76   2.0000      -0.490330       -13.3425
  77   2.0000      -0.488082       -13.2814
  78   2.0000      -0.473523       -12.8852
  79   2.0000      -0.467757       -12.7283
  80   2.0000      -0.454653       -12.3717
  81   2.0000      -0.435342       -11.8463
  82   2.0000      -0.433201       -11.7880
  83   2.0000      -0.421617       -11.4728
  84   2.0000      -0.417348       -11.3566
  85   2.0000      -0.416275       -11.3274
  86   2.0000      -0.411262       -11.1910
  87   2.0000      -0.400813       -10.9067
  88   2.0000      -0.400510       -10.8984
  89   2.0000      -0.396181       -10.7806
  90   2.0000      -0.395752       -10.7690
  91   2.0000      -0.362924        -9.8757
  92   2.0000      -0.347258        -9.4494
  93   2.0000      -0.344064        -9.3625
  94   2.0000      -0.335603        -9.1322
  95   2.0000      -0.321878        -8.7588
  96   2.0000      -0.309262        -8.4154
  97   2.0000      -0.307605        -8.3704
  98   2.0000      -0.306789        -8.3481
  99   2.0000      -0.305376        -8.3097
 100   2.0000      -0.302236        -8.2242
 101   2.0000      -0.302039        -8.2189
 102   2.0000      -0.298608        -8.1255
 103   2.0000      -0.290378        -7.9016
 104   2.0000      -0.286941        -7.8081
 105   2.0000      -0.269549        -7.3348
 106   2.0000      -0.267626        -7.2825
 107   2.0000      -0.266834        -7.2609
 108   2.0000      -0.243510        -6.6262
 109   2.0000      -0.235728        -6.4145
 110   2.0000      -0.220766        -6.0074
 111   2.0000      -0.202542        -5.5114
 112   0.0000      -0.087502        -2.3811
 113   0.0000      -0.074524        -2.0279
 114   0.0000      -0.072526        -1.9735
 115   0.0000      -0.066132        -1.7996
 116   0.0000      -0.054296        -1.4775

MULLIKEN ATOMIC CHARGES
-----------------------
   0 C :    0.131158
   1 C :    0.131104
   2 C :   -0.021231
   3 C :   -0.017848
   4 C :   -0.017851
   5 C :   -0.021255
   6 Cl:    0.005153
   7 Cl:   -0.009161
   8 Cl:   -0.009138
   9 Cl:    0.005155
  10 O :   -0.176126
  11 C :    0.131109
  12 C :    0.131218
  13 C :   -0.021352
  14 C :   -0.017747
  15 C :   -0.017925
  16 C :   -0.021198
  17 Cl:    0.005146
  18 Cl:   -0.009163
  19 Cl:   -0.009135
  20 Cl:    0.005140
  21 O :   -0.176052
Sum of atomic charges:    0.0000000

LOEWDIN ATOMIC CHARGES
----------------------
   0 C :   -0.003416
   1 C :   -0.003403
   2 C :   -0.179067
   3 C :   -0.186396
   4 C :   -0.186380
   5 C :   -0.179067
   6 Cl:    0.188500
   7 Cl:    0.182559
   8 Cl:    0.182592
   9 Cl:    0.188504
  10 O :   -0.004452
  11 C :   -0.003397
  12 C :   -0.003416
  13 C :   -0.179067
  14 C :   -0.186402
  15 C :   -0.186371
  16 C :   -0.179055
  17 Cl:    0.188481
  18 Cl:    0.182554
  19 Cl:    0.182600
  20 Cl:    0.188502
  21 O :   -0.004404

  Mayer bond orders larger than 0.100000
B(  0-C ,  1-C ) :   1.2397 B(  0-C ,  5-C ) :   1.3812 B(  0-C , 21-O ) :   1.1174
B(  1-C ,  2-C ) :   1.3813 B(  1-C , 10-O ) :   1.1173 B(  2-C ,  3-C ) :   1.4234
B(  2-C ,  9-Cl) :   1.1111 B(  3-C ,  4-C ) :   1.4232 B(  3-C ,  8-Cl) :   1.1179
B(  4-C ,  5-C ) :   1.4234 B(  4-C ,  7-Cl) :   1.1179 B(  5-C ,  6-Cl) :   1.1111
B( 10-O , 11-C ) :   1.1173 B( 11-C , 12-C ) :   1.2397 B( 11-C , 16-C ) :   1.3813
B( 12-C , 13-C ) :   1.3813 B( 12-C , 21-O ) :   1.1174 B( 13-C , 14-C ) :   1.4234
B( 13-C , 20-Cl) :   1.1111 B( 14-C , 15-C ) :   1.4232 B( 14-C , 19-Cl) :   1.1179
B( 15-C , 16-C ) :   1.4234 B( 15-C , 18-Cl) :   1.1179 B( 16-C , 17-Cl) :   1.1111

Dispersion correction           -0.054139238
FINAL SINGLE POINT ENERGY     -4285.489595473533

DIPOLE MOMENT
-------------

Method             : SCF
Type of density    : Electron Density
Multiplicity       :   1
Irrep              :   0
Energy             : -4285.5059255297201162 Eh
Relativity type    :
Basis              : AO
                                X                 Y                 Z
Electronic contribution:     -0.000028200      -0.000031552      -0.004796388
Nuclear contribution   :      0.000009968      -0.000054645       0.004791315
                        -----------------------------------------
Total Dipole Moment    :     -0.000018232      -0.000086197      -0.000005073
                        -----------------------------------------
Magnitude (a.u.)       :      0.000088250
Magnitude (Debye)      :      0.000224313

Rotational constants in cm-1:             0.008805             0.003158             0.002324
Rotational constants in MHz :           263.963856            94.667591            69.678291

                             ****ORCA TERMINATED NORMALLY****
TOTAL RUN TIME: 0 days 0 hours 0 minutes 26 seconds 441 msec
