                         Program Version 6.0.1  -  RELEASE   -
|  1> ! r2scan-3c def2/J RI DEFGRID2 scfconv6 printgap
|  2> %output
|  3>     printlevel normal
|  4> end
|  5> * xyz 0 1
|  6> C -2.3790606595 -0.4065061975 -1.2005203603
|  7> C -1.7256531463 0.0617098385 0.06471985
|  8> C -2.3988332446 0.4796141114 1.1239253068
|  9> C -0.2426319337 0.0245785537 0.0501404878
| 10> C 0.485327085 1.1289839766 -0.3751969318
| 11> C 1.8679840474 1.0881509867 -0.4029382944
| 12> C 2.537371978 -0.0575396193 -0.0078399777
| 13> C 1.8186426525 -1.1620701687 0.4169551367
| 14> C 0.436106565 -1.122064652 0.4445082035
| 15> H -2.0845858748 -1.4339073174 -1.413799545
| 16> H -3.4621542532 -0.3556130598 -1.1232648701
| 17> H -2.0520824127 0.2091855528 -2.0382700949
| 18> H -1.8965603261 0.8095235762 2.0176521907
| 19> H -3.4757561551 0.5077047111 1.1387758753
| 20> H -0.0387992477 2.0236337535 -0.680451075
| 21> H 2.424788592 1.9530064377 -0.7338767178
| 22> H 3.6168882945 -0.0892167213 -0.0298703185
| 23> H 2.3369580112 -2.0575714874 0.7282845391
| 24> H -0.1265415642 -1.982129292 0.7792367894
| 25> *
| 26>
| 27>                          ****END OF INPUT****

CARTESIAN COORDINATES (ANGSTROEM)
---------------------------------
  C     -2.379061   -0.406506   -1.200520
  C     -1.725653    0.061710    0.064720
  C     -2.398833    0.479614    1.123925
  C     -0.242632    0.024579    0.050140
  C      0.485327    1.128984   -0.375197
  C      1.867984    1.088151   -0.402938
  C      2.537372   -0.057540   -0.007840
  C      1.818643   -1.162070    0.416955
  C      0.436107   -1.122065    0.444508
  H     -2.084586   -1.433907   -1.413800
  H     -3.462154   -0.355613   -1.123265
  H     -2.052082    0.209186   -2.038270
  H     -1.896560    0.809524    2.017652
  H     -3.475756    0.507705    1.138776
  H     -0.038799    2.023634   -0.680451
  H      2.424789    1.953006   -0.733877
  H      3.616888   -0.089217   -0.029870
  H      2.336958   -2.057571    0.728285
  H     -0.126542   -1.982129    0.779237

 Total Charge           Charge          ....    0
 Multiplicity           Mult            ....    1
 Number of Electrons    NEL             ....   64
 Basis Dimension        Dim             ....  221

ORBITAL ENERGIES
----------------

  NO   OCC          E(Eh)            E(eV)
   0   2.0000     -10.045116      -273.3415
   1   2.0000     -10.043035      -273.2849
   2   2.0000     -10.035298      -273.0743
   3   2.0000     -10.035234      -273.0726
   4   2.0000     -10.034234      -273.0454
   5   2.0000     -10.034192      -273.0442
   6   2.0000     -10.033733      -273.0317
   7   2.0000     -10.028418      -272.8871
   8   2.0000     -10.017311      -272.5849
   9   2.0000      -0.833327       -22.6760
  10   2.0000      -0.776121       -21.1193
  11   2.0000      -0.716869       -19.5070
  12   2.0000      -0.703926       -19.1548
  13   2.0000      -0.657231       -17.8842
  14   2.0000      -0.583113       -15.8673
  15   2.0000      -0.576061       -15.6754
  16   2.0000      -0.517137       -14.0720
  17   2.0000      -0.473126       -12.8744
  18   2.0000      -0.435459       -11.8494
  19   2.0000      -0.427197       -11.6246
  20   2.0000      -0.410455       -11.1690
  21   2.0000      -0.405508       -11.0344
  22   2.0000      -0.391304       -10.6479
  23   2.0000      -0.381244       -10.3742
  24   2.0000      -0.355099        -9.6627
  25   2.0000      -0.341008        -9.2793
  26   2.0000      -0.334625        -9.1056
  27   2.0000      -0.313986        -8.5440
  28   2.0000      -0.298216        -8.1149
  29   2.0000      -0.240154        -6.5349
  30   2.0000      -0.232251        -6.3199
  31   2.0000      -0.231460        -6.2984
  32   0.0000      -0.032892        -0.8951
  33   0.0000      -0.030585        -0.8323
  34   0.0000      -0.011028        -0.3001
  35   0.0000       0.073268         1.9937
  36   0.0000       0.101785         2.7697

MULLIKEN ATOMIC CHARGES
-----------------------
   0 C :   -0.487940
   1 C :    0.013701
   2 C :   -0.357393
   3 C :    0.180726
   4 C :   -0.207242
   5 C :   -0.151389
   6 C :   -0.142458
   7 C :   -0.151705
   8 C :   -0.207489
   9 H :    0.162014
  10 H :    0.148267
  11 H :    0.161948
  12 H :    0.151235
  13 H :    0.140120
  14 H :    0.155308
  15 H :    0.145263
  16 H :    0.146792
  17 H :    0.145260
  18 H :    0.154981
Sum of atomic charges:    0.0000000

LOEWDIN ATOMIC CHARGES
----------------------
   0 C :   -0.378744
   1 C :   -0.115070
   2 C :   -0.299709
   3 C :   -0.077595
   4 C :   -0.147407
   5 C :   -0.161196
   6 C :   -0.170328
   7 C :   -0.161177
   8 C :   -0.147427
   9 H :    0.165177
  10 H :    0.157930
  11 H :    0.165260
  12 H :    0.164450
  13 H :    0.157320
  14 H :    0.173525
  15 H :    0.167386
  16 H :    0.166808
  17 H :    0.167383
  18 H :    0.173412

  Mayer bond orders larger than 0.100000
B(  0-C ,  1-C ) :   0.9185 B(  0-C ,  9-H ) :   0.9681 B(  0-C , 10-H ) :   0.9831
B(  0-C , 11-H ) :   0.9678 B(  1-C ,  2-C ) :   1.8982 B(  1-C ,  3-C ) :   0.8696
B(  2-C , 12-H ) :   0.9742 B(  2-C , 13-H ) :   0.9694 B(  3-C ,  4-C ) :   1.4171
B(  3-C ,  8-C ) :   1.4149 B(  4-C ,  5-C ) :   1.4228 B(  4-C , 14-H ) :   0.9473
B(  5-C ,  6-C ) :   1.4259 B(  5-C , 15-H ) :   0.9486 B(  6-C ,  7-C ) :   1.4252
B(  6-C , 16-H ) :   0.9462 B(  7-C ,  8-C ) :   1.4242 B(  7-C , 17-H ) :   0.9486
B(  8-C , 18-H ) :   0.9472

Dispersion correction           -0.006484853
FINAL SINGLE POINT ENERGY      -348.852694279104

DIPOLE MOMENT
-------------

Method             : SCF
Type of density    : Electron Density
Multiplicity       :   1
Irrep              :   0
Energy             :  -348.8512745326363529 Eh
Relativity type    :
Basis              : AO
                                X                 Y                 Z
Electronic contribution:      4.462946757       0.327869789       1.108980535
Nuclear contribution   :     -4.463660141      -0.389700031      -1.271765452
                        -----------------------------------------
Total Dipole Moment    :     -0.000713384      -0.061830242      -0.162784917
                        -----------------------------------------
Magnitude (a.u.)       :      0.174133331
Magnitude (Debye)      :      0.442611753

Rotational constants in cm-1:             0.119840             0.037402             0.034558
Rotational constants in MHz :          3592.707950          1121.280923          1036.030647

                             ****ORCA TERMINATED NORMALLY****
TOTAL RUN TIME: 0 days 0 hours 0 minutes 22 seconds 327 msec
