                         Program Version 6.0.0  -   RELEASE  -
|  1> ! r2SCAN-3c DEF2-TZVP FREQ
|  2> * xyzfile 0 1 censo.xyz
|  3>
|  4>                          ****END OF INPUT****

CARTESIAN COORDINATES (ANGSTROEM)
---------------------------------
  C     -1.753622    1.085800    0.037491
  C     -0.888400   -0.133883   -0.111120
  O     -1.400739   -1.233403   -0.300793
  C      0.627631    0.029437   -0.021311
  C      0.968496    0.206211    1.473224
  C      1.084564    1.268774   -0.805068
  C      1.330777   -1.217318   -0.559348
  H     -1.785013    1.599594   -0.931842
  H     -2.769806    0.791766    0.305338
  H     -1.355806    1.798511    0.763282
  H      0.517709    1.111501    1.889766
  H      0.629648   -0.654969    2.058385
  H      2.055305    0.287312    1.580020
  H      2.175020    1.347830   -0.745731
  H      0.658888    2.190568   -0.399377
  H      0.805756    1.191989   -1.861404
  H      1.051483   -2.110768    0.005537
  H      2.414415   -1.086643   -0.478206
  H      1.083250   -1.386020   -1.612565

 Total Charge           Charge          ....    0
 Multiplicity           Mult            ....    1
 Number of Electrons    NEL             ....   56
 Basis Dimension        Dim             ....  289

ORBITAL ENERGIES
----------------

  NO   OCC          E(Eh)            E(eV)
   0   2.0000     -18.933807      -515.2151
   1   2.0000     -10.115485      -275.2563
   2   2.0000     -10.058595      -273.7083
   3   2.0000     -10.034901      -273.0635
   4   2.0000     -10.034608      -273.0556
   5   2.0000     -10.033072      -273.0138
   6   2.0000     -10.018907      -272.6283
   7   2.0000      -0.993473       -27.0338
   8   2.0000      -0.795083       -21.6353
   9   2.0000      -0.710535       -19.3347
  10   2.0000      -0.665487       -18.1088
  11   2.0000      -0.654056       -17.7978
  12   2.0000      -0.579808       -15.7774
  13   2.0000      -0.475478       -12.9384
  14   2.0000      -0.448428       -12.2024
  15   2.0000      -0.429455       -11.6861
  16   2.0000      -0.424578       -11.5534
  17   2.0000      -0.402792       -10.9605
  18   2.0000      -0.388914       -10.5829
  19   2.0000      -0.377226       -10.2648
  20   2.0000      -0.362862        -9.8740
  21   2.0000      -0.356220        -9.6933
  22   2.0000      -0.342609        -9.3229
  23   2.0000      -0.327758        -8.9187
  24   2.0000      -0.323419        -8.8007
  25   2.0000      -0.308079        -8.3832
  26   2.0000      -0.304568        -8.2877
  27   2.0000      -0.210289        -5.7222
  28   0.0000      -0.047127        -1.2824
  29   0.0000       0.026994         0.7345
  30   0.0000       0.069724         1.8973
  31   0.0000       0.077820         2.1176
  32   0.0000       0.090045         2.4503

MULLIKEN ATOMIC CHARGES
-----------------------
   0 C :   -0.348984
   1 C :    0.184308
   2 O :   -0.330651
   3 C :    0.144653
   4 C :   -0.363245
   5 C :   -0.363421
   6 C :   -0.329034
   7 H :    0.132152
   8 H :    0.137047
   9 H :    0.116729
  10 H :    0.104533
  11 H :    0.129424
  12 H :    0.112655
  13 H :    0.111754
  14 H :    0.108475
  15 H :    0.121829
  16 H :    0.121458
  17 H :    0.100743
  18 H :    0.109576
Sum of atomic charges:   -0.0000000

LOEWDIN ATOMIC CHARGES
----------------------
   0 C :   -0.261353
   1 C :   -0.303752
   2 O :    0.116764
   3 C :   -0.336226
   4 C :   -0.245490
   5 C :   -0.252578
   6 C :   -0.253320
   7 H :    0.143931
   8 H :    0.134000
   9 H :    0.127391
  10 H :    0.120254
  11 H :    0.129750
  12 H :    0.127823
  13 H :    0.127007
  14 H :    0.122140
  15 H :    0.126458
  16 H :    0.128994
  17 H :    0.121511
  18 H :    0.126696

  Mayer bond orders larger than 0.100000
B(  0-C ,  1-C ) :   0.9686 B(  0-C ,  7-H ) :   0.9368 B(  0-C ,  8-H ) :   0.9693
B(  0-C ,  9-H ) :   0.9622 B(  1-C ,  2-O ) :   2.0649 B(  1-C ,  3-C ) :   0.8899
B(  3-C ,  4-C ) :   0.9362 B(  3-C ,  5-C ) :   0.9284 B(  3-C ,  6-C ) :   0.9638
B(  4-C , 10-H ) :   0.9607 B(  4-C , 11-H ) :   0.9731 B(  4-C , 12-H ) :   0.9679
B(  5-C , 13-H ) :   0.9679 B(  5-C , 14-H ) :   0.9617 B(  5-C , 15-H ) :   0.9784
B(  6-C , 16-H ) :   0.9655 B(  6-C , 17-H ) :   0.9718 B(  6-C , 18-H ) :   0.9679

Dispersion correction           -0.005412783
FINAL SINGLE POINT ENERGY      -311.028139233834

DIPOLE MOMENT
-------------

Method             : SCF
Type of density    : Electron Density
Multiplicity       :   1
Irrep              :   0
Energy             :  -311.0319523641312003 Eh
Relativity type    :
Basis              : AO
                                X                 Y                 Z
Electronic contribution:     -4.648623854      -3.712180922      -0.807379911
Nuclear contribution   :      5.170506239       4.717939921       0.991167948
                        -----------------------------------------
Total Dipole Moment    :      0.521882385       1.005758998       0.183788038
                        -----------------------------------------
Magnitude (a.u.)       :      1.147906977
Magnitude (Debye)      :      2.917747659

VIBRATIONAL FREQUENCIES
-----------------------

Scaling factor for frequencies =  1.000000000  (already applied!)

     0:       0.00 cm**-1
     1:       0.00 cm**-1
     2:       0.00 cm**-1
     3:       0.00 cm**-1
     4:       0.00 cm**-1
     5:       0.00 cm**-1
     6:      83.59 cm**-1
     7:     184.44 cm**-1
     8:     215.40 cm**-1
     9:     244.51 cm**-1
    10:     275.44 cm**-1
    11:     283.03 cm**-1
    12:     303.35 cm**-1
    13:     352.92 cm**-1
    14:     367.80 cm**-1
    15:     383.24 cm**-1
    16:     464.12 cm**-1
    17:     560.94 cm**-1
    18:     620.85 cm**-1
    19:     684.37 cm**-1
    20:     841.75 cm**-1
    21:     939.30 cm**-1
    22:     947.06 cm**-1
    23:     961.96 cm**-1
    24:     967.24 cm**-1
    25:     987.33 cm**-1
    26:    1054.66 cm**-1
    27:    1066.30 cm**-1
    28:    1163.72 cm**-1
    29:    1218.02 cm**-1
    30:    1241.93 cm**-1
    31:    1299.00 cm**-1
    32:    1376.41 cm**-1
    33:    1381.55 cm**-1
    34:    1389.99 cm**-1
    35:    1420.42 cm**-1
    36:    1451.81 cm**-1
    37:    1469.24 cm**-1
    38:    1472.13 cm**-1
    39:    1476.95 cm**-1
    40:    1480.87 cm**-1
    41:    1494.28 cm**-1
    42:    1500.86 cm**-1
    43:    1516.31 cm**-1
    44:    1684.77 cm**-1
    45:    3005.12 cm**-1
    46:    3006.03 cm**-1
    47:    3012.17 cm**-1
    48:    3013.93 cm**-1
    49:    3081.73 cm**-1
    50:    3084.37 cm**-1
    51:    3088.01 cm**-1
    52:    3089.13 cm**-1
    53:    3094.98 cm**-1
    54:    3098.02 cm**-1
    55:    3102.94 cm**-1
    56:    3133.03 cm**-1

IR SPECTRUM
-----------

 Mode   freq       eps      Int      T**2         TX        TY        TZ
       cm**-1   L/(mol*cm) km/mol    a.u.
----------------------------------------------------------------------------
  6:     83.59   0.000655    3.31  0.002446  (-0.001346 -0.006166  0.049052)
  7:    184.44   0.000026    0.13  0.000045  (-0.003806 -0.003767 -0.003988)
  8:    215.40   0.000042    0.21  0.000060  ( 0.005592 -0.003029  0.004462)
  9:    244.51   0.000084    0.43  0.000108  ( 0.008682  0.002327 -0.005193)
 10:    275.44   0.000440    2.22  0.000499  ( 0.022320 -0.000532 -0.000457)
 11:    283.03   0.000028    0.14  0.000031  ( 0.005394 -0.001201 -0.000828)
 12:    303.35   0.000065    0.33  0.000067  (-0.006708  0.003914 -0.002600)
 13:    352.92   0.000398    2.01  0.000352  (-0.018207 -0.004486 -0.000020)
 14:    367.80   0.000192    0.97  0.000163  ( 0.009675 -0.005953 -0.005810)
 15:    383.24   0.000029    0.14  0.000023  ( 0.001416 -0.003532  0.002958)
 16:    464.12   0.000412    2.08  0.000277  ( 0.004927 -0.015848 -0.001289)
 17:    560.94   0.001337    6.76  0.000744  ( 0.026478 -0.006498 -0.000794)
 18:    620.85   0.000056    0.28  0.000028  (-0.000545  0.004990  0.001662)
 19:    684.37   0.000810    4.09  0.000369  (-0.018983  0.002945 -0.000441)
 20:    841.75   0.001002    5.06  0.000371  ( 0.017714  0.006635  0.003688)
 21:    939.30   0.000102    0.52  0.000034  ( 0.000531 -0.000397 -0.005788)
 22:    947.06   0.000131    0.66  0.000043  ( 0.002149  0.006058  0.001358)
 23:    961.96   0.000004    0.02  0.000001  (-0.000236 -0.000196 -0.001081)
 24:    967.24   0.002967   14.99  0.000957  ( 0.028177 -0.012356  0.003238)
 25:    987.33   0.000335    1.69  0.000106  ( 0.002200  0.006511 -0.007666)
 26:   1054.66   0.000031    0.16  0.000009  ( 0.001201  0.002787 -0.000056)
 27:   1066.30   0.000227    1.15  0.000066  (-0.004576  0.003684 -0.005650)
 28:   1163.72   0.013050   65.95  0.003500  ( 0.055213 -0.021217  0.001015)
 29:   1218.02   0.000622    3.15  0.000159  (-0.008933 -0.000860  0.008883)
 30:   1241.93   0.000687    3.47  0.000173  ( 0.001062  0.013099 -0.000067)
 31:   1299.00   0.002065   10.44  0.000496  ( 0.021608 -0.003686  0.003950)
 32:   1376.41   0.008703   43.98  0.001973  (-0.032794  0.028893 -0.007934)
 33:   1381.55   0.001272    6.43  0.000287  (-0.006094 -0.003615  0.015399)
 34:   1389.99   0.002154   10.89  0.000484  (-0.000206  0.021757  0.003194)
 35:   1420.42   0.001303    6.58  0.000286  (-0.015500  0.006607  0.001535)
 36:   1451.81   0.002917   14.74  0.000627  ( 0.016131  0.018216  0.005904)
 37:   1469.24   0.001059    5.35  0.000225  ( 0.001690 -0.000317  0.014901)
 38:   1472.13   0.000842    4.26  0.000179  ( 0.005455  0.007239 -0.009818)
 39:   1476.95   0.000118    0.60  0.000025  (-0.000643 -0.003330 -0.003658)
 40:   1480.87   0.000297    1.50  0.000063  (-0.003437 -0.004742 -0.005328)
 41:   1494.28   0.001795    9.07  0.000375  ( 0.002894  0.016834 -0.009115)
 42:   1500.86   0.002291   11.58  0.000476  ( 0.000703  0.012580  0.017824)
 43:   1516.31   0.005002   25.28  0.001030  (-0.031662  0.004965  0.001546)
 44:   1684.77   0.031523  159.30  0.005839  ( 0.035307  0.066219  0.014401)
 45:   3005.12   0.005962   30.13  0.000619  ( 0.000067 -0.008686  0.023317)
 46:   3006.03   0.003529   17.84  0.000366  ( 0.004565  0.016757  0.008047)
 47:   3012.17   0.001836    9.28  0.000190  ( 0.006351 -0.012036 -0.002248)
 48:   3013.93   0.003658   18.49  0.000379  (-0.017986  0.002104  0.007132)
 49:   3081.73   0.001438    7.27  0.000146  ( 0.009650 -0.001645  0.007060)
 50:   3084.37   0.001373    6.94  0.000139  (-0.009032 -0.002138  0.007262)
 51:   3088.01   0.001437    7.26  0.000145  ( 0.005760  0.001314 -0.010504)
 52:   3089.13   0.009783   49.44  0.000988  (-0.026963 -0.005597 -0.015163)
 53:   3094.98   0.000554    2.80  0.000056  (-0.001266  0.006851 -0.002715)
 54:   3098.02   0.010432   52.72  0.001051  ( 0.015801 -0.024983 -0.013302)
 55:   3102.94   0.004206   21.25  0.000423  ( 0.007540  0.011715 -0.015129)
 56:   3133.03   0.002254   11.39  0.000224  ( 0.012069  0.008323  0.003090)

--------------------------
THERMOCHEMISTRY AT 298.15K
--------------------------

Temperature         ...   298.15 K
Pressure            ...     1.00 atm
Total Mass          ...   100.16 AMU
Quasi RRHO          ...     True
Cut-Off Frequency   ...     1.00 cm^-1

Throughout the following assumptions are being made:
  (1) The electronic state is orbitally nondegenerate
  (2) There are no thermally accessible electronically excited states
  (3) Hindered rotations indicated by low frequency modes are not
      treated as such but are treated as vibrations and this may
      cause some error
  (4) All equations used are the standard statistical mechanics
      equations for an ideal gas
  (5) All vibrations are strictly harmonic

freq.      83.59  E(vib)   ...       0.48
freq.     184.44  E(vib)   ...       0.37
freq.     215.40  E(vib)   ...       0.34
freq.     244.51  E(vib)   ...       0.31
freq.     275.44  E(vib)   ...       0.28
freq.     283.03  E(vib)   ...       0.28
freq.     303.35  E(vib)   ...       0.26
freq.     352.92  E(vib)   ...       0.22
freq.     367.80  E(vib)   ...       0.21
freq.     383.24  E(vib)   ...       0.20
freq.     464.12  E(vib)   ...       0.16
freq.     560.94  E(vib)   ...       0.11
freq.     620.85  E(vib)   ...       0.09
freq.     684.37  E(vib)   ...       0.07
freq.     841.75  E(vib)   ...       0.04
freq.     939.30  E(vib)   ...       0.03
freq.     947.06  E(vib)   ...       0.03
freq.     961.96  E(vib)   ...       0.03
freq.     967.24  E(vib)   ...       0.03
freq.     987.33  E(vib)   ...       0.02
freq.    1054.66  E(vib)   ...       0.02
freq.    1066.30  E(vib)   ...       0.02
freq.    1163.72  E(vib)   ...       0.01
freq.    1218.02  E(vib)   ...       0.01
freq.    1241.93  E(vib)   ...       0.01
freq.    1299.00  E(vib)   ...       0.01
freq.    1376.41  E(vib)   ...       0.01
freq.    1381.55  E(vib)   ...       0.01
freq.    1389.99  E(vib)   ...       0.00
freq.    1420.42  E(vib)   ...       0.00
freq.    1451.81  E(vib)   ...       0.00
freq.    1469.24  E(vib)   ...       0.00
freq.    1472.13  E(vib)   ...       0.00
freq.    1476.95  E(vib)   ...       0.00
freq.    1480.87  E(vib)   ...       0.00
freq.    1494.28  E(vib)   ...       0.00
freq.    1500.86  E(vib)   ...       0.00
freq.    1516.31  E(vib)   ...       0.00
freq.    1684.77  E(vib)   ...       0.00
freq.    3005.12  E(vib)   ...       0.00
freq.    3006.03  E(vib)   ...       0.00
freq.    3012.17  E(vib)   ...       0.00
freq.    3013.93  E(vib)   ...       0.00
freq.    3081.73  E(vib)   ...       0.00
freq.    3084.37  E(vib)   ...       0.00
freq.    3088.01  E(vib)   ...       0.00
freq.    3089.13  E(vib)   ...       0.00
freq.    3094.98  E(vib)   ...       0.00
freq.    3098.02  E(vib)   ...       0.00
freq.    3102.94  E(vib)   ...       0.00
freq.    3133.03  E(vib)   ...       0.00

------------
INNER ENERGY
------------

The inner energy is: U= E(el) + E(ZPE) + E(vib) + E(rot) + E(trans)
    E(el)   - is the total energy from the electronic structure calculation
              = E(kin-el) + E(nuc-el) + E(el-el) + E(nuc-nuc)
    E(ZPE)  - the the zero temperature vibrational energy from the frequency calculation
    E(vib)  - the the finite temperature correction to E(ZPE) due to population
              of excited vibrational states
    E(rot)  - is the rotational thermal energy
    E(trans)- is the translational thermal energy

Summary of contributions to the inner energy U:
Electronic energy                ...   -311.02813923 Eh
Zero point energy                ...      0.16775813 Eh     105.27 kcal/mol
Thermal vibrational correction   ...      0.00589804 Eh       3.70 kcal/mol
Thermal rotational correction    ...      0.00141627 Eh       0.89 kcal/mol
Thermal translational correction ...      0.00141627 Eh       0.89 kcal/mol
-----------------------------------------------------------------------
Total thermal energy                   -310.85165051 Eh

Summary of corrections to the electronic energy:
(perhaps to be used in another calculation)
Total thermal correction                  0.00873058 Eh       5.48 kcal/mol
Non-thermal (ZPE) correction              0.16775813 Eh     105.27 kcal/mol
-----------------------------------------------------------------------
Total correction                          0.17648872 Eh     110.75 kcal/mol

--------
ENTHALPY
--------

The enthalpy is H = U + kB*T
                kB is Boltzmann's constant
Total thermal energy              ...   -310.85165051 Eh
Thermal Enthalpy correction       ...      0.00094421 Eh       0.59 kcal/mol
-----------------------------------------------------------------------
Total Enthalpy                    ...   -310.85070631 Eh

Note: Only C1 symmetry has been detected, increase convergence thresholds
      if your molecule has a higher symmetry. Symmetry factor of 1.0 is
      used for the rotational entropy correction.

Note: Rotational entropy computed according to Herzberg
Infrared and Raman Spectra, Chapter V,1, Van Nostrand Reinhold, 1945
Point Group:  C1, Symmetry Number:   1
Rotational constants in cm-1:     0.106550     0.077261     0.064268

Vibrational entropy computed according to the QRRHO of S. Grimme
Chem.Eur.J. 2012 18 9955 using a reference frequency of 100.0 cm-1

-------
ENTROPY
-------

The entropy contributions are T*S = T*(S(el)+S(vib)+S(rot)+S(trans))
     S(el)   - electronic entropy
     S(vib)  - vibrational entropy
     S(rot)  - rotational entropy
     S(trans)- translational entropy
The entropies will be listed as multiplied by the temperature to get
units of energy

Electronic entropy                ...      0.00000000 Eh      0.00 kcal/mol
Vibrational entropy               ...      0.00965936 Eh      6.06 kcal/mol
Rotational entropy                ...      0.01307245 Eh      8.20 kcal/mol
Translational entropy             ...      0.01887352 Eh     11.84 kcal/mol
-----------------------------------------------------------------------
Final entropy term                ...      0.04160533 Eh     26.11 kcal/mol

In case the symmetry of your molecule has not been determined correctly
or in case you have a reason to use a different symmetry number we print
out the resulting rotational entropy values for sn=1,12:

 non-linear molecules -----------------------------------
|  sn= 1 | S(rot)=       0.01307245 Eh      8.20 kcal/mol|
|  sn= 2 | S(rot)=       0.01241800 Eh      7.79 kcal/mol|
|  sn= 3 | S(rot)=       0.01203517 Eh      7.55 kcal/mol|
|  sn= 4 | S(rot)=       0.01176354 Eh      7.38 kcal/mol|
|  sn= 5 | S(rot)=       0.01155285 Eh      7.25 kcal/mol|
|  sn= 6 | S(rot)=       0.01138071 Eh      7.14 kcal/mol|
|  sn= 7 | S(rot)=       0.01123516 Eh      7.05 kcal/mol|
|  sn= 8 | S(rot)=       0.01110909 Eh      6.97 kcal/mol|
|  sn= 9 | S(rot)=       0.01099788 Eh      6.90 kcal/mol|

                             ****ORCA TERMINATED NORMALLY****
TOTAL RUN TIME: 0 days 0 hours 13 minutes 4 seconds 735 msec
