                         Program Version 6.0.0  -   RELEASE  -
|  1> ! r2SCAN-3c DEF2-TZVP FREQ
|  2> * xyzfile 0 1 vacuum_censo.xyz
|  3>
|  4>                          ****END OF INPUT****

CARTESIAN COORDINATES (ANGSTROEM)
---------------------------------
  C     -1.767647    1.083615    0.026480
  C     -0.891429   -0.147128   -0.096301
  O     -1.390033   -1.244332   -0.244390
  C      0.633910    0.035809   -0.017457
  C      1.325894   -1.218790   -0.552826
  C      0.992392    0.224727    1.470574
  C      1.082059    1.268335   -0.816891
  H     -1.405365    1.787772    0.780416
  H     -1.770626    1.614490   -0.932828
  H     -2.787799    0.773930    0.255732
  H      1.024576   -2.103883    0.011358
  H      1.065849   -1.391746   -1.601368
  H      2.412344   -1.104387   -0.478193
  H      0.532298    1.122991    1.893741
  H      2.078305    0.325681    1.571763
  H      0.673543   -0.640228    2.060410
  H      0.798083    1.181166   -1.871132
  H      2.172379    1.358081   -0.770894
  H      0.656333    2.194670   -0.420501

 Total Charge           Charge          ....    0
 Multiplicity           Mult            ....    1
 Number of Electrons    NEL             ....   56
 Basis Dimension        Dim             ....  289

ORBITAL ENERGIES
----------------

  NO   OCC          E(Eh)            E(eV)
   0   2.0000     -18.935655      -515.2654
   1   2.0000     -10.116043      -275.2715
   2   2.0000     -10.058461      -273.7046
   3   2.0000     -10.034590      -273.0551
   4   2.0000     -10.033941      -273.0374
   5   2.0000     -10.032416      -272.9959
   6   2.0000     -10.018175      -272.6084
   7   2.0000      -1.001822       -27.2610
   8   2.0000      -0.793271       -21.5860
   9   2.0000      -0.707892       -19.2627
  10   2.0000      -0.664647       -18.0860
  11   2.0000      -0.653900       -17.7935
  12   2.0000      -0.577734       -15.7209
  13   2.0000      -0.475144       -12.9293
  14   2.0000      -0.448450       -12.2029
  15   2.0000      -0.428649       -11.6641
  16   2.0000      -0.423912       -11.5352
  17   2.0000      -0.401553       -10.9268
  18   2.0000      -0.390446       -10.6246
  19   2.0000      -0.377018       -10.2592
  20   2.0000      -0.361765        -9.8441
  21   2.0000      -0.357586        -9.7304
  22   2.0000      -0.341670        -9.2973
  23   2.0000      -0.329969        -8.9789
  24   2.0000      -0.324278        -8.8241
  25   2.0000      -0.307871        -8.3776
  26   2.0000      -0.305634        -8.3167
  27   2.0000      -0.211108        -5.7446
  28   0.0000      -0.045293        -1.2325
  29   0.0000       0.027531         0.7491
  30   0.0000       0.070193         1.9100
  31   0.0000       0.078677         2.1409
  32   0.0000       0.090096         2.4516

MULLIKEN ATOMIC CHARGES
-----------------------
   0 C :   -0.356064
   1 C :    0.182092
   2 O :   -0.314754
   3 C :    0.142679
   4 C :   -0.330131
   5 C :   -0.364216
   6 C :   -0.366221
   7 H :    0.119121
   8 H :    0.131466
   9 H :    0.135421
  10 H :    0.122475
  11 H :    0.108259
  12 H :    0.101235
  13 H :    0.104712
  14 H :    0.112862
  15 H :    0.128448
  16 H :    0.120907
  17 H :    0.112267
  18 H :    0.109443
Sum of atomic charges:    0.0000000

LOEWDIN ATOMIC CHARGES
----------------------
   0 C :   -0.263072
   1 C :   -0.308350
   2 O :    0.133923
   3 C :   -0.334679
   4 C :   -0.254669
   5 C :   -0.247465
   6 C :   -0.254819
   7 H :    0.127640
   8 H :    0.140752
   9 H :    0.132339
  10 H :    0.128958
  11 H :    0.126153
  12 H :    0.121377
  13 H :    0.120257
  14 H :    0.127440
  15 H :    0.129470
  16 H :    0.125941
  17 H :    0.126646
  18 H :    0.122158

  Mayer bond orders larger than 0.100000
B(  0-C ,  1-C ) :   0.9659 B(  0-C ,  7-H ) :   0.9598 B(  0-C ,  8-H ) :   0.9393
B(  0-C ,  9-H ) :   0.9704 B(  1-C ,  2-O ) :   2.0799 B(  1-C ,  3-C ) :   0.8830
B(  3-C ,  4-C ) :   0.9644 B(  3-C ,  5-C ) :   0.9389 B(  3-C ,  6-C ) :   0.9281
B(  4-C , 10-H ) :   0.9654 B(  4-C , 11-H ) :   0.9687 B(  4-C , 12-H ) :   0.9716
B(  5-C , 13-H ) :   0.9612 B(  5-C , 14-H ) :   0.9681 B(  5-C , 15-H ) :   0.9731
B(  6-C , 16-H ) :   0.9784 B(  6-C , 17-H ) :   0.9681 B(  6-C , 18-H ) :   0.9626

Dispersion correction           -0.005402215
FINAL SINGLE POINT ENERGY      -311.028635729649

DIPOLE MOMENT
-------------

Method             : SCF
Type of density    : Electron Density
Multiplicity       :   1
Irrep              :   0
Energy             :  -311.0324308198561880 Eh
Relativity type    :
Basis              : AO
                                X                 Y                 Z
Electronic contribution:     -4.621587170      -3.777190652      -0.681276649
Nuclear contribution   :      5.118127753       4.758485117       0.829221393
                        -----------------------------------------
Total Dipole Moment    :      0.496540583       0.981294465       0.147944744
                        -----------------------------------------
Magnitude (a.u.)       :      1.109675189
Magnitude (Debye)      :      2.820570176

VIBRATIONAL FREQUENCIES
-----------------------

Scaling factor for frequencies =  1.000000000  (already applied!)

     0:       0.00 cm**-1
     1:       0.00 cm**-1
     2:       0.00 cm**-1
     3:       0.00 cm**-1
     4:       0.00 cm**-1
     5:       0.00 cm**-1
     6:      58.72 cm**-1
     7:     173.56 cm**-1
     8:     210.76 cm**-1
     9:     237.91 cm**-1
    10:     275.31 cm**-1
    11:     279.52 cm**-1
    12:     298.42 cm**-1
    13:     351.22 cm**-1
    14:     366.15 cm**-1
    15:     379.48 cm**-1
    16:     460.92 cm**-1
    17:     555.20 cm**-1
    18:     608.83 cm**-1
    19:     674.12 cm**-1
    20:     835.24 cm**-1
    21:     937.22 cm**-1
    22:     944.09 cm**-1
    23:     952.10 cm**-1
    24:     959.48 cm**-1
    25:     984.37 cm**-1
    26:    1053.99 cm**-1
    27:    1063.92 cm**-1
    28:    1152.12 cm**-1
    29:    1218.50 cm**-1
    30:    1242.14 cm**-1
    31:    1285.50 cm**-1
    32:    1368.52 cm**-1
    33:    1382.74 cm**-1
    34:    1389.15 cm**-1
    35:    1419.90 cm**-1
    36:    1453.24 cm**-1
    37:    1468.98 cm**-1
    38:    1471.03 cm**-1
    39:    1477.21 cm**-1
    40:    1480.87 cm**-1
    41:    1493.87 cm**-1
    42:    1500.19 cm**-1
    43:    1515.12 cm**-1
    44:    1750.02 cm**-1
    45:    3004.87 cm**-1
    46:    3006.34 cm**-1
    47:    3015.88 cm**-1
    48:    3017.61 cm**-1
    49:    3080.19 cm**-1
    50:    3082.82 cm**-1
    51:    3088.82 cm**-1
    52:    3091.31 cm**-1
    53:    3092.53 cm**-1
    54:    3095.03 cm**-1
    55:    3112.17 cm**-1
    56:    3135.00 cm**-1

IR SPECTRUM
-----------

 Mode   freq       eps      Int      T**2         TX        TY        TZ
       cm**-1   L/(mol*cm) km/mol    a.u.
----------------------------------------------------------------------------
  6:     58.72   0.000639    3.23  0.003394  (-0.000572 -0.005778  0.057966)
  7:    173.56   0.000031    0.16  0.000055  ( 0.002633  0.003125  0.006223)
  8:    210.76   0.000039    0.20  0.000057  ( 0.006069 -0.002615  0.003712)
  9:    237.91   0.000055    0.28  0.000072  ( 0.006843  0.002072 -0.004608)
 10:    275.31   0.000443    2.24  0.000502  (-0.022378  0.000323  0.000892)
 11:    279.52   0.000054    0.27  0.000060  ( 0.007643 -0.001196 -0.000595)
 12:    298.42   0.000089    0.45  0.000093  ( 0.008633 -0.003656  0.002361)
 13:    351.22   0.000324    1.64  0.000288  ( 0.016232  0.004917  0.000429)
 14:    366.15   0.000251    1.27  0.000214  ( 0.012204 -0.005602 -0.005761)
 15:    379.48   0.000034    0.17  0.000028  (-0.002890  0.003648 -0.002583)
 16:    460.92   0.000430    2.17  0.000291  (-0.005761  0.016028  0.000872)
 17:    555.20   0.001229    6.21  0.000691  (-0.025574  0.006006  0.000836)
 18:    608.83   0.000055    0.28  0.000028  (-0.000285  0.005050  0.001534)
 19:    674.12   0.000862    4.36  0.000399  (-0.019918  0.001319 -0.000798)
 20:    835.24   0.000912    4.61  0.000341  ( 0.016485  0.007549  0.003438)
 21:    937.22   0.000110    0.56  0.000037  ( 0.000176 -0.000120  0.006050)
 22:    944.09   0.000709    3.58  0.000234  ( 0.015148 -0.000592  0.002116)
 23:    952.10   0.003696   18.68  0.001211  (-0.030321  0.016945 -0.002235)
 24:    959.48   0.000010    0.05  0.000003  (-0.000861  0.000926  0.001322)
 25:    984.37   0.000286    1.45  0.000091  (-0.001837 -0.005332  0.007682)
 26:   1053.99   0.000010    0.05  0.000003  ( 0.001381  0.001071 -0.000094)
 27:   1063.92   0.000173    0.87  0.000051  (-0.003908  0.002411 -0.005440)
 28:   1152.12   0.014041   70.96  0.003803  (-0.057643  0.021898 -0.001020)
 29:   1218.50   0.000673    3.40  0.000172  ( 0.008810  0.000867 -0.009689)
 30:   1242.14   0.000673    3.40  0.000169  (-0.001086 -0.012913  0.001083)
 31:   1285.50   0.002105   10.64  0.000511  (-0.021912  0.003488 -0.004328)
 32:   1368.52   0.007510   37.95  0.001712  (-0.030161  0.027770 -0.005617)
 33:   1382.74   0.001246    6.30  0.000281  (-0.004221 -0.003150  0.015922)
 34:   1389.15   0.002324   11.74  0.000522  ( 0.001059 -0.022741 -0.001927)
 35:   1419.90   0.001081    5.46  0.000238  ( 0.014745 -0.004293 -0.001336)
 36:   1453.24   0.002541   12.84  0.000546  ( 0.015158  0.016915  0.005449)
 37:   1468.98   0.001454    7.35  0.000309  ( 0.002460 -0.001446  0.017341)
 38:   1471.03   0.000684    3.46  0.000145  (-0.004911 -0.007438  0.008098)
 39:   1477.21   0.000090    0.45  0.000019  ( 0.000345 -0.001611 -0.004028)
 40:   1480.87   0.000279    1.41  0.000059  ( 0.003480  0.003210  0.006038)
 41:   1493.87   0.001686    8.52  0.000352  ( 0.001436  0.015734 -0.010126)
 42:   1500.19   0.002205   11.15  0.000459  (-0.000027  0.013779  0.016398)
 43:   1515.12   0.004774   24.13  0.000983  ( 0.031231 -0.002418 -0.001424)
 44:   1750.02   0.032956  166.54  0.005877  ( 0.034439  0.067390  0.012212)
 45:   3004.87   0.006051   30.58  0.000628  ( 0.000343 -0.008288  0.023656)
 46:   3006.34   0.003721   18.80  0.000386  ( 0.006008  0.017392  0.006905)
 47:   3015.88   0.004895   24.74  0.000507  (-0.018567  0.010292  0.007476)
 48:   3017.61   0.000925    4.68  0.000096  ( 0.006839  0.006546 -0.002464)
 49:   3080.19   0.001931    9.76  0.000196  ( 0.010375  0.000118  0.009382)
 50:   3082.82   0.003607   18.23  0.000365  ( 0.018650 -0.003087 -0.002780)
 51:   3088.82   0.001787    9.03  0.000181  ( 0.003175  0.001336 -0.012989)
 52:   3091.31   0.007293   36.85  0.000736  ( 0.021872  0.003357  0.015701)
 53:   3092.53   0.002148   10.85  0.000217  ( 0.012047 -0.000844 -0.008420)
 54:   3095.03   0.008996   45.46  0.000907  (-0.008720  0.026561  0.011202)
 55:   3112.17   0.003733   18.86  0.000374  ( 0.006193  0.011582 -0.014204)
 56:   3135.00   0.002284   11.54  0.000227  (-0.013625 -0.006364 -0.001122)

--------------------------
THERMOCHEMISTRY AT 298.15K
--------------------------

Temperature         ...   298.15 K
Pressure            ...     1.00 atm
Total Mass          ...   100.16 AMU
Quasi RRHO          ...     True
Cut-Off Frequency   ...     1.00 cm^-1

Throughout the following assumptions are being made:
  (1) The electronic state is orbitally nondegenerate
  (2) There are no thermally accessible electronically excited states
  (3) Hindered rotations indicated by low frequency modes are not
      treated as such but are treated as vibrations and this may
      cause some error
  (4) All equations used are the standard statistical mechanics
      equations for an ideal gas
  (5) All vibrations are strictly harmonic

freq.      58.72  E(vib)   ...       0.51
freq.     173.56  E(vib)   ...       0.38
freq.     210.76  E(vib)   ...       0.34
freq.     237.91  E(vib)   ...       0.32
freq.     275.31  E(vib)   ...       0.28
freq.     279.52  E(vib)   ...       0.28
freq.     298.42  E(vib)   ...       0.26
freq.     351.22  E(vib)   ...       0.23
freq.     366.15  E(vib)   ...       0.22
freq.     379.48  E(vib)   ...       0.21
freq.     460.92  E(vib)   ...       0.16
freq.     555.20  E(vib)   ...       0.12
freq.     608.83  E(vib)   ...       0.10
freq.     674.12  E(vib)   ...       0.08
freq.     835.24  E(vib)   ...       0.04
freq.     937.22  E(vib)   ...       0.03
freq.     944.09  E(vib)   ...       0.03
freq.     952.10  E(vib)   ...       0.03
freq.     959.48  E(vib)   ...       0.03
freq.     984.37  E(vib)   ...       0.02
freq.    1053.99  E(vib)   ...       0.02
freq.    1063.92  E(vib)   ...       0.02
freq.    1152.12  E(vib)   ...       0.01
freq.    1218.50  E(vib)   ...       0.01
freq.    1242.14  E(vib)   ...       0.01
freq.    1285.50  E(vib)   ...       0.01
freq.    1368.52  E(vib)   ...       0.01
freq.    1382.74  E(vib)   ...       0.01
freq.    1389.15  E(vib)   ...       0.00
freq.    1419.90  E(vib)   ...       0.00
freq.    1453.24  E(vib)   ...       0.00
freq.    1468.98  E(vib)   ...       0.00
freq.    1471.03  E(vib)   ...       0.00
freq.    1477.21  E(vib)   ...       0.00
freq.    1480.87  E(vib)   ...       0.00
freq.    1493.87  E(vib)   ...       0.00
freq.    1500.19  E(vib)   ...       0.00
freq.    1515.12  E(vib)   ...       0.00
freq.    1750.02  E(vib)   ...       0.00
freq.    3004.87  E(vib)   ...       0.00
freq.    3006.34  E(vib)   ...       0.00
freq.    3015.88  E(vib)   ...       0.00
freq.    3017.61  E(vib)   ...       0.00
freq.    3080.19  E(vib)   ...       0.00
freq.    3082.82  E(vib)   ...       0.00
freq.    3088.82  E(vib)   ...       0.00
freq.    3091.31  E(vib)   ...       0.00
freq.    3092.53  E(vib)   ...       0.00
freq.    3095.03  E(vib)   ...       0.00
freq.    3112.17  E(vib)   ...       0.00
freq.    3135.00  E(vib)   ...       0.00

------------
INNER ENERGY
------------

The inner energy is: U= E(el) + E(ZPE) + E(vib) + E(rot) + E(trans)
    E(el)   - is the total energy from the electronic structure calculation
              = E(kin-el) + E(nuc-el) + E(el-el) + E(nuc-nuc)
    E(ZPE)  - the the zero temperature vibrational energy from the frequency calculation
    E(vib)  - the the finite temperature correction to E(ZPE) due to population
              of excited vibrational states
    E(rot)  - is the rotational thermal energy
    E(trans)- is the translational thermal energy

Summary of contributions to the inner energy U:
Electronic energy                ...   -311.02863573 Eh
Zero point energy                ...      0.16756420 Eh     105.15 kcal/mol
Thermal vibrational correction   ...      0.00602544 Eh       3.78 kcal/mol
Thermal rotational correction    ...      0.00141627 Eh       0.89 kcal/mol
Thermal translational correction ...      0.00141627 Eh       0.89 kcal/mol
-----------------------------------------------------------------------
Total thermal energy                   -310.85221354 Eh

Summary of corrections to the electronic energy:
(perhaps to be used in another calculation)
Total thermal correction                  0.00885799 Eh       5.56 kcal/mol
Non-thermal (ZPE) correction              0.16756420 Eh     105.15 kcal/mol
-----------------------------------------------------------------------
Total correction                          0.17642219 Eh     110.71 kcal/mol

--------
ENTHALPY
--------

The enthalpy is H = U + kB*T
                kB is Boltzmann's constant
Total thermal energy              ...   -310.85221354 Eh
Thermal Enthalpy correction       ...      0.00094421 Eh       0.59 kcal/mol
-----------------------------------------------------------------------
Total Enthalpy                    ...   -310.85126933 Eh

Note: Only C1 symmetry has been detected, increase convergence thresholds
      if your molecule has a higher symmetry. Symmetry factor of 1.0 is
      used for the rotational entropy correction.

Note: Rotational entropy computed according to Herzberg
Infrared and Raman Spectra, Chapter V,1, Van Nostrand Reinhold, 1945
Point Group:  C1, Symmetry Number:   1
Rotational constants in cm-1:     0.106352     0.076989     0.064002

Vibrational entropy computed according to the QRRHO of S. Grimme
Chem.Eur.J. 2012 18 9955 using a reference frequency of 100.0 cm-1

-------
ENTROPY
-------

The entropy contributions are T*S = T*(S(el)+S(vib)+S(rot)+S(trans))
     S(el)   - electronic entropy
     S(vib)  - vibrational entropy
     S(rot)  - rotational entropy
     S(trans)- translational entropy
The entropies will be listed as multiplied by the temperature to get
units of energy

Electronic entropy                ...      0.00000000 Eh      0.00 kcal/mol
Vibrational entropy               ...      0.00992746 Eh      6.23 kcal/mol
Rotational entropy                ...      0.01307695 Eh      8.21 kcal/mol
Translational entropy             ...      0.01887352 Eh     11.84 kcal/mol
-----------------------------------------------------------------------
Final entropy term                ...      0.04187794 Eh     26.28 kcal/mol

In case the symmetry of your molecule has not been determined correctly
or in case you have a reason to use a different symmetry number we print
out the resulting rotational entropy values for sn=1,12:

 non-linear molecules -----------------------------------
|  sn= 1 | S(rot)=       0.01307695 Eh      8.21 kcal/mol|
|  sn= 2 | S(rot)=       0.01242250 Eh      7.80 kcal/mol|
|  sn= 3 | S(rot)=       0.01203966 Eh      7.55 kcal/mol|
|  sn= 4 | S(rot)=       0.01176804 Eh      7.38 kcal/mol|
|  sn= 5 | S(rot)=       0.01155735 Eh      7.25 kcal/mol|
|  sn= 6 | S(rot)=       0.01138521 Eh      7.14 kcal/mol|
|  sn= 7 | S(rot)=       0.01123966 Eh      7.05 kcal/mol|
|  sn= 8 | S(rot)=       0.01111358 Eh      6.97 kcal/mol|
|  sn= 9 | S(rot)=       0.01100238 Eh      6.90 kcal/mol|

                             ****ORCA TERMINATED NORMALLY****
TOTAL RUN TIME: 0 days 0 hours 13 minutes 11 seconds 878 msec
