                         Program Version 6.0.0  -   RELEASE  -
|  1> ! r2SCAN-3c DEF2-TZVP FREQ
|  2> * xyzfile 0 1 censo.xyz
|  3>
|  4>                          ****END OF INPUT****

CARTESIAN COORDINATES (ANGSTROEM)
---------------------------------
  C     -2.596117    0.001486    0.003672
  C     -1.896002    1.193058    0.175659
  C     -0.505182    1.196270    0.159772
  C      0.197416   -0.000508   -0.020974
  C     -0.511787   -1.195183   -0.182430
  C     -1.901099   -1.192720   -0.177758
  C      1.690378   -0.065900   -0.019845
  O      2.286358   -1.119849    0.266123
  N      2.353012    1.061464   -0.338018
  H     -3.681308    0.002994    0.015041
  H     -2.433423    2.123309    0.328552
  H      0.020241    2.132799    0.316078
  H      0.035547   -2.121448   -0.320343
  H     -2.442864   -2.123128   -0.313753
  H      1.877859    1.884755   -0.670978
  H      3.361752    1.040983   -0.357959

 Total Charge           Charge          ....    0
 Multiplicity           Mult            ....    1
 Number of Electrons    NEL             ....   64
 Basis Dimension        Dim             ....  321

ORBITAL ENERGIES
----------------

  NO   OCC          E(Eh)            E(eV)
   0   2.0000     -18.911060      -514.5961
   1   2.0000     -14.190529      -386.1439
   2   2.0000     -10.134588      -275.7762
   3   2.0000     -10.056541      -273.6524
   4   2.0000     -10.054444      -273.5953
   5   2.0000     -10.049621      -273.4641
   6   2.0000     -10.049174      -273.4519
   7   2.0000     -10.046327      -273.3744
   8   2.0000     -10.045354      -273.3480
   9   2.0000      -0.988570       -26.9004
  10   2.0000      -0.879189       -23.9239
  11   2.0000      -0.833284       -22.6748
  12   2.0000      -0.734718       -19.9927
  13   2.0000      -0.725655       -19.7461
  14   2.0000      -0.618533       -16.8311
  15   2.0000      -0.585392       -15.9293
  16   2.0000      -0.556367       -15.1395
  17   2.0000      -0.526903       -14.3378
  18   2.0000      -0.487813       -13.2741
  19   2.0000      -0.452877       -12.3234
  20   2.0000      -0.430074       -11.7029
  21   2.0000      -0.411482       -11.1970
  22   2.0000      -0.400683       -10.9032
  23   2.0000      -0.386168       -10.5082
  24   2.0000      -0.375413       -10.2155
  25   2.0000      -0.346597        -9.4314
  26   2.0000      -0.332504        -9.0479
  27   2.0000      -0.322032        -8.7629
  28   2.0000      -0.251918        -6.8550
  29   2.0000      -0.249586        -6.7916
  30   2.0000      -0.244614        -6.6563
  31   2.0000      -0.218873        -5.9558
  32   0.0000      -0.069642        -1.8951
  33   0.0000      -0.045411        -1.2357
  34   0.0000       0.024058         0.6547
  35   0.0000       0.030457         0.8288
  36   0.0000       0.062672         1.7054

MULLIKEN ATOMIC CHARGES
-----------------------
   0 C :   -0.117271
   1 C :   -0.099946
   2 C :   -0.203561
   3 C :    0.146444
   4 C :   -0.177722
   5 C :   -0.070587
   6 C :    0.266260
   7 O :   -0.404626
   8 N :   -0.410134
   9 H :    0.114865
  10 H :    0.111973
  11 H :    0.100016
  12 H :    0.137937
  13 H :    0.115287
  14 H :    0.241318
  15 H :    0.249746
Sum of atomic charges:   -0.0000000

LOEWDIN ATOMIC CHARGES
----------------------
   0 C :   -0.129730
   1 C :   -0.137766
   2 C :   -0.112472
   3 C :   -0.119681
   4 C :   -0.076301
   5 C :   -0.131173
   6 C :   -0.433903
   7 O :    0.039443
   8 N :    0.024638
   9 H :    0.144480
  10 H :    0.144348
  11 H :    0.141760
  12 H :    0.158150
  13 H :    0.145519
  14 H :    0.167591
  15 H :    0.175098

  Mayer bond orders larger than 0.100000
B(  0-C ,  1-C ) :   1.4011 B(  0-C ,  5-C ) :   1.3742 B(  0-C ,  9-H ) :   0.9677
B(  1-C ,  2-C ) :   1.4463 B(  1-C , 10-H ) :   0.9680 B(  2-C ,  3-C ) :   1.3091
B(  2-C , 11-H ) :   0.9546 B(  3-C ,  4-C ) :   1.3770 B(  3-C ,  6-C ) :   0.9034
B(  4-C ,  5-C ) :   1.4038 B(  4-C , 12-H ) :   0.9612 B(  5-C , 13-H ) :   0.9728
B(  6-C ,  7-O ) :   2.0022 B(  6-C ,  8-N ) :   1.2636 B(  8-N , 14-H ) :   0.9065
B(  8-N , 15-H ) :   0.8979

Dispersion correction           -0.005333626
FINAL SINGLE POINT ENERGY      -400.892991067160

DIPOLE MOMENT
-------------

Method             : SCF
Type of density    : Electron Density
Multiplicity       :   1
Irrep              :   0
Energy             :  -400.8949052867361047 Eh
Relativity type    :
Basis              : AO
                                X                 Y                 Z
Electronic contribution:      2.418657375      -1.463060238       0.362303954
Nuclear contribution   :     -3.009412260       2.793852074      -0.817887277
                        -----------------------------------------
Total Dipole Moment    :     -0.590754885       1.330791836      -0.455583322
                        -----------------------------------------
Magnitude (a.u.)       :      1.525632462
Magnitude (Debye)      :      3.877849541

VIBRATIONAL FREQUENCIES
-----------------------

Scaling factor for frequencies =  1.000000000  (already applied!)

     0:       0.00 cm**-1
     1:       0.00 cm**-1
     2:       0.00 cm**-1
     3:       0.00 cm**-1
     4:       0.00 cm**-1
     5:       0.00 cm**-1
     6:      66.96 cm**-1
     7:     159.42 cm**-1
     8:     229.88 cm**-1
     9:     333.31 cm**-1
    10:     381.63 cm**-1
    11:     410.88 cm**-1
    12:     413.17 cm**-1
    13:     509.37 cm**-1
    14:     609.86 cm**-1
    15:     626.32 cm**-1
    16:     634.51 cm**-1
    17:     705.32 cm**-1
    18:     725.91 cm**-1
    19:     771.09 cm**-1
    20:     815.65 cm**-1
    21:     851.51 cm**-1
    22:     928.64 cm**-1
    23:     967.13 cm**-1
    24:     993.57 cm**-1
    25:    1021.72 cm**-1
    26:    1047.81 cm**-1
    27:    1086.89 cm**-1
    28:    1114.05 cm**-1
    29:    1151.82 cm**-1
    30:    1183.61 cm**-1
    31:    1204.47 cm**-1
    32:    1332.42 cm**-1
    33:    1353.67 cm**-1
    34:    1405.35 cm**-1
    35:    1472.83 cm**-1
    36:    1519.76 cm**-1
    37:    1591.60 cm**-1
    38:    1618.97 cm**-1
    39:    1632.71 cm**-1
    40:    1673.89 cm**-1
    41:    3157.67 cm**-1
    42:    3164.92 cm**-1
    43:    3173.95 cm**-1
    44:    3183.17 cm**-1
    45:    3191.41 cm**-1
    46:    3552.53 cm**-1
    47:    3683.62 cm**-1

IR SPECTRUM
-----------

 Mode   freq       eps      Int      T**2         TX        TY        TZ
       cm**-1   L/(mol*cm) km/mol    a.u.
----------------------------------------------------------------------------
  6:     66.96   0.000785    3.97  0.003658  (-0.002522 -0.007588 -0.059947)
  7:    159.42   0.000407    2.06  0.000797  ( 0.027876 -0.003063  0.003202)
  8:    229.88   0.002067   10.45  0.002806  ( 0.040622  0.017612  0.029088)
  9:    333.31   0.032200  162.73  0.030147  (-0.007616  0.068754  0.159256)
 10:    381.63   0.002160   10.92  0.001767  (-0.002823 -0.020669 -0.036489)
 11:    410.88   0.000045    0.23  0.000034  ( 0.000209 -0.000611 -0.005799)
 12:    413.17   0.000978    4.94  0.000738  (-0.023304  0.006099 -0.012575)
 13:    509.37   0.000657    3.32  0.000403  (-0.006852  0.008515  0.016832)
 14:    609.86   0.000259    1.31  0.000132  (-0.001355  0.005657  0.009927)
 15:    626.32   0.004171   21.08  0.002078  (-0.042229 -0.013304  0.010867)
 16:    634.51   0.000083    0.42  0.000041  (-0.005576 -0.002371  0.002081)
 17:    705.32   0.009350   47.25  0.004137  ( 0.001577 -0.009123  0.063647)
 18:    725.91   0.008111   40.99  0.003487  (-0.000070  0.004908 -0.058844)
 19:    771.09   0.000581    2.94  0.000235  (-0.014400 -0.003621  0.003847)
 20:    815.65   0.000882    4.46  0.000337  (-0.004160  0.007309 -0.016331)
 21:    851.51   0.000210    1.06  0.000077  ( 0.007128  0.001783  0.004805)
 22:    928.64   0.000318    1.61  0.000107  (-0.000374  0.003750 -0.009622)
 23:    967.13   0.000175    0.88  0.000056  (-0.005097 -0.000607 -0.005485)
 24:    993.57   0.000120    0.61  0.000038  ( 0.005111  0.000266  0.003388)
 25:   1021.72   0.000055    0.28  0.000017  ( 0.003706  0.001580 -0.000776)
 26:   1047.81   0.001235    6.24  0.000368  (-0.018942 -0.002363  0.001824)
 27:   1086.89   0.000483    2.44  0.000139  ( 0.007652  0.008719  0.002007)
 28:   1114.05   0.001399    7.07  0.000392  (-0.001378 -0.019676  0.001721)
 29:   1151.82   0.000276    1.40  0.000075  (-0.001273  0.008101 -0.002755)
 30:   1183.61   0.000011    0.06  0.000003  (-0.001018  0.001209  0.000635)
 31:   1204.47   0.000658    3.32  0.000170  ( 0.012857  0.001796 -0.001366)
 32:   1332.42   0.000421    2.13  0.000099  (-0.004844 -0.008153  0.002933)
 33:   1353.67   0.000764    3.86  0.000176  (-0.007128 -0.011194  0.000317)
 34:   1405.35   0.038822  196.19  0.008621  ( 0.086062  0.032568 -0.012376)
 35:   1472.83   0.001881    9.51  0.000399  ( 0.017173  0.009281  0.004194)
 36:   1519.76   0.000110    0.56  0.000023  (-0.002385  0.004108 -0.000348)
 37:   1591.60   0.026358  133.20  0.005168  ( 0.062488 -0.034862  0.006920)
 38:   1618.97   0.008403   42.47  0.001620  (-0.038460 -0.011290  0.003615)
 39:   1632.71   0.001082    5.47  0.000207  (-0.009701  0.010181 -0.003002)
 40:   1673.89   0.058242  294.33  0.010858  (-0.015559 -0.097622  0.032955)
 41:   3157.67   0.000345    1.74  0.000034  (-0.005394 -0.002230  0.000094)
 42:   3164.92   0.000799    4.04  0.000079  ( 0.008548 -0.002329 -0.000566)
 43:   3173.95   0.004107   20.76  0.000404  ( 0.009738  0.017458  0.002054)
 44:   3183.17   0.002358   11.91  0.000231  ( 0.011565 -0.009731 -0.001638)
 45:   3191.41   0.001164    5.88  0.000114  (-0.009618 -0.004498 -0.001056)
 46:   3552.53   0.008012   40.49  0.000704  (-0.020045 -0.015985  0.006819)
 47:   3683.62   0.008743   44.19  0.000741  ( 0.025676 -0.008168  0.003837)

--------------------------
THERMOCHEMISTRY AT 298.15K
--------------------------

Temperature         ...   298.15 K
Pressure            ...     1.00 atm
Total Mass          ...   121.14 AMU
Quasi RRHO          ...     True
Cut-Off Frequency   ...     1.00 cm^-1

Throughout the following assumptions are being made:
  (1) The electronic state is orbitally nondegenerate
  (2) There are no thermally accessible electronically excited states
  (3) Hindered rotations indicated by low frequency modes are not
      treated as such but are treated as vibrations and this may
      cause some error
  (4) All equations used are the standard statistical mechanics
      equations for an ideal gas
  (5) All vibrations are strictly harmonic

freq.      66.96  E(vib)   ...       0.50
freq.     159.42  E(vib)   ...       0.39
freq.     229.88  E(vib)   ...       0.32
freq.     333.31  E(vib)   ...       0.24
freq.     381.63  E(vib)   ...       0.21
freq.     410.88  E(vib)   ...       0.19
freq.     413.17  E(vib)   ...       0.19
freq.     509.37  E(vib)   ...       0.14
freq.     609.86  E(vib)   ...       0.10
freq.     626.32  E(vib)   ...       0.09
freq.     634.51  E(vib)   ...       0.09
freq.     705.32  E(vib)   ...       0.07
freq.     725.91  E(vib)   ...       0.06
freq.     771.09  E(vib)   ...       0.05
freq.     815.65  E(vib)   ...       0.05
freq.     851.51  E(vib)   ...       0.04
freq.     928.64  E(vib)   ...       0.03
freq.     967.13  E(vib)   ...       0.03
freq.     993.57  E(vib)   ...       0.02
freq.    1021.72  E(vib)   ...       0.02
freq.    1047.81  E(vib)   ...       0.02
freq.    1086.89  E(vib)   ...       0.02
freq.    1114.05  E(vib)   ...       0.01
freq.    1151.82  E(vib)   ...       0.01
freq.    1183.61  E(vib)   ...       0.01
freq.    1204.47  E(vib)   ...       0.01
freq.    1332.42  E(vib)   ...       0.01
freq.    1353.67  E(vib)   ...       0.01
freq.    1405.35  E(vib)   ...       0.00
freq.    1472.83  E(vib)   ...       0.00
freq.    1519.76  E(vib)   ...       0.00
freq.    1591.60  E(vib)   ...       0.00
freq.    1618.97  E(vib)   ...       0.00
freq.    1632.71  E(vib)   ...       0.00
freq.    1673.89  E(vib)   ...       0.00
freq.    3157.67  E(vib)   ...       0.00
freq.    3164.92  E(vib)   ...       0.00
freq.    3173.95  E(vib)   ...       0.00
freq.    3183.17  E(vib)   ...       0.00
freq.    3191.41  E(vib)   ...       0.00
freq.    3552.53  E(vib)   ...       0.00
freq.    3683.62  E(vib)   ...       0.00

------------
INNER ENERGY
------------

The inner energy is: U= E(el) + E(ZPE) + E(vib) + E(rot) + E(trans)
    E(el)   - is the total energy from the electronic structure calculation
              = E(kin-el) + E(nuc-el) + E(el-el) + E(nuc-nuc)
    E(ZPE)  - the the zero temperature vibrational energy from the frequency calculation
    E(vib)  - the the finite temperature correction to E(ZPE) due to population
              of excited vibrational states
    E(rot)  - is the rotational thermal energy
    E(trans)- is the translational thermal energy

Summary of contributions to the inner energy U:
Electronic energy                ...   -400.89299107 Eh
Zero point energy                ...      0.12678680 Eh      79.56 kcal/mol
Thermal vibrational correction   ...      0.00468973 Eh       2.94 kcal/mol
Thermal rotational correction    ...      0.00141627 Eh       0.89 kcal/mol
Thermal translational correction ...      0.00141627 Eh       0.89 kcal/mol
-----------------------------------------------------------------------
Total thermal energy                   -400.75868199 Eh

Summary of corrections to the electronic energy:
(perhaps to be used in another calculation)
Total thermal correction                  0.00752228 Eh       4.72 kcal/mol
Non-thermal (ZPE) correction              0.12678680 Eh      79.56 kcal/mol
-----------------------------------------------------------------------
Total correction                          0.13430908 Eh      84.28 kcal/mol

--------
ENTHALPY
--------

The enthalpy is H = U + kB*T
                kB is Boltzmann's constant
Total thermal energy              ...   -400.75868199 Eh
Thermal Enthalpy correction       ...      0.00094421 Eh       0.59 kcal/mol
-----------------------------------------------------------------------
Total Enthalpy                    ...   -400.75773778 Eh

Note: Only C1 symmetry has been detected, increase convergence thresholds
      if your molecule has a higher symmetry. Symmetry factor of 1.0 is
      used for the rotational entropy correction.

Note: Rotational entropy computed according to Herzberg
Infrared and Raman Spectra, Chapter V,1, Van Nostrand Reinhold, 1945
Point Group:  C1, Symmetry Number:   1
Rotational constants in cm-1:     0.127313     0.040576     0.031353

Vibrational entropy computed according to the QRRHO of S. Grimme
Chem.Eur.J. 2012 18 9955 using a reference frequency of 100.0 cm-1

-------
ENTROPY
-------

The entropy contributions are T*S = T*(S(el)+S(vib)+S(rot)+S(trans))
     S(el)   - electronic entropy
     S(vib)  - vibrational entropy
     S(rot)  - rotational entropy
     S(trans)- translational entropy
The entropies will be listed as multiplied by the temperature to get
units of energy

Electronic entropy                ...      0.00000000 Eh      0.00 kcal/mol
Vibrational entropy               ...      0.00754179 Eh      4.73 kcal/mol
Rotational entropy                ...      0.01363129 Eh      8.55 kcal/mol
Translational entropy             ...      0.01914284 Eh     12.01 kcal/mol
-----------------------------------------------------------------------
Final entropy term                ...      0.04031591 Eh     25.30 kcal/mol

In case the symmetry of your molecule has not been determined correctly
or in case you have a reason to use a different symmetry number we print
out the resulting rotational entropy values for sn=1,12:

 non-linear molecules -----------------------------------
|  sn= 1 | S(rot)=       0.01363129 Eh      8.55 kcal/mol|
|  sn= 2 | S(rot)=       0.01297683 Eh      8.14 kcal/mol|
|  sn= 3 | S(rot)=       0.01259400 Eh      7.90 kcal/mol|
|  sn= 4 | S(rot)=       0.01232237 Eh      7.73 kcal/mol|
|  sn= 5 | S(rot)=       0.01211168 Eh      7.60 kcal/mol|
|  sn= 6 | S(rot)=       0.01193954 Eh      7.49 kcal/mol|
|  sn= 7 | S(rot)=       0.01179399 Eh      7.40 kcal/mol|
|  sn= 8 | S(rot)=       0.01166792 Eh      7.32 kcal/mol|
|  sn= 9 | S(rot)=       0.01155671 Eh      7.25 kcal/mol|
|  sn=10 | S(rot)=       0.01145723 Eh      7.19 kcal/mol|
|  sn=11 | S(rot)=       0.01136724 Eh      7.13 kcal/mol|
|  sn=12 | S(rot)=       0.01128508 Eh      7.08 kcal/mol|
 linear molecules ---------------------------------------
|  Dinfh | S(rot)=       0.00859500 Eh      5.39 kcal/mol|
|  Cinfv | S(rot)=       0.00924945 Eh      5.80 kcal/mol|
 --------------------------------------------------------

                             ****ORCA TERMINATED NORMALLY****
TOTAL RUN TIME: 0 days 0 hours 13 minutes 1 seconds 61 msec
