                         Program Version 6.0.0  -   RELEASE  -
|  1> ! r2SCAN-3c DEF2-TZVP FREQ
|  2> * xyzfile 0 1 vacuum_censo.xyz
|  3>
|  4>                          ****END OF INPUT****

CARTESIAN COORDINATES (ANGSTROEM)
---------------------------------
  C     -2.596095    0.008233   -0.012513
  C     -1.900485    1.197051    0.185807
  C     -0.509467    1.198506    0.189117
  C      0.194882    0.005718    0.002006
  C     -0.509920   -1.187154   -0.175639
  C     -1.897952   -1.183944   -0.192265
  C      1.691154   -0.070733    0.010942
  O      2.285406   -1.101103    0.290756
  N      2.351325    1.096184   -0.288871
  H     -3.681297    0.008926   -0.018157
  H     -2.441769    2.123510    0.347815
  H      0.021039    2.126116    0.380447
  H      0.054315   -2.105210   -0.297343
  H     -2.439009   -2.112744   -0.340800
  H      1.884535    1.810169   -0.821849
  H      3.348002    1.012230   -0.414186

 Total Charge           Charge          ....    0
 Multiplicity           Mult            ....    1
 Number of Electrons    NEL             ....   64
 Basis Dimension        Dim             ....  321

ORBITAL ENERGIES
----------------

  NO   OCC          E(Eh)            E(eV)
   0   2.0000     -18.918088      -514.7873
   1   2.0000     -14.185728      -386.0133
   2   2.0000     -10.137491      -275.8552
   3   2.0000     -10.056026      -273.6384
   4   2.0000     -10.053798      -273.5778
   5   2.0000     -10.049861      -273.4706
   6   2.0000     -10.049420      -273.4586
   7   2.0000     -10.046444      -273.3776
   8   2.0000     -10.045167      -273.3429
   9   2.0000      -1.000992       -27.2384
  10   2.0000      -0.876476       -23.8501
  11   2.0000      -0.833797       -22.6888
  12   2.0000      -0.735163       -20.0048
  13   2.0000      -0.725753       -19.7488
  14   2.0000      -0.616153       -16.7664
  15   2.0000      -0.585832       -15.9413
  16   2.0000      -0.550541       -14.9810
  17   2.0000      -0.521891       -14.2014
  18   2.0000      -0.484702       -13.1894
  19   2.0000      -0.452366       -12.3095
  20   2.0000      -0.429790       -11.6952
  21   2.0000      -0.411009       -11.1841
  22   2.0000      -0.400854       -10.9078
  23   2.0000      -0.388526       -10.5723
  24   2.0000      -0.382043       -10.3959
  25   2.0000      -0.347677        -9.4608
  26   2.0000      -0.333441        -9.0734
  27   2.0000      -0.322126        -8.7655
  28   2.0000      -0.255931        -6.9642
  29   2.0000      -0.249590        -6.7917
  30   2.0000      -0.248299        -6.7566
  31   2.0000      -0.224401        -6.1063
  32   0.0000      -0.070614        -1.9215
  33   0.0000      -0.045521        -1.2387
  34   0.0000       0.019784         0.5383
  35   0.0000       0.036647         0.9972
  36   0.0000       0.062333         1.6962

MULLIKEN ATOMIC CHARGES
-----------------------
   0 C :   -0.112706
   1 C :   -0.095616
   2 C :   -0.208626
   3 C :    0.113769
   4 C :   -0.173188
   5 C :   -0.076850
   6 C :    0.272107
   7 O :   -0.375069
   8 N :   -0.426725
   9 H :    0.115157
  10 H :    0.112579
  11 H :    0.117712
  12 H :    0.138187
  13 H :    0.114566
  14 H :    0.241362
  15 H :    0.243341
Sum of atomic charges:    0.0000000

LOEWDIN ATOMIC CHARGES
----------------------
   0 C :   -0.129424
   1 C :   -0.137242
   2 C :   -0.111180
   3 C :   -0.123537
   4 C :   -0.078935
   5 C :   -0.131326
   6 C :   -0.435502
   7 O :    0.074555
   8 N :   -0.001814
   9 H :    0.144565
  10 H :    0.144548
  11 H :    0.145407
  12 H :    0.157745
  13 H :    0.145463
  14 H :    0.165940
  15 H :    0.170737

  Mayer bond orders larger than 0.100000
B(  0-C ,  1-C ) :   1.4006 B(  0-C ,  5-C ) :   1.3748 B(  0-C ,  9-H ) :   0.9680
B(  1-C ,  2-C ) :   1.4387 B(  1-C , 10-H ) :   0.9692 B(  2-C ,  3-C ) :   1.3263
B(  2-C , 11-H ) :   0.9513 B(  3-C ,  4-C ) :   1.3774 B(  3-C ,  6-C ) :   0.9148
B(  4-C ,  5-C ) :   1.4042 B(  4-C , 12-H ) :   0.9599 B(  5-C , 13-H ) :   0.9732
B(  6-C ,  7-O ) :   2.0199 B(  6-C ,  8-N ) :   1.2148 B(  8-N , 14-H ) :   0.9075
B(  8-N , 15-H ) :   0.9045

Dispersion correction           -0.005334470
FINAL SINGLE POINT ENERGY      -400.894157670008

DIPOLE MOMENT
-------------

Method             : SCF
Type of density    : Electron Density
Multiplicity       :   1
Irrep              :   0
Energy             :  -400.8960252332853429 Eh
Relativity type    :
Basis              : AO
                                X                 Y                 Z
Electronic contribution:      2.393106775      -1.516678411       0.478406989
Nuclear contribution   :     -2.996658155       2.662948770      -1.063388931
                        -----------------------------------------
Total Dipole Moment    :     -0.603551379       1.146270359      -0.584981941
                        -----------------------------------------
Magnitude (a.u.)       :      1.421412634
Magnitude (Debye)      :      3.612943789

VIBRATIONAL FREQUENCIES
-----------------------

Scaling factor for frequencies =  1.000000000  (already applied!)

     0:       0.00 cm**-1
     1:       0.00 cm**-1
     2:       0.00 cm**-1
     3:       0.00 cm**-1
     4:       0.00 cm**-1
     5:       0.00 cm**-1
     6:      73.55 cm**-1
     7:     150.13 cm**-1
     8:     222.90 cm**-1
     9:     374.91 cm**-1
    10:     404.42 cm**-1
    11:     408.94 cm**-1
    12:     437.64 cm**-1
    13:     512.90 cm**-1
    14:     567.90 cm**-1
    15:     621.97 cm**-1
    16:     634.02 cm**-1
    17:     705.05 cm**-1
    18:     722.42 cm**-1
    19:     766.26 cm**-1
    20:     811.98 cm**-1
    21:     857.52 cm**-1
    22:     934.56 cm**-1
    23:     969.75 cm**-1
    24:     993.57 cm**-1
    25:    1022.81 cm**-1
    26:    1049.57 cm**-1
    27:    1081.02 cm**-1
    28:    1111.15 cm**-1
    29:    1143.06 cm**-1
    30:    1184.08 cm**-1
    31:    1202.08 cm**-1
    32:    1335.03 cm**-1
    33:    1354.65 cm**-1
    34:    1360.19 cm**-1
    35:    1475.40 cm**-1
    36:    1519.22 cm**-1
    37:    1614.77 cm**-1
    38:    1616.65 cm**-1
    39:    1634.68 cm**-1
    40:    1733.24 cm**-1
    41:    3157.97 cm**-1
    42:    3165.00 cm**-1
    43:    3174.01 cm**-1
    44:    3183.44 cm**-1
    45:    3192.61 cm**-1
    46:    3566.47 cm**-1
    47:    3696.43 cm**-1

IR SPECTRUM
-----------

 Mode   freq       eps      Int      T**2         TX        TY        TZ
       cm**-1   L/(mol*cm) km/mol    a.u.
----------------------------------------------------------------------------
  6:     73.55   0.001248    6.31  0.005294  (-0.003149  0.022610  0.069083)
  7:    150.13   0.000629    3.18  0.001307  ( 0.035404 -0.001764  0.007079)
  8:    222.90   0.001075    5.43  0.001505  ( 0.036561  0.012882  0.001394)
  9:    374.91   0.000069    0.35  0.000057  ( 0.003341 -0.002659 -0.006255)
 10:    404.42   0.001442    7.29  0.001113  (-0.022490  0.024090  0.005161)
 11:    408.94   0.000740    3.74  0.000565  (-0.014672 -0.012252 -0.014117)
 12:    437.64   0.033816  170.89  0.024113  ( 0.026545  0.114738  0.101210)
 13:    512.90   0.000277    1.40  0.000169  (-0.001604 -0.012850  0.000917)
 14:    567.90   0.004249   21.47  0.002335  (-0.026093 -0.027366 -0.030088)
 15:    621.97   0.005343   27.00  0.002681  (-0.048999 -0.015081  0.007255)
 16:    634.02   0.000091    0.46  0.000045  ( 0.006344  0.001086 -0.001869)
 17:    705.05   0.005923   29.93  0.002621  (-0.000036  0.010636 -0.050083)
 18:    722.42   0.013258   67.00  0.005727  ( 0.004741 -0.000040  0.075530)
 19:    766.26   0.000746    3.77  0.000304  ( 0.016466  0.002132  0.005301)
 20:    811.98   0.000810    4.09  0.000311  ( 0.001019 -0.012231  0.012676)
 21:    857.52   0.000208    1.05  0.000076  ( 0.007148  0.003510  0.003508)
 22:    934.56   0.000368    1.86  0.000123  (-0.000488 -0.005500  0.009619)
 23:    969.75   0.000157    0.80  0.000051  ( 0.005715  0.001953  0.003768)
 24:    993.57   0.000086    0.43  0.000027  (-0.004409 -0.000205 -0.002718)
 25:   1022.81   0.000022    0.11  0.000007  (-0.002446 -0.000205  0.000795)
 26:   1049.57   0.001545    7.81  0.000459  (-0.020867 -0.004343  0.002280)
 27:   1081.02   0.002814   14.22  0.000812  ( 0.020719  0.019537 -0.001143)
 28:   1111.15   0.000559    2.83  0.000157  (-0.004859  0.011518  0.000847)
 29:   1143.06   0.000816    4.12  0.000223  ( 0.000971 -0.013648  0.005952)
 30:   1184.08   0.000011    0.06  0.000003  ( 0.001251 -0.000956 -0.000679)
 31:   1202.08   0.001012    5.11  0.000263  (-0.015217 -0.004818  0.002798)
 32:   1335.03   0.003279   16.57  0.000767  (-0.023037 -0.013897  0.006533)
 33:   1354.65   0.028713  145.10  0.006615  ( 0.070527  0.038961 -0.011068)
 34:   1360.19   0.014143   71.47  0.003245  (-0.052812 -0.018915  0.009890)
 35:   1475.40   0.001513    7.65  0.000320  (-0.010478 -0.013870 -0.004225)
 36:   1519.22   0.000111    0.56  0.000023  ( 0.003514 -0.003234 -0.000134)
 37:   1614.77   0.011927   60.27  0.002305  (-0.045865 -0.005677  0.013003)
 38:   1616.65   0.014299   72.26  0.002760  ( 0.038167  0.030653 -0.019074)
 39:   1634.68   0.001794    9.07  0.000342  ( 0.018038 -0.004067  0.000765)
 40:   1733.24   0.057048  288.30  0.010271  (-0.036813  0.089354 -0.030527)
 41:   3157.97   0.000185    0.94  0.000018  ( 0.003906  0.001744 -0.000163)
 42:   3165.00   0.000630    3.18  0.000062  (-0.007329  0.002854  0.000462)
 43:   3174.01   0.003594   18.16  0.000353  (-0.008301 -0.016703 -0.002324)
 44:   3183.44   0.002556   12.92  0.000251  (-0.013338  0.008407  0.001405)
 45:   3192.61   0.001211    6.12  0.000118  ( 0.009310  0.005452  0.001391)
 46:   3566.47   0.006876   34.75  0.000602  ( 0.019101  0.011837 -0.009834)
 47:   3696.43   0.006118   30.92  0.000517  (-0.020474  0.008405 -0.005166)

--------------------------
THERMOCHEMISTRY AT 298.15K
--------------------------

Temperature         ...   298.15 K
Pressure            ...     1.00 atm
Total Mass          ...   121.14 AMU
Quasi RRHO          ...     True
Cut-Off Frequency   ...     1.00 cm^-1

Throughout the following assumptions are being made:
  (1) The electronic state is orbitally nondegenerate
  (2) There are no thermally accessible electronically excited states
  (3) Hindered rotations indicated by low frequency modes are not
      treated as such but are treated as vibrations and this may
      cause some error
  (4) All equations used are the standard statistical mechanics
      equations for an ideal gas
  (5) All vibrations are strictly harmonic

freq.      73.55  E(vib)   ...       0.49
freq.     150.13  E(vib)   ...       0.40
freq.     222.90  E(vib)   ...       0.33
freq.     374.91  E(vib)   ...       0.21
freq.     404.42  E(vib)   ...       0.19
freq.     408.94  E(vib)   ...       0.19
freq.     437.64  E(vib)   ...       0.17
freq.     512.90  E(vib)   ...       0.13
freq.     567.90  E(vib)   ...       0.11
freq.     621.97  E(vib)   ...       0.09
freq.     634.02  E(vib)   ...       0.09
freq.     705.05  E(vib)   ...       0.07
freq.     722.42  E(vib)   ...       0.07
freq.     766.26  E(vib)   ...       0.06
freq.     811.98  E(vib)   ...       0.05
freq.     857.52  E(vib)   ...       0.04
freq.     934.56  E(vib)   ...       0.03
freq.     969.75  E(vib)   ...       0.03
freq.     993.57  E(vib)   ...       0.02
freq.    1022.81  E(vib)   ...       0.02
freq.    1049.57  E(vib)   ...       0.02
freq.    1081.02  E(vib)   ...       0.02
freq.    1111.15  E(vib)   ...       0.01
freq.    1143.06  E(vib)   ...       0.01
freq.    1184.08  E(vib)   ...       0.01
freq.    1202.08  E(vib)   ...       0.01
freq.    1335.03  E(vib)   ...       0.01
freq.    1354.65  E(vib)   ...       0.01
freq.    1360.19  E(vib)   ...       0.01
freq.    1475.40  E(vib)   ...       0.00
freq.    1519.22  E(vib)   ...       0.00
freq.    1614.77  E(vib)   ...       0.00
freq.    1616.65  E(vib)   ...       0.00
freq.    1634.68  E(vib)   ...       0.00
freq.    1733.24  E(vib)   ...       0.00
freq.    3157.97  E(vib)   ...       0.00
freq.    3165.00  E(vib)   ...       0.00
freq.    3174.01  E(vib)   ...       0.00
freq.    3183.44  E(vib)   ...       0.00
freq.    3192.61  E(vib)   ...       0.00
freq.    3566.47  E(vib)   ...       0.00
freq.    3696.43  E(vib)   ...       0.00

------------
INNER ENERGY
------------

The inner energy is: U= E(el) + E(ZPE) + E(vib) + E(rot) + E(trans)
    E(el)   - is the total energy from the electronic structure calculation
              = E(kin-el) + E(nuc-el) + E(el-el) + E(nuc-nuc)
    E(ZPE)  - the the zero temperature vibrational energy from the frequency calculation
    E(vib)  - the the finite temperature correction to E(ZPE) due to population
              of excited vibrational states
    E(rot)  - is the rotational thermal energy
    E(trans)- is the translational thermal energy

Summary of contributions to the inner energy U:
Electronic energy                ...   -400.89415767 Eh
Zero point energy                ...      0.12699400 Eh      79.69 kcal/mol
Thermal vibrational correction   ...      0.00464089 Eh       2.91 kcal/mol
Thermal rotational correction    ...      0.00141627 Eh       0.89 kcal/mol
Thermal translational correction ...      0.00141627 Eh       0.89 kcal/mol
-----------------------------------------------------------------------
Total thermal energy                   -400.75969024 Eh

Summary of corrections to the electronic energy:
(perhaps to be used in another calculation)
Total thermal correction                  0.00747343 Eh       4.69 kcal/mol
Non-thermal (ZPE) correction              0.12699400 Eh      79.69 kcal/mol
-----------------------------------------------------------------------
Total correction                          0.13446743 Eh      84.38 kcal/mol

--------
ENTHALPY
--------

The enthalpy is H = U + kB*T
                kB is Boltzmann's constant
Total thermal energy              ...   -400.75969024 Eh
Thermal Enthalpy correction       ...      0.00094421 Eh       0.59 kcal/mol
-----------------------------------------------------------------------
Total Enthalpy                    ...   -400.75874603 Eh

Note: Only C1 symmetry has been detected, increase convergence thresholds
      if your molecule has a higher symmetry. Symmetry factor of 1.0 is
      used for the rotational entropy correction.

Note: Rotational entropy computed according to Herzberg
Infrared and Raman Spectra, Chapter V,1, Van Nostrand Reinhold, 1945
Point Group:  C1, Symmetry Number:   1
Rotational constants in cm-1:     0.127297     0.040555     0.031383

Vibrational entropy computed according to the QRRHO of S. Grimme
Chem.Eur.J. 2012 18 9955 using a reference frequency of 100.0 cm-1

-------
ENTROPY
-------

The entropy contributions are T*S = T*(S(el)+S(vib)+S(rot)+S(trans))
     S(el)   - electronic entropy
     S(vib)  - vibrational entropy
     S(rot)  - rotational entropy
     S(trans)- translational entropy
The entropies will be listed as multiplied by the temperature to get
units of energy

Electronic entropy                ...      0.00000000 Eh      0.00 kcal/mol
Vibrational entropy               ...      0.00746366 Eh      4.68 kcal/mol
Rotational entropy                ...      0.01363113 Eh      8.55 kcal/mol
Translational entropy             ...      0.01914284 Eh     12.01 kcal/mol
-----------------------------------------------------------------------
Final entropy term                ...      0.04023763 Eh     25.25 kcal/mol

In case the symmetry of your molecule has not been determined correctly
or in case you have a reason to use a different symmetry number we print
out the resulting rotational entropy values for sn=1,12:

 non-linear molecules -----------------------------------
|  sn= 1 | S(rot)=       0.01363113 Eh      8.55 kcal/mol|
|  sn= 2 | S(rot)=       0.01297668 Eh      8.14 kcal/mol|
|  sn= 3 | S(rot)=       0.01259384 Eh      7.90 kcal/mol|
|  sn= 4 | S(rot)=       0.01232222 Eh      7.73 kcal/mol|
|  sn= 5 | S(rot)=       0.01211153 Eh      7.60 kcal/mol|
|  sn= 6 | S(rot)=       0.01193939 Eh      7.49 kcal/mol|
|  sn= 7 | S(rot)=       0.01179384 Eh      7.40 kcal/mol|
|  sn= 8 | S(rot)=       0.01166776 Eh      7.32 kcal/mol|
|  sn= 9 | S(rot)=       0.01155655 Eh      7.25 kcal/mol|
|  sn=10 | S(rot)=       0.01145708 Eh      7.19 kcal/mol|
|  sn=11 | S(rot)=       0.01136709 Eh      7.13 kcal/mol|
|  sn=12 | S(rot)=       0.01128493 Eh      7.08 kcal/mol|
 linear molecules ---------------------------------------
|  Dinfh | S(rot)=       0.00859408 Eh      5.39 kcal/mol|
|  Cinfv | S(rot)=       0.00924854 Eh      5.80 kcal/mol|
 --------------------------------------------------------

                             ****ORCA TERMINATED NORMALLY****
TOTAL RUN TIME: 0 days 0 hours 12 minutes 37 seconds 716 msec
