                         Program Version 6.0.1  -  RELEASE   -
|  1> ! pbe def2-sv(p) def2/J RI DEFGRID1 loosescf d4 GCP(DFT/SV(P)) printgap
|  2> %output
|  3>     printlevel normal
|  4> end
|  5> * xyz 0 1
|  6> C 1.8419456349 -0.4225592765 -0.4833903341
|  7> C 0.8298103244 -0.3643640399 0.6633460903
|  8> C -0.4694434515 0.201717889 0.1508228319
|  9> O -0.8007567226 1.3549435073 0.198764637
| 10> O -1.2354362944 -0.742437864 -0.4126186607
| 11> H 2.0080761648 0.5719341115 -0.8908829892
| 12> H 2.7894098396 -0.8136296753 -0.1218548409
| 13> H 1.4772338637 -1.0702154251 -1.2769825034
| 14> H 0.6507793537 -1.3668882721 1.0513772152
| 15> H 1.202653003 0.282025822 1.4575552338
| 16> H -2.0502764183 -0.3523290521 -0.7663353975
| 17> *
| 18>
| 19>                          ****END OF INPUT****

CARTESIAN COORDINATES (ANGSTROEM)
---------------------------------
  C      1.841946   -0.422559   -0.483390
  C      0.829810   -0.364364    0.663346
  C     -0.469443    0.201718    0.150823
  O     -0.800757    1.354944    0.198765
  O     -1.235436   -0.742438   -0.412619
  H      2.008076    0.571934   -0.890883
  H      2.789410   -0.813630   -0.121855
  H      1.477234   -1.070215   -1.276983
  H      0.650779   -1.366888    1.051377
  H      1.202653    0.282026    1.457555
  H     -2.050276   -0.352329   -0.766335

 Total Charge           Charge          ....    0
 Multiplicity           Mult            ....    1
 Number of Electrons    NEL             ....   40
 Basis Dimension        Dim             ....   82

ORBITAL ENERGIES
----------------

  NO   OCC          E(Eh)            E(eV)
   0   2.0000     -18.796937      -511.4906
   1   2.0000     -18.737345      -509.8691
   2   2.0000     -10.012031      -272.4412
   3   2.0000      -9.903464      -269.4870
   4   2.0000      -9.891419      -269.1592
   5   2.0000      -1.006509       -27.3885
   6   2.0000      -0.914107       -24.8741
   7   2.0000      -0.714739       -19.4490
   8   2.0000      -0.604943       -16.4613
   9   2.0000      -0.544173       -14.8077
  10   2.0000      -0.443265       -12.0619
  11   2.0000      -0.418447       -11.3865
  12   2.0000      -0.404376       -11.0036
  13   2.0000      -0.394915       -10.7462
  14   2.0000      -0.356890        -9.7115
  15   2.0000      -0.331374        -9.0172
  16   2.0000      -0.322056        -8.7636
  17   2.0000      -0.318241        -8.6598
  18   2.0000      -0.273338        -7.4379
  19   2.0000      -0.221297        -6.0218
  20   0.0000      -0.021581        -0.5873
  21   0.0000       0.026977         0.7341
  22   0.0000       0.059852         1.6286
  23   0.0000       0.089591         2.4379
  24   0.0000       0.091662         2.4943

MULLIKEN ATOMIC CHARGES
-----------------------
   0 C :   -0.304952
   1 C :   -0.156405
   2 C :    0.068205
   3 O :   -0.182245
   4 O :   -0.304246
   5 H :    0.118483
   6 H :    0.118396
   7 H :    0.116210
   8 H :    0.107480
   9 H :    0.110230
  10 H :    0.308843
Sum of atomic charges:   -0.0000000

LOEWDIN ATOMIC CHARGES
----------------------
   0 C :   -0.330176
   1 C :   -0.251011
   2 C :    0.025438
   3 O :   -0.160639
   4 O :   -0.221394
   5 H :    0.125844
   6 H :    0.124920
   7 H :    0.123982
   8 H :    0.133675
   9 H :    0.135738
  10 H :    0.293624

  Mayer bond orders larger than 0.100000
B(  0-C ,  1-C ) :   1.1381 B(  0-C ,  5-H ) :   0.9536 B(  0-C ,  6-H ) :   0.9525
B(  0-C ,  7-H ) :   0.9541 B(  1-C ,  2-C ) :   1.0162 B(  1-C ,  8-H ) :   0.9076
B(  1-C ,  9-H ) :   0.9167 B(  2-C ,  3-O ) :   2.1219 B(  2-C ,  4-O ) :   1.2417
B(  4-O , 10-H ) :   0.8280

Dispersion correction           -0.006548724
FINAL SINGLE POINT ENERGY      -267.819568293892

DIPOLE MOMENT
-------------

Method             : SCF
Type of density    : Electron Density
Multiplicity       :   1
Irrep              :   0
Energy             :  -267.8640205649057862 Eh
Relativity type    :
Basis              : AO
                                X                 Y                 Z
Electronic contribution:     -5.580189660       1.970292445       0.348934072
Nuclear contribution   :      5.671897236      -2.570044881      -0.516463266
                        -----------------------------------------
Total Dipole Moment    :      0.091707576      -0.599752436      -0.167529194
                        -----------------------------------------
Magnitude (a.u.)       :      0.629427752
Magnitude (Debye)      :      1.599878201

Rotational constants in cm-1:             0.286028             0.132612             0.107740
Rotational constants in MHz :          8574.895111          3975.595374          3229.954039

                             ****ORCA TERMINATED NORMALLY****
TOTAL RUN TIME: 0 days 0 hours 0 minutes 2 seconds 920 msec
