                         Program Version 6.0.1  -  RELEASE   -
|  1> ! pbe def2-sv(p) def2/J RI DEFGRID1 loosescf d4 GCP(DFT/SV(P)) printgap
|  2> %output
|  3>     printlevel normal
|  4> end
|  5> * xyz 0 1
|  6> C -2.5624204784 -0.7033730324 -0.2548472266
|  7> C -1.1708981099 -0.2957841593 0.2437482988
|  8> H -1.1921918423 -0.2042115144 1.3439609418
|  9> C -0.7142067021 1.0405876224 -0.3703225722
| 10> H -0.6892691581 0.9295705479 -1.4616745748
| 11> C 0.6965570747 1.3407043182 0.14890396
| 12> H 0.665517498 1.4694149048 1.2401492857
| 13> C 1.6479991311 0.1712733396 -0.1661364459
| 14> H 1.7999586716 0.1003157753 -1.2557102229
| 15> C 1.0511276375 -1.1623654618 0.3054668698
| 16> H 1.0839631274 -1.180401297 1.4152316507
| 17> O -0.2833318157 -1.3320416571 -0.1254752316
| 18> O 1.7925402205 -2.1846005339 -0.2440208446
| 19> O 2.8682922056 0.3602758312 0.4934931935
| 20> O 1.2242390047 2.5487717 -0.3422292553
| 21> O -1.6104787807 2.0877155854 -0.1242504275
| 22> O -3.0415299405 -1.8364534508 0.4115082091
| 23> H -2.5035918875 -0.8765823725 -1.3374976974
| 24> H -3.2690471763 0.1045310469 -0.0586142796
| 25> H 1.3718121909 -3.0267987573 -0.0332016256
| 26> H 3.1386274284 1.2769387939 0.3435508616
| 27> H 1.028762868 2.6226285193 -1.2837885689
| 28> H -1.5829052029 2.321387242 0.8115319837
| 29> H -2.3930164566 -2.5403710072 0.2908470153
| 30> *
| 31>
| 32>                          ****END OF INPUT****

CARTESIAN COORDINATES (ANGSTROEM)
---------------------------------
  C     -2.562420   -0.703373   -0.254847
  C     -1.170898   -0.295784    0.243748
  H     -1.192192   -0.204212    1.343961
  C     -0.714207    1.040588   -0.370323
  H     -0.689269    0.929571   -1.461675
  C      0.696557    1.340704    0.148904
  H      0.665517    1.469415    1.240149
  C      1.647999    0.171273   -0.166136
  H      1.799959    0.100316   -1.255710
  C      1.051128   -1.162365    0.305467
  H      1.083963   -1.180401    1.415232
  O     -0.283332   -1.332042   -0.125475
  O      1.792540   -2.184601   -0.244021
  O      2.868292    0.360276    0.493493
  O      1.224239    2.548772   -0.342229
  O     -1.610479    2.087716   -0.124250
  O     -3.041530   -1.836453    0.411508
  H     -2.503592   -0.876582   -1.337498
  H     -3.269047    0.104531   -0.058614
  H      1.371812   -3.026799   -0.033202
  H      3.138627    1.276939    0.343551
  H      1.028763    2.622629   -1.283789
  H     -1.582905    2.321387    0.811532
  H     -2.393016   -2.540371    0.290847

 Total Charge           Charge          ....    0
 Multiplicity           Mult            ....    1
 Number of Electrons    NEL             ....   96
 Basis Dimension        Dim             ....  192

ORBITAL ENERGIES
----------------

  NO   OCC          E(Eh)            E(eV)
   0   2.0000     -18.783876      -511.1352
   1   2.0000     -18.767756      -510.6966
   2   2.0000     -18.765991      -510.6486
   3   2.0000     -18.763790      -510.5887
   4   2.0000     -18.750343      -510.2228
   5   2.0000     -18.747556      -510.1469
   6   2.0000      -9.993249      -271.9301
   7   2.0000      -9.954707      -270.8813
   8   2.0000      -9.952667      -270.8259
   9   2.0000      -9.950669      -270.7715
  10   2.0000      -9.944470      -270.6028
  11   2.0000      -9.933295      -270.2987
  12   2.0000      -0.992605       -27.0102
  13   2.0000      -0.958997       -26.0956
  14   2.0000      -0.943095       -25.6629
  15   2.0000      -0.931938       -25.3593
  16   2.0000      -0.923212       -25.1219
  17   2.0000      -0.916904       -24.9502
  18   2.0000      -0.711736       -19.3673
  19   2.0000      -0.696008       -18.9393
  20   2.0000      -0.624923       -17.0050
  21   2.0000      -0.592340       -16.1184
  22   2.0000      -0.568850       -15.4792
  23   2.0000      -0.543768       -14.7967
  24   2.0000      -0.511330       -13.9140
  25   2.0000      -0.495148       -13.4737
  26   2.0000      -0.477863       -13.0033
  27   2.0000      -0.465349       -12.6628
  28   2.0000      -0.454631       -12.3711
  29   2.0000      -0.435312       -11.8455
  30   2.0000      -0.430140       -11.7047
  31   2.0000      -0.411469       -11.1966
  32   2.0000      -0.390747       -10.6328
  33   2.0000      -0.378500       -10.2995
  34   2.0000      -0.369166       -10.0455
  35   2.0000      -0.358408        -9.7528
  36   2.0000      -0.324609        -8.8331
  37   2.0000      -0.318107        -8.6561
  38   2.0000      -0.314562        -8.5597
  39   2.0000      -0.298730        -8.1289
  40   2.0000      -0.289941        -7.8897
  41   2.0000      -0.281723        -7.6661
  42   2.0000      -0.261463        -7.1148
  43   2.0000      -0.251105        -6.8329
  44   2.0000      -0.241082        -6.5602
  45   2.0000      -0.223781        -6.0894
  46   2.0000      -0.219213        -5.9651
  47   2.0000      -0.209696        -5.7061
  48   0.0000       0.010389         0.2827
  49   0.0000       0.013666         0.3719
  50   0.0000       0.027960         0.7608
  51   0.0000       0.039648         1.0789
  52   0.0000       0.053339         1.4514

MULLIKEN ATOMIC CHARGES
-----------------------
   0 C :    0.114363
   1 C :   -0.046291
   2 H :    0.045231
   3 C :    0.055723
   4 H :    0.056596
   5 C :    0.039283
   6 H :    0.052036
   7 C :    0.051587
   8 H :    0.049287
   9 C :    0.204185
  10 H :    0.043802
  11 O :   -0.324797
  12 O :   -0.364420
  13 O :   -0.405714
  14 O :   -0.407811
  15 O :   -0.399876
  16 O :   -0.428827
  17 H :    0.069291
  18 H :    0.087822
  19 H :    0.302485
  20 H :    0.303235
  21 H :    0.304979
  22 H :    0.303359
  23 H :    0.294472
Sum of atomic charges:   -0.0000000

LOEWDIN ATOMIC CHARGES
----------------------
   0 C :   -0.125273
   1 C :   -0.083603
   2 H :    0.098836
   3 C :   -0.083482
   4 H :    0.113830
   5 C :   -0.091354
   6 H :    0.110873
   7 C :   -0.085395
   8 H :    0.103777
   9 C :    0.008951
  10 H :    0.084479
  11 O :   -0.159908
  12 O :   -0.284842
  13 O :   -0.312970
  14 O :   -0.310218
  15 O :   -0.302081
  16 O :   -0.332138
  17 H :    0.101740
  18 H :    0.118829
  19 H :    0.288096
  20 H :    0.283776
  21 H :    0.289624
  22 H :    0.289265
  23 H :    0.279186

  Mayer bond orders larger than 0.100000
B(  0-C ,  1-C ) :   1.0470 B(  0-C , 16-O ) :   1.0824 B(  0-C , 17-H ) :   0.9052
B(  0-C , 18-H ) :   0.9106 B(  1-C ,  2-H ) :   0.8701 B(  1-C ,  3-C ) :   0.9718
B(  1-C , 11-O ) :   0.9753 B(  3-C ,  4-H ) :   0.8605 B(  3-C ,  5-C ) :   1.0088
B(  3-C , 15-O ) :   1.0518 B(  5-C ,  6-H ) :   0.8622 B(  5-C ,  7-C ) :   1.0000
B(  5-C , 14-O ) :   1.0574 B(  7-C ,  8-H ) :   0.8612 B(  7-C ,  9-C ) :   0.9841
B(  7-C , 13-O ) :   1.0872 B(  9-C , 10-H ) :   0.8865 B(  9-C , 11-O ) :   0.9994
B(  9-C , 12-O ) :   1.1981 B( 12-O , 19-H ) :   0.8428 B( 13-O , 20-H ) :   0.8333
B( 14-O , 21-H ) :   0.8473 B( 15-O , 22-H ) :   0.8475 B( 16-O , 23-H ) :   0.8479

Dispersion correction           -0.023641314
FINAL SINGLE POINT ENERGY      -685.695807373191

DIPOLE MOMENT
-------------

Method             : SCF
Type of density    : Electron Density
Multiplicity       :   1
Irrep              :   0
Energy             :  -685.8255981540582980 Eh
Relativity type    :
Basis              : AO
                                X                 Y                 Z
Electronic contribution:      2.377598931      -0.790294272      -0.055158635
Nuclear contribution   :     -2.370176938       0.929534349       0.014893209
                        -----------------------------------------
Total Dipole Moment    :      0.007421993       0.139240078      -0.040265426
                        -----------------------------------------
Magnitude (a.u.)       :      0.145135074
Magnitude (Debye)      :      0.368904041

Rotational constants in cm-1:             0.039070             0.026045             0.016443
Rotational constants in MHz :          1171.280262           780.805130           492.948111

                             ****ORCA TERMINATED NORMALLY****
TOTAL RUN TIME: 0 days 0 hours 0 minutes 10 seconds 105 msec
