                         Program Version 6.0.1  -  RELEASE   -
|  1> ! r2scan-3c def2/J RI DEFGRID2 scfconv6 printgap
|  2> %output
|  3>     printlevel normal
|  4> end
|  5> * xyz 0 1
|  6> C 2.1946491797 0.4524851501 0.1345831394
|  7> C 1.2221429069 -0.6184980785 -0.3438162324
|  8> C -0.1247084312 -0.5485171733 0.3646892196
|  9> H 0.0182960805 -0.5134488088 1.4482498022
| 10> C -1.0459725123 -1.6944033349 -0.0151428553
| 11> Cl -0.9379838264 0.9987877805 -0.0562863372
| 12> H 3.1391901284 0.3682462143 -0.3967823539
| 13> H 2.3871091635 0.34565452 1.20005159
| 14> H 1.7854738062 1.4435257209 -0.0437935633
| 15> H 1.6471566398 -1.6076386254 -0.1549565672
| 16> H 1.0649493253 -0.5194667445 -1.4196954501
| 17> H -1.20419507 -1.7132810801 -1.0910442991
| 18> H -0.600337443 -2.6391154494 0.290184853
| 19> H -2.010537107 -1.5900374863 0.4755712959
| 20> *
| 21>
| 22>                          ****END OF INPUT****

CARTESIAN COORDINATES (ANGSTROEM)
---------------------------------
  C      2.194649    0.452485    0.134583
  C      1.222143   -0.618498   -0.343816
  C     -0.124708   -0.548517    0.364689
  H      0.018296   -0.513449    1.448250
  C     -1.045973   -1.694403   -0.015143
  Cl    -0.937984    0.998788   -0.056286
  H      3.139190    0.368246   -0.396782
  H      2.387109    0.345655    1.200052
  H      1.785474    1.443526   -0.043794
  H      1.647157   -1.607639   -0.154957
  H      1.064949   -0.519467   -1.419695
  H     -1.204195   -1.713281   -1.091044
  H     -0.600337   -2.639115    0.290185
  H     -2.010537   -1.590037    0.475571

 Total Charge           Charge          ....    0
 Multiplicity           Mult            ....    1
 Number of Electrons    NEL             ....   50
 Basis Dimension        Dim             ....  148

ORBITAL ENERGIES
----------------

  NO   OCC          E(Eh)            E(eV)
   0   2.0000    -101.193985     -2753.6283
   1   2.0000     -10.096842      -274.7490
   2   2.0000     -10.040177      -273.2071
   3   2.0000     -10.032792      -273.0062
   4   2.0000     -10.020953      -272.6840
   5   2.0000      -9.350441      -254.4384
   6   2.0000      -7.096372      -193.1021
   7   2.0000      -7.086675      -192.8382
   8   2.0000      -7.086505      -192.8336
   9   2.0000      -0.831041       -22.6138
  10   2.0000      -0.736427       -20.0392
  11   2.0000      -0.700102       -19.0507
  12   2.0000      -0.608139       -16.5483
  13   2.0000      -0.548304       -14.9201
  14   2.0000      -0.452828       -12.3221
  15   2.0000      -0.421211       -11.4617
  16   2.0000      -0.412220       -11.2171
  17   2.0000      -0.396028       -10.7765
  18   2.0000      -0.358700        -9.7607
  19   2.0000      -0.342728        -9.3261
  20   2.0000      -0.328255        -8.9323
  21   2.0000      -0.318610        -8.6698
  22   2.0000      -0.315263        -8.5787
  23   2.0000      -0.262361        -7.1392
  24   2.0000      -0.261283        -7.1099
  25   0.0000       0.013060         0.3554
  26   0.0000       0.091954         2.5022
  27   0.0000       0.106382         2.8948
  28   0.0000       0.130180         3.5424
  29   0.0000       0.132732         3.6118

MULLIKEN ATOMIC CHARGES
-----------------------
   0 C :   -0.480412
   1 C :   -0.237786
   2 C :    0.035142
   3 H :    0.158383
   4 C :   -0.461778
   5 Cl:   -0.218698
   6 H :    0.147746
   7 H :    0.141132
   8 H :    0.165575
   9 H :    0.135639
  10 H :    0.152636
  11 H :    0.155818
  12 H :    0.144503
  13 H :    0.162101
Sum of atomic charges:    0.0000000

LOEWDIN ATOMIC CHARGES
----------------------
   0 C :   -0.428576
   1 C :   -0.326259
   2 C :   -0.261566
   3 H :    0.159979
   4 C :   -0.426927
   5 Cl:    0.019327
   6 H :    0.152236
   7 H :    0.150647
   8 H :    0.159450
   9 H :    0.160017
  10 H :    0.162535
  11 H :    0.161316
  12 H :    0.157264
  13 H :    0.160556

  Mayer bond orders larger than 0.100000
B(  0-C ,  1-C ) :   0.9166 B(  0-C ,  6-H ) :   0.9730 B(  0-C ,  7-H ) :   0.9832
B(  0-C ,  8-H ) :   0.9695 B(  1-C ,  2-C ) :   0.9296 B(  1-C ,  9-H ) :   0.9551
B(  1-C , 10-H ) :   0.9633 B(  2-C ,  3-H ) :   0.9491 B(  2-C ,  4-C ) :   0.9167
B(  2-C ,  5-Cl) :   0.9116 B(  4-C , 11-H ) :   0.9768 B(  4-C , 12-H ) :   0.9684
B(  4-C , 13-H ) :   0.9690

Dispersion correction           -0.003393765
FINAL SINGLE POINT ENERGY      -617.974597577447

DIPOLE MOMENT
-------------

Method             : SCF
Type of density    : Electron Density
Multiplicity       :   1
Irrep              :   0
Energy             :  -617.9799215244909192 Eh
Relativity type    :
Basis              : AO
                                X                 Y                 Z
Electronic contribution:     -6.688342287       6.629073143      -0.236833520
Nuclear contribution   :      7.101044651      -7.368841589       0.364302497
                        -----------------------------------------
Total Dipole Moment    :      0.412702364      -0.739768447       0.127468977
                        -----------------------------------------
Magnitude (a.u.)       :      0.856638159
Magnitude (Debye)      :      2.177401160

Rotational constants in cm-1:             0.154386             0.105608             0.068105
Rotational constants in MHz :          4628.368920          3166.062768          2041.725346

                             ****ORCA TERMINATED NORMALLY****
TOTAL RUN TIME: 0 days 0 hours 0 minutes 12 seconds 987 msec
