                         Program Version 6.0.0  -   RELEASE  -
|  1> ! r2SCAN-3c DEF2-TZVP FREQ
|  2> * xyzfile 0 1 censo.xyz
|  3>
|  4>                          ****END OF INPUT****

CARTESIAN COORDINATES (ANGSTROEM)
---------------------------------
  C     -1.470654   -0.000062    0.106821
  C     -0.059403    0.000020   -0.380456
  F      0.621223   -1.105956    0.112728
  F      0.621087    1.106094    0.112695
  H     -1.984127   -0.888385   -0.269262
  H     -1.489197    0.000038    1.199981
  H     -1.984295    0.888093   -0.269434
  H      0.061426    0.000015   -1.467872

 Total Charge           Charge          ....    0
 Multiplicity           Mult            ....    1
 Number of Electrons    NEL             ....   34
 Basis Dimension        Dim             ....  148

ORBITAL ENERGIES
----------------

  NO   OCC          E(Eh)            E(eV)
   0   2.0000     -24.486586      -666.3139
   1   2.0000     -24.486580      -666.3137
   2   2.0000     -10.193369      -277.3757
   3   2.0000     -10.047552      -273.4078
   4   2.0000      -1.196247       -32.5515
   5   2.0000      -1.142093       -31.0779
   6   2.0000      -0.747291       -20.3348
   7   2.0000      -0.614182       -16.7128
   8   2.0000      -0.510292       -13.8857
   9   2.0000      -0.502390       -13.6707
  10   2.0000      -0.462234       -12.5780
  11   2.0000      -0.399386       -10.8678
  12   2.0000      -0.388639       -10.5754
  13   2.0000      -0.366403        -9.9703
  14   2.0000      -0.364025        -9.9056
  15   2.0000      -0.347145        -9.4463
  16   2.0000      -0.309375        -8.4185
  17   0.0000       0.057226         1.5572
  18   0.0000       0.073096         1.9890
  19   0.0000       0.079416         2.1610
  20   0.0000       0.102638         2.7929
  21   0.0000       0.117610         3.2003

MULLIKEN ATOMIC CHARGES
-----------------------
   0 C :   -0.276411
   1 C :    0.288921
   2 F :   -0.220190
   3 F :   -0.220189
   4 H :    0.117017
   5 H :    0.125064
   6 H :    0.117014
   7 H :    0.068773
Sum of atomic charges:   -0.0000000

LOEWDIN ATOMIC CHARGES
----------------------
   0 C :   -0.284956
   1 C :   -0.441864
   2 F :    0.103279
   3 F :    0.103280
   4 H :    0.134009
   5 H :    0.134226
   6 H :    0.134008
   7 H :    0.118018

  Mayer bond orders larger than 0.100000
B(  0-C ,  1-C ) :   0.9930 B(  0-C ,  4-H ) :   0.9561 B(  0-C ,  5-H ) :   0.9574
B(  0-C ,  6-H ) :   0.9561 B(  1-C ,  2-F ) :   1.0377 B(  1-C ,  3-F ) :   1.0377
B(  1-C ,  7-H ) :   0.9788

Dispersion correction           -0.001048830
FINAL SINGLE POINT ENERGY      -278.297303195137

DIPOLE MOMENT
-------------

Method             : SCF
Type of density    : Electron Density
Multiplicity       :   1
Irrep              :   0
Energy             :  -278.3027142561553546 Eh
Relativity type    :
Basis              : AO
                                X                 Y                 Z
Electronic contribution:      5.373041781       0.000348126       0.561160711
Nuclear contribution   :     -6.207424596      -0.000406597      -0.970843847
                        -----------------------------------------
Total Dipole Moment    :     -0.834382815      -0.000058471      -0.409683136
                        -----------------------------------------
Magnitude (a.u.)       :      0.929534807
Magnitude (Debye)      :      2.362689713

VIBRATIONAL FREQUENCIES
-----------------------

Scaling factor for frequencies =  1.000000000  (already applied!)

     0:       0.00 cm**-1
     1:       0.00 cm**-1
     2:       0.00 cm**-1
     3:       0.00 cm**-1
     4:       0.00 cm**-1
     5:       0.00 cm**-1
     6:     254.31 cm**-1
     7:     383.55 cm**-1
     8:     466.44 cm**-1
     9:     565.81 cm**-1
    10:     864.91 cm**-1
    11:     893.96 cm**-1
    12:    1104.42 cm**-1
    13:    1107.07 cm**-1
    14:    1158.32 cm**-1
    15:    1349.02 cm**-1
    16:    1373.39 cm**-1
    17:    1420.62 cm**-1
    18:    1475.38 cm**-1
    19:    1477.55 cm**-1
    20:    3030.04 cm**-1
    21:    3073.23 cm**-1
    22:    3121.12 cm**-1
    23:    3125.62 cm**-1

IR SPECTRUM
-----------

 Mode   freq       eps      Int      T**2         TX        TY        TZ
       cm**-1   L/(mol*cm) km/mol    a.u.
----------------------------------------------------------------------------
  6:    254.31   0.000009    0.05  0.000011  (-0.000000  0.003363  0.000000)
  7:    383.55   0.000089    0.45  0.000072  ( 0.000001  0.008496 -0.000000)
  8:    466.44   0.002181   11.02  0.001459  ( 0.037744  0.000002 -0.005850)
  9:    565.81   0.001163    5.88  0.000642  ( 0.015971  0.000000 -0.019659)
 10:    864.91   0.002920   14.76  0.001054  (-0.026304 -0.000007 -0.019020)
 11:    893.96   0.024155  122.07  0.008432  (-0.000009  0.091825 -0.000004)
 12:   1104.42   0.020342  102.80  0.005748  (-0.000064 -0.075814 -0.000033)
 13:   1107.07   0.022539  113.90  0.006353  ( 0.071295 -0.000066  0.035641)
 14:   1158.32   0.004451   22.49  0.001199  ( 0.019666 -0.000000 -0.028503)
 15:   1349.02   0.003046   15.39  0.000705  ( 0.000002 -0.026543  0.000001)
 16:   1373.39   0.001191    6.02  0.000271  ( 0.016191  0.000002  0.002895)
 17:   1420.62   0.012633   63.84  0.002775  (-0.052249 -0.000004  0.006716)
 18:   1475.38   0.000376    1.90  0.000079  ( 0.000000 -0.008915  0.000006)
 19:   1477.55   0.001061    5.36  0.000224  ( 0.004257 -0.000003 -0.014348)
 20:   3030.04   0.000540    2.73  0.000056  (-0.007420  0.000001  0.000771)
 21:   3073.23   0.006913   34.93  0.000702  ( 0.002679 -0.000001 -0.026358)
 22:   3121.12   0.001929    9.75  0.000193  ( 0.000006 -0.013888  0.000022)
 23:   3125.62   0.003179   16.07  0.000317  ( 0.004211  0.000017  0.017311)

--------------------------
THERMOCHEMISTRY AT 298.15K
--------------------------

Temperature         ...   298.15 K
Pressure            ...     1.00 atm
Total Mass          ...    66.05 AMU
Quasi RRHO          ...     True
Cut-Off Frequency   ...     1.00 cm^-1

Throughout the following assumptions are being made:
  (1) The electronic state is orbitally nondegenerate
  (2) There are no thermally accessible electronically excited states
  (3) Hindered rotations indicated by low frequency modes are not
      treated as such but are treated as vibrations and this may
      cause some error
  (4) All equations used are the standard statistical mechanics
      equations for an ideal gas
  (5) All vibrations are strictly harmonic

freq.     254.31  E(vib)   ...       0.30
freq.     383.55  E(vib)   ...       0.20
freq.     466.44  E(vib)   ...       0.16
freq.     565.81  E(vib)   ...       0.11
freq.     864.91  E(vib)   ...       0.04
freq.     893.96  E(vib)   ...       0.03
freq.    1104.42  E(vib)   ...       0.02
freq.    1107.07  E(vib)   ...       0.02
freq.    1158.32  E(vib)   ...       0.01
freq.    1349.02  E(vib)   ...       0.01
freq.    1373.39  E(vib)   ...       0.01
freq.    1420.62  E(vib)   ...       0.00
freq.    1475.38  E(vib)   ...       0.00
freq.    1477.55  E(vib)   ...       0.00
freq.    3030.04  E(vib)   ...       0.00
freq.    3073.23  E(vib)   ...       0.00
freq.    3121.12  E(vib)   ...       0.00
freq.    3125.62  E(vib)   ...       0.00

------------
INNER ENERGY
------------

The inner energy is: U= E(el) + E(ZPE) + E(vib) + E(rot) + E(trans)
    E(el)   - is the total energy from the electronic structure calculation
              = E(kin-el) + E(nuc-el) + E(el-el) + E(nuc-nuc)
    E(ZPE)  - the the zero temperature vibrational energy from the frequency calculation
    E(vib)  - the the finite temperature correction to E(ZPE) due to population
              of excited vibrational states
    E(rot)  - is the rotational thermal energy
    E(trans)- is the translational thermal energy

Summary of contributions to the inner energy U:
Electronic energy                ...   -278.29730320 Eh
Zero point energy                ...      0.05978996 Eh      37.52 kcal/mol
Thermal vibrational correction   ...      0.00145672 Eh       0.91 kcal/mol
Thermal rotational correction    ...      0.00141627 Eh       0.89 kcal/mol
Thermal translational correction ...      0.00141627 Eh       0.89 kcal/mol
-----------------------------------------------------------------------
Total thermal energy                   -278.23322397 Eh

Summary of corrections to the electronic energy:
(perhaps to be used in another calculation)
Total thermal correction                  0.00428927 Eh       2.69 kcal/mol
Non-thermal (ZPE) correction              0.05978996 Eh      37.52 kcal/mol
-----------------------------------------------------------------------
Total correction                          0.06407922 Eh      40.21 kcal/mol

--------
ENTHALPY
--------

The enthalpy is H = U + kB*T
                kB is Boltzmann's constant
Total thermal energy              ...   -278.23322397 Eh
Thermal Enthalpy correction       ...      0.00094421 Eh       0.59 kcal/mol
-----------------------------------------------------------------------
Total Enthalpy                    ...   -278.23227976 Eh

Note: Only C1 symmetry has been detected, increase convergence thresholds
      if your molecule has a higher symmetry. Symmetry factor of 1.0 is
      used for the rotational entropy correction.

Note: Rotational entropy computed according to Herzberg
Infrared and Raman Spectra, Chapter V,1, Van Nostrand Reinhold, 1945
Point Group:  C1, Symmetry Number:   1
Rotational constants in cm-1:     0.311044     0.295835     0.170404

Vibrational entropy computed according to the QRRHO of S. Grimme
Chem.Eur.J. 2012 18 9955 using a reference frequency of 100.0 cm-1

-------
ENTROPY
-------

The entropy contributions are T*S = T*(S(el)+S(vib)+S(rot)+S(trans))
     S(el)   - electronic entropy
     S(vib)  - vibrational entropy
     S(rot)  - rotational entropy
     S(trans)- translational entropy
The entropies will be listed as multiplied by the temperature to get
units of energy

Electronic entropy                ...      0.00000000 Eh      0.00 kcal/mol
Vibrational entropy               ...      0.00216408 Eh      1.36 kcal/mol
Rotational entropy                ...      0.01147252 Eh      7.20 kcal/mol
Translational entropy             ...      0.01828383 Eh     11.47 kcal/mol
-----------------------------------------------------------------------
Final entropy term                ...      0.03192043 Eh     20.03 kcal/mol

In case the symmetry of your molecule has not been determined correctly
or in case you have a reason to use a different symmetry number we print
out the resulting rotational entropy values for sn=1,12:

 non-linear molecules -----------------------------------
|  sn= 1 | S(rot)=       0.01147252 Eh      7.20 kcal/mol|
|  sn= 2 | S(rot)=       0.01081806 Eh      6.79 kcal/mol|
|  sn= 3 | S(rot)=       0.01043523 Eh      6.55 kcal/mol|
|  sn= 4 | S(rot)=       0.01016360 Eh      6.38 kcal/mol|
|  sn= 5 | S(rot)=       0.00995292 Eh      6.25 kcal/mol|
|  sn= 6 | S(rot)=       0.00978077 Eh      6.14 kcal/mol|
|  sn= 7 | S(rot)=       0.00963523 Eh      6.05 kcal/mol|
|  sn= 8 | S(rot)=       0.00950915 Eh      5.97 kcal/mol|
|  sn= 9 | S(rot)=       0.00939794 Eh      5.90 kcal/mol|
|  sn=10 | S(rot)=       0.00929846 Eh      5.83 kcal/mol|
|  sn=11 | S(rot)=       0.00920847 Eh      5.78 kcal/mol|
|  sn=12 | S(rot)=       0.00912631 Eh      5.73 kcal/mol|
 linear molecules ---------------------------------------
|  Dinfh | S(rot)=       0.00699662 Eh      4.39 kcal/mol|
|  Cinfv | S(rot)=       0.00765107 Eh      4.80 kcal/mol|
 --------------------------------------------------------

-------------------
GIBBS FREE ENERGY
-------------------

The Gibbs free energy is G = H - T*S

Total enthalpy                    ...   -278.23227976 Eh
Total entropy correction          ...     -0.03192043 Eh    -20.03 kcal/mol
-----------------------------------------------------------------------
Final Gibbs free energy         ...   -278.26420019 Eh

For completeness - the Gibbs free energy minus the electronic energy
G-E(el)                           ...      0.03310301 Eh     20.77 kcal/mol

                             ****ORCA TERMINATED NORMALLY****
TOTAL RUN TIME: 0 days 0 hours 1 minutes 41 seconds 959 msec
