                         Program Version 6.0.0  -   RELEASE  -
|  1> ! r2SCAN-3c DEF2-TZVP FREQ
|  2> * xyzfile 0 1 vacuum_censo.xyz
|  3>
|  4>                          ****END OF INPUT****

CARTESIAN COORDINATES (ANGSTROEM)
---------------------------------
  C     -1.469864    0.000396   -0.101518
  C     -0.045998    0.000026    0.375171
  F      0.615299    1.106168   -0.110680
  F      0.614527   -1.106835   -0.110084
  H     -1.486160   -0.000460   -1.194073
  H     -1.983869   -0.889421    0.269536
  H     -1.982907    0.891352    0.268134
  H      0.071626    0.000274    1.466500

 Total Charge           Charge          ....    0
 Multiplicity           Mult            ....    1
 Number of Electrons    NEL             ....   34
 Basis Dimension        Dim             ....  148

ORBITAL ENERGIES
----------------

  NO   OCC          E(Eh)            E(eV)
   0   2.0000     -24.488695      -666.3713
   1   2.0000     -24.488689      -666.3711
   2   2.0000     -10.192769      -277.3593
   3   2.0000     -10.046026      -273.3663
   4   2.0000      -1.202075       -32.7101
   5   2.0000      -1.147644       -31.2290
   6   2.0000      -0.743973       -20.2445
   7   2.0000      -0.614837       -16.7306
   8   2.0000      -0.512067       -13.9341
   9   2.0000      -0.506367       -13.7789
  10   2.0000      -0.464076       -12.6281
  11   2.0000      -0.400428       -10.8962
  12   2.0000      -0.387475       -10.5437
  13   2.0000      -0.369177       -10.0458
  14   2.0000      -0.363900        -9.9022
  15   2.0000      -0.350004        -9.5241
  16   2.0000      -0.306684        -8.3453
  17   0.0000       0.057905         1.5757
  18   0.0000       0.081198         2.2095
  19   0.0000       0.081210         2.2098
  20   0.0000       0.104663         2.8480
  21   0.0000       0.119469         3.2509

MULLIKEN ATOMIC CHARGES
-----------------------
   0 C :   -0.281441
   1 C :    0.295179
   2 F :   -0.216541
   3 F :   -0.216535
   4 H :    0.122882
   5 H :    0.116377
   6 H :    0.116391
   7 H :    0.063688
Sum of atomic charges:    0.0000000

LOEWDIN ATOMIC CHARGES
----------------------
   0 C :   -0.285842
   1 C :   -0.462720
   2 F :    0.117162
   3 F :    0.117168
   4 H :    0.132839
   5 H :    0.132235
   6 H :    0.132242
   7 H :    0.116917

  Mayer bond orders larger than 0.100000
B(  0-C ,  1-C ) :   0.9908 B(  0-C ,  4-H ) :   0.9584 B(  0-C ,  5-H ) :   0.9574
B(  0-C ,  6-H ) :   0.9574 B(  1-C ,  2-F ) :   1.0410 B(  1-C ,  3-F ) :   1.0410
B(  1-C ,  7-H ) :   0.9792

Dispersion correction           -0.001049038
FINAL SINGLE POINT ENERGY      -278.297735892694

DIPOLE MOMENT
-------------

Method             : SCF
Type of density    : Electron Density
Multiplicity       :   1
Irrep              :   0
Energy             :  -278.3031728018483477 Eh
Relativity type    :
Basis              : AO
                                X                 Y                 Z
Electronic contribution:      5.391072288      -0.002044889      -0.574224400
Nuclear contribution   :     -6.180409416       0.002423643       0.967166899
                        -----------------------------------------
Total Dipole Moment    :     -0.789337127       0.000378754       0.392942499
                        -----------------------------------------
Magnitude (a.u.)       :      0.881735250
Magnitude (Debye)      :      2.241192895

VIBRATIONAL FREQUENCIES
-----------------------

Scaling factor for frequencies =  1.000000000  (already applied!)

     0:       0.00 cm**-1
     1:       0.00 cm**-1
     2:       0.00 cm**-1
     3:       0.00 cm**-1
     4:       0.00 cm**-1
     5:       0.00 cm**-1
     6:     246.04 cm**-1
     7:     386.64 cm**-1
     8:     463.20 cm**-1
     9:     565.23 cm**-1
    10:     866.97 cm**-1
    11:     924.26 cm**-1
    12:    1118.73 cm**-1
    13:    1122.23 cm**-1
    14:    1153.94 cm**-1
    15:    1368.97 cm**-1
    16:    1376.98 cm**-1
    17:    1418.06 cm**-1
    18:    1476.46 cm**-1
    19:    1477.28 cm**-1
    20:    3032.98 cm**-1
    21:    3038.56 cm**-1
    22:    3125.07 cm**-1
    23:    3127.35 cm**-1

IR SPECTRUM
-----------

 Mode   freq       eps      Int      T**2         TX        TY        TZ
       cm**-1   L/(mol*cm) km/mol    a.u.
----------------------------------------------------------------------------
  6:    246.04   0.000012    0.06  0.000015  ( 0.000005  0.003880 -0.000001)
  7:    386.64   0.000064    0.32  0.000051  ( 0.000003 -0.007166  0.000004)
  8:    463.20   0.002127   10.75  0.001433  ( 0.037427 -0.000011  0.005647)
  9:    565.23   0.001121    5.66  0.000619  (-0.014578 -0.000005 -0.020153)
 10:    866.97   0.001742    8.81  0.000627  (-0.018882  0.000023  0.016451)
 11:    924.26   0.019861  100.37  0.006706  (-0.000040 -0.081889  0.000031)
 12:   1118.73   0.023394  118.22  0.006526  (-0.075439  0.000453  0.028887)
 13:   1122.23   0.025204  127.37  0.007008  (-0.000398 -0.083716  0.000162)
 14:   1153.94   0.005110   25.82  0.001382  (-0.003289 -0.000007 -0.037027)
 15:   1368.97   0.003302   16.69  0.000753  (-0.000015 -0.027437  0.000011)
 16:   1376.98   0.000652    3.30  0.000148  ( 0.011589 -0.000023 -0.003679)
 17:   1418.06   0.012917   65.28  0.002842  (-0.052951  0.000017 -0.006219)
 18:   1476.46   0.000263    1.33  0.000056  ( 0.000017 -0.007451  0.000089)
 19:   1477.28   0.001024    5.18  0.000216  ( 0.003993  0.000047  0.014156)
 20:   3032.98   0.000815    4.12  0.000084  ( 0.008063 -0.000001  0.004342)
 21:   3038.56   0.008524   43.08  0.000875  (-0.001689 -0.000008 -0.029539)
 22:   3125.07   0.002038   10.30  0.000204  (-0.000020 -0.014267  0.000053)
 23:   3127.35   0.002701   13.65  0.000270  ( 0.004442 -0.000046 -0.015804)

--------------------------
THERMOCHEMISTRY AT 298.15K
--------------------------

Temperature         ...   298.15 K
Pressure            ...     1.00 atm
Total Mass          ...    66.05 AMU
Quasi RRHO          ...     True
Cut-Off Frequency   ...     1.00 cm^-1

Throughout the following assumptions are being made:
  (1) The electronic state is orbitally nondegenerate
  (2) There are no thermally accessible electronically excited states
  (3) Hindered rotations indicated by low frequency modes are not
      treated as such but are treated as vibrations and this may
      cause some error
  (4) All equations used are the standard statistical mechanics
      equations for an ideal gas
  (5) All vibrations are strictly harmonic

freq.     246.04  E(vib)   ...       0.31
freq.     386.64  E(vib)   ...       0.20
freq.     463.20  E(vib)   ...       0.16
freq.     565.23  E(vib)   ...       0.11
freq.     866.97  E(vib)   ...       0.04
freq.     924.26  E(vib)   ...       0.03
freq.    1118.73  E(vib)   ...       0.01
freq.    1122.23  E(vib)   ...       0.01
freq.    1153.94  E(vib)   ...       0.01
freq.    1368.97  E(vib)   ...       0.01
freq.    1376.98  E(vib)   ...       0.01
freq.    1418.06  E(vib)   ...       0.00
freq.    1476.46  E(vib)   ...       0.00
freq.    1477.28  E(vib)   ...       0.00
freq.    3032.98  E(vib)   ...       0.00
freq.    3038.56  E(vib)   ...       0.00
freq.    3125.07  E(vib)   ...       0.00
freq.    3127.35  E(vib)   ...       0.00

------------
INNER ENERGY
------------

The inner energy is: U= E(el) + E(ZPE) + E(vib) + E(rot) + E(trans)
    E(el)   - is the total energy from the electronic structure calculation
              = E(kin-el) + E(nuc-el) + E(el-el) + E(nuc-nuc)
    E(ZPE)  - the the zero temperature vibrational energy from the frequency calculation
    E(vib)  - the the finite temperature correction to E(ZPE) due to population
              of excited vibrational states
    E(rot)  - is the rotational thermal energy
    E(trans)- is the translational thermal energy

Summary of contributions to the inner energy U:
Electronic energy                ...   -278.29773589 Eh
Zero point energy                ...      0.05989068 Eh      37.58 kcal/mol
Thermal vibrational correction   ...      0.00145855 Eh       0.92 kcal/mol
Thermal rotational correction    ...      0.00141627 Eh       0.89 kcal/mol
Thermal translational correction ...      0.00141627 Eh       0.89 kcal/mol
-----------------------------------------------------------------------
Total thermal energy                   -278.23355412 Eh

Summary of corrections to the electronic energy:
(perhaps to be used in another calculation)
Total thermal correction                  0.00429109 Eh       2.69 kcal/mol
Non-thermal (ZPE) correction              0.05989068 Eh      37.58 kcal/mol
-----------------------------------------------------------------------
Total correction                          0.06418177 Eh      40.27 kcal/mol

--------
ENTHALPY
--------

The enthalpy is H = U + kB*T
                kB is Boltzmann's constant
Total thermal energy              ...   -278.23355412 Eh
Thermal Enthalpy correction       ...      0.00094421 Eh       0.59 kcal/mol
-----------------------------------------------------------------------
Total Enthalpy                    ...   -278.23260991 Eh

Note: Only C1 symmetry has been detected, increase convergence thresholds
      if your molecule has a higher symmetry. Symmetry factor of 1.0 is
      used for the rotational entropy correction.

Note: Rotational entropy computed according to Herzberg
Infrared and Raman Spectra, Chapter V,1, Van Nostrand Reinhold, 1945
Point Group:  C1, Symmetry Number:   1
Rotational constants in cm-1:     0.311338     0.298201     0.170931

Vibrational entropy computed according to the QRRHO of S. Grimme
Chem.Eur.J. 2012 18 9955 using a reference frequency of 100.0 cm-1

-------
ENTROPY
-------

The entropy contributions are T*S = T*(S(el)+S(vib)+S(rot)+S(trans))
     S(el)   - electronic entropy
     S(vib)  - vibrational entropy
     S(rot)  - rotational entropy
     S(trans)- translational entropy
The entropies will be listed as multiplied by the temperature to get
units of energy

Electronic entropy                ...      0.00000000 Eh      0.00 kcal/mol
Vibrational entropy               ...      0.00217874 Eh      1.37 kcal/mol
Rotational entropy                ...      0.01146685 Eh      7.20 kcal/mol
Translational entropy             ...      0.01828383 Eh     11.47 kcal/mol
-----------------------------------------------------------------------
Final entropy term                ...      0.03192942 Eh     20.04 kcal/mol

In case the symmetry of your molecule has not been determined correctly
or in case you have a reason to use a different symmetry number we print
out the resulting rotational entropy values for sn=1,12:

 non-linear molecules -----------------------------------
|  sn= 1 | S(rot)=       0.01146685 Eh      7.20 kcal/mol|
|  sn= 2 | S(rot)=       0.01081239 Eh      6.78 kcal/mol|
|  sn= 3 | S(rot)=       0.01042956 Eh      6.54 kcal/mol|
|  sn= 4 | S(rot)=       0.01015794 Eh      6.37 kcal/mol|
|  sn= 5 | S(rot)=       0.00994725 Eh      6.24 kcal/mol|
|  sn= 6 | S(rot)=       0.00977510 Eh      6.13 kcal/mol|
|  sn= 7 | S(rot)=       0.00962956 Eh      6.04 kcal/mol|
|  sn= 8 | S(rot)=       0.00950348 Eh      5.96 kcal/mol|
|  sn= 9 | S(rot)=       0.00939227 Eh      5.89 kcal/mol|
|  sn=10 | S(rot)=       0.00929279 Eh      5.83 kcal/mol|
|  sn=11 | S(rot)=       0.00920280 Eh      5.77 kcal/mol|
|  sn=12 | S(rot)=       0.00912065 Eh      5.72 kcal/mol|
 linear molecules ---------------------------------------
|  Dinfh | S(rot)=       0.00699370 Eh      4.39 kcal/mol|
|  Cinfv | S(rot)=       0.00764815 Eh      4.80 kcal/mol|
 --------------------------------------------------------

-------------------
GIBBS FREE ENERGY
-------------------

The Gibbs free energy is G = H - T*S

Total enthalpy                    ...   -278.23260991 Eh
Total entropy correction          ...     -0.03192942 Eh    -20.04 kcal/mol
-----------------------------------------------------------------------
Final Gibbs free energy         ...   -278.26453934 Eh

For completeness - the Gibbs free energy minus the electronic energy
G-E(el)                           ...      0.03319656 Eh     20.83 kcal/mol

                             ****ORCA TERMINATED NORMALLY****
TOTAL RUN TIME: 0 days 0 hours 1 minutes 43 seconds 610 msec
