                         Program Version 6.0.0  -   RELEASE  -
|  1> ! r2SCAN-3c DEF2-TZVP FREQ
|  2> * xyzfile 0 1 censo.xyz
|  3>
|  4>                          ****END OF INPUT****

CARTESIAN COORDINATES (ANGSTROEM)
---------------------------------
  C     -0.002068   -1.817492    0.168805
  C     -0.000613   -0.448426   -0.445145
  Cl     1.482453    0.485409    0.053142
  Cl    -1.481833    0.488534    0.052763
  H     -0.890512   -2.358671   -0.169025
  H      0.885358   -2.360503   -0.168775
  H     -0.002161   -1.766685    1.259618
  H     -0.000456   -0.456641   -1.534651

 Total Charge           Charge          ....    0
 Multiplicity           Mult            ....    1
 Number of Electrons    NEL             ....   50
 Basis Dimension        Dim             ....  160

ORBITAL ENERGIES
----------------

  NO   OCC          E(Eh)            E(eV)
   0   2.0000    -101.190465     -2753.5325
   1   2.0000    -101.190459     -2753.5324
   2   2.0000     -10.169542      -276.7273
   3   2.0000     -10.056996      -273.6648
   4   2.0000      -9.366682      -254.8804
   5   2.0000      -9.366676      -254.8802
   6   2.0000      -7.111644      -193.5177
   7   2.0000      -7.111639      -193.5175
   8   2.0000      -7.101571      -193.2436
   9   2.0000      -7.101566      -193.2434
  10   2.0000      -7.101202      -193.2335
  11   2.0000      -7.101197      -193.2334
  12   2.0000      -0.862913       -23.4811
  13   2.0000      -0.778833       -21.1931
  14   2.0000      -0.720984       -19.6190
  15   2.0000      -0.588940       -16.0259
  16   2.0000      -0.465325       -12.6621
  17   2.0000      -0.444155       -12.0861
  18   2.0000      -0.416335       -11.3290
  19   2.0000      -0.370704       -10.0874
  20   2.0000      -0.368344       -10.0231
  21   2.0000      -0.302771        -8.2388
  22   2.0000      -0.293079        -7.9751
  23   2.0000      -0.279754        -7.6125
  24   2.0000      -0.275930        -7.5084
  25   0.0000      -0.042041        -1.1440
  26   0.0000      -0.008477        -0.2307
  27   0.0000       0.048614         1.3228
  28   0.0000       0.079728         2.1695
  29   0.0000       0.106064         2.8861

MULLIKEN ATOMIC CHARGES
-----------------------
   0 C :   -0.292014
   1 C :    0.065415
   2 Cl:   -0.138662
   3 Cl:   -0.138648
   4 H :    0.121283
   5 H :    0.121291
   6 H :    0.127259
   7 H :    0.134075
Sum of atomic charges:   -0.0000000

LOEWDIN ATOMIC CHARGES
----------------------
   0 C :   -0.336287
   1 C :   -0.715976
   2 Cl:    0.266479
   3 Cl:    0.266486
   4 H :    0.131672
   5 H :    0.131674
   6 H :    0.129777
   7 H :    0.126175

  Mayer bond orders larger than 0.100000
B(  0-C ,  1-C ) :   1.0008 B(  0-C ,  4-H ) :   0.9513 B(  0-C ,  5-H ) :   0.9513
B(  0-C ,  6-H ) :   0.9621 B(  1-C ,  2-Cl) :   1.0579 B(  1-C ,  3-Cl) :   1.0579
B(  1-C ,  7-H ) :   0.9592

Dispersion correction           -0.001887815
FINAL SINGLE POINT ENERGY      -998.964426713409

DIPOLE MOMENT
-------------

Method             : SCF
Type of density    : Electron Density
Multiplicity       :   1
Irrep              :   0
Energy             :  -998.9697108946436401 Eh
Relativity type    :
Basis              : AO
                                X                 Y                 Z
Electronic contribution:      0.007068690       6.979650145       0.420724365
Nuclear contribution   :     -0.007928166      -7.823927807      -0.715125081
                        -----------------------------------------
Total Dipole Moment    :     -0.000859476      -0.844277663      -0.294400716
                        -----------------------------------------
Magnitude (a.u.)       :      0.894134941
Magnitude (Debye)      :      2.272710404

VIBRATIONAL FREQUENCIES
-----------------------

Scaling factor for frequencies =  1.000000000  (already applied!)

     0:       0.00 cm**-1
     1:       0.00 cm**-1
     2:       0.00 cm**-1
     3:       0.00 cm**-1
     4:       0.00 cm**-1
     5:       0.00 cm**-1
     6:     269.72 cm**-1
     7:     284.49 cm**-1
     8:     316.65 cm**-1
     9:     404.41 cm**-1
    10:     602.08 cm**-1
    11:     620.69 cm**-1
    12:     986.94 cm**-1
    13:    1063.27 cm**-1
    14:    1104.18 cm**-1
    15:    1231.29 cm**-1
    16:    1296.78 cm**-1
    17:    1406.17 cm**-1
    18:    1472.54 cm**-1
    19:    1475.40 cm**-1
    20:    3024.11 cm**-1
    21:    3105.41 cm**-1
    22:    3113.68 cm**-1
    23:    3134.54 cm**-1

IR SPECTRUM
-----------

 Mode   freq       eps      Int      T**2         TX        TY        TZ
       cm**-1   L/(mol*cm) km/mol    a.u.
----------------------------------------------------------------------------
  6:    269.72   0.000126    0.64  0.000146  (-0.000005 -0.012079 -0.000267)
  7:    284.49   0.000078    0.39  0.000086  (-0.009259  0.000011  0.000002)
  8:    316.65   0.000519    2.62  0.000512  ( 0.022621 -0.000037 -0.000002)
  9:    404.41   0.001238    6.26  0.000955  ( 0.000022  0.030709 -0.003491)
 10:    602.08   0.026637  134.61  0.013806  (-0.117501  0.000172 -0.000000)
 11:    620.69   0.003172   16.03  0.001595  (-0.000174 -0.038087 -0.011999)
 12:    986.94   0.003602   18.20  0.001139  (-0.000027 -0.033060 -0.006778)
 13:   1063.27   0.007252   36.65  0.002128  (-0.046136  0.000044 -0.000008)
 14:   1104.18   0.001232    6.23  0.000348  (-0.000027 -0.018349  0.003393)
 15:   1231.29   0.006954   35.14  0.001763  ( 0.041983 -0.000039  0.000008)
 16:   1296.78   0.002799   14.15  0.000674  ( 0.000022  0.024081  0.009681)
 17:   1406.17   0.002128   10.76  0.000472  ( 0.000021  0.019526 -0.009543)
 18:   1472.54   0.001734    8.76  0.000368  (-0.000008  0.003796  0.018791)
 19:   1475.40   0.000361    1.82  0.000076  ( 0.008738 -0.000004  0.000024)
 20:   3024.11   0.001316    6.65  0.000136  ( 0.000011  0.011654  0.000112)
 21:   3105.41   0.001541    7.79  0.000155  ( 0.012444 -0.000011 -0.000005)
 22:   3113.68   0.000041    0.21  0.000004  ( 0.000014  0.000428  0.001978)
 23:   3134.54   0.001128    5.70  0.000112  (-0.000007 -0.004699 -0.009497)

--------------------------
THERMOCHEMISTRY AT 298.15K
--------------------------

Temperature         ...   298.15 K
Pressure            ...     1.00 atm
Total Mass          ...    98.96 AMU
Quasi RRHO          ...     True
Cut-Off Frequency   ...     1.00 cm^-1

Throughout the following assumptions are being made:
  (1) The electronic state is orbitally nondegenerate
  (2) There are no thermally accessible electronically excited states
  (3) Hindered rotations indicated by low frequency modes are not
      treated as such but are treated as vibrations and this may
      cause some error
  (4) All equations used are the standard statistical mechanics
      equations for an ideal gas
  (5) All vibrations are strictly harmonic

freq.     269.72  E(vib)   ...       0.29
freq.     284.49  E(vib)   ...       0.28
freq.     316.65  E(vib)   ...       0.25
freq.     404.41  E(vib)   ...       0.19
freq.     602.08  E(vib)   ...       0.10
freq.     620.69  E(vib)   ...       0.09
freq.     986.94  E(vib)   ...       0.02
freq.    1063.27  E(vib)   ...       0.02
freq.    1104.18  E(vib)   ...       0.02
freq.    1231.29  E(vib)   ...       0.01
freq.    1296.78  E(vib)   ...       0.01
freq.    1406.17  E(vib)   ...       0.00
freq.    1472.54  E(vib)   ...       0.00
freq.    1475.40  E(vib)   ...       0.00
freq.    3024.11  E(vib)   ...       0.00
freq.    3105.41  E(vib)   ...       0.00
freq.    3113.68  E(vib)   ...       0.00
freq.    3134.54  E(vib)   ...       0.00

------------
INNER ENERGY
------------

The inner energy is: U= E(el) + E(ZPE) + E(vib) + E(rot) + E(trans)
    E(el)   - is the total energy from the electronic structure calculation
              = E(kin-el) + E(nuc-el) + E(el-el) + E(nuc-nuc)
    E(ZPE)  - the the zero temperature vibrational energy from the frequency calculation
    E(vib)  - the the finite temperature correction to E(ZPE) due to population
              of excited vibrational states
    E(rot)  - is the rotational thermal energy
    E(trans)- is the translational thermal energy

Summary of contributions to the inner energy U:
Electronic energy                ...   -998.96442671 Eh
Zero point energy                ...      0.05675446 Eh      35.61 kcal/mol
Thermal vibrational correction   ...      0.00204842 Eh       1.29 kcal/mol
Thermal rotational correction    ...      0.00141627 Eh       0.89 kcal/mol
Thermal translational correction ...      0.00141627 Eh       0.89 kcal/mol
-----------------------------------------------------------------------
Total thermal energy                   -998.90279129 Eh

Summary of corrections to the electronic energy:
(perhaps to be used in another calculation)
Total thermal correction                  0.00488096 Eh       3.06 kcal/mol
Non-thermal (ZPE) correction              0.05675446 Eh      35.61 kcal/mol
-----------------------------------------------------------------------
Total correction                          0.06163543 Eh      38.68 kcal/mol

--------
ENTHALPY
--------

The enthalpy is H = U + kB*T
                kB is Boltzmann's constant
Total thermal energy              ...   -998.90279129 Eh
Thermal Enthalpy correction       ...      0.00094421 Eh       0.59 kcal/mol
-----------------------------------------------------------------------
Total Enthalpy                    ...   -998.90184708 Eh

Note: Rotational entropy computed according to Herzberg
Infrared and Raman Spectra, Chapter V,1, Van Nostrand Reinhold, 1945
Point Group:  Cs, Symmetry Number:   1
Rotational constants in cm-1:     0.209576     0.102601     0.073028

Vibrational entropy computed according to the QRRHO of S. Grimme
Chem.Eur.J. 2012 18 9955 using a reference frequency of 100.0 cm-1

-------
ENTROPY
-------

The entropy contributions are T*S = T*(S(el)+S(vib)+S(rot)+S(trans))
     S(el)   - electronic entropy
     S(vib)  - vibrational entropy
     S(rot)  - rotational entropy
     S(trans)- translational entropy
The entropies will be listed as multiplied by the temperature to get
units of energy

Electronic entropy                ...      0.00000000 Eh      0.00 kcal/mol
Vibrational entropy               ...      0.00313434 Eh      1.97 kcal/mol
Rotational entropy                ...      0.01255886 Eh      7.88 kcal/mol
Translational entropy             ...      0.01885644 Eh     11.83 kcal/mol
-----------------------------------------------------------------------
Final entropy term                ...      0.03454964 Eh     21.68 kcal/mol

In case the symmetry of your molecule has not been determined correctly
or in case you have a reason to use a different symmetry number we print
out the resulting rotational entropy values for sn=1,12:

 non-linear molecules -----------------------------------
|  sn= 1 | S(rot)=       0.01255886 Eh      7.88 kcal/mol|
|  sn= 2 | S(rot)=       0.01190440 Eh      7.47 kcal/mol|
|  sn= 3 | S(rot)=       0.01152157 Eh      7.23 kcal/mol|
|  sn= 4 | S(rot)=       0.01124995 Eh      7.06 kcal/mol|
|  sn= 5 | S(rot)=       0.01103926 Eh      6.93 kcal/mol|
|  sn= 6 | S(rot)=       0.01086711 Eh      6.82 kcal/mol|
|  sn= 7 | S(rot)=       0.01072157 Eh      6.73 kcal/mol|
|  sn= 8 | S(rot)=       0.01059549 Eh      6.65 kcal/mol|
|  sn= 9 | S(rot)=       0.01048428 Eh      6.58 kcal/mol|
|  sn=10 | S(rot)=       0.01038480 Eh      6.52 kcal/mol|
|  sn=11 | S(rot)=       0.01029481 Eh      6.46 kcal/mol|
|  sn=12 | S(rot)=       0.01021266 Eh      6.41 kcal/mol|
 linear molecules ---------------------------------------
|  Dinfh | S(rot)=       0.00779665 Eh      4.89 kcal/mol|
|  Cinfv | S(rot)=       0.00845110 Eh      5.30 kcal/mol|
 --------------------------------------------------------

-------------------
GIBBS FREE ENERGY
-------------------

The Gibbs free energy is G = H - T*S

Total enthalpy                    ...   -998.90184708 Eh
Total entropy correction          ...     -0.03454964 Eh    -21.68 kcal/mol
-----------------------------------------------------------------------
Final Gibbs free energy         ...   -998.93639671 Eh

For completeness - the Gibbs free energy minus the electronic energy
G-E(el)                           ...      0.02803000 Eh     17.59 kcal/mol

                             ****ORCA TERMINATED NORMALLY****
TOTAL RUN TIME: 0 days 0 hours 1 minutes 58 seconds 962 msec
