                         Program Version 6.0.0  -   RELEASE  -
|  1> ! r2SCAN-3c DEF2-TZVP FREQ
|  2> * xyzfile 0 1 vacuum_censo.xyz
|  3>
|  4>                          ****END OF INPUT****

CARTESIAN COORDINATES (ANGSTROEM)
---------------------------------
  C      0.000084   -1.812050   -0.163498
  C      0.000023   -0.431854    0.442368
  Cl    -1.483578    0.482133   -0.050643
  Cl     1.483358    0.482425   -0.050990
  H     -0.000199   -1.754098   -1.253627
  H      0.891393   -2.353290    0.165781
  H     -0.890899   -2.353558    0.166226
  H      0.000160   -0.441035    1.532848

 Total Charge           Charge          ....    0
 Multiplicity           Mult            ....    1
 Number of Electrons    NEL             ....   50
 Basis Dimension        Dim             ....  160

ORBITAL ENERGIES
----------------

  NO   OCC          E(Eh)            E(eV)
   0   2.0000    -101.191103     -2753.5499
   1   2.0000    -101.191098     -2753.5498
   2   2.0000     -10.168141      -276.6892
   3   2.0000     -10.056064      -273.6394
   4   2.0000      -9.367435      -254.9009
   5   2.0000      -9.367431      -254.9008
   6   2.0000      -7.112378      -193.5376
   7   2.0000      -7.112374      -193.5375
   8   2.0000      -7.102331      -193.2643
   9   2.0000      -7.102327      -193.2642
  10   2.0000      -7.101937      -193.2535
  11   2.0000      -7.101934      -193.2534
  12   2.0000      -0.865231       -23.5441
  13   2.0000      -0.781102       -21.2549
  14   2.0000      -0.718844       -19.5607
  15   2.0000      -0.588454       -16.0127
  16   2.0000      -0.465104       -12.6561
  17   2.0000      -0.444738       -12.1019
  18   2.0000      -0.415500       -11.3063
  19   2.0000      -0.369949       -10.0668
  20   2.0000      -0.369864       -10.0645
  21   2.0000      -0.302634        -8.2351
  22   2.0000      -0.294093        -8.0027
  23   2.0000      -0.278962        -7.5909
  24   2.0000      -0.277349        -7.5471
  25   0.0000      -0.039708        -1.0805
  26   0.0000      -0.003823        -0.1040
  27   0.0000       0.048908         1.3308
  28   0.0000       0.080224         2.1830
  29   0.0000       0.107358         2.9213

MULLIKEN ATOMIC CHARGES
-----------------------
   0 C :   -0.293493
   1 C :    0.064003
   2 Cl:   -0.134914
   3 Cl:   -0.134930
   4 H :    0.125327
   5 H :    0.121048
   6 H :    0.121044
   7 H :    0.131916
Sum of atomic charges:   -0.0000000

LOEWDIN ATOMIC CHARGES
----------------------
   0 C :   -0.336615
   1 C :   -0.733761
   2 Cl:    0.277617
   3 Cl:    0.277588
   4 H :    0.128948
   5 H :    0.130207
   6 H :    0.130208
   7 H :    0.125809

  Mayer bond orders larger than 0.100000
B(  0-C ,  1-C ) :   0.9968 B(  0-C ,  4-H ) :   0.9632 B(  0-C ,  5-H ) :   0.9523
B(  0-C ,  6-H ) :   0.9523 B(  1-C ,  2-Cl) :   1.0630 B(  1-C ,  3-Cl) :   1.0630
B(  1-C ,  7-H ) :   0.9600

Dispersion correction           -0.001889190
FINAL SINGLE POINT ENERGY      -998.964772460706

DIPOLE MOMENT
-------------

Method             : SCF
Type of density    : Electron Density
Multiplicity       :   1
Irrep              :   0
Energy             :  -998.9701497112903326 Eh
Relativity type    :
Basis              : AO
                                X                 Y                 Z
Electronic contribution:     -0.000713115       6.957524289      -0.415868658
Nuclear contribution   :      0.000786208      -7.773017441       0.705940385
                        -----------------------------------------
Total Dipole Moment    :      0.000073092      -0.815493151       0.290071727
                        -----------------------------------------
Magnitude (a.u.)       :      0.865546470
Magnitude (Debye)      :      2.200044287

VIBRATIONAL FREQUENCIES
-----------------------

Scaling factor for frequencies =  1.000000000  (already applied!)

     0:       0.00 cm**-1
     1:       0.00 cm**-1
     2:       0.00 cm**-1
     3:       0.00 cm**-1
     4:       0.00 cm**-1
     5:       0.00 cm**-1
     6:     268.80 cm**-1
     7:     280.86 cm**-1
     8:     322.99 cm**-1
     9:     406.27 cm**-1
    10:     625.76 cm**-1
    11:     630.23 cm**-1
    12:     981.28 cm**-1
    13:    1067.10 cm**-1
    14:    1096.04 cm**-1
    15:    1245.08 cm**-1
    16:    1298.34 cm**-1
    17:    1403.94 cm**-1
    18:    1472.21 cm**-1
    19:    1476.94 cm**-1
    20:    3026.04 cm**-1
    21:    3106.36 cm**-1
    22:    3110.13 cm**-1
    23:    3130.95 cm**-1

IR SPECTRUM
-----------

 Mode   freq       eps      Int      T**2         TX        TY        TZ
       cm**-1   L/(mol*cm) km/mol    a.u.
----------------------------------------------------------------------------
  6:    268.80   0.000133    0.67  0.000154  (-0.000003  0.012399 -0.000389)
  7:    280.86   0.000055    0.28  0.000061  (-0.007786 -0.000003  0.000001)
  8:    322.99   0.000451    2.28  0.000435  (-0.020866 -0.000005  0.000004)
  9:    406.27   0.001109    5.61  0.000852  (-0.000001 -0.028971 -0.003580)
 10:    625.76   0.026519  134.02  0.013225  ( 0.115000  0.000152 -0.000058)
 11:    630.23   0.002888   14.59  0.001430  ( 0.000449 -0.036055  0.011386)
 12:    981.28   0.003674   18.56  0.001168  ( 0.000006 -0.033483  0.006865)
 13:   1067.10   0.007385   37.32  0.002160  ( 0.046473  0.000005 -0.000005)
 14:   1096.04   0.000996    5.03  0.000284  (-0.000001 -0.016372 -0.003941)
 15:   1245.08   0.006766   34.20  0.001696  ( 0.041182  0.000009 -0.000008)
 16:   1298.34   0.002505   12.66  0.000602  (-0.000006  0.022573 -0.009624)
 17:   1403.94   0.002007   10.14  0.000446  (-0.000001  0.018541  0.010112)
 18:   1472.21   0.001772    8.95  0.000376  (-0.000005  0.003962 -0.018969)
 19:   1476.94   0.000354    1.79  0.000075  (-0.008646 -0.000001  0.000005)
 20:   3026.04   0.001415    7.15  0.000146  (-0.000000 -0.012077 -0.000196)
 21:   3106.36   0.000019    0.09  0.000002  (-0.000012  0.000929 -0.000999)
 22:   3110.13   0.001593    8.05  0.000160  ( 0.012643  0.000003 -0.000006)
 23:   3130.95   0.001352    6.83  0.000135  ( 0.000005 -0.004863  0.010543)

--------------------------
THERMOCHEMISTRY AT 298.15K
--------------------------

Temperature         ...   298.15 K
Pressure            ...     1.00 atm
Total Mass          ...    98.96 AMU
Quasi RRHO          ...     True
Cut-Off Frequency   ...     1.00 cm^-1

Throughout the following assumptions are being made:
  (1) The electronic state is orbitally nondegenerate
  (2) There are no thermally accessible electronically excited states
  (3) Hindered rotations indicated by low frequency modes are not
      treated as such but are treated as vibrations and this may
      cause some error
  (4) All equations used are the standard statistical mechanics
      equations for an ideal gas
  (5) All vibrations are strictly harmonic

freq.     268.80  E(vib)   ...       0.29
freq.     280.86  E(vib)   ...       0.28
freq.     322.99  E(vib)   ...       0.25
freq.     406.27  E(vib)   ...       0.19
freq.     625.76  E(vib)   ...       0.09
freq.     630.23  E(vib)   ...       0.09
freq.     981.28  E(vib)   ...       0.02
freq.    1067.10  E(vib)   ...       0.02
freq.    1096.04  E(vib)   ...       0.02
freq.    1245.08  E(vib)   ...       0.01
freq.    1298.34  E(vib)   ...       0.01
freq.    1403.94  E(vib)   ...       0.00
freq.    1472.21  E(vib)   ...       0.00
freq.    1476.94  E(vib)   ...       0.00
freq.    3026.04  E(vib)   ...       0.00
freq.    3106.36  E(vib)   ...       0.00
freq.    3110.13  E(vib)   ...       0.00
freq.    3130.95  E(vib)   ...       0.00

------------
INNER ENERGY
------------

The inner energy is: U= E(el) + E(ZPE) + E(vib) + E(rot) + E(trans)
    E(el)   - is the total energy from the electronic structure calculation
              = E(kin-el) + E(nuc-el) + E(el-el) + E(nuc-nuc)
    E(ZPE)  - the the zero temperature vibrational energy from the frequency calculation
    E(vib)  - the the finite temperature correction to E(ZPE) due to population
              of excited vibrational states
    E(rot)  - is the rotational thermal energy
    E(trans)- is the translational thermal energy

Summary of contributions to the inner energy U:
Electronic energy                ...   -998.96477246 Eh
Zero point energy                ...      0.05683870 Eh      35.67 kcal/mol
Thermal vibrational correction   ...      0.00202808 Eh       1.27 kcal/mol
Thermal rotational correction    ...      0.00141627 Eh       0.89 kcal/mol
Thermal translational correction ...      0.00141627 Eh       0.89 kcal/mol
-----------------------------------------------------------------------
Total thermal energy                   -998.90307314 Eh

Summary of corrections to the electronic energy:
(perhaps to be used in another calculation)
Total thermal correction                  0.00486062 Eh       3.05 kcal/mol
Non-thermal (ZPE) correction              0.05683870 Eh      35.67 kcal/mol
-----------------------------------------------------------------------
Total correction                          0.06169933 Eh      38.72 kcal/mol

--------
ENTHALPY
--------

The enthalpy is H = U + kB*T
                kB is Boltzmann's constant
Total thermal energy              ...   -998.90307314 Eh
Thermal Enthalpy correction       ...      0.00094421 Eh       0.59 kcal/mol
-----------------------------------------------------------------------
Total Enthalpy                    ...   -998.90212893 Eh

Note: Only C1 symmetry has been detected, increase convergence thresholds
      if your molecule has a higher symmetry. Symmetry factor of 1.0 is
      used for the rotational entropy correction.

Note: Rotational entropy computed according to Herzberg
Infrared and Raman Spectra, Chapter V,1, Van Nostrand Reinhold, 1945
Point Group:  C1, Symmetry Number:   1
Rotational constants in cm-1:     0.212060     0.102477     0.073206

Vibrational entropy computed according to the QRRHO of S. Grimme
Chem.Eur.J. 2012 18 9955 using a reference frequency of 100.0 cm-1

-------
ENTROPY
-------

The entropy contributions are T*S = T*(S(el)+S(vib)+S(rot)+S(trans))
     S(el)   - electronic entropy
     S(vib)  - vibrational entropy
     S(rot)  - rotational entropy
     S(trans)- translational entropy
The entropies will be listed as multiplied by the temperature to get
units of energy

Electronic entropy                ...      0.00000000 Eh      0.00 kcal/mol
Vibrational entropy               ...      0.00310394 Eh      1.95 kcal/mol
Rotational entropy                ...      0.01255272 Eh      7.88 kcal/mol
Translational entropy             ...      0.01885644 Eh     11.83 kcal/mol
-----------------------------------------------------------------------
Final entropy term                ...      0.03451309 Eh     21.66 kcal/mol

In case the symmetry of your molecule has not been determined correctly
or in case you have a reason to use a different symmetry number we print
out the resulting rotational entropy values for sn=1,12:

 non-linear molecules -----------------------------------
|  sn= 1 | S(rot)=       0.01255272 Eh      7.88 kcal/mol|
|  sn= 2 | S(rot)=       0.01189826 Eh      7.47 kcal/mol|
|  sn= 3 | S(rot)=       0.01151543 Eh      7.23 kcal/mol|
|  sn= 4 | S(rot)=       0.01124380 Eh      7.06 kcal/mol|
|  sn= 5 | S(rot)=       0.01103312 Eh      6.92 kcal/mol|
|  sn= 6 | S(rot)=       0.01086097 Eh      6.82 kcal/mol|
|  sn= 7 | S(rot)=       0.01071543 Eh      6.72 kcal/mol|
|  sn= 8 | S(rot)=       0.01058935 Eh      6.64 kcal/mol|
|  sn= 9 | S(rot)=       0.01047814 Eh      6.58 kcal/mol|
|  sn=10 | S(rot)=       0.01037866 Eh      6.51 kcal/mol|
|  sn=11 | S(rot)=       0.01028867 Eh      6.46 kcal/mol|
|  sn=12 | S(rot)=       0.01020652 Eh      6.40 kcal/mol|
 linear molecules ---------------------------------------
|  Dinfh | S(rot)=       0.00779435 Eh      4.89 kcal/mol|
|  Cinfv | S(rot)=       0.00844880 Eh      5.30 kcal/mol|
 --------------------------------------------------------

-------------------
GIBBS FREE ENERGY
-------------------

The Gibbs free energy is G = H - T*S

Total enthalpy                    ...   -998.90212893 Eh
Total entropy correction          ...     -0.03451309 Eh    -21.66 kcal/mol
-----------------------------------------------------------------------
Final Gibbs free energy         ...   -998.93664202 Eh

For completeness - the Gibbs free energy minus the electronic energy
G-E(el)                           ...      0.02813044 Eh     17.65 kcal/mol

                             ****ORCA TERMINATED NORMALLY****
TOTAL RUN TIME: 0 days 0 hours 2 minutes 4 seconds 213 msec
