                         Program Version 6.0.1  -  RELEASE   -
|  1> ! pbe def2-sv(p) def2/J RI DEFGRID1 loosescf d4 GCP(DFT/SV(P)) printgap
|  2> %output
|  3>     printlevel normal
|  4> end
|  5> * xyz 0 1
|  6> C -2.1319158882 -0.874830765 -0.3228742029
|  7> C -1.1918145349 -0.3310127649 0.7743534673
|  8> H -1.7749511924 -0.3652648712 1.7048913085
|  9> C -0.7651455452 1.1408408388 0.59268382
| 10> H -1.6332356221 1.7285498354 0.266051275
| 11> C 0.3854492472 1.3128358696 -0.4211447575
| 12> H 0.8096184074 2.3160608326 -0.2493691934
| 13> C 1.5085796671 0.2949540899 -0.1396332196
| 14> H 2.1357076571 0.2130719682 -1.0380224572
| 15> C 1.022375785 -1.1423236826 0.1963904706
| 16> H 1.8285836524 -1.6005543629 0.7860471109
| 17> O -0.0787205858 -1.1587275482 1.0654993297
| 18> O 0.8712889118 -1.9277864707 -0.9286892903
| 19> O 2.256350705 0.7179976566 0.9794648074
| 20> O -0.0390414516 1.210453942 -1.7670158782
| 21> O -0.3762381592 1.686921072 1.825274125
| 22> O -1.5850327793 -1.0142533685 -1.6090853467
| 23> H -3.0164855962 -0.2222046613 -0.3525687549
| 24> H -2.4483349664 -1.8787353064 -0.0293580408
| 25> H -0.0100602287 -1.7703373087 -1.3296169141
| 26> H 2.7399705692 1.5238745704 0.7642836558
| 27> H -0.5249278831 2.0074690218 -2.0074671751
| 28> H 0.3689586122 1.1630663783 2.1572562835
| 29> H -1.1482481916 -0.1821097935 -1.8748348529
| 30> *
| 31>
| 32>                          ****END OF INPUT****

CARTESIAN COORDINATES (ANGSTROEM)
---------------------------------
  C     -2.131916   -0.874831   -0.322874
  C     -1.191815   -0.331013    0.774353
  H     -1.774951   -0.365265    1.704891
  C     -0.765146    1.140841    0.592684
  H     -1.633236    1.728550    0.266051
  C      0.385449    1.312836   -0.421145
  H      0.809618    2.316061   -0.249369
  C      1.508580    0.294954   -0.139633
  H      2.135708    0.213072   -1.038022
  C      1.022376   -1.142324    0.196390
  H      1.828584   -1.600554    0.786047
  O     -0.078721   -1.158728    1.065499
  O      0.871289   -1.927786   -0.928689
  O      2.256351    0.717998    0.979465
  O     -0.039041    1.210454   -1.767016
  O     -0.376238    1.686921    1.825274
  O     -1.585033   -1.014253   -1.609085
  H     -3.016486   -0.222205   -0.352569
  H     -2.448335   -1.878735   -0.029358
  H     -0.010060   -1.770337   -1.329617
  H      2.739971    1.523875    0.764284
  H     -0.524928    2.007469   -2.007467
  H      0.368959    1.163066    2.157256
  H     -1.148248   -0.182110   -1.874835

 Total Charge           Charge          ....    0
 Multiplicity           Mult            ....    1
 Number of Electrons    NEL             ....   96
 Basis Dimension        Dim             ....  192

ORBITAL ENERGIES
----------------

  NO   OCC          E(Eh)            E(eV)
   0   2.0000     -18.803193      -511.6609
   1   2.0000     -18.773537      -510.8539
   2   2.0000     -18.765588      -510.6376
   3   2.0000     -18.762496      -510.5535
   4   2.0000     -18.751123      -510.2440
   5   2.0000     -18.728173      -509.6195
   6   2.0000      -9.977166      -271.4925
   7   2.0000      -9.965312      -271.1699
   8   2.0000      -9.955665      -270.9074
   9   2.0000      -9.950650      -270.7710
  10   2.0000      -9.949487      -270.7393
  11   2.0000      -9.942048      -270.5369
  12   2.0000      -0.984296       -26.7841
  13   2.0000      -0.968522       -26.3548
  14   2.0000      -0.948084       -25.7987
  15   2.0000      -0.934995       -25.4425
  16   2.0000      -0.931411       -25.3450
  17   2.0000      -0.894309       -24.3354
  18   2.0000      -0.710559       -19.3353
  19   2.0000      -0.695196       -18.9173
  20   2.0000      -0.628475       -17.1017
  21   2.0000      -0.599458       -16.3121
  22   2.0000      -0.584899       -15.9159
  23   2.0000      -0.531503       -14.4629
  24   2.0000      -0.501074       -13.6349
  25   2.0000      -0.495692       -13.4885
  26   2.0000      -0.479467       -13.0470
  27   2.0000      -0.474483       -12.9113
  28   2.0000      -0.446144       -12.1402
  29   2.0000      -0.434077       -11.8118
  30   2.0000      -0.426948       -11.6178
  31   2.0000      -0.421244       -11.4626
  32   2.0000      -0.400737       -10.9046
  33   2.0000      -0.384149       -10.4532
  34   2.0000      -0.371349       -10.1049
  35   2.0000      -0.350494        -9.5374
  36   2.0000      -0.337452        -9.1825
  37   2.0000      -0.325399        -8.8545
  38   2.0000      -0.311261        -8.4698
  39   2.0000      -0.301364        -8.2005
  40   2.0000      -0.292558        -7.9609
  41   2.0000      -0.277938        -7.5631
  42   2.0000      -0.268776        -7.3138
  43   2.0000      -0.257535        -7.0079
  44   2.0000      -0.244219        -6.6455
  45   2.0000      -0.222507        -6.0547
  46   2.0000      -0.208923        -5.6851
  47   2.0000      -0.207496        -5.6462
  48   0.0000      -0.013565        -0.3691
  49   0.0000       0.007874         0.2142
  50   0.0000       0.040096         1.0911
  51   0.0000       0.052756         1.4356
  52   0.0000       0.065761         1.7895

MULLIKEN ATOMIC CHARGES
-----------------------
   0 C :    0.034888
   1 C :    0.013737
   2 H :    0.086027
   3 C :    0.058174
   4 H :    0.056330
   5 C :    0.016543
   6 H :    0.066944
   7 C :    0.001123
   8 H :    0.088323
   9 C :    0.210751
  10 H :    0.073236
  11 O :   -0.303712
  12 O :   -0.407304
  13 O :   -0.411918
  14 O :   -0.410597
  15 O :   -0.423023
  16 O :   -0.443883
  17 H :    0.078743
  18 H :    0.102832
  19 H :    0.285330
  20 H :    0.306011
  21 H :    0.322698
  22 H :    0.303861
  23 H :    0.294889
Sum of atomic charges:    0.0000000

LOEWDIN ATOMIC CHARGES
----------------------
   0 C :   -0.137440
   1 C :   -0.083123
   2 H :    0.128909
   3 C :   -0.077969
   4 H :    0.108902
   5 C :   -0.085884
   6 H :    0.105324
   7 C :   -0.087604
   8 H :    0.115245
   9 C :   -0.002834
  10 H :    0.112405
  11 O :   -0.137151
  12 O :   -0.325632
  13 O :   -0.306242
  14 O :   -0.298977
  15 O :   -0.314794
  16 O :   -0.333500
  17 H :    0.104662
  18 H :    0.122349
  19 H :    0.265710
  20 H :    0.288407
  21 H :    0.299205
  22 H :    0.276409
  23 H :    0.263621

  Mayer bond orders larger than 0.100000
B(  0-C ,  1-C ) :   1.0268 B(  0-C , 16-O ) :   1.0499 B(  0-C , 17-H ) :   0.9123
B(  0-C , 18-H ) :   0.9158 B(  1-C ,  2-H ) :   0.8806 B(  1-C ,  3-C ) :   0.9950
B(  1-C , 11-O ) :   1.0172 B(  3-C ,  4-H ) :   0.8941 B(  3-C ,  5-C ) :   0.9562
B(  3-C , 15-O ) :   1.0586 B(  5-C ,  6-H ) :   0.8998 B(  5-C ,  7-C ) :   0.9748
B(  5-C , 14-O ) :   0.9945 B(  7-C ,  8-H ) :   0.8932 B(  7-C ,  9-C ) :   0.9654
B(  7-C , 13-O ) :   1.0336 B(  9-C , 10-H ) :   0.9005 B(  9-C , 11-O ) :   1.0352
B(  9-C , 12-O ) :   1.1718 B( 12-O , 19-H ) :   0.7636 B( 13-O , 20-H ) :   0.8417
B( 14-O , 21-H ) :   0.8340 B( 14-O , 23-H ) :   0.1563 B( 15-O , 22-H ) :   0.8199
B( 16-O , 19-H ) :   0.1708 B( 16-O , 23-H ) :   0.7613

Dispersion correction           -0.026585705
FINAL SINGLE POINT ENERGY      -685.701473531066

DIPOLE MOMENT
-------------

Method             : SCF
Type of density    : Electron Density
Multiplicity       :   1
Irrep              :   0
Energy             :  -685.8373476355177445 Eh
Relativity type    :
Basis              : AO
                                X                 Y                 Z
Electronic contribution:      2.312203481      -0.998612895       0.728407612
Nuclear contribution   :     -2.492573906       2.744355413      -1.134782147
                        -----------------------------------------
Total Dipole Moment    :     -0.180370425       1.745742518      -0.406374535
                        -----------------------------------------
Magnitude (a.u.)       :      1.801469037
Magnitude (Debye)      :      4.578970394

Rotational constants in cm-1:             0.039341             0.031316             0.027805
Rotational constants in MHz :          1179.412884           938.835918           833.580115

                             ****ORCA TERMINATED NORMALLY****
TOTAL RUN TIME: 0 days 0 hours 0 minutes 9 seconds 128 msec
