                         Program Version 6.0.1  -  RELEASE   -
|  1> ! pbe def2-sv(p) def2/J RI DEFGRID1 loosescf d4 GCP(DFT/SV(P)) printgap
|  2> %output
|  3>     printlevel normal
|  4> end
|  5> * xyz 0 1
|  6> C 1.9450354303 0.0001061207 0.7705456249
|  7> N 1.1279601215 -1.51008e-05 -0.4242025396
|  8> C 0.3019903205 -1.1858002946 -0.5841047613
|  9> C -0.9486282351 -1.164998692 0.3051779729
| 10> O -1.7154743364 -1.41e-08 0.0798389347
| 11> C -0.9486846222 1.1650140622 0.3052274782
| 12> C 0.3018228351 1.1856794276 -0.5842055035
| 13> H 1.3824965026 0.000535013 1.714448254
| 14> H 2.5821240759 0.8837966646 0.7513602741
| 15> H 2.5820276499 -0.8837514799 0.7518211181
| 16> H -0.0145813388 -1.2192808936 -1.631560224
| 17> H 0.9009377682 -2.0723129439 -0.369405609
| 18> H -1.6026400125 -2.006817737 0.0721584895
| 19> H -0.6607353017 -1.2216889084 1.3669028819
| 20> H -1.6027444224 2.0068523025 0.072381863
| 21> H -0.6606493045 1.2215757137 1.3669268398
| 22> H -0.0149010313 1.2190159683 -1.6316244491
| 23> H 0.9006739754 2.0722789437 -0.3696760547
| 24> *
| 25>
| 26>                          ****END OF INPUT****

CARTESIAN COORDINATES (ANGSTROEM)
---------------------------------
  C      1.945035    0.000106    0.770546
  N      1.127960   -0.000015   -0.424203
  C      0.301990   -1.185800   -0.584105
  C     -0.948628   -1.164999    0.305178
  O     -1.715474   -0.000000    0.079839
  C     -0.948685    1.165014    0.305227
  C      0.301823    1.185679   -0.584206
  H      1.382497    0.000535    1.714448
  H      2.582124    0.883797    0.751360
  H      2.582028   -0.883751    0.751821
  H     -0.014581   -1.219281   -1.631560
  H      0.900938   -2.072313   -0.369406
  H     -1.602640   -2.006818    0.072158
  H     -0.660735   -1.221689    1.366903
  H     -1.602744    2.006852    0.072382
  H     -0.660649    1.221576    1.366927
  H     -0.014901    1.219016   -1.631624
  H      0.900674    2.072279   -0.369676

 Total Charge           Charge          ....    0
 Multiplicity           Mult            ....    1
 Number of Electrons    NEL             ....   56
 Basis Dimension        Dim             ....  120

ORBITAL ENERGIES
----------------

  NO   OCC          E(Eh)            E(eV)
   0   2.0000     -18.751283      -510.2484
   1   2.0000     -13.985320      -380.5599
   2   2.0000      -9.926851      -270.1234
   3   2.0000      -9.926843      -270.1231
   4   2.0000      -9.908512      -269.6243
   5   2.0000      -9.908507      -269.6242
   6   2.0000      -9.903620      -269.4912
   7   2.0000      -0.940000       -25.5787
   8   2.0000      -0.837516       -22.7900
   9   2.0000      -0.691914       -18.8279
  10   2.0000      -0.648319       -17.6417
  11   2.0000      -0.587564       -15.9884
  12   2.0000      -0.576491       -15.6871
  13   2.0000      -0.498639       -13.5687
  14   2.0000      -0.448519       -12.2048
  15   2.0000      -0.427521       -11.6334
  16   2.0000      -0.425270       -11.5722
  17   2.0000      -0.413665       -11.2564
  18   2.0000      -0.402106       -10.9419
  19   2.0000      -0.373732       -10.1698
  20   2.0000      -0.349476        -9.5097
  21   2.0000      -0.337570        -9.1857
  22   2.0000      -0.323243        -8.7959
  23   2.0000      -0.317000        -8.6260
  24   2.0000      -0.302665        -8.2359
  25   2.0000      -0.265078        -7.2131
  26   2.0000      -0.222306        -6.0493
  27   2.0000      -0.156566        -4.2604
  28   0.0000       0.031123         0.8469
  29   0.0000       0.057245         1.5577
  30   0.0000       0.071767         1.9529
  31   0.0000       0.078529         2.1369
  32   0.0000       0.085084         2.3152

MULLIKEN ATOMIC CHARGES
-----------------------
   0 C :   -0.181144
   1 N :   -0.289929
   2 C :   -0.076644
   3 C :    0.007925
   4 O :   -0.330111
   5 C :    0.007938
   6 C :   -0.076682
   7 H :    0.083620
   8 H :    0.103007
   9 H :    0.103031
  10 H :    0.084102
  11 H :    0.083428
  12 H :    0.091035
  13 H :    0.065921
  14 H :    0.091046
  15 H :    0.065926
  16 H :    0.084118
  17 H :    0.083412
Sum of atomic charges:   -0.0000000

LOEWDIN ATOMIC CHARGES
----------------------
   0 C :   -0.261801
   1 N :   -0.149294
   2 C :   -0.177164
   3 C :   -0.130724
   4 O :   -0.170595
   5 C :   -0.130724
   6 C :   -0.177156
   7 H :    0.086622
   8 H :    0.114933
   9 H :    0.114939
  10 H :    0.114673
  11 H :    0.115130
  12 H :    0.114692
  13 H :    0.095985
  14 H :    0.114695
  15 H :    0.095985
  16 H :    0.114679
  17 H :    0.115125

  Mayer bond orders larger than 0.100000
B(  0-C ,  1-N ) :   1.0463 B(  0-C ,  7-H ) :   0.9244 B(  0-C ,  8-H ) :   0.9541
B(  0-C ,  9-H ) :   0.9541 B(  1-N ,  2-C ) :   1.0587 B(  1-N ,  6-C ) :   1.0587
B(  2-C ,  3-C ) :   1.1065 B(  2-C , 10-H ) :   0.9080 B(  2-C , 11-H ) :   0.9176
B(  3-C ,  4-O ) :   1.0240 B(  3-C , 12-H ) :   0.9267 B(  3-C , 13-H ) :   0.8992
B(  4-O ,  5-C ) :   1.0240 B(  5-C ,  6-C ) :   1.1065 B(  5-C , 14-H ) :   0.9267
B(  5-C , 15-H ) :   0.8991 B(  6-C , 16-H ) :   0.9080 B(  6-C , 17-H ) :   0.9176

Dispersion correction           -0.015744947
FINAL SINGLE POINT ENERGY      -326.341740995830

DIPOLE MOMENT
-------------

Method             : SCF
Type of density    : Electron Density
Multiplicity       :   1
Irrep              :   0
Energy             :  -326.4147648681649230 Eh
Relativity type    :
Basis              : AO
                                X                 Y                 Z
Electronic contribution:     -3.190145008      -0.000161950      -1.689497141
Nuclear contribution   :      3.538270122       0.000190030       1.963130978
                        -----------------------------------------
Total Dipole Moment    :      0.348125113       0.000028080       0.273633838
                        -----------------------------------------
Magnitude (a.u.)       :      0.442794052
Magnitude (Debye)      :      1.125493035

Rotational constants in cm-1:             0.135484             0.088295             0.067983
Rotational constants in MHz :          4061.717099          2647.027282          2038.089390

                             ****ORCA TERMINATED NORMALLY****
TOTAL RUN TIME: 0 days 0 hours 0 minutes 22 seconds 860 msec
