                         Program Version 6.0.1  -  RELEASE   -
|  1> ! pbe def2-sv(p) def2/J RI DEFGRID1 loosescf d4 GCP(DFT/SV(P)) printgap
|  2> %output
|  3>     printlevel normal
|  4> end
|  5> * xyz 0 1
|  6> C -5.9089e-06 -2.0098e-06 -2.6559e-06
|  7> H -1.0400797322 0.2814849306 -0.100665805
|  8> H 0.4416977546 0.5408368296 0.8267577207
|  9> H 0.0694131545 -1.063708484 0.1865932446
| 10> H 0.5290392384 0.2414106746 -0.9126535102
| 11> *
| 12>
| 13>                          ****END OF INPUT****

CARTESIAN COORDINATES (ANGSTROEM)
---------------------------------
  C     -0.000006   -0.000002   -0.000003
  H     -1.040080    0.281485   -0.100666
  H      0.441698    0.540837    0.826758
  H      0.069413   -1.063708    0.186593
  H      0.529039    0.241411   -0.912654

 Total Charge           Charge          ....    0
 Multiplicity           Mult            ....    1
 Number of Electrons    NEL             ....   10
 Basis Dimension        Dim             ....   22

ORBITAL ENERGIES
----------------

  NO   OCC          E(Eh)            E(eV)
   0   2.0000      -9.863371      -268.3960
   1   2.0000      -0.619034       -16.8448
   2   2.0000      -0.345174        -9.3927
   3   2.0000      -0.345171        -9.3926
   4   2.0000      -0.345161        -9.3923
   5   0.0000       0.058224         1.5844
   6   0.0000       0.125503         3.4151
   7   0.0000       0.125514         3.4154
   8   0.0000       0.125522         3.4156
   9   0.0000       0.390997        10.6396

MULLIKEN ATOMIC CHARGES
-----------------------
   0 C :   -0.484108
   1 H :    0.121042
   2 H :    0.121038
   3 H :    0.121015
   4 H :    0.121013
Sum of atomic charges:    0.0000000

LOEWDIN ATOMIC CHARGES
----------------------
   0 C :   -0.495988
   1 H :    0.124000
   2 H :    0.124001
   3 H :    0.123994
   4 H :    0.123993

  Mayer bond orders larger than 0.100000
B(  0-C ,  1-H ) :   0.9839 B(  0-C ,  2-H ) :   0.9839 B(  0-C ,  3-H ) :   0.9839
B(  0-C ,  4-H ) :   0.9839

Dispersion correction           -0.000872833
FINAL SINGLE POINT ENERGY       -40.387510503447

DIPOLE MOMENT
-------------

Method             : SCF
Type of density    : Electron Density
Multiplicity       :   1
Irrep              :   0
Energy             :   -40.4033873716769421 Eh
Relativity type    :
Basis              : AO
                                X                 Y                 Z
Electronic contribution:     -0.000048897      -0.000016517      -0.000010422
Nuclear contribution   :      0.000066060       0.000022469       0.000029693
                        -----------------------------------------
Total Dipole Moment    :      0.000017163       0.000005952       0.000019270
                        -----------------------------------------
Magnitude (a.u.)       :      0.000026483
Magnitude (Debye)      :      0.000067314

Rotational constants in cm-1:             5.355217             5.355097             5.354964
Rotational constants in MHz :        160545.380030        160541.762837        160537.768979

                             ****ORCA TERMINATED NORMALLY****
TOTAL RUN TIME: 0 days 0 hours 0 minutes 2 seconds 818 msec
