                         Program Version 6.0.1  -  RELEASE   -
|  1> ! r2scan-3c def2/J RI DEFGRID2 scfconv6 printgap
|  2> %output
|  3>     printlevel normal
|  4> end
|  5> * xyz 0 1
|  6> C -2.7575716995 -0.7845677201 0.0004864528
|  7> O -1.794817439 0.2380886527 -0.0004576896
|  8> C -0.4637115754 -0.1233360376 -0.0002289271
|  9> C 0.0225412495 -1.4178853591 -0.0001998033
| 10> C 1.392395211 -1.6427347003 6.0437e-06
| 11> C 2.2749542572 -0.5813183904 0.0001175646
| 12> C 1.7970261551 0.7191221103 0.0001153535
| 13> C 0.4340227446 0.9581557562 -1.63019e-05
| 14> O -0.0327780741 2.23462034 9.55357e-05
| 15> H -2.6750804177 -1.410943703 0.8942897702
| 16> H -2.6761920828 -1.4116230143 -0.893076896
| 17> H -3.7233330599 -0.2811672842 0.0008952239
| 18> H -0.6518831272 -2.2596474747 -0.0002510542
| 19> H 1.759615887 -2.6576011884 6.50108e-05
| 20> H 3.3392051014 -0.7591065885 0.0002082131
| 21> H 2.4663964383 1.5641876282 0.0002883143
| 22> H -0.9989040315 2.1960683503 -1.10281e-05
| 23> *
| 24>
| 25>                          ****END OF INPUT****

CARTESIAN COORDINATES (ANGSTROEM)
---------------------------------
  C     -2.757572   -0.784568    0.000486
  O     -1.794817    0.238089   -0.000458
  C     -0.463712   -0.123336   -0.000229
  C      0.022541   -1.417885   -0.000200
  C      1.392395   -1.642735    0.000006
  C      2.274954   -0.581318    0.000118
  C      1.797026    0.719122    0.000115
  C      0.434023    0.958156   -0.000016
  O     -0.032778    2.234620    0.000096
  H     -2.675080   -1.410944    0.894290
  H     -2.676192   -1.411623   -0.893077
  H     -3.723333   -0.281167    0.000895
  H     -0.651883   -2.259647   -0.000251
  H      1.759616   -2.657601    0.000065
  H      3.339205   -0.759107    0.000208
  H      2.466396    1.564188    0.000288
  H     -0.998904    2.196068   -0.000011

 Total Charge           Charge          ....    0
 Multiplicity           Mult            ....    1
 Number of Electrons    NEL             ....   66
 Basis Dimension        Dim             ....  221

ORBITAL ENERGIES
----------------

  NO   OCC          E(Eh)            E(eV)
   0   2.0000     -18.998443      -516.9739
   1   2.0000     -18.978699      -516.4367
   2   2.0000     -10.095419      -274.7103
   3   2.0000     -10.094931      -274.6970
   4   2.0000     -10.092284      -274.6250
   5   2.0000     -10.036145      -273.0974
   6   2.0000     -10.028356      -272.8854
   7   2.0000     -10.028016      -272.8762
   8   2.0000     -10.027680      -272.8670
   9   2.0000      -1.049594       -28.5609
  10   2.0000      -1.018391       -27.7118
  11   2.0000      -0.820227       -22.3195
  12   2.0000      -0.728076       -19.8120
  13   2.0000      -0.713817       -19.4239
  14   2.0000      -0.670143       -18.2355
  15   2.0000      -0.578751       -15.7486
  16   2.0000      -0.577065       -15.7027
  17   2.0000      -0.525214       -14.2918
  18   2.0000      -0.493485       -13.4284
  19   2.0000      -0.458865       -12.4864
  20   2.0000      -0.447939       -12.1890
  21   2.0000      -0.428550       -11.6614
  22   2.0000      -0.416278       -11.3275
  23   2.0000      -0.396387       -10.7862
  24   2.0000      -0.382615       -10.4115
  25   2.0000      -0.359167        -9.7734
  26   2.0000      -0.349456        -9.5092
  27   2.0000      -0.317501        -8.6396
  28   2.0000      -0.316961        -8.6249
  29   2.0000      -0.308862        -8.4046
  30   2.0000      -0.298375        -8.1192
  31   2.0000      -0.223422        -6.0796
  32   2.0000      -0.191428        -5.2090
  33   0.0000      -0.022750        -0.6191
  34   0.0000      -0.011465        -0.3120
  35   0.0000       0.039125         1.0646
  36   0.0000       0.083040         2.2596
  37   0.0000       0.102961         2.8017

MULLIKEN ATOMIC CHARGES
-----------------------
   0 C :   -0.329634
   1 O :   -0.212304
   2 C :    0.174461
   3 C :   -0.235300
   4 C :   -0.190434
   5 C :   -0.140610
   6 C :   -0.276727
   7 C :    0.212709
   8 O :   -0.385636
   9 H :    0.154628
  10 H :    0.154607
  11 H :    0.153337
  12 H :    0.147069
  13 H :    0.145766
  14 H :    0.147561
  15 H :    0.159427
  16 H :    0.321078
Sum of atomic charges:   -0.0000000

LOEWDIN ATOMIC CHARGES
----------------------
   0 C :   -0.049473
   1 O :   -0.710859
   2 C :    0.187770
   3 C :   -0.166019
   4 C :   -0.182015
   5 C :   -0.172555
   6 C :   -0.141460
   7 C :    0.205937
   8 O :   -0.468664
   9 H :    0.166368
  10 H :    0.166355
  11 H :    0.180236
  12 H :    0.175227
  13 H :    0.166914
  14 H :    0.167624
  15 H :    0.180450
  16 H :    0.294164

  Mayer bond orders larger than 0.100000
B(  0-C ,  1-O ) :   0.8632 B(  0-C ,  9-H ) :   0.9602 B(  0-C , 10-H ) :   0.9602
B(  0-C , 11-H ) :   0.9677 B(  1-O ,  2-C ) :   1.0506 B(  2-C ,  3-C ) :   1.3333
B(  2-C ,  7-C ) :   1.4141 B(  3-C ,  4-C ) :   1.3685 B(  3-C , 12-H ) :   0.9250
B(  4-C ,  5-C ) :   1.4531 B(  4-C , 13-H ) :   0.9488 B(  5-C ,  6-C ) :   1.3625
B(  5-C , 14-H ) :   0.9467 B(  6-C ,  7-C ) :   1.3858 B(  6-C , 15-H ) :   0.9471
B(  7-C ,  8-O ) :   0.9818 B(  8-O , 16-H ) :   0.8519

Dispersion correction           -0.005395364
FINAL SINGLE POINT ENERGY      -421.903401898588

DIPOLE MOMENT
-------------

Method             : SCF
Type of density    : Electron Density
Multiplicity       :   1
Irrep              :   0
Energy             :  -421.9066912682204702 Eh
Relativity type    :
Basis              : AO
                                X                 Y                 Z
Electronic contribution:      2.178139606       4.050095240      -0.001827061
Nuclear contribution   :     -2.991855976      -4.672829058       0.002253331
                        -----------------------------------------
Total Dipole Moment    :     -0.813716370      -0.622733817       0.000426270
                        -----------------------------------------
Magnitude (a.u.)       :      1.024661857
Magnitude (Debye)      :      2.604483458

Rotational constants in cm-1:             0.087750             0.052043             0.032873
Rotational constants in MHz :          2630.667658          1560.197452           985.508886

                             ****ORCA TERMINATED NORMALLY****
TOTAL RUN TIME: 0 days 0 hours 0 minutes 32 seconds 916 msec
