                         Program Version 6.0.1  -  RELEASE   -
|  1> ! pbe def2-sv(p) def2/J RI DEFGRID1 loosescf d4 GCP(DFT/SV(P)) printgap
|  2> %output
|  3>     printlevel normal
|  4> end
|  5> * xyz 0 1
|  6> C -2.2161714936 -1.032439034 -0.4258259993
|  7> C -1.1903865363 -0.2157214727 0.3821817466
|  8> H -1.7026680177 0.1544779642 1.2827304208
|  9> C -0.6338808207 0.9820984778 -0.3966178339
| 10> H -0.5241786381 0.7479236691 -1.4633253336
| 11> C 0.7437264447 1.3414171283 0.1804049534
| 12> H 0.6487004967 1.4839897726 1.2711236752
| 13> C 1.7198061178 0.184692069 -0.0756699549
| 14> H 2.032227526 0.2356089449 -1.1326880913
| 15> C 1.0292456743 -1.1781384642 0.1694799678
| 16> H 1.6775825121 -1.7767291347 0.8183782423
| 17> O -0.1635378187 -1.0553434295 0.9004224489
| 18> O 0.8757494259 -1.9162806408 -0.9990406912
| 19> O 2.8394845937 0.2638000834 0.7609520906
| 20> O 1.2544051418 2.5082613675 -0.4140174435
| 21> O -1.4928145468 2.0943539224 -0.3724305891
| 22> O -2.7610535164 -2.0573412579 0.3525128561
| 23> H -1.7439165877 -1.4440335769 -1.3304649553
| 24> H -3.041299104 -0.3815843586 -0.7249828475
| 25> H 0.4378852814 -1.3928175233 -1.6812321637
| 26> H 3.2284176879 1.1412976089 0.6552908474
| 27> H 0.5030771483 3.0730804585 -0.6442281677
| 28> H -1.7310960367 2.2954656465 0.5416764617
| 29> H -2.0244877002 -2.5324565273 0.7608821972
| 30> *
| 31>
| 32>                          ****END OF INPUT****

CARTESIAN COORDINATES (ANGSTROEM)
---------------------------------
  C     -2.216171   -1.032439   -0.425826
  C     -1.190387   -0.215721    0.382182
  H     -1.702668    0.154478    1.282730
  C     -0.633881    0.982098   -0.396618
  H     -0.524179    0.747924   -1.463325
  C      0.743726    1.341417    0.180405
  H      0.648700    1.483990    1.271124
  C      1.719806    0.184692   -0.075670
  H      2.032228    0.235609   -1.132688
  C      1.029246   -1.178138    0.169480
  H      1.677583   -1.776729    0.818378
  O     -0.163538   -1.055343    0.900422
  O      0.875749   -1.916281   -0.999041
  O      2.839485    0.263800    0.760952
  O      1.254405    2.508261   -0.414017
  O     -1.492815    2.094354   -0.372431
  O     -2.761054   -2.057341    0.352513
  H     -1.743917   -1.444034   -1.330465
  H     -3.041299   -0.381584   -0.724983
  H      0.437885   -1.392818   -1.681232
  H      3.228418    1.141298    0.655291
  H      0.503077    3.073080   -0.644228
  H     -1.731096    2.295466    0.541676
  H     -2.024488   -2.532457    0.760882

 Total Charge           Charge          ....    0
 Multiplicity           Mult            ....    1
 Number of Electrons    NEL             ....   96
 Basis Dimension        Dim             ....  192

ORBITAL ENERGIES
----------------

  NO   OCC          E(Eh)            E(eV)
   0   2.0000     -18.785701      -511.1849
   1   2.0000     -18.781382      -511.0674
   2   2.0000     -18.768879      -510.7272
   3   2.0000     -18.760552      -510.5006
   4   2.0000     -18.757887      -510.4280
   5   2.0000     -18.747236      -510.1382
   6   2.0000      -9.992141      -271.9000
   7   2.0000      -9.966230      -271.1949
   8   2.0000      -9.959252      -271.0050
   9   2.0000      -9.951013      -270.7808
  10   2.0000      -9.949922      -270.7511
  11   2.0000      -9.939627      -270.4710
  12   2.0000      -0.992090       -26.9962
  13   2.0000      -0.968724       -26.3603
  14   2.0000      -0.944656       -25.7054
  15   2.0000      -0.932417       -25.3723
  16   2.0000      -0.926777       -25.2189
  17   2.0000      -0.918084       -24.9823
  18   2.0000      -0.720096       -19.5948
  19   2.0000      -0.699639       -19.0382
  20   2.0000      -0.626829       -17.0569
  21   2.0000      -0.606091       -16.4926
  22   2.0000      -0.573271       -15.5995
  23   2.0000      -0.546885       -14.8815
  24   2.0000      -0.513319       -13.9681
  25   2.0000      -0.500682       -13.6242
  26   2.0000      -0.488027       -13.2799
  27   2.0000      -0.468637       -12.7523
  28   2.0000      -0.440403       -11.9840
  29   2.0000      -0.433288       -11.7904
  30   2.0000      -0.425781       -11.5861
  31   2.0000      -0.417865       -11.3707
  32   2.0000      -0.407893       -11.0993
  33   2.0000      -0.389635       -10.6025
  34   2.0000      -0.374922       -10.2021
  35   2.0000      -0.352399        -9.5893
  36   2.0000      -0.342631        -9.3235
  37   2.0000      -0.320579        -8.7234
  38   2.0000      -0.313202        -8.5227
  39   2.0000      -0.308319        -8.3898
  40   2.0000      -0.296248        -8.0613
  41   2.0000      -0.281022        -7.6470
  42   2.0000      -0.261329        -7.1111
  43   2.0000      -0.254806        -6.9336
  44   2.0000      -0.247041        -6.7223
  45   2.0000      -0.228063        -6.2059
  46   2.0000      -0.225197        -6.1279
  47   2.0000      -0.210816        -5.7366
  48   0.0000      -0.005079        -0.1382
  49   0.0000       0.009839         0.2677
  50   0.0000       0.023840         0.6487
  51   0.0000       0.039581         1.0771
  52   0.0000       0.060942         1.6583

MULLIKEN ATOMIC CHARGES
-----------------------
   0 C :    0.096111
   1 C :    0.013519
   2 H :    0.062703
   3 C :   -0.032042
   4 H :    0.055859
   5 C :    0.065054
   6 H :    0.049597
   7 C :    0.045870
   8 H :    0.062318
   9 C :    0.205991
  10 H :    0.087869
  11 O :   -0.312498
  12 O :   -0.397369
  13 O :   -0.408840
  14 O :   -0.418907
  15 O :   -0.409522
  16 O :   -0.427317
  17 H :    0.049476
  18 H :    0.089155
  19 H :    0.301748
  20 H :    0.310730
  21 H :    0.302307
  22 H :    0.305729
  23 H :    0.302460
Sum of atomic charges:   -0.0000000

LOEWDIN ATOMIC CHARGES
----------------------
   0 C :   -0.131703
   1 C :   -0.082296
   2 H :    0.115206
   3 C :   -0.087138
   4 H :    0.109086
   5 C :   -0.088218
   6 H :    0.103201
   7 C :   -0.080037
   8 H :    0.104184
   9 C :    0.002279
  10 H :    0.123430
  11 O :   -0.142144
  12 O :   -0.297909
  13 O :   -0.311319
  14 O :   -0.328089
  15 O :   -0.301755
  16 O :   -0.330554
  17 H :    0.089758
  18 H :    0.118035
  19 H :    0.272671
  20 H :    0.291790
  21 H :    0.280609
  22 H :    0.288834
  23 H :    0.282082

  Mayer bond orders larger than 0.100000
B(  0-C ,  1-C ) :   1.0633 B(  0-C , 16-O ) :   1.0885 B(  0-C , 17-H ) :   0.8932
B(  0-C , 18-H ) :   0.9118 B(  1-C ,  2-H ) :   0.8725 B(  1-C ,  3-C ) :   0.9579
B(  1-C , 11-O ) :   0.9893 B(  3-C ,  4-H ) :   0.8757 B(  3-C ,  5-C ) :   1.0113
B(  3-C , 15-O ) :   1.0192 B(  5-C ,  6-H ) :   0.8517 B(  5-C ,  7-C ) :   1.0221
B(  5-C , 14-O ) :   1.1014 B(  7-C ,  8-H ) :   0.8895 B(  7-C ,  9-C ) :   0.9841
B(  7-C , 13-O ) :   1.0883 B(  9-C , 10-H ) :   0.8899 B(  9-C , 11-O ) :   1.0484
B(  9-C , 12-O ) :   1.0995 B( 12-O , 19-H ) :   0.8297 B( 13-O , 20-H ) :   0.8430
B( 14-O , 21-H ) :   0.8224 B( 15-O , 22-H ) :   0.8428 B( 16-O , 23-H ) :   0.8367

Dispersion correction           -0.024497320
FINAL SINGLE POINT ENERGY      -685.689944081990

DIPOLE MOMENT
-------------

Method             : SCF
Type of density    : Electron Density
Multiplicity       :   1
Irrep              :   0
Energy             :  -685.8211369347925483 Eh
Relativity type    :
Basis              : AO
                                X                 Y                 Z
Electronic contribution:      1.962095158      -0.415941583       1.429891155
Nuclear contribution   :     -2.093090563       1.502625933      -1.541632199
                        -----------------------------------------
Total Dipole Moment    :     -0.130995405       1.086684351      -0.111741044
                        -----------------------------------------
Magnitude (a.u.)       :      1.100240308
Magnitude (Debye)      :      2.796588615

Rotational constants in cm-1:             0.041743             0.026340             0.018394
Rotational constants in MHz :          1251.411327           789.660116           551.441874

                             ****ORCA TERMINATED NORMALLY****
TOTAL RUN TIME: 0 days 0 hours 0 minutes 8 seconds 788 msec
