                         Program Version 6.0.0  -   RELEASE  -
|  1> ! r2SCAN-3c DEF2-TZVP FREQ
|  2> * xyzfile 0 1 censo.xyz
|  3>
|  4>                          ****END OF INPUT****

CARTESIAN COORDINATES (ANGSTROEM)
---------------------------------
  C     -0.794163   -0.000137    0.000673
  C      0.793864    0.000218   -0.000425
  Cl     1.395039   -1.472100    0.814745
  Cl     1.393563    0.029981   -1.683308
  Cl     1.394588    1.442757    0.866563
  Cl    -1.393777   -0.029871    1.683615
  Cl    -1.394351   -1.442679   -0.866777
  Cl    -1.394868    1.472162   -0.814894

 Total Charge           Charge          ....    0
 Multiplicity           Mult            ....    1
 Number of Electrons    NEL             ....  114
 Basis Dimension        Dim             ....  284

ORBITAL ENERGIES
----------------

  NO   OCC          E(Eh)            E(eV)
   0   2.0000    -101.224418     -2754.4564
   1   2.0000    -101.224374     -2754.4552
   2   2.0000    -101.224359     -2754.4549
   3   2.0000    -101.224350     -2754.4546
   4   2.0000    -101.224342     -2754.4544
   5   2.0000    -101.224330     -2754.4540
   6   2.0000     -10.258229      -279.1406
   7   2.0000     -10.258161      -279.1387
   8   2.0000      -9.400521      -255.8012
   9   2.0000      -9.400480      -255.8001
  10   2.0000      -9.400464      -255.7996
  11   2.0000      -9.400454      -255.7994
  12   2.0000      -9.400447      -255.7992
  13   2.0000      -9.400435      -255.7988
  14   2.0000      -7.146236      -194.4590
  15   2.0000      -7.146195      -194.4578
  16   2.0000      -7.146176      -194.4573
  17   2.0000      -7.146167      -194.4571
  18   2.0000      -7.146159      -194.4569
  19   2.0000      -7.146147      -194.4566
  20   2.0000      -7.134864      -194.1495
  21   2.0000      -7.134836      -194.1488
  22   2.0000      -7.134822      -194.1484
  23   2.0000      -7.134807      -194.1480
  24   2.0000      -7.134798      -194.1477
  25   2.0000      -7.134795      -194.1476
  26   2.0000      -7.134792      -194.1476
  27   2.0000      -7.134780      -194.1472
  28   2.0000      -7.134779      -194.1472
  29   2.0000      -7.134771      -194.1470
  30   2.0000      -7.134763      -194.1468
  31   2.0000      -7.134751      -194.1464
  32   2.0000      -0.954069       -25.9615
  33   2.0000      -0.892737       -24.2926
  34   2.0000      -0.825982       -22.4761
  35   2.0000      -0.825935       -22.4748
  36   2.0000      -0.807101       -21.9623
  37   2.0000      -0.807052       -21.9610
  38   2.0000      -0.677915       -18.4470
  39   2.0000      -0.573677       -15.6105
  40   2.0000      -0.496865       -13.5204
  41   2.0000      -0.492261       -13.3951
  42   2.0000      -0.492236       -13.3944
  43   2.0000      -0.444724       -12.1016
  44   2.0000      -0.444699       -12.1009
  45   2.0000      -0.353723        -9.6253
  46   2.0000      -0.353707        -9.6249
  47   2.0000      -0.336650        -9.1607
  48   2.0000      -0.330661        -8.9977
  49   2.0000      -0.330643        -8.9973
  50   2.0000      -0.326156        -8.8752
  51   2.0000      -0.326136        -8.8746
  52   2.0000      -0.319590        -8.6965
  53   2.0000      -0.302770        -8.2388
  54   2.0000      -0.291824        -7.9409
  55   2.0000      -0.291805        -7.9404
  56   2.0000      -0.285723        -7.7749
  57   0.0000      -0.081590        -2.2202
  58   0.0000      -0.079955        -2.1757
  59   0.0000      -0.068271        -1.8578
  60   0.0000      -0.068226        -1.8565
  61   0.0000      -0.004239        -0.1153

MULLIKEN ATOMIC CHARGES
-----------------------
   0 C :    0.154791
   1 C :    0.154743
   2 Cl:   -0.051699
   3 Cl:   -0.051461
   4 Cl:   -0.051644
   5 Cl:   -0.051400
   6 Cl:   -0.051646
   7 Cl:   -0.051683
Sum of atomic charges:    0.0000000

LOEWDIN ATOMIC CHARGES
----------------------
   0 C :   -1.114339
   1 C :   -1.114457
   2 Cl:    0.371307
   3 Cl:    0.371656
   4 Cl:    0.371389
   5 Cl:    0.371716
   6 Cl:    0.371387
   7 Cl:    0.371341

  Mayer bond orders larger than 0.100000
B(  0-C ,  1-C ) :   0.9250 B(  0-C ,  5-Cl) :   1.0996 B(  0-C ,  6-Cl) :   1.0992
B(  0-C ,  7-Cl) :   1.0992 B(  1-C ,  2-Cl) :   1.0992 B(  1-C ,  3-Cl) :   1.0995
B(  1-C ,  4-Cl) :   1.0993

Dispersion correction           -0.005168753
FINAL SINGLE POINT ENERGY     -2837.266380744179

DIPOLE MOMENT
-------------

Method             : SCF
Type of density    : Electron Density
Multiplicity       :   1
Irrep              :   0
Energy             : -2837.2718472321394074 Eh
Relativity type    :
Basis              : AO
                                X                 Y                 Z
Electronic contribution:     -0.000100535       0.000036276       0.000001774
Nuclear contribution   :     -0.000148418      -0.000001080       0.000108576
                        -----------------------------------------
Total Dipole Moment    :     -0.000248953       0.000035196       0.000110351
                        -----------------------------------------
Magnitude (a.u.)       :      0.000274579
Magnitude (Debye)      :      0.000697924

VIBRATIONAL FREQUENCIES
-----------------------

Scaling factor for frequencies =  1.000000000  (already applied!)

     0:       0.00 cm**-1
     1:       0.00 cm**-1
     2:       0.00 cm**-1
     3:       0.00 cm**-1
     4:       0.00 cm**-1
     5:       0.00 cm**-1
     6:      89.00 cm**-1
     7:     165.03 cm**-1
     8:     165.15 cm**-1
     9:     220.07 cm**-1
    10:     220.88 cm**-1
    11:     221.03 cm**-1
    12:     274.62 cm**-1
    13:     274.68 cm**-1
    14:     325.35 cm**-1
    15:     325.50 cm**-1
    16:     371.22 cm**-1
    17:     417.54 cm**-1
    18:     661.31 cm**-1
    19:     714.32 cm**-1
    20:     714.58 cm**-1
    21:     785.48 cm**-1
    22:     785.71 cm**-1
    23:     933.08 cm**-1

IR SPECTRUM
-----------

 Mode   freq       eps      Int      T**2         TX        TY        TZ
       cm**-1   L/(mol*cm) km/mol    a.u.
----------------------------------------------------------------------------
  6:     89.00   0.000000    0.00  0.000000  ( 0.000016 -0.000112 -0.000144)
  7:    165.03   0.000032    0.16  0.000061  ( 0.000038  0.000125 -0.007799)
  8:    165.15   0.000033    0.17  0.000062  (-0.000017  0.007882  0.000090)
  9:    220.07   0.000000    0.00  0.000000  ( 0.000008  0.000002  0.000009)
 10:    220.88   0.000000    0.00  0.000000  ( 0.000000 -0.000022  0.000000)
 11:    221.03   0.000000    0.00  0.000000  ( 0.000001  0.000003 -0.000003)
 12:    274.62   0.000047    0.24  0.000053  ( 0.000002  0.002979  0.006663)
 13:    274.68   0.000049    0.25  0.000055  (-0.000009  0.006880 -0.002849)
 14:    325.35   0.000000    0.00  0.000000  ( 0.000001 -0.000001  0.000003)
 15:    325.50   0.000000    0.00  0.000000  (-0.000002  0.000002 -0.000002)
 16:    371.22   0.000038    0.19  0.000032  (-0.005634 -0.000015  0.000145)
 17:    417.54   0.000000    0.00  0.000000  (-0.000008 -0.000006  0.000008)
 18:    661.31   0.013436   67.90  0.006340  ( 0.079624  0.000303 -0.000211)
 19:    714.32   0.049907  252.21  0.021803  ( 0.000278 -0.135818  0.057934)
 20:    714.58   0.049924  252.29  0.021802  (-0.000081 -0.057904 -0.135828)
 21:    785.48   0.000000    0.00  0.000000  ( 0.000002 -0.000052 -0.000021)
 22:    785.71   0.000000    0.00  0.000000  (-0.000022 -0.000049 -0.000011)
 23:    933.08   0.000000    0.00  0.000000  (-0.000019 -0.000006 -0.000019)

--------------------------
THERMOCHEMISTRY AT 298.15K
--------------------------

Temperature         ...   298.15 K
Pressure            ...     1.00 atm
Total Mass          ...   236.74 AMU
Quasi RRHO          ...     True
Cut-Off Frequency   ...     1.00 cm^-1

Throughout the following assumptions are being made:
  (1) The electronic state is orbitally nondegenerate
  (2) There are no thermally accessible electronically excited states
  (3) Hindered rotations indicated by low frequency modes are not
      treated as such but are treated as vibrations and this may
      cause some error
  (4) All equations used are the standard statistical mechanics
      equations for an ideal gas
  (5) All vibrations are strictly harmonic

freq.      89.00  E(vib)   ...       0.47
freq.     165.03  E(vib)   ...       0.39
freq.     165.15  E(vib)   ...       0.39
freq.     220.07  E(vib)   ...       0.33
freq.     220.88  E(vib)   ...       0.33
freq.     221.03  E(vib)   ...       0.33
freq.     274.62  E(vib)   ...       0.28
freq.     274.68  E(vib)   ...       0.28
freq.     325.35  E(vib)   ...       0.24
freq.     325.50  E(vib)   ...       0.24
freq.     371.22  E(vib)   ...       0.21
freq.     417.54  E(vib)   ...       0.18
freq.     661.31  E(vib)   ...       0.08
freq.     714.32  E(vib)   ...       0.07
freq.     714.58  E(vib)   ...       0.07
freq.     785.48  E(vib)   ...       0.05
freq.     785.71  E(vib)   ...       0.05
freq.     933.08  E(vib)   ...       0.03

------------
INNER ENERGY
------------

The inner energy is: U= E(el) + E(ZPE) + E(vib) + E(rot) + E(trans)
    E(el)   - is the total energy from the electronic structure calculation
              = E(kin-el) + E(nuc-el) + E(el-el) + E(nuc-nuc)
    E(ZPE)  - the the zero temperature vibrational energy from the frequency calculation
    E(vib)  - the the finite temperature correction to E(ZPE) due to population
              of excited vibrational states
    E(rot)  - is the rotational thermal energy
    E(trans)- is the translational thermal energy

Summary of contributions to the inner energy U:
Electronic energy                ...  -2837.26638074 Eh
Zero point energy                ...      0.01746115 Eh      10.96 kcal/mol
Thermal vibrational correction   ...      0.00644988 Eh       4.05 kcal/mol
Thermal rotational correction    ...      0.00141627 Eh       0.89 kcal/mol
Thermal translational correction ...      0.00141627 Eh       0.89 kcal/mol
-----------------------------------------------------------------------
Total thermal energy                  -2837.23963717 Eh

Summary of corrections to the electronic energy:
(perhaps to be used in another calculation)
Total thermal correction                  0.00928242 Eh       5.82 kcal/mol
Non-thermal (ZPE) correction              0.01746115 Eh      10.96 kcal/mol
-----------------------------------------------------------------------
Total correction                          0.02674357 Eh      16.78 kcal/mol

--------
ENTHALPY
--------

The enthalpy is H = U + kB*T
                kB is Boltzmann's constant
Total thermal energy              ...  -2837.23963717 Eh
Thermal Enthalpy correction       ...      0.00094421 Eh       0.59 kcal/mol
-----------------------------------------------------------------------
Total Enthalpy                    ...  -2837.23869297 Eh

Note: Only C1 symmetry has been detected, increase convergence thresholds
      if your molecule has a higher symmetry. Symmetry factor of 1.0 is
      used for the rotational entropy correction.

Note: Rotational entropy computed according to Herzberg
Infrared and Raman Spectra, Chapter V,1, Van Nostrand Reinhold, 1945
Point Group:  C1, Symmetry Number:   1
Rotational constants in cm-1:     0.027975     0.023093     0.023091

Vibrational entropy computed according to the QRRHO of S. Grimme
Chem.Eur.J. 2012 18 9955 using a reference frequency of 100.0 cm-1

-------
ENTROPY
-------

The entropy contributions are T*S = T*(S(el)+S(vib)+S(rot)+S(trans))
     S(el)   - electronic entropy
     S(vib)  - vibrational entropy
     S(rot)  - rotational entropy
     S(trans)- translational entropy
The entropies will be listed as multiplied by the temperature to get
units of energy

Electronic entropy                ...      0.00000000 Eh      0.00 kcal/mol
Vibrational entropy               ...      0.01105234 Eh      6.94 kcal/mol
Rotational entropy                ...      0.01475715 Eh      9.26 kcal/mol
Translational entropy             ...      0.02009177 Eh     12.61 kcal/mol
-----------------------------------------------------------------------
Final entropy term                ...      0.04590126 Eh     28.80 kcal/mol

In case the symmetry of your molecule has not been determined correctly
or in case you have a reason to use a different symmetry number we print
out the resulting rotational entropy values for sn=1,12:

 non-linear molecules -----------------------------------
|  sn= 1 | S(rot)=       0.01475715 Eh      9.26 kcal/mol|
|  sn= 2 | S(rot)=       0.01410269 Eh      8.85 kcal/mol|
|  sn= 3 | S(rot)=       0.01371986 Eh      8.61 kcal/mol|
|  sn= 4 | S(rot)=       0.01344824 Eh      8.44 kcal/mol|
|  sn= 5 | S(rot)=       0.01323755 Eh      8.31 kcal/mol|
|  sn= 6 | S(rot)=       0.01306540 Eh      8.20 kcal/mol|
|  sn= 7 | S(rot)=       0.01291986 Eh      8.11 kcal/mol|
|  sn= 8 | S(rot)=       0.01279378 Eh      8.03 kcal/mol|
|  sn= 9 | S(rot)=       0.01268257 Eh      7.96 kcal/mol|
|  sn=10 | S(rot)=       0.01258309 Eh      7.90 kcal/mol|
|  sn=11 | S(rot)=       0.01249310 Eh      7.84 kcal/mol|
|  sn=12 | S(rot)=       0.01241095 Eh      7.79 kcal/mol|
 linear molecules ---------------------------------------
|  Dinfh | S(rot)=       0.00888378 Eh      5.57 kcal/mol|
|  Cinfv | S(rot)=       0.00953824 Eh      5.99 kcal/mol|
 --------------------------------------------------------

-------------------
GIBBS FREE ENERGY
-------------------

The Gibbs free energy is G = H - T*S

Total enthalpy                    ...  -2837.23869297 Eh
Total entropy correction          ...     -0.04590126 Eh    -28.80 kcal/mol
-----------------------------------------------------------------------
Final Gibbs free energy         ...  -2837.28459423 Eh

For completeness - the Gibbs free energy minus the electronic energy
G-E(el)                           ...     -0.01821348 Eh    -11.43 kcal/mol

                             ****ORCA TERMINATED NORMALLY****
TOTAL RUN TIME: 0 days 0 hours 3 minutes 15 seconds 471 msec
