                         Program Version 6.0.0  -   RELEASE  -
|  1> ! r2SCAN-3c DEF2-TZVP FREQ
|  2> * xyzfile 0 1 vacuum_censo.xyz
|  3>
|  4>                          ****END OF INPUT****

CARTESIAN COORDINATES (ANGSTROEM)
---------------------------------
  C     -0.793650    0.000139   -0.000027
  C      0.793654   -0.000123    0.000030
  Cl     1.394284   -1.550696    0.654253
  Cl     1.394425    0.208864   -1.670044
  Cl     1.394420    1.342045    1.015834
  Cl    -1.394432   -0.208880    1.670037
  Cl    -1.394401   -1.342048   -1.015821
  Cl    -1.394327    1.550685   -0.654254

 Total Charge           Charge          ....    0
 Multiplicity           Mult            ....    1
 Number of Electrons    NEL             ....  114
 Basis Dimension        Dim             ....  284

ORBITAL ENERGIES
----------------

  NO   OCC          E(Eh)            E(eV)
   0   2.0000    -101.224402     -2754.4560
   1   2.0000    -101.224399     -2754.4559
   2   2.0000    -101.224358     -2754.4548
   3   2.0000    -101.224355     -2754.4547
   4   2.0000    -101.224339     -2754.4543
   5   2.0000    -101.224334     -2754.4542
   6   2.0000     -10.258235      -279.1408
   7   2.0000     -10.258170      -279.1390
   8   2.0000      -9.400505      -255.8008
   9   2.0000      -9.400502      -255.8007
  10   2.0000      -9.400463      -255.7996
  11   2.0000      -9.400459      -255.7995
  12   2.0000      -9.400443      -255.7991
  13   2.0000      -9.400439      -255.7989
  14   2.0000      -7.146226      -194.4587
  15   2.0000      -7.146225      -194.4587
  16   2.0000      -7.146177      -194.4574
  17   2.0000      -7.146176      -194.4573
  18   2.0000      -7.146157      -194.4568
  19   2.0000      -7.146154      -194.4567
  20   2.0000      -7.134844      -194.1490
  21   2.0000      -7.134842      -194.1489
  22   2.0000      -7.134815      -194.1482
  23   2.0000      -7.134814      -194.1481
  24   2.0000      -7.134803      -194.1479
  25   2.0000      -7.134802      -194.1478
  26   2.0000      -7.134785      -194.1474
  27   2.0000      -7.134782      -194.1473
  28   2.0000      -7.134777      -194.1471
  29   2.0000      -7.134776      -194.1471
  30   2.0000      -7.134758      -194.1466
  31   2.0000      -7.134755      -194.1466
  32   2.0000      -0.954111       -25.9627
  33   2.0000      -0.892707       -24.2918
  34   2.0000      -0.825983       -22.4761
  35   2.0000      -0.825920       -22.4744
  36   2.0000      -0.807086       -21.9619
  37   2.0000      -0.807032       -21.9605
  38   2.0000      -0.678075       -18.4513
  39   2.0000      -0.573664       -15.6102
  40   2.0000      -0.496904       -13.5214
  41   2.0000      -0.492300       -13.3962
  42   2.0000      -0.492269       -13.3953
  43   2.0000      -0.444686       -12.1005
  44   2.0000      -0.444653       -12.0996
  45   2.0000      -0.353723        -9.6253
  46   2.0000      -0.353713        -9.6250
  47   2.0000      -0.336637        -9.1604
  48   2.0000      -0.330659        -8.9977
  49   2.0000      -0.330640        -8.9972
  50   2.0000      -0.326139        -8.8747
  51   2.0000      -0.326119        -8.8741
  52   2.0000      -0.319678        -8.6989
  53   2.0000      -0.302766        -8.2387
  54   2.0000      -0.291815        -7.9407
  55   2.0000      -0.291798        -7.9402
  56   2.0000      -0.285721        -7.7749
  57   0.0000      -0.081603        -2.2205
  58   0.0000      -0.079977        -2.1763
  59   0.0000      -0.068422        -1.8618
  60   0.0000      -0.068343        -1.8597
  61   0.0000      -0.004237        -0.1153

MULLIKEN ATOMIC CHARGES
-----------------------
   0 C :    0.154650
   1 C :    0.154653
   2 Cl:   -0.051400
   3 Cl:   -0.051577
   4 Cl:   -0.051673
   5 Cl:   -0.051578
   6 Cl:   -0.051679
   7 Cl:   -0.051396
Sum of atomic charges:   -0.0000000

LOEWDIN ATOMIC CHARGES
----------------------
   0 C :   -1.114264
   1 C :   -1.114259
   2 Cl:    0.371648
   3 Cl:    0.371384
   4 Cl:    0.371231
   5 Cl:    0.371384
   6 Cl:    0.371223
   7 Cl:    0.371653

  Mayer bond orders larger than 0.100000
B(  0-C ,  1-C ) :   0.9254 B(  0-C ,  5-Cl) :   1.0992 B(  0-C ,  6-Cl) :   1.0991
B(  0-C ,  7-Cl) :   1.0995 B(  1-C ,  2-Cl) :   1.0995 B(  1-C ,  3-Cl) :   1.0992
B(  1-C ,  4-Cl) :   1.0991

Dispersion correction           -0.005168756
FINAL SINGLE POINT ENERGY     -2837.266360602431

DIPOLE MOMENT
-------------

Method             : SCF
Type of density    : Electron Density
Multiplicity       :   1
Irrep              :   0
Energy             : -2837.2718278539687162 Eh
Relativity type    :
Basis              : AO
                                X                 Y                 Z
Electronic contribution:      0.000004051       0.000008296       0.000003216
Nuclear contribution   :      0.000006003       0.000010476       0.000000807
                        -----------------------------------------
Total Dipole Moment    :      0.000010054       0.000018772       0.000004023
                        -----------------------------------------
Magnitude (a.u.)       :      0.000021671
Magnitude (Debye)      :      0.000055084

VIBRATIONAL FREQUENCIES
-----------------------

Scaling factor for frequencies =  1.000000000  (already applied!)

     0:       0.00 cm**-1
     1:       0.00 cm**-1
     2:       0.00 cm**-1
     3:       0.00 cm**-1
     4:       0.00 cm**-1
     5:       0.00 cm**-1
     6:      89.55 cm**-1
     7:     165.03 cm**-1
     8:     165.52 cm**-1
     9:     220.27 cm**-1
    10:     221.15 cm**-1
    11:     221.25 cm**-1
    12:     274.82 cm**-1
    13:     275.03 cm**-1
    14:     325.40 cm**-1
    15:     325.54 cm**-1
    16:     371.16 cm**-1
    17:     417.44 cm**-1
    18:     662.18 cm**-1
    19:     713.61 cm**-1
    20:     714.28 cm**-1
    21:     784.77 cm**-1
    22:     785.40 cm**-1
    23:     935.31 cm**-1

IR SPECTRUM
-----------

 Mode   freq       eps      Int      T**2         TX        TY        TZ
       cm**-1   L/(mol*cm) km/mol    a.u.
----------------------------------------------------------------------------
  6:     89.55   0.000000    0.00  0.000000  (-0.000039 -0.000201 -0.000107)
  7:    165.03   0.000034    0.17  0.000064  ( 0.000078 -0.004472 -0.006652)
  8:    165.52   0.000034    0.17  0.000065  (-0.000114  0.006644 -0.004557)
  9:    220.27   0.000000    0.00  0.000000  (-0.000000  0.000001  0.000000)
 10:    221.15   0.000000    0.00  0.000000  ( 0.000000 -0.000001  0.000000)
 11:    221.25   0.000000    0.00  0.000000  ( 0.000000  0.000001 -0.000001)
 12:    274.82   0.000048    0.24  0.000055  ( 0.000003  0.007246 -0.001451)
 13:    275.03   0.000049    0.25  0.000055  ( 0.000019 -0.001660 -0.007262)
 14:    325.40   0.000000    0.00  0.000000  (-0.000000  0.000000  0.000001)
 15:    325.54   0.000000    0.00  0.000000  ( 0.000000  0.000001 -0.000000)
 16:    371.16   0.000037    0.18  0.000031  (-0.005547 -0.000048 -0.000038)
 17:    417.44   0.000000    0.00  0.000000  (-0.000000  0.000001  0.000000)
 18:    662.18   0.013427   67.85  0.006328  (-0.079536 -0.000767 -0.001046)
 19:    713.61   0.049916  252.26  0.021828  (-0.000340 -0.057711  0.136007)
 20:    714.28   0.049914  252.25  0.021807  ( 0.000569 -0.135914 -0.057741)
 21:    784.77   0.000000    0.00  0.000000  (-0.000001  0.000008 -0.000002)
 22:    785.40   0.000000    0.00  0.000000  ( 0.000004 -0.000001  0.000007)
 23:    935.31   0.000000    0.00  0.000000  ( 0.000001 -0.000003 -0.000000)

--------------------------
THERMOCHEMISTRY AT 298.15K
--------------------------

Temperature         ...   298.15 K
Pressure            ...     1.00 atm
Total Mass          ...   236.74 AMU
Quasi RRHO          ...     True
Cut-Off Frequency   ...     1.00 cm^-1

Throughout the following assumptions are being made:
  (1) The electronic state is orbitally nondegenerate
  (2) There are no thermally accessible electronically excited states
  (3) Hindered rotations indicated by low frequency modes are not
      treated as such but are treated as vibrations and this may
      cause some error
  (4) All equations used are the standard statistical mechanics
      equations for an ideal gas
  (5) All vibrations are strictly harmonic

freq.      89.55  E(vib)   ...       0.47
freq.     165.03  E(vib)   ...       0.39
freq.     165.52  E(vib)   ...       0.39
freq.     220.27  E(vib)   ...       0.33
freq.     221.15  E(vib)   ...       0.33
freq.     221.25  E(vib)   ...       0.33
freq.     274.82  E(vib)   ...       0.28
freq.     275.03  E(vib)   ...       0.28
freq.     325.40  E(vib)   ...       0.24
freq.     325.54  E(vib)   ...       0.24
freq.     371.16  E(vib)   ...       0.21
freq.     417.44  E(vib)   ...       0.18
freq.     662.18  E(vib)   ...       0.08
freq.     713.61  E(vib)   ...       0.07
freq.     714.28  E(vib)   ...       0.07
freq.     784.77  E(vib)   ...       0.05
freq.     785.40  E(vib)   ...       0.05
freq.     935.31  E(vib)   ...       0.03

------------
INNER ENERGY
------------

The inner energy is: U= E(el) + E(ZPE) + E(vib) + E(rot) + E(trans)
    E(el)   - is the total energy from the electronic structure calculation
              = E(kin-el) + E(nuc-el) + E(el-el) + E(nuc-nuc)
    E(ZPE)  - the the zero temperature vibrational energy from the frequency calculation
    E(vib)  - the the finite temperature correction to E(ZPE) due to population
              of excited vibrational states
    E(rot)  - is the rotational thermal energy
    E(trans)- is the translational thermal energy

Summary of contributions to the inner energy U:
Electronic energy                ...  -2837.26636060 Eh
Zero point energy                ...      0.01746831 Eh      10.96 kcal/mol
Thermal vibrational correction   ...      0.00644638 Eh       4.05 kcal/mol
Thermal rotational correction    ...      0.00141627 Eh       0.89 kcal/mol
Thermal translational correction ...      0.00141627 Eh       0.89 kcal/mol
-----------------------------------------------------------------------
Total thermal energy                  -2837.23961337 Eh

Summary of corrections to the electronic energy:
(perhaps to be used in another calculation)
Total thermal correction                  0.00927893 Eh       5.82 kcal/mol
Non-thermal (ZPE) correction              0.01746831 Eh      10.96 kcal/mol
-----------------------------------------------------------------------
Total correction                          0.02674724 Eh      16.78 kcal/mol

--------
ENTHALPY
--------

The enthalpy is H = U + kB*T
                kB is Boltzmann's constant
Total thermal energy              ...  -2837.23961337 Eh
Thermal Enthalpy correction       ...      0.00094421 Eh       0.59 kcal/mol
-----------------------------------------------------------------------
Total Enthalpy                    ...  -2837.23866916 Eh

Note: Rotational entropy computed according to Herzberg
Infrared and Raman Spectra, Chapter V,1, Van Nostrand Reinhold, 1945
Point Group:  C2h, Symmetry Number:   2
Rotational constants in cm-1:     0.027976     0.023093     0.023092

Vibrational entropy computed according to the QRRHO of S. Grimme
Chem.Eur.J. 2012 18 9955 using a reference frequency of 100.0 cm-1

-------
ENTROPY
-------

The entropy contributions are T*S = T*(S(el)+S(vib)+S(rot)+S(trans))
     S(el)   - electronic entropy
     S(vib)  - vibrational entropy
     S(rot)  - rotational entropy
     S(trans)- translational entropy
The entropies will be listed as multiplied by the temperature to get
units of energy

Electronic entropy                ...      0.00000000 Eh      0.00 kcal/mol
Vibrational entropy               ...      0.01104414 Eh      6.93 kcal/mol
Rotational entropy                ...      0.01410266 Eh      8.85 kcal/mol
Translational entropy             ...      0.02009177 Eh     12.61 kcal/mol
-----------------------------------------------------------------------
Final entropy term                ...      0.04523858 Eh     28.39 kcal/mol

In case the symmetry of your molecule has not been determined correctly
or in case you have a reason to use a different symmetry number we print
out the resulting rotational entropy values for sn=1,12:

 non-linear molecules -----------------------------------
|  sn= 1 | S(rot)=       0.01475712 Eh      9.26 kcal/mol|
|  sn= 2 | S(rot)=       0.01410266 Eh      8.85 kcal/mol|
|  sn= 3 | S(rot)=       0.01371983 Eh      8.61 kcal/mol|
|  sn= 4 | S(rot)=       0.01344821 Eh      8.44 kcal/mol|
|  sn= 5 | S(rot)=       0.01323752 Eh      8.31 kcal/mol|
|  sn= 6 | S(rot)=       0.01306537 Eh      8.20 kcal/mol|
|  sn= 7 | S(rot)=       0.01291983 Eh      8.11 kcal/mol|
|  sn= 8 | S(rot)=       0.01279375 Eh      8.03 kcal/mol|
|  sn= 9 | S(rot)=       0.01268254 Eh      7.96 kcal/mol|
|  sn=10 | S(rot)=       0.01258306 Eh      7.90 kcal/mol|
|  sn=11 | S(rot)=       0.01249307 Eh      7.84 kcal/mol|
|  sn=12 | S(rot)=       0.01241092 Eh      7.79 kcal/mol|
 linear molecules ---------------------------------------
|  Dinfh | S(rot)=       0.00888374 Eh      5.57 kcal/mol|
|  Cinfv | S(rot)=       0.00953820 Eh      5.99 kcal/mol|
 --------------------------------------------------------

-------------------
GIBBS FREE ENERGY
-------------------

The Gibbs free energy is G = H - T*S

Total enthalpy                    ...  -2837.23866916 Eh
Total entropy correction          ...     -0.04523858 Eh    -28.39 kcal/mol
-----------------------------------------------------------------------
Final Gibbs free energy         ...  -2837.28390774 Eh

For completeness - the Gibbs free energy minus the electronic energy
G-E(el)                           ...     -0.01754713 Eh    -11.01 kcal/mol

                             ****ORCA TERMINATED NORMALLY****
TOTAL RUN TIME: 0 days 0 hours 3 minutes 15 seconds 76 msec
