                         Program Version 6.0.0  -   RELEASE  -
|  1> ! r2SCAN-3c DEF2-TZVP FREQ
|  2> * xyzfile 0 1 censo.xyz
|  3>
|  4>                          ****END OF INPUT****

CARTESIAN COORDINATES (ANGSTROEM)
---------------------------------
  C     -2.414076   -0.084653   -0.006820
  C     -1.837407   -1.354303   -0.003378
  C     -0.450769   -1.469619    0.007564
  C      0.333838   -0.325201    0.018438
  C     -0.217020    0.967009    0.018096
  C     -1.620650    1.052537    0.001230
  N      0.560604    2.106919    0.096201
  Cl     2.092052   -0.499934    0.032898
  H     -3.494008    0.022429   -0.020112
  H     -2.453094   -2.246782   -0.010848
  H      0.023941   -2.444710    0.006733
  H     -2.074593    2.039752   -0.004084
  H      1.499130    2.024191   -0.268752
  H      0.093832    2.946456   -0.216601

 Total Charge           Charge          ....    0
 Multiplicity           Mult            ....    1
 Number of Electrons    NEL             ....   66
 Basis Dimension        Dim             ....  290

ORBITAL ENERGIES
----------------

  NO   OCC          E(Eh)            E(eV)
   0   2.0000    -101.191367     -2753.5571
   1   2.0000     -14.178916      -385.8279
   2   2.0000     -10.092953      -274.6432
   3   2.0000     -10.089333      -274.5447
   4   2.0000     -10.045940      -273.3639
   5   2.0000     -10.041278      -273.2371
   6   2.0000     -10.040289      -273.2101
   7   2.0000     -10.035300      -273.0744
   8   2.0000      -9.367108      -254.8920
   9   2.0000      -7.111865      -193.5237
  10   2.0000      -7.102091      -193.2577
  11   2.0000      -7.101789      -193.2495
  12   2.0000      -0.904605       -24.6156
  13   2.0000      -0.834416       -22.7056
  14   2.0000      -0.796463       -21.6729
  15   2.0000      -0.711556       -19.3624
  16   2.0000      -0.693053       -18.8589
  17   2.0000      -0.589907       -16.0522
  18   2.0000      -0.570786       -15.5319
  19   2.0000      -0.499952       -13.6044
  20   2.0000      -0.490436       -13.3455
  21   2.0000      -0.454334       -12.3631
  22   2.0000      -0.413761       -11.2590
  23   2.0000      -0.411414       -11.1952
  24   2.0000      -0.398272       -10.8375
  25   2.0000      -0.381848       -10.3906
  26   2.0000      -0.344017        -9.3612
  27   2.0000      -0.325862        -8.8672
  28   2.0000      -0.312205        -8.4955
  29   2.0000      -0.298948        -8.1348
  30   2.0000      -0.287658        -7.8276
  31   2.0000      -0.231648        -6.3035
  32   2.0000      -0.196094        -5.3360
  33   0.0000      -0.040481        -1.1015
  34   0.0000      -0.023504        -0.6396
  35   0.0000       0.001119         0.0304
  36   0.0000       0.041332         1.1247
  37   0.0000       0.071835         1.9547

MULLIKEN ATOMIC CHARGES
-----------------------
   0 C :   -0.074168
   1 C :   -0.159050
   2 C :   -0.131257
   3 C :    0.031840
   4 C :    0.261755
   5 C :   -0.254224
   6 N :   -0.430652
   7 Cl:   -0.147718
   8 H :    0.109408
   9 H :    0.108559
  10 H :    0.122736
  11 H :    0.092496
  12 H :    0.239316
  13 H :    0.230959
Sum of atomic charges:    0.0000000

LOEWDIN ATOMIC CHARGES
----------------------
   0 C :   -0.145800
   1 C :   -0.159939
   2 C :   -0.148788
   3 C :   -0.391953
   4 C :   -0.256102
   5 C :   -0.131560
   6 N :   -0.030112
   7 Cl:    0.355892
   8 H :    0.144728
   9 H :    0.143203
  10 H :    0.148796
  11 H :    0.143257
  12 H :    0.160877
  13 H :    0.167500

  Mayer bond orders larger than 0.100000
B(  0-C ,  1-C ) :   1.3779 B(  0-C ,  5-C ) :   1.4499 B(  0-C ,  8-H ) :   0.9679
B(  1-C ,  2-C ) :   1.3892 B(  1-C ,  9-H ) :   0.9756 B(  2-C ,  3-C ) :   1.3756
B(  2-C , 10-H ) :   0.9668 B(  3-C ,  4-C ) :   1.2727 B(  3-C ,  7-Cl) :   0.9828
B(  4-C ,  5-C ) :   1.3134 B(  4-C ,  6-N ) :   1.1167 B(  5-C , 11-H ) :   0.9709
B(  6-N , 12-H ) :   0.9003 B(  6-N , 13-H ) :   0.9151

Dispersion correction           -0.004957843
FINAL SINGLE POINT ENERGY      -747.139173510540

DIPOLE MOMENT
-------------

Method             : SCF
Type of density    : Electron Density
Multiplicity       :   1
Irrep              :   0
Energy             :  -747.1413406109520565 Eh
Relativity type    :
Basis              : AO
                                X                 Y                 Z
Electronic contribution:      8.472327267      -2.308579096       0.246864909
Nuclear contribution   :     -8.848180273       2.893893564      -0.606889188
                        -----------------------------------------
Total Dipole Moment    :     -0.375853006       0.585314468      -0.360024279
                        -----------------------------------------
Magnitude (a.u.)       :      0.783247081
Magnitude (Debye)      :      1.990855864

VIBRATIONAL FREQUENCIES
-----------------------

Scaling factor for frequencies =  1.000000000  (already applied!)

     0:       0.00 cm**-1
     1:       0.00 cm**-1
     2:       0.00 cm**-1
     3:       0.00 cm**-1
     4:       0.00 cm**-1
     5:       0.00 cm**-1
     6:     158.19 cm**-1
     7:     258.94 cm**-1
     8:     263.77 cm**-1
     9:     374.53 cm**-1
    10:     396.15 cm**-1
    11:     445.56 cm**-1
    12:     473.75 cm**-1
    13:     545.57 cm**-1
    14:     567.14 cm**-1
    15:     626.36 cm**-1
    16:     684.62 cm**-1
    17:     719.39 cm**-1
    18:     746.15 cm**-1
    19:     839.20 cm**-1
    20:     852.80 cm**-1
    21:     919.66 cm**-1
    22:     940.91 cm**-1
    23:    1037.64 cm**-1
    24:    1063.08 cm**-1
    25:    1094.79 cm**-1
    26:    1166.52 cm**-1
    27:    1183.53 cm**-1
    28:    1289.76 cm**-1
    29:    1338.34 cm**-1
    30:    1357.58 cm**-1
    31:    1477.58 cm**-1
    32:    1515.66 cm**-1
    33:    1597.87 cm**-1
    34:    1628.07 cm**-1
    35:    1660.90 cm**-1
    36:    3150.66 cm**-1
    37:    3169.43 cm**-1
    38:    3179.82 cm**-1
    39:    3192.42 cm**-1
    40:    3529.73 cm**-1
    41:    3634.99 cm**-1

IR SPECTRUM
-----------

 Mode   freq       eps      Int      T**2         TX        TY        TZ
       cm**-1   L/(mol*cm) km/mol    a.u.
----------------------------------------------------------------------------
  6:    158.19   0.000102    0.52  0.000202  ( 0.007145  0.002801  0.011969)
  7:    258.94   0.001149    5.81  0.001384  (-0.006182 -0.012288 -0.034572)
  8:    263.77   0.000323    1.63  0.000382  (-0.008368  0.016039  0.007424)
  9:    374.53   0.000572    2.89  0.000476  ( 0.020759 -0.006178 -0.002661)
 10:    396.15   0.003686   18.63  0.002903  ( 0.046928 -0.025522  0.007048)
 11:    445.56   0.002010   10.16  0.001408  ( 0.004247  0.011830  0.035350)
 12:    473.75   0.000185    0.93  0.000122  (-0.006210  0.007028  0.005813)
 13:    545.57   0.004804   24.28  0.002748  ( 0.018194  0.029718  0.039163)
 14:    567.14   0.001600    8.09  0.000881  (-0.025760 -0.010026 -0.010791)
 15:    626.36   0.048790  246.56  0.024308  (-0.064342 -0.112947 -0.086086)
 16:    684.62   0.004390   22.18  0.002001  ( 0.044501 -0.002580  0.003727)
 17:    719.39   0.000597    3.02  0.000259  ( 0.009783  0.011219 -0.006105)
 18:    746.15   0.016456   83.16  0.006882  ( 0.004277  0.011570  0.082037)
 19:    839.20   0.000592    2.99  0.000220  (-0.002112  0.009483  0.011206)
 20:    852.80   0.001140    5.76  0.000417  ( 0.012639 -0.007209  0.014330)
 21:    919.66   0.000479    2.42  0.000163  (-0.000969 -0.001125 -0.012662)
 22:    940.91   0.000012    0.06  0.000004  ( 0.000017 -0.000523  0.001914)
 23:   1037.64   0.008157   41.22  0.002453  (-0.049487 -0.001339  0.001526)
 24:   1063.08   0.001559    7.88  0.000457  (-0.017441  0.012380 -0.000235)
 25:   1094.79   0.004982   25.18  0.001420  (-0.037462 -0.003846 -0.001422)
 26:   1166.52   0.000972    4.91  0.000260  (-0.002180 -0.015949  0.000933)
 27:   1183.53   0.001074    5.43  0.000283  ( 0.006468 -0.015522  0.000708)
 28:   1289.76   0.001190    6.01  0.000288  ( 0.000957  0.016939 -0.000339)
 29:   1338.34   0.006174   31.20  0.001440  (-0.024551 -0.028906 -0.001145)
 30:   1357.58   0.001897    9.59  0.000436  (-0.018537  0.009608  0.000477)
 31:   1477.58   0.002588   13.08  0.000546  (-0.002668  0.023169  0.001606)
 32:   1515.66   0.015903   80.37  0.003274  (-0.043562 -0.037081 -0.001299)
 33:   1597.87   0.000366    1.85  0.000071  ( 0.008121 -0.001671 -0.001642)
 34:   1628.07   0.002623   13.25  0.000503  ( 0.008672  0.019017  0.008115)
 35:   1660.90   0.027756  140.27  0.005215  ( 0.027525  0.064603 -0.016848)
 36:   3150.66   0.001780    9.00  0.000176  ( 0.001250  0.013220 -0.000024)
 37:   3169.43   0.001466    7.41  0.000144  (-0.006928  0.009816 -0.000082)
 38:   3179.82   0.001581    7.99  0.000155  (-0.012210  0.002458 -0.000081)
 39:   3192.42   0.001316    6.65  0.000129  ( 0.007988  0.008050  0.000046)
 40:   3529.73   0.004563   23.06  0.000403  (-0.013111 -0.013874  0.006249)
 41:   3634.99   0.004580   23.14  0.000393  (-0.016388  0.011146  0.000616)

--------------------------
THERMOCHEMISTRY AT 298.15K
--------------------------

Temperature         ...   298.15 K
Pressure            ...     1.00 atm
Total Mass          ...   127.57 AMU
Quasi RRHO          ...     True
Cut-Off Frequency   ...     1.00 cm^-1

Throughout the following assumptions are being made:
  (1) The electronic state is orbitally nondegenerate
  (2) There are no thermally accessible electronically excited states
  (3) Hindered rotations indicated by low frequency modes are not
      treated as such but are treated as vibrations and this may
      cause some error
  (4) All equations used are the standard statistical mechanics
      equations for an ideal gas
  (5) All vibrations are strictly harmonic

freq.     158.19  E(vib)   ...       0.39
freq.     258.94  E(vib)   ...       0.30
freq.     263.77  E(vib)   ...       0.29
freq.     374.53  E(vib)   ...       0.21
freq.     396.15  E(vib)   ...       0.20
freq.     445.56  E(vib)   ...       0.17
freq.     473.75  E(vib)   ...       0.15
freq.     545.57  E(vib)   ...       0.12
freq.     567.14  E(vib)   ...       0.11
freq.     626.36  E(vib)   ...       0.09
freq.     684.62  E(vib)   ...       0.07
freq.     719.39  E(vib)   ...       0.07
freq.     746.15  E(vib)   ...       0.06
freq.     839.20  E(vib)   ...       0.04
freq.     852.80  E(vib)   ...       0.04
freq.     919.66  E(vib)   ...       0.03
freq.     940.91  E(vib)   ...       0.03
freq.    1037.64  E(vib)   ...       0.02
freq.    1063.08  E(vib)   ...       0.02
freq.    1094.79  E(vib)   ...       0.02
freq.    1166.52  E(vib)   ...       0.01
freq.    1183.53  E(vib)   ...       0.01
freq.    1289.76  E(vib)   ...       0.01
freq.    1338.34  E(vib)   ...       0.01
freq.    1357.58  E(vib)   ...       0.01
freq.    1477.58  E(vib)   ...       0.00
freq.    1515.66  E(vib)   ...       0.00
freq.    1597.87  E(vib)   ...       0.00
freq.    1628.07  E(vib)   ...       0.00
freq.    1660.90  E(vib)   ...       0.00
freq.    3150.66  E(vib)   ...       0.00
freq.    3169.43  E(vib)   ...       0.00
freq.    3179.82  E(vib)   ...       0.00
freq.    3192.42  E(vib)   ...       0.00
freq.    3529.73  E(vib)   ...       0.00
freq.    3634.99  E(vib)   ...       0.00

------------
INNER ENERGY
------------

The inner energy is: U= E(el) + E(ZPE) + E(vib) + E(rot) + E(trans)
    E(el)   - is the total energy from the electronic structure calculation
              = E(kin-el) + E(nuc-el) + E(el-el) + E(nuc-nuc)
    E(ZPE)  - the the zero temperature vibrational energy from the frequency calculation
    E(vib)  - the the finite temperature correction to E(ZPE) due to population
              of excited vibrational states
    E(rot)  - is the rotational thermal energy
    E(trans)- is the translational thermal energy

Summary of contributions to the inner energy U:
Electronic energy                ...   -747.13917351 Eh
Zero point energy                ...      0.10725863 Eh      67.31 kcal/mol
Thermal vibrational correction   ...      0.00396850 Eh       2.49 kcal/mol
Thermal rotational correction    ...      0.00141627 Eh       0.89 kcal/mol
Thermal translational correction ...      0.00141627 Eh       0.89 kcal/mol
-----------------------------------------------------------------------
Total thermal energy                   -747.02511384 Eh

Summary of corrections to the electronic energy:
(perhaps to be used in another calculation)
Total thermal correction                  0.00680104 Eh       4.27 kcal/mol
Non-thermal (ZPE) correction              0.10725863 Eh      67.31 kcal/mol
-----------------------------------------------------------------------
Total correction                          0.11405967 Eh      71.57 kcal/mol

--------
ENTHALPY
--------

The enthalpy is H = U + kB*T
                kB is Boltzmann's constant
Total thermal energy              ...   -747.02511384 Eh
Thermal Enthalpy correction       ...      0.00094421 Eh       0.59 kcal/mol
-----------------------------------------------------------------------
Total Enthalpy                    ...   -747.02416963 Eh

Note: Only C1 symmetry has been detected, increase convergence thresholds
      if your molecule has a higher symmetry. Symmetry factor of 1.0 is
      used for the rotational entropy correction.

Note: Rotational entropy computed according to Herzberg
Infrared and Raman Spectra, Chapter V,1, Van Nostrand Reinhold, 1945
Point Group:  C1, Symmetry Number:   1
Rotational constants in cm-1:     0.097266     0.050894     0.033440

Vibrational entropy computed according to the QRRHO of S. Grimme
Chem.Eur.J. 2012 18 9955 using a reference frequency of 100.0 cm-1

-------
ENTROPY
-------

The entropy contributions are T*S = T*(S(el)+S(vib)+S(rot)+S(trans))
     S(el)   - electronic entropy
     S(vib)  - vibrational entropy
     S(rot)  - rotational entropy
     S(trans)- translational entropy
The entropies will be listed as multiplied by the temperature to get
units of energy

Electronic entropy                ...      0.00000000 Eh      0.00 kcal/mol
Vibrational entropy               ...      0.00608292 Eh      3.82 kcal/mol
Rotational entropy                ...      0.01362097 Eh      8.55 kcal/mol
Translational entropy             ...      0.01921614 Eh     12.06 kcal/mol
-----------------------------------------------------------------------
Final entropy term                ...      0.03892003 Eh     24.42 kcal/mol

In case the symmetry of your molecule has not been determined correctly
or in case you have a reason to use a different symmetry number we print
out the resulting rotational entropy values for sn=1,12:

 non-linear molecules -----------------------------------
|  sn= 1 | S(rot)=       0.01362097 Eh      8.55 kcal/mol|
|  sn= 2 | S(rot)=       0.01296652 Eh      8.14 kcal/mol|
|  sn= 3 | S(rot)=       0.01258368 Eh      7.90 kcal/mol|
|  sn= 4 | S(rot)=       0.01231206 Eh      7.73 kcal/mol|
|  sn= 5 | S(rot)=       0.01210137 Eh      7.59 kcal/mol|
|  sn= 6 | S(rot)=       0.01192923 Eh      7.49 kcal/mol|
|  sn= 7 | S(rot)=       0.01178368 Eh      7.39 kcal/mol|
|  sn= 8 | S(rot)=       0.01165760 Eh      7.32 kcal/mol|
|  sn= 9 | S(rot)=       0.01154640 Eh      7.25 kcal/mol|
|  sn=10 | S(rot)=       0.01144692 Eh      7.18 kcal/mol|
|  sn=11 | S(rot)=       0.01135693 Eh      7.13 kcal/mol|
|  sn=12 | S(rot)=       0.01127477 Eh      7.08 kcal/mol|
 linear molecules ---------------------------------------
|  Dinfh | S(rot)=       0.00853413 Eh      5.36 kcal/mol|
|  Cinfv | S(rot)=       0.00918858 Eh      5.77 kcal/mol|
 --------------------------------------------------------

-------------------
GIBBS FREE ENERGY
-------------------

The Gibbs free energy is G = H - T*S

                             ****ORCA TERMINATED NORMALLY****
TOTAL RUN TIME: 0 days 0 hours 9 minutes 59 seconds 953 msec
