                         Program Version 6.0.0  -   RELEASE  -
|  1> ! r2SCAN-3c DEF2-TZVP FREQ
|  2> * xyzfile 0 1 vacuum_censo.xyz
|  3>
|  4>                          ****END OF INPUT****

CARTESIAN COORDINATES (ANGSTROEM)
---------------------------------
  C     -2.415830   -0.069124   -0.007687
  C     -1.847204   -1.340041   -0.001715
  C     -0.462454   -1.464373    0.008226
  C      0.331770   -0.328045    0.013586
  C     -0.214491    0.964957    0.011262
  C     -1.614831    1.062108   -0.001524
  N      0.578527    2.096900    0.081840
  Cl     2.084122   -0.510202    0.016716
  H     -3.494665    0.044745   -0.017111
  H     -2.469554   -2.227313   -0.005892
  H      0.009450   -2.440093    0.009009
  H     -2.067019    2.049861    0.001785
  H      1.532738    1.978596   -0.222172
  H      0.151729    2.939049   -0.269283

 Total Charge           Charge          ....    0
 Multiplicity           Mult            ....    1
 Number of Electrons    NEL             ....   66
 Basis Dimension        Dim             ....  290

ORBITAL ENERGIES
----------------

  NO   OCC          E(Eh)            E(eV)
   0   2.0000    -101.192465     -2753.5870
   1   2.0000     -14.177580      -385.7916
   2   2.0000     -10.092239      -274.6238
   3   2.0000     -10.088776      -274.5296
   4   2.0000     -10.045307      -273.3467
   5   2.0000     -10.040567      -273.2177
   6   2.0000     -10.039455      -273.1875
   7   2.0000     -10.034532      -273.0535
   8   2.0000      -9.368282      -254.9239
   9   2.0000      -7.113023      -193.5552
  10   2.0000      -7.103254      -193.2894
  11   2.0000      -7.102965      -193.2815
  12   2.0000      -0.904099       -24.6018
  13   2.0000      -0.835136       -22.7252
  14   2.0000      -0.797545       -21.7023
  15   2.0000      -0.711596       -19.3635
  16   2.0000      -0.693428       -18.8691
  17   2.0000      -0.589887       -16.0516
  18   2.0000      -0.570714       -15.5299
  19   2.0000      -0.500227       -13.6119
  20   2.0000      -0.491058       -13.3624
  21   2.0000      -0.454027       -12.3547
  22   2.0000      -0.414047       -11.2668
  23   2.0000      -0.411499       -11.1975
  24   2.0000      -0.398710       -10.8494
  25   2.0000      -0.382253       -10.4016
  26   2.0000      -0.343623        -9.3505
  27   2.0000      -0.326120        -8.8742
  28   2.0000      -0.312802        -8.5118
  29   2.0000      -0.298548        -8.1239
  30   2.0000      -0.288796        -7.8585
  31   2.0000      -0.231584        -6.3017
  32   2.0000      -0.195543        -5.3210
  33   0.0000      -0.040108        -1.0914
  34   0.0000      -0.022762        -0.6194
  35   0.0000       0.001907         0.0519
  36   0.0000       0.042966         1.1692
  37   0.0000       0.072526         1.9735

MULLIKEN ATOMIC CHARGES
-----------------------
   0 C :   -0.068803
   1 C :   -0.163093
   2 C :   -0.128401
   3 C :    0.035999
   4 C :    0.263641
   5 C :   -0.263824
   6 N :   -0.432875
   7 Cl:   -0.146239
   8 H :    0.109384
   9 H :    0.107913
  10 H :    0.121918
  11 H :    0.094060
  12 H :    0.237880
  13 H :    0.232439
Sum of atomic charges:    0.0000000

LOEWDIN ATOMIC CHARGES
----------------------
   0 C :   -0.145790
   1 C :   -0.160424
   2 C :   -0.148724
   3 C :   -0.396763
   4 C :   -0.254400
   5 C :   -0.131167
   6 N :   -0.029620
   7 Cl:    0.362063
   8 H :    0.144721
   9 H :    0.143256
  10 H :    0.148580
  11 H :    0.143775
  12 H :    0.158578
  13 H :    0.165916

  Mayer bond orders larger than 0.100000
B(  0-C ,  1-C ) :   1.3791 B(  0-C ,  5-C ) :   1.4471 B(  0-C ,  8-H ) :   0.9678
B(  1-C ,  2-C ) :   1.3882 B(  1-C ,  9-H ) :   0.9763 B(  2-C ,  3-C ) :   1.3768
B(  2-C , 10-H ) :   0.9672 B(  3-C ,  4-C ) :   1.2686 B(  3-C ,  7-Cl) :   0.9770
B(  4-C ,  5-C ) :   1.3157 B(  4-C ,  6-N ) :   1.1158 B(  5-C , 11-H ) :   0.9720
B(  6-N , 12-H ) :   0.9009 B(  6-N , 13-H ) :   0.9151

Dispersion correction           -0.004961738
FINAL SINGLE POINT ENERGY      -747.139402537625

DIPOLE MOMENT
-------------

Method             : SCF
Type of density    : Electron Density
Multiplicity       :   1
Irrep              :   0
Energy             :  -747.1416420289372127 Eh
Relativity type    :
Basis              : AO
                                X                 Y                 Z
Electronic contribution:      8.428130520      -2.338950774       0.198505654
Nuclear contribution   :     -8.768559438       2.911713187      -0.544889465
                        -----------------------------------------
Total Dipole Moment    :     -0.340428918       0.572762413      -0.346383811
                        -----------------------------------------
Magnitude (a.u.)       :      0.750952977
Magnitude (Debye)      :      1.908770776

VIBRATIONAL FREQUENCIES
-----------------------

Scaling factor for frequencies =  1.000000000  (already applied!)

     0:       0.00 cm**-1
     1:       0.00 cm**-1
     2:       0.00 cm**-1
     3:       0.00 cm**-1
     4:       0.00 cm**-1
     5:       0.00 cm**-1
     6:     155.05 cm**-1
     7:     257.65 cm**-1
     8:     268.42 cm**-1
     9:     368.31 cm**-1
    10:     375.40 cm**-1
    11:     441.91 cm**-1
    12:     472.58 cm**-1
    13:     539.88 cm**-1
    14:     565.91 cm**-1
    15:     587.48 cm**-1
    16:     687.18 cm**-1
    17:     719.29 cm**-1
    18:     743.77 cm**-1
    19:     838.75 cm**-1
    20:     852.54 cm**-1
    21:     918.35 cm**-1
    22:     940.51 cm**-1
    23:    1040.36 cm**-1
    24:    1065.41 cm**-1
    25:    1092.58 cm**-1
    26:    1165.51 cm**-1
    27:    1183.82 cm**-1
    28:    1290.03 cm**-1
    29:    1335.85 cm**-1
    30:    1363.23 cm**-1
    31:    1479.74 cm**-1
    32:    1516.65 cm**-1
    33:    1604.87 cm**-1
    34:    1628.36 cm**-1
    35:    1657.35 cm**-1
    36:    3153.53 cm**-1
    37:    3173.30 cm**-1
    38:    3184.56 cm**-1
    39:    3197.13 cm**-1
    40:    3556.14 cm**-1
    41:    3665.72 cm**-1

IR SPECTRUM
-----------

 Mode   freq       eps      Int      T**2         TX        TY        TZ
       cm**-1   L/(mol*cm) km/mol    a.u.
----------------------------------------------------------------------------
  6:    155.05   0.000112    0.57  0.000226  ( 0.008254  0.002442  0.012333)
  7:    257.65   0.001487    7.52  0.001801  ( 0.006118  0.018294  0.037803)
  8:    268.42   0.000196    0.99  0.000228  (-0.007432  0.012511  0.004060)
  9:    368.31   0.004037   20.40  0.003421  ( 0.038651 -0.043884 -0.000923)
 10:    375.40   0.000455    2.30  0.000379  ( 0.018719 -0.004640 -0.002571)
 11:    441.91   0.002523   12.75  0.001782  ( 0.006299  0.014518  0.039131)
 12:    472.58   0.000362    1.83  0.000239  (-0.000636  0.011338  0.010484)
 13:    539.88   0.014423   72.89  0.008337  ( 0.035757  0.057047  0.061677)
 14:    565.91   0.004844   24.48  0.002671  ( 0.035468  0.028591  0.024410)
 15:    587.48   0.035875  181.30  0.019057  (-0.053615 -0.100632 -0.077815)
 16:    687.18   0.004030   20.37  0.001830  ( 0.042454 -0.004977  0.001747)
 17:    719.29   0.000418    2.11  0.000181  ( 0.008011  0.007585 -0.007711)
 18:    743.77   0.015186   76.74  0.006372  ( 0.002239  0.008084  0.079380)
 19:    838.75   0.000487    2.46  0.000181  (-0.001387  0.008117  0.010648)
 20:    852.54   0.000947    4.78  0.000347  ( 0.009313 -0.010376  0.012333)
 21:    918.35   0.000479    2.42  0.000163  (-0.000764 -0.000342 -0.012731)
 22:    940.51   0.000005    0.03  0.000002  (-0.000197 -0.000041  0.001323)
 23:   1040.36   0.007141   36.09  0.002142  (-0.046231 -0.001487  0.001543)
 24:   1065.41   0.001615    8.16  0.000473  (-0.017386  0.013064  0.000087)
 25:   1092.58   0.005875   29.69  0.001678  (-0.040876 -0.002607 -0.000647)
 26:   1165.51   0.001071    5.41  0.000287  (-0.003138 -0.016628  0.000710)
 27:   1183.82   0.000965    4.87  0.000254  ( 0.005791 -0.014848  0.000511)
 28:   1290.03   0.001404    7.10  0.000340  ( 0.003760  0.018043 -0.000071)
 29:   1335.85   0.006471   32.70  0.001512  (-0.026099 -0.028809 -0.000745)
 30:   1363.23   0.001988   10.05  0.000455  (-0.018491  0.010637 -0.000075)
 31:   1479.74   0.002732   13.81  0.000576  (-0.001423  0.023932  0.001174)
 32:   1516.65   0.016033   81.02  0.003299  (-0.043912 -0.036996 -0.001386)
 33:   1604.87   0.000296    1.49  0.000057  ( 0.006670 -0.003492 -0.000885)
 34:   1628.36   0.001158    5.85  0.000222  ( 0.003508  0.010690  0.009768)
 35:   1657.35   0.029257  147.85  0.005509  ( 0.030675  0.065839 -0.015265)
 36:   3153.53   0.001770    8.94  0.000175  ( 0.001154  0.013182 -0.000025)
 37:   3173.30   0.001461    7.38  0.000144  (-0.007169  0.009607 -0.000087)
 38:   3184.56   0.001620    8.18  0.000159  (-0.012459  0.001862 -0.000074)
 39:   3197.13   0.001277    6.45  0.000125  ( 0.007392  0.008368  0.000000)
 40:   3556.14   0.005023   25.39  0.000441  (-0.015194 -0.013122  0.006146)
 41:   3665.72   0.005093   25.74  0.000434  (-0.015728  0.013596 -0.001159)

--------------------------
THERMOCHEMISTRY AT 298.15K
--------------------------

Temperature         ...   298.15 K
Pressure            ...     1.00 atm
Total Mass          ...   127.57 AMU
Quasi RRHO          ...     True
Cut-Off Frequency   ...     1.00 cm^-1

Throughout the following assumptions are being made:
  (1) The electronic state is orbitally nondegenerate
  (2) There are no thermally accessible electronically excited states
  (3) Hindered rotations indicated by low frequency modes are not
      treated as such but are treated as vibrations and this may
      cause some error
  (4) All equations used are the standard statistical mechanics
      equations for an ideal gas
  (5) All vibrations are strictly harmonic

freq.     155.05  E(vib)   ...       0.40
freq.     257.65  E(vib)   ...       0.30
freq.     268.42  E(vib)   ...       0.29
freq.     368.31  E(vib)   ...       0.21
freq.     375.40  E(vib)   ...       0.21
freq.     441.91  E(vib)   ...       0.17
freq.     472.58  E(vib)   ...       0.15
freq.     539.88  E(vib)   ...       0.12
freq.     565.91  E(vib)   ...       0.11
freq.     587.48  E(vib)   ...       0.10
freq.     687.18  E(vib)   ...       0.07
freq.     719.29  E(vib)   ...       0.07
freq.     743.77  E(vib)   ...       0.06
freq.     838.75  E(vib)   ...       0.04
freq.     852.54  E(vib)   ...       0.04
freq.     918.35  E(vib)   ...       0.03
freq.     940.51  E(vib)   ...       0.03
freq.    1040.36  E(vib)   ...       0.02
freq.    1065.41  E(vib)   ...       0.02
freq.    1092.58  E(vib)   ...       0.02
freq.    1165.51  E(vib)   ...       0.01
freq.    1183.82  E(vib)   ...       0.01
freq.    1290.03  E(vib)   ...       0.01
freq.    1335.85  E(vib)   ...       0.01
freq.    1363.23  E(vib)   ...       0.01
freq.    1479.74  E(vib)   ...       0.00
freq.    1516.65  E(vib)   ...       0.00
freq.    1604.87  E(vib)   ...       0.00
freq.    1628.36  E(vib)   ...       0.00
freq.    1657.35  E(vib)   ...       0.00
freq.    3153.53  E(vib)   ...       0.00
freq.    3173.30  E(vib)   ...       0.00
freq.    3184.56  E(vib)   ...       0.00
freq.    3197.13  E(vib)   ...       0.00
freq.    3556.14  E(vib)   ...       0.00
freq.    3665.72  E(vib)   ...       0.00

------------
INNER ENERGY
------------

The inner energy is: U= E(el) + E(ZPE) + E(vib) + E(rot) + E(trans)
    E(el)   - is the total energy from the electronic structure calculation
              = E(kin-el) + E(nuc-el) + E(el-el) + E(nuc-nuc)
    E(ZPE)  - the the zero temperature vibrational energy from the frequency calculation
    E(vib)  - the the finite temperature correction to E(ZPE) due to population
              of excited vibrational states
    E(rot)  - is the rotational thermal energy
    E(trans)- is the translational thermal energy

Summary of contributions to the inner energy U:
Electronic energy                ...   -747.13940254 Eh
Zero point energy                ...      0.10727236 Eh      67.31 kcal/mol
Thermal vibrational correction   ...      0.00402609 Eh       2.53 kcal/mol
Thermal rotational correction    ...      0.00141627 Eh       0.89 kcal/mol
Thermal translational correction ...      0.00141627 Eh       0.89 kcal/mol
-----------------------------------------------------------------------
Total thermal energy                   -747.02527154 Eh

Summary of corrections to the electronic energy:
(perhaps to be used in another calculation)
Total thermal correction                  0.00685863 Eh       4.30 kcal/mol
Non-thermal (ZPE) correction              0.10727236 Eh      67.31 kcal/mol
-----------------------------------------------------------------------
Total correction                          0.11413100 Eh      71.62 kcal/mol

--------
ENTHALPY
--------

The enthalpy is H = U + kB*T
                kB is Boltzmann's constant
Total thermal energy              ...   -747.02527154 Eh
Thermal Enthalpy correction       ...      0.00094421 Eh       0.59 kcal/mol
-----------------------------------------------------------------------
Total Enthalpy                    ...   -747.02432733 Eh

Note: Only C1 symmetry has been detected, increase convergence thresholds
      if your molecule has a higher symmetry. Symmetry factor of 1.0 is
      used for the rotational entropy correction.

Note: Rotational entropy computed according to Herzberg
Infrared and Raman Spectra, Chapter V,1, Van Nostrand Reinhold, 1945
Point Group:  C1, Symmetry Number:   1
Rotational constants in cm-1:     0.097828     0.050946     0.033527

Vibrational entropy computed according to the QRRHO of S. Grimme
Chem.Eur.J. 2012 18 9955 using a reference frequency of 100.0 cm-1

-------
ENTROPY
-------

The entropy contributions are T*S = T*(S(el)+S(vib)+S(rot)+S(trans))
     S(el)   - electronic entropy
     S(vib)  - vibrational entropy
     S(rot)  - rotational entropy
     S(trans)- translational entropy
The entropies will be listed as multiplied by the temperature to get
units of energy

Electronic entropy                ...      0.00000000 Eh      0.00 kcal/mol
Vibrational entropy               ...      0.00618390 Eh      3.88 kcal/mol
Rotational entropy                ...      0.01361655 Eh      8.54 kcal/mol
Translational entropy             ...      0.01921614 Eh     12.06 kcal/mol
-----------------------------------------------------------------------
Final entropy term                ...      0.03901659 Eh     24.48 kcal/mol

In case the symmetry of your molecule has not been determined correctly
or in case you have a reason to use a different symmetry number we print
out the resulting rotational entropy values for sn=1,12:

 non-linear molecules -----------------------------------
|  sn= 1 | S(rot)=       0.01361655 Eh      8.54 kcal/mol|
|  sn= 2 | S(rot)=       0.01296209 Eh      8.13 kcal/mol|
|  sn= 3 | S(rot)=       0.01257926 Eh      7.89 kcal/mol|
|  sn= 4 | S(rot)=       0.01230763 Eh      7.72 kcal/mol|
|  sn= 5 | S(rot)=       0.01209695 Eh      7.59 kcal/mol|
|  sn= 6 | S(rot)=       0.01192480 Eh      7.48 kcal/mol|
|  sn= 7 | S(rot)=       0.01177926 Eh      7.39 kcal/mol|
|  sn= 8 | S(rot)=       0.01165318 Eh      7.31 kcal/mol|
|  sn= 9 | S(rot)=       0.01154197 Eh      7.24 kcal/mol|
|  sn=10 | S(rot)=       0.01144249 Eh      7.18 kcal/mol|
|  sn=11 | S(rot)=       0.01135250 Eh      7.12 kcal/mol|
|  sn=12 | S(rot)=       0.01127035 Eh      7.07 kcal/mol|
 linear molecules ---------------------------------------
|  Dinfh | S(rot)=       0.00853168 Eh      5.35 kcal/mol|
|  Cinfv | S(rot)=       0.00918614 Eh      5.76 kcal/mol|
 --------------------------------------------------------

-------------------
GIBBS FREE ENERGY
-------------------

The Gibbs free energy is G = H - T*S

                             ****ORCA TERMINATED NORMALLY****
TOTAL RUN TIME: 0 days 0 hours 10 minutes 4 seconds 559 msec
