                         Program Version 6.0.1  -  RELEASE   -
|  1> ! pbe def2-sv(p) def2/J RI DEFGRID1 loosescf d4 GCP(DFT/SV(P)) printgap
|  2> %output
|  3>     printlevel normal
|  4> end
|  5> * xyz 0 1
|  6> C -3.0513033815 -0.4876137275 -0.6544585028
|  7> C -2.2732003806 0.4494223136 0.2683328205
|  8> H -2.9964383799 0.9721077543 0.9034857582
|  9> C -1.4687511134 1.4855333259 -0.5445812516
| 10> C 0.0299181236 1.4327673362 -0.2532830069
| 11> C 0.5524474642 0.012842315 -0.4492835944
| 12> H 0.3287977287 -0.2941339191 -1.4801316315
| 13> C -0.1950655653 -0.967239149 0.4373256257
| 14> O 0.1197418351 -2.1283382443 0.5316947465
| 15> C -1.3607195036 -0.3735313146 1.1872761626
| 16> C 2.0733676536 -0.1680035268 -0.2539248561
| 17> C 2.8726915405 0.5221420514 -1.3556417642
| 18> C 2.5354272491 0.3093292497 1.1210307502
| 19> H -3.6593785998 -1.1783453964 -0.0744044341
| 20> H -3.7103393526 0.0806102292 -1.3073873352
| 21> H -2.3693474836 -1.0712595968 -1.2695017932
| 22> H -1.6200925786 1.3001389107 -1.6100013319
| 23> H -1.8370094762 2.4918635067 -0.337517964
| 24> H 0.5466646112 2.1144486543 -0.9305493619
| 25> H 0.2207891592 1.7702161133 0.765580535
| 26> H -1.925587075 -1.175415114 1.6657188047
| 27> H -0.9530317419 0.2665242907 1.9736223527
| 28> H 2.2586630278 -1.2462276156 -0.3165797797
| 29> H 2.5522441022 0.1834567425 -2.3383797821
| 30> H 3.9302021261 0.2937885915 -1.2449794737
| 31> H 2.7551552923 1.6022735524 -1.3053827978
| 32> H 3.5802637198 0.0467448733 1.2704961793
| 33> H 1.9518716739 -0.1642946558 1.9074605387
| 34> H 2.444335436 1.3891642383 1.2134835264
| 35> *
| 36>
| 37>                          ****END OF INPUT****

CARTESIAN COORDINATES (ANGSTROEM)
---------------------------------
  C     -3.051303   -0.487614   -0.654459
  C     -2.273200    0.449422    0.268333
  H     -2.996438    0.972108    0.903486
  C     -1.468751    1.485533   -0.544581
  C      0.029918    1.432767   -0.253283
  C      0.552447    0.012842   -0.449284
  H      0.328798   -0.294134   -1.480132
  C     -0.195066   -0.967239    0.437326
  O      0.119742   -2.128338    0.531695
  C     -1.360720   -0.373531    1.187276
  C      2.073368   -0.168004   -0.253925
  C      2.872692    0.522142   -1.355642
  C      2.535427    0.309329    1.121031
  H     -3.659379   -1.178345   -0.074404
  H     -3.710339    0.080610   -1.307387
  H     -2.369347   -1.071260   -1.269502
  H     -1.620093    1.300139   -1.610001
  H     -1.837009    2.491864   -0.337518
  H      0.546665    2.114449   -0.930549
  H      0.220789    1.770216    0.765581
  H     -1.925587   -1.175415    1.665719
  H     -0.953032    0.266524    1.973622
  H      2.258663   -1.246228   -0.316580
  H      2.552244    0.183457   -2.338380
  H      3.930202    0.293789   -1.244979
  H      2.755155    1.602274   -1.305383
  H      3.580264    0.046745    1.270496
  H      1.951872   -0.164295    1.907461
  H      2.444335    1.389164    1.213484

 Total Charge           Charge          ....    0
 Multiplicity           Mult            ....    1
 Number of Electrons    NEL             ....   86
 Basis Dimension        Dim             ....  190

ORBITAL ENERGIES
----------------

  NO   OCC          E(Eh)            E(eV)
   0   2.0000     -18.738705      -509.9061
   1   2.0000      -9.967486      -271.2291
   2   2.0000      -9.905186      -269.5338
   3   2.0000      -9.897265      -269.3183
   4   2.0000      -9.896362      -269.2937
   5   2.0000      -9.891379      -269.1581
   6   2.0000      -9.890682      -269.1391
   7   2.0000      -9.890341      -269.1299
   8   2.0000      -9.880676      -268.8669
   9   2.0000      -9.875973      -268.7389
  10   2.0000      -9.875926      -268.7376
  11   2.0000      -0.938220       -25.5303
  12   2.0000      -0.768451       -20.9106
  13   2.0000      -0.729662       -19.8551
  14   2.0000      -0.676929       -18.4202
  15   2.0000      -0.652004       -17.7419
  16   2.0000      -0.615785       -16.7564
  17   2.0000      -0.613178       -16.6854
  18   2.0000      -0.559898       -15.2356
  19   2.0000      -0.520162       -14.1543
  20   2.0000      -0.499372       -13.5886
  21   2.0000      -0.460360       -12.5270
  22   2.0000      -0.438537       -11.9332
  23   2.0000      -0.424477       -11.5506
  24   2.0000      -0.416185       -11.3250
  25   2.0000      -0.393763       -10.7148
  26   2.0000      -0.391959       -10.6658
  27   2.0000      -0.383441       -10.4340
  28   2.0000      -0.369817       -10.0632
  29   2.0000      -0.357591        -9.7305
  30   2.0000      -0.351914        -9.5761
  31   2.0000      -0.346824        -9.4376
  32   2.0000      -0.338473        -9.2103
  33   2.0000      -0.333050        -9.0628
  34   2.0000      -0.319856        -8.7037
  35   2.0000      -0.313421        -8.5286
  36   2.0000      -0.301444        -8.2027
  37   2.0000      -0.295371        -8.0375
  38   2.0000      -0.290246        -7.8980
  39   2.0000      -0.281895        -7.6708
  40   2.0000      -0.272984        -7.4283
  41   2.0000      -0.267215        -7.2713
  42   2.0000      -0.190238        -5.1766
  43   0.0000      -0.050479        -1.3736
  44   0.0000       0.022853         0.6219
  45   0.0000       0.045169         1.2291
  46   0.0000       0.046736         1.2718
  47   0.0000       0.063033         1.7152

MULLIKEN ATOMIC CHARGES
-----------------------
   0 C :   -0.257145
   1 C :   -0.205493
   2 H :    0.071867
   3 C :   -0.084805
   4 C :   -0.116475
   5 C :   -0.172913
   6 H :    0.085578
   7 C :   -0.019892
   8 O :   -0.155389
   9 C :   -0.032745
  10 C :   -0.129561
  11 C :   -0.234455
  12 C :   -0.268000
  13 H :    0.102524
  14 H :    0.107345
  15 H :    0.114047
  16 H :    0.071714
  17 H :    0.081710
  18 H :    0.088553
  19 H :    0.080809
  20 H :    0.083542
  21 H :    0.095471
  22 H :    0.086558
  23 H :    0.095218
  24 H :    0.100269
  25 H :    0.097682
  26 H :    0.102783
  27 H :    0.109997
  28 H :    0.101207
Sum of atomic charges:   -0.0000000

LOEWDIN ATOMIC CHARGES
----------------------
   0 C :   -0.329813
   1 C :   -0.147561
   2 H :    0.119878
   3 C :   -0.216140
   4 C :   -0.220653
   5 C :   -0.163442
   6 H :    0.137648
   7 C :    0.050607
   8 O :   -0.121284
   9 C :   -0.238519
  10 C :   -0.143011
  11 C :   -0.328947
  12 C :   -0.330929
  13 H :    0.119994
  14 H :    0.119615
  15 H :    0.119091
  16 H :    0.117153
  17 H :    0.120719
  18 H :    0.121255
  19 H :    0.117678
  20 H :    0.128114
  21 H :    0.137592
  22 H :    0.123154
  23 H :    0.116921
  24 H :    0.120448
  25 H :    0.114003
  26 H :    0.122071
  27 H :    0.119092
  28 H :    0.115267

  Mayer bond orders larger than 0.100000
B(  0-C ,  1-C ) :   1.1059 B(  0-C , 13-H ) :   0.9471 B(  0-C , 14-H ) :   0.9476
B(  0-C , 15-H ) :   0.9448 B(  1-C ,  2-H ) :   0.8923 B(  1-C ,  3-C ) :   1.0556
B(  1-C ,  9-C ) :   1.1111 B(  3-C ,  4-C ) :   1.1893 B(  3-C , 16-H ) :   0.9119
B(  3-C , 17-H ) :   0.9087 B(  4-C ,  5-C ) :   1.1014 B(  4-C , 18-H ) :   0.9048
B(  4-C , 19-H ) :   0.8735 B(  5-C ,  6-H ) :   0.8524 B(  5-C ,  7-C ) :   0.9132
B(  5-C , 10-C ) :   1.0461 B(  7-C ,  8-O ) :   2.1801 B(  7-C ,  9-C ) :   1.0691
B(  9-C , 20-H ) :   0.8919 B(  9-C , 21-H ) :   0.8597 B( 10-C , 11-C ) :   1.1193
B( 10-C , 12-C ) :   1.1103 B( 10-C , 22-H ) :   0.8854 B( 11-C , 23-H ) :   0.9485
B( 11-C , 24-H ) :   0.9487 B( 11-C , 25-H ) :   0.9412 B( 12-C , 26-H ) :   0.9481
B( 12-C , 27-H ) :   0.9461 B( 12-C , 28-H ) :   0.9401

Dispersion correction           -0.030554523
FINAL SINGLE POINT ENERGY      -466.030531179265

DIPOLE MOMENT
-------------

Method             : SCF
Type of density    : Electron Density
Multiplicity       :   1
Irrep              :   0
Energy             :  -466.1264889388367010 Eh
Relativity type    :
Basis              : AO
                                X                 Y                 Z
Electronic contribution:     -1.658764201      -5.915805565       2.239874408
Nuclear contribution   :      1.406924898       6.893649618      -2.351569403
                        -----------------------------------------
Total Dipole Moment    :     -0.251839303       0.977844054      -0.111694995
                        -----------------------------------------
Magnitude (a.u.)       :      1.015912299
Magnitude (Debye)      :      2.582243850

Rotational constants in cm-1:             0.060266             0.025879             0.022138
Rotational constants in MHz :          1806.732058           775.834451           663.687421

                             ****ORCA TERMINATED NORMALLY****
TOTAL RUN TIME: 0 days 0 hours 0 minutes 18 seconds 482 msec
