                         Program Version 6.0.1  -  RELEASE   -
|  1> ! pbe def2-sv(p) def2/J RI DEFGRID1 loosescf d4 GCP(DFT/SV(P)) printgap
|  2> %output
|  3>     printlevel normal
|  4> end
|  5> * xyz 0 1
|  6> C 3.3142176062 -0.3263191845 0.8799297395
|  7> C 1.9440152604 -0.1735460976 0.3072143485
|  8> C 1.4374854113 1.016956885 -0.0288145535
|  9> C 0.0859271569 1.2230624675 -0.5405453895
| 10> O -0.3627383535 2.3385214599 -0.7184932216
| 11> C -0.7652877649 -0.0081988076 -0.8204013183
| 12> H -1.2194642668 0.16672435 -1.8040356688
| 13> C 0.0675251014 -1.2883807559 -0.9191268766
| 14> C 1.1464017017 -1.4288069526 0.1517744426
| 15> C -1.9533063659 -0.0120125029 0.1725762556
| 16> C -3.0403886714 -0.9958863943 -0.2540482533
| 17> C -1.5497364224 -0.2707202419 1.6220910112
| 18> H 3.7819329874 0.6390510977 1.0524642074
| 19> H 3.9404009645 -0.9021016818 0.198232435
| 20> H 3.2681642624 -0.8729047747 1.8215002734
| 21> H 2.016508406 1.9213308722 0.1018827474
| 22> H -0.5880086766 -2.1599344277 -0.8976048517
| 23> H 0.5659354483 -1.2812405919 -1.892586387
| 24> H 0.7057368727 -1.6765848376 1.1202652585
| 25> H 1.8118950415 -2.2553724612 -0.1118343992
| 26> H -2.3736307389 0.9990973857 0.1180765662
| 27> H -3.3574530807 -0.8051688114 -1.2766895823
| 28> H -3.9059303332 -0.894164916 0.3967104788
| 29> H -2.6899828556 -2.0236690239 -0.186662964
| 30> H -1.302275557 -1.318179453 1.7780134677
| 31> H -2.3806772713 -0.0265419598 2.2811307105
| 32> H -0.7001732591 0.3459754752 1.9061485536
| 33> *
| 34>
| 35>                          ****END OF INPUT****

CARTESIAN COORDINATES (ANGSTROEM)
---------------------------------
  C      3.314218   -0.326319    0.879930
  C      1.944015   -0.173546    0.307214
  C      1.437485    1.016957   -0.028815
  C      0.085927    1.223062   -0.540545
  O     -0.362738    2.338521   -0.718493
  C     -0.765288   -0.008199   -0.820401
  H     -1.219464    0.166724   -1.804036
  C      0.067525   -1.288381   -0.919127
  C      1.146402   -1.428807    0.151774
  C     -1.953306   -0.012013    0.172576
  C     -3.040389   -0.995886   -0.254048
  C     -1.549736   -0.270720    1.622091
  H      3.781933    0.639051    1.052464
  H      3.940401   -0.902102    0.198232
  H      3.268164   -0.872905    1.821500
  H      2.016508    1.921331    0.101883
  H     -0.588009   -2.159934   -0.897605
  H      0.565935   -1.281241   -1.892586
  H      0.705737   -1.676585    1.120265
  H      1.811895   -2.255372   -0.111834
  H     -2.373631    0.999097    0.118077
  H     -3.357453   -0.805169   -1.276690
  H     -3.905930   -0.894165    0.396710
  H     -2.689983   -2.023669   -0.186663
  H     -1.302276   -1.318179    1.778013
  H     -2.380677   -0.026542    2.281131
  H     -0.700173    0.345975    1.906149

 Total Charge           Charge          ....    0
 Multiplicity           Mult            ....    1
 Number of Electrons    NEL             ....   84
 Basis Dimension        Dim             ....  186

ORBITAL ENERGIES
----------------

  NO   OCC          E(Eh)            E(eV)
   0   2.0000     -18.720672      -509.4154
   1   2.0000      -9.958524      -270.9852
   2   2.0000      -9.923131      -270.0221
   3   2.0000      -9.901190      -269.4251
   4   2.0000      -9.898059      -269.3399
   5   2.0000      -9.895020      -269.2572
   6   2.0000      -9.894918      -269.2544
   7   2.0000      -9.893942      -269.2279
   8   2.0000      -9.886863      -269.0352
   9   2.0000      -9.875869      -268.7361
  10   2.0000      -9.874576      -268.7009
  11   2.0000      -0.922976       -25.1154
  12   2.0000      -0.772222       -21.0132
  13   2.0000      -0.731848       -19.9146
  14   2.0000      -0.682895       -18.5825
  15   2.0000      -0.654397       -17.8071
  16   2.0000      -0.626391       -17.0450
  17   2.0000      -0.612497       -16.6669
  18   2.0000      -0.560680       -15.2569
  19   2.0000      -0.517433       -14.0801
  20   2.0000      -0.496597       -13.5131
  21   2.0000      -0.454738       -12.3740
  22   2.0000      -0.438873       -11.9423
  23   2.0000      -0.423414       -11.5217
  24   2.0000      -0.401505       -10.9255
  25   2.0000      -0.398469       -10.8429
  26   2.0000      -0.392746       -10.6872
  27   2.0000      -0.372064       -10.1244
  28   2.0000      -0.371469       -10.1082
  29   2.0000      -0.359003        -9.7690
  30   2.0000      -0.348309        -9.4780
  31   2.0000      -0.342805        -9.3282
  32   2.0000      -0.340583        -9.2677
  33   2.0000      -0.335366        -9.1258
  34   2.0000      -0.324548        -8.8314
  35   2.0000      -0.313374        -8.5273
  36   2.0000      -0.299657        -8.1541
  37   2.0000      -0.287040        -7.8108
  38   2.0000      -0.276289        -7.5182
  39   2.0000      -0.270109        -7.3500
  40   2.0000      -0.232130        -6.3166
  41   2.0000      -0.183365        -4.9896
  42   0.0000      -0.077428        -2.1069
  43   0.0000       0.022436         0.6105
  44   0.0000       0.027851         0.7579
  45   0.0000       0.046042         1.2529
  46   0.0000       0.062796         1.7088

MULLIKEN ATOMIC CHARGES
-----------------------
   0 C :   -0.220779
   1 C :   -0.082909
   2 C :   -0.140920
   3 C :    0.091762
   4 O :   -0.170923
   5 C :   -0.135162
   6 H :    0.075009
   7 C :   -0.114813
   8 C :   -0.100207
   9 C :   -0.175336
  10 C :   -0.230882
  11 C :   -0.257180
  12 H :    0.112111
  13 H :    0.121858
  14 H :    0.118404
  15 H :    0.041671
  16 H :    0.082463
  17 H :    0.089537
  18 H :    0.106778
  19 H :    0.089952
  20 H :    0.086965
  21 H :    0.098698
  22 H :    0.100651
  23 H :    0.096467
  24 H :    0.101521
  25 H :    0.102442
  26 H :    0.112823
Sum of atomic charges:    0.0000000

LOEWDIN ATOMIC CHARGES
----------------------
   0 C :   -0.322039
   1 C :   -0.015851
   2 C :   -0.174337
   3 C :    0.038500
   4 O :   -0.135743
   5 C :   -0.158613
   6 H :    0.134749
   7 C :   -0.212297
   8 C :   -0.217351
   9 C :   -0.141469
  10 C :   -0.329799
  11 C :   -0.334017
  12 H :    0.128955
  13 H :    0.137402
  14 H :    0.135518
  15 H :    0.127752
  16 H :    0.119224
  17 H :    0.124007
  18 H :    0.136085
  19 H :    0.126169
  20 H :    0.123982
  21 H :    0.118486
  22 H :    0.120801
  23 H :    0.113003
  24 H :    0.113463
  25 H :    0.122503
  26 H :    0.120917

  Mayer bond orders larger than 0.100000
B(  0-C ,  1-C ) :   1.1226 B(  0-C , 12-H ) :   0.9424 B(  0-C , 13-H ) :   0.9232
B(  0-C , 14-H ) :   0.9293 B(  1-C ,  2-C ) :   1.7129 B(  1-C ,  8-C ) :   1.0810
B(  2-C ,  3-C ) :   1.0713 B(  2-C , 15-H ) :   0.9340 B(  3-C ,  4-O ) :   2.0954
B(  3-C ,  5-C ) :   0.9508 B(  5-C ,  6-H ) :   0.8551 B(  5-C ,  7-C ) :   1.0545
B(  5-C ,  9-C ) :   1.0529 B(  7-C ,  8-C ) :   1.1402 B(  7-C , 16-H ) :   0.9048
B(  7-C , 17-H ) :   0.9131 B(  8-C , 18-H ) :   0.8607 B(  8-C , 19-H ) :   0.9042
B(  9-C , 10-C ) :   1.1173 B(  9-C , 11-C ) :   1.1212 B(  9-C , 20-H ) :   0.8858
B( 10-C , 21-H ) :   0.9476 B( 10-C , 22-H ) :   0.9480 B( 10-C , 23-H ) :   0.9382
B( 11-C , 24-H ) :   0.9335 B( 11-C , 25-H ) :   0.9430 B( 11-C , 26-H ) :   0.9427

Dispersion correction           -0.029010104
FINAL SINGLE POINT ENERGY      -464.842752302428

DIPOLE MOMENT
-------------

Method             : SCF
Type of density    : Electron Density
Multiplicity       :   1
Irrep              :   0
Energy             :  -464.9272274604717268 Eh
Relativity type    :
Basis              : AO
                                X                 Y                 Z
Electronic contribution:      2.874224107       8.215556808      -3.956231870
Nuclear contribution   :     -2.282329867      -9.481787346       4.309612745
                        -----------------------------------------
Total Dipole Moment    :      0.591894240      -1.266230538       0.353380875
                        -----------------------------------------
Magnitude (a.u.)       :      1.441720017
Magnitude (Debye)      :      3.664561057

Rotational constants in cm-1:             0.055727             0.027864             0.023162
Rotational constants in MHz :          1670.645559           835.333501           694.383438

                             ****ORCA TERMINATED NORMALLY****
TOTAL RUN TIME: 0 days 0 hours 0 minutes 29 seconds 782 msec
