                         Program Version 6.0.0  -   RELEASE  -
|  1> ! r2SCAN-3c DEF2-TZVP FREQ
|  2> * xyzfile 0 1 censo.xyz
|  3>
|  4>                          ****END OF INPUT****

CARTESIAN COORDINATES (ANGSTROEM)
---------------------------------
  C     -1.849428   -0.000178    0.072157
  C     -1.065240    1.256726   -0.296880
  C      0.316408    1.271706    0.387106
  C      1.068684    0.000158    0.109159
  O      2.217867    0.000252   -0.327554
  C      0.316656   -1.271500    0.387230
  C     -1.064876   -1.256816   -0.296997
  H     -2.816681   -0.000283   -0.442524
  H     -2.055049   -0.000270    1.150944
  H     -0.924867    1.293829   -1.384540
  H     -1.613989    2.159346   -0.009779
  H      0.917863    2.130000    0.076934
  H      0.166095    1.325322    1.474832
  H      0.918318   -2.129732    0.077290
  H      0.166138   -1.324973    1.474934
  H     -0.924305   -1.293676   -1.384644
  H     -1.613423   -2.159641   -0.010154

 Total Charge           Charge          ....    0
 Multiplicity           Mult            ....    1
 Number of Electrons    NEL             ....   54
 Basis Dimension        Dim             ....  277

ORBITAL ENERGIES
----------------

  NO   OCC          E(Eh)            E(eV)
   0   2.0000     -18.933847      -515.2162
   1   2.0000     -10.114454      -275.2283
   2   2.0000     -10.045033      -273.3392
   3   2.0000     -10.045031      -273.3392
   4   2.0000     -10.041067      -273.2313
   5   2.0000     -10.041063      -273.2312
   6   2.0000     -10.041022      -273.2301
   7   2.0000      -0.990469       -26.9520
   8   2.0000      -0.806170       -21.9370
   9   2.0000      -0.727801       -19.8045
  10   2.0000      -0.700445       -19.0601
  11   2.0000      -0.599194       -16.3049
  12   2.0000      -0.565095       -15.3770
  13   2.0000      -0.504760       -13.7352
  14   2.0000      -0.450557       -12.2603
  15   2.0000      -0.432468       -11.7681
  16   2.0000      -0.419490       -11.4149
  17   2.0000      -0.411799       -11.2056
  18   2.0000      -0.389987       -10.6121
  19   2.0000      -0.373094       -10.1524
  20   2.0000      -0.365537        -9.9468
  21   2.0000      -0.332341        -9.0435
  22   2.0000      -0.331119        -9.0102
  23   2.0000      -0.307084        -8.3562
  24   2.0000      -0.303629        -8.2622
  25   2.0000      -0.298489        -8.1223
  26   2.0000      -0.207843        -5.6557
  27   0.0000      -0.050034        -1.3615
  28   0.0000       0.041247         1.1224
  29   0.0000       0.056334         1.5329
  30   0.0000       0.071585         1.9479
  31   0.0000       0.081353         2.2137

MULLIKEN ATOMIC CHARGES
-----------------------
   0 C :   -0.173737
   1 C :   -0.164551
   2 C :   -0.130837
   3 C :    0.130191
   4 O :   -0.325926
   5 C :   -0.130806
   6 C :   -0.164550
   7 H :    0.097135
   8 H :    0.081551
   9 H :    0.094465
  10 H :    0.096047
  11 H :    0.108725
  12 H :    0.091529
  13 H :    0.108726
  14 H :    0.091518
  15 H :    0.094464
  16 H :    0.096053
Sum of atomic charges:   -0.0000000

LOEWDIN ATOMIC CHARGES
----------------------
   0 C :   -0.263699
   1 C :   -0.249764
   2 C :   -0.216724
   3 C :   -0.323745
   4 O :    0.105307
   5 C :   -0.216724
   6 C :   -0.249759
   7 H :    0.137017
   8 H :    0.135867
   9 H :    0.139255
  10 H :    0.135367
  11 H :    0.144460
  12 H :    0.152033
  13 H :    0.144457
  14 H :    0.152029
  15 H :    0.139257
  16 H :    0.135366

  Mayer bond orders larger than 0.100000
B(  0-C ,  1-C ) :   0.9875 B(  0-C ,  6-C ) :   0.9874 B(  0-C ,  7-H ) :   0.9567
B(  0-C ,  8-H ) :   0.9657 B(  1-C ,  2-C ) :   0.9474 B(  1-C ,  9-H ) :   0.9635
B(  1-C , 10-H ) :   0.9593 B(  2-C ,  3-C ) :   0.9749 B(  2-C , 11-H ) :   0.9503
B(  2-C , 12-H ) :   0.9323 B(  3-C ,  4-O ) :   2.0989 B(  3-C ,  5-C ) :   0.9749
B(  5-C ,  6-C ) :   0.9474 B(  5-C , 13-H ) :   0.9503 B(  5-C , 14-H ) :   0.9323
B(  6-C , 15-H ) :   0.9635 B(  6-C , 16-H ) :   0.9593

Dispersion correction           -0.004774315
FINAL SINGLE POINT ENERGY      -309.829517341967

DIPOLE MOMENT
-------------

Method             : SCF
Type of density    : Electron Density
Multiplicity       :   1
Irrep              :   0
Energy             :  -309.8315704329600635 Eh
Relativity type    :
Basis              : AO
                                X                 Y                 Z
Electronic contribution:      5.988369899       0.000450558      -0.561184614
Nuclear contribution   :     -7.293202947      -0.000557699       0.942140645
                        -----------------------------------------
Total Dipole Moment    :     -1.304833048      -0.000107141       0.380956031
                        -----------------------------------------
Magnitude (a.u.)       :      1.359307468
Magnitude (Debye)      :      3.455085003

VIBRATIONAL FREQUENCIES
-----------------------

Scaling factor for frequencies =  1.000000000  (already applied!)

     0:       0.00 cm**-1
     1:       0.00 cm**-1
     2:       0.00 cm**-1
     3:       0.00 cm**-1
     4:       0.00 cm**-1
     5:       0.00 cm**-1
     6:     122.67 cm**-1
     7:     185.02 cm**-1
     8:     313.48 cm**-1
     9:     413.15 cm**-1
    10:     418.68 cm**-1
    11:     492.11 cm**-1
    12:     507.21 cm**-1
    13:     671.70 cm**-1
    14:     768.53 cm**-1
    15:     770.49 cm**-1
    16:     848.64 cm**-1
    17:     876.02 cm**-1
    18:     896.52 cm**-1
    19:     918.74 cm**-1
    20:    1002.40 cm**-1
    21:    1030.79 cm**-1
    22:    1060.86 cm**-1
    23:    1080.26 cm**-1
    24:    1128.67 cm**-1
    25:    1133.50 cm**-1
    26:    1243.70 cm**-1
    27:    1244.70 cm**-1
    28:    1266.56 cm**-1
    29:    1288.23 cm**-1
    30:    1330.06 cm**-1
    31:    1334.09 cm**-1
    32:    1363.23 cm**-1
    33:    1368.30 cm**-1
    34:    1371.45 cm**-1
    35:    1450.15 cm**-1
    36:    1460.64 cm**-1
    37:    1479.42 cm**-1
    38:    1480.04 cm**-1
    39:    1495.44 cm**-1
    40:    1690.37 cm**-1
    41:    2992.78 cm**-1
    42:    2997.45 cm**-1
    43:    2999.66 cm**-1
    44:    3009.14 cm**-1
    45:    3010.09 cm**-1
    46:    3055.15 cm**-1
    47:    3063.09 cm**-1
    48:    3068.03 cm**-1
    49:    3090.65 cm**-1
    50:    3092.04 cm**-1

IR SPECTRUM
-----------

 Mode   freq       eps      Int      T**2         TX        TY        TZ
       cm**-1   L/(mol*cm) km/mol    a.u.
----------------------------------------------------------------------------
  6:    122.67   0.000636    3.21  0.001617  ( 0.011079  0.000001  0.038655)
  7:    185.02   0.000133    0.67  0.000225  ( 0.000000 -0.014986 -0.000002)
  8:    313.48   0.000039    0.19  0.000038  ( 0.006099  0.000003  0.001077)
  9:    413.15   0.000291    1.47  0.000220  (-0.014833 -0.000006 -0.000195)
 10:    418.68   0.000320    1.62  0.000239  ( 0.000001 -0.015452  0.000003)
 11:    492.11   0.000055    0.28  0.000035  (-0.005907  0.000012  0.000132)
 12:    507.21   0.001784    9.02  0.001098  ( 0.000006  0.033131 -0.000005)
 13:    671.70   0.000361    1.82  0.000168  ( 0.008983  0.000006 -0.009323)
 14:    768.53   0.000750    3.79  0.000305  (-0.014455  0.000029  0.009777)
 15:    770.49   0.001024    5.17  0.000415  (-0.000021 -0.020362  0.000013)
 16:    848.64   0.000053    0.27  0.000020  ( 0.000643 -0.000000  0.004383)
 17:    876.02   0.000730    3.69  0.000260  ( 0.016117  0.000002 -0.000587)
 18:    896.52   0.000487    2.46  0.000169  (-0.000001 -0.013016  0.000001)
 19:    918.74   0.000553    2.80  0.000188  (-0.000002  0.013707  0.000000)
 20:   1002.40   0.000266    1.34  0.000083  (-0.007282 -0.000007  0.005447)
 21:   1030.79   0.000748    3.78  0.000227  ( 0.014397 -0.000000  0.004391)
 22:   1060.86   0.000787    3.98  0.000231  (-0.000004  0.015213 -0.000001)
 23:   1080.26   0.000014    0.07  0.000004  ( 0.000003  0.002017 -0.000001)
 24:   1128.67   0.003494   17.66  0.000966  ( 0.000006  0.031081 -0.000002)
 25:   1133.50   0.000198    1.00  0.000055  ( 0.007322 -0.000015 -0.000966)
 26:   1243.70   0.000509    2.57  0.000128  ( 0.010313 -0.000034 -0.004628)
 27:   1244.70   0.004254   21.50  0.001066  (-0.000011 -0.032657  0.000009)
 28:   1266.56   0.000023    0.12  0.000006  (-0.000610  0.000004 -0.002311)
 29:   1288.23   0.000348    1.76  0.000084  ( 0.000000  0.009178 -0.000001)
 30:   1330.06   0.002780   14.05  0.000652  (-0.000009 -0.025538 -0.000002)
 31:   1334.09   0.001265    6.39  0.000296  (-0.017114  0.000008 -0.001749)
 32:   1363.23   0.001263    6.38  0.000289  (-0.000006  0.017005 -0.000001)
 33:   1368.30   0.000847    4.28  0.000193  (-0.013840  0.000013  0.001268)
 34:   1371.45   0.001482    7.49  0.000337  ( 0.000021  0.018363 -0.000001)
 35:   1450.15   0.002057   10.39  0.000443  (-0.000002 -0.021039 -0.000006)
 36:   1460.64   0.001892    9.56  0.000404  ( 0.012659 -0.000008  0.015618)
 37:   1479.42   0.001439    7.27  0.000304  (-0.000013 -0.017423  0.000052)
 38:   1480.04   0.002026   10.24  0.000427  ( 0.005647 -0.000044 -0.019881)
 39:   1495.44   0.000425    2.15  0.000089  ( 0.002826  0.000001  0.008983)
 40:   1690.37   0.041729  210.88  0.007704  (-0.083978 -0.000008  0.025523)
 41:   2992.78   0.000590    2.98  0.000061  ( 0.000006  0.007841  0.000005)
 42:   2997.45   0.003810   19.26  0.000397  (-0.015928 -0.000012  0.011958)
 43:   2999.66   0.002262   11.43  0.000235  ( 0.013251 -0.000006  0.007729)
 44:   3009.14   0.004619   23.34  0.000479  ( 0.000040  0.021883  0.000287)
 45:   3010.09   0.007924   40.04  0.000821  (-0.005155  0.000217 -0.028193)
 46:   3055.15   0.008665   43.79  0.000885  ( 0.026303 -0.000002  0.013899)
 47:   3063.09   0.007047   35.61  0.000718  (-0.000011 -0.026794  0.000020)
 48:   3068.03   0.008694   43.94  0.000884  ( 0.009288 -0.000021 -0.028250)
 49:   3090.65   0.003963   20.03  0.000400  ( 0.000031  0.020005 -0.000038)
 50:   3092.04   0.003120   15.77  0.000315  ( 0.012585 -0.000054 -0.012509)

--------------------------
THERMOCHEMISTRY AT 298.15K
--------------------------

Temperature         ...   298.15 K
Pressure            ...     1.00 atm
Total Mass          ...    98.14 AMU
Quasi RRHO          ...     True
Cut-Off Frequency   ...     1.00 cm^-1

Throughout the following assumptions are being made:
  (1) The electronic state is orbitally nondegenerate
  (2) There are no thermally accessible electronically excited states
  (3) Hindered rotations indicated by low frequency modes are not
      treated as such but are treated as vibrations and this may
      cause some error
  (4) All equations used are the standard statistical mechanics
      equations for an ideal gas
  (5) All vibrations are strictly harmonic

freq.     122.67  E(vib)   ...       0.43
freq.     185.02  E(vib)   ...       0.37
freq.     313.48  E(vib)   ...       0.25
freq.     413.15  E(vib)   ...       0.19
freq.     418.68  E(vib)   ...       0.18
freq.     492.11  E(vib)   ...       0.14
freq.     507.21  E(vib)   ...       0.14
freq.     671.70  E(vib)   ...       0.08
freq.     768.53  E(vib)   ...       0.06
freq.     770.49  E(vib)   ...       0.05
freq.     848.64  E(vib)   ...       0.04
freq.     876.02  E(vib)   ...       0.04
freq.     896.52  E(vib)   ...       0.03
freq.     918.74  E(vib)   ...       0.03
freq.    1002.40  E(vib)   ...       0.02
freq.    1030.79  E(vib)   ...       0.02
freq.    1060.86  E(vib)   ...       0.02
freq.    1080.26  E(vib)   ...       0.02
freq.    1128.67  E(vib)   ...       0.01
freq.    1133.50  E(vib)   ...       0.01
freq.    1243.70  E(vib)   ...       0.01
freq.    1244.70  E(vib)   ...       0.01
freq.    1266.56  E(vib)   ...       0.01
freq.    1288.23  E(vib)   ...       0.01
freq.    1330.06  E(vib)   ...       0.01
freq.    1334.09  E(vib)   ...       0.01
freq.    1363.23  E(vib)   ...       0.01
freq.    1368.30  E(vib)   ...       0.01
freq.    1371.45  E(vib)   ...       0.01
freq.    1450.15  E(vib)   ...       0.00
freq.    1460.64  E(vib)   ...       0.00
freq.    1479.42  E(vib)   ...       0.00
freq.    1480.04  E(vib)   ...       0.00
freq.    1495.44  E(vib)   ...       0.00
freq.    1690.37  E(vib)   ...       0.00
freq.    2992.78  E(vib)   ...       0.00
freq.    2997.45  E(vib)   ...       0.00
freq.    2999.66  E(vib)   ...       0.00
freq.    3009.14  E(vib)   ...       0.00
freq.    3010.09  E(vib)   ...       0.00
freq.    3055.15  E(vib)   ...       0.00
freq.    3063.09  E(vib)   ...       0.00
freq.    3068.03  E(vib)   ...       0.00
freq.    3090.65  E(vib)   ...       0.00
freq.    3092.04  E(vib)   ...       0.00

------------
INNER ENERGY
------------

The inner energy is: U= E(el) + E(ZPE) + E(vib) + E(rot) + E(trans)
    E(el)   - is the total energy from the electronic structure calculation
              = E(kin-el) + E(nuc-el) + E(el-el) + E(nuc-nuc)
    E(ZPE)  - the the zero temperature vibrational energy from the frequency calculation
    E(vib)  - the the finite temperature correction to E(ZPE) due to population
              of excited vibrational states
    E(rot)  - is the rotational thermal energy
    E(trans)- is the translational thermal energy

Summary of contributions to the inner energy U:
Electronic energy                ...   -309.82951734 Eh
Zero point energy                ...      0.15009449 Eh      94.19 kcal/mol
Thermal vibrational correction   ...      0.00354411 Eh       2.22 kcal/mol
Thermal rotational correction    ...      0.00141627 Eh       0.89 kcal/mol
Thermal translational correction ...      0.00141627 Eh       0.89 kcal/mol
-----------------------------------------------------------------------
Total thermal energy                   -309.67304620 Eh

Summary of corrections to the electronic energy:
(perhaps to be used in another calculation)
Total thermal correction                  0.00637665 Eh       4.00 kcal/mol
Non-thermal (ZPE) correction              0.15009449 Eh      94.19 kcal/mol
-----------------------------------------------------------------------
Total correction                          0.15647114 Eh      98.19 kcal/mol

--------
ENTHALPY
--------

The enthalpy is H = U + kB*T
                kB is Boltzmann's constant
Total thermal energy              ...   -309.67304620 Eh
Thermal Enthalpy correction       ...      0.00094421 Eh       0.59 kcal/mol
-----------------------------------------------------------------------
Total Enthalpy                    ...   -309.67210199 Eh

Note: Only C1 symmetry has been detected, increase convergence thresholds
      if your molecule has a higher symmetry. Symmetry factor of 1.0 is
      used for the rotational entropy correction.

Note: Rotational entropy computed according to Herzberg
Infrared and Raman Spectra, Chapter V,1, Van Nostrand Reinhold, 1945
Point Group:  C1, Symmetry Number:   1
Rotational constants in cm-1:     0.140858     0.083631     0.058863

Vibrational entropy computed according to the QRRHO of S. Grimme
Chem.Eur.J. 2012 18 9955 using a reference frequency of 100.0 cm-1

-------
ENTROPY
-------

The entropy contributions are T*S = T*(S(el)+S(vib)+S(rot)+S(trans))
     S(el)   - electronic entropy
     S(vib)  - vibrational entropy
     S(rot)  - rotational entropy
     S(trans)- translational entropy
The entropies will be listed as multiplied by the temperature to get
units of energy

Electronic entropy                ...      0.00000000 Eh      0.00 kcal/mol
Vibrational entropy               ...      0.00562252 Eh      3.53 kcal/mol
Rotational entropy                ...      0.01294474 Eh      8.12 kcal/mol
Translational entropy             ...      0.01884472 Eh     11.83 kcal/mol
-----------------------------------------------------------------------
Final entropy term                ...      0.03741198 Eh     23.48 kcal/mol

In case the symmetry of your molecule has not been determined correctly
or in case you have a reason to use a different symmetry number we print
out the resulting rotational entropy values for sn=1,12:

 non-linear molecules -----------------------------------
|  sn= 1 | S(rot)=       0.01294474 Eh      8.12 kcal/mol|
|  sn= 2 | S(rot)=       0.01229028 Eh      7.71 kcal/mol|
|  sn= 3 | S(rot)=       0.01190745 Eh      7.47 kcal/mol|
|  sn= 4 | S(rot)=       0.01163583 Eh      7.30 kcal/mol|
|  sn= 5 | S(rot)=       0.01142514 Eh      7.17 kcal/mol|
|  sn= 6 | S(rot)=       0.01125299 Eh      7.06 kcal/mol|
|  sn= 7 | S(rot)=       0.01110745 Eh      6.97 kcal/mol|
|  sn= 8 | S(rot)=       0.01098137 Eh      6.89 kcal/mol|
|  sn= 9 | S(rot)=       0.01087016 Eh      6.82 kcal/mol|
|  sn=10 | S(rot)=       0.01077068 Eh      6.76 kcal/mol|
|  sn=11 | S(rot)=       0.01068069 Eh      6.70 kcal/mol|
|  sn=12 | S(rot)=       0.01059854 Eh      6.65 kcal/mol|
 linear molecules ---------------------------------------
|  Dinfh | S(rot)=       0.00800023 Eh      5.02 kcal/mol|
|  Cinfv | S(rot)=       0.00865469 Eh      5.43 kcal/mol|

                             ****ORCA TERMINATED NORMALLY****
TOTAL RUN TIME: 0 days 0 hours 12 minutes 20 seconds 25 msec
