                         Program Version 6.0.0  -   RELEASE  -
|  1> ! r2SCAN-3c DEF2-TZVP FREQ
|  2> * xyzfile 0 1 vacuum_censo.xyz
|  3>
|  4>                          ****END OF INPUT****

CARTESIAN COORDINATES (ANGSTROEM)
---------------------------------
  C     -1.849235    0.000101   -0.066072
  C     -1.062026    1.259587    0.295750
  C      0.313320    1.276698   -0.397309
  C      1.079599   -0.000082   -0.111807
  O      2.209484   -0.000162    0.332731
  C      0.313165   -1.276760   -0.397352
  C     -1.062185   -1.259498    0.295697
  H     -2.064706    0.000139   -1.143757
  H     -2.815674    0.000150    0.450543
  H     -1.622283    2.160158    0.021762
  H     -0.913760    1.296117    1.382892
  H      0.159447    1.339715   -1.484436
  H      0.920636    2.130370   -0.086842
  H      0.159299   -1.339741   -1.484482
  H      0.920373   -2.130511   -0.086890
  H     -1.622557   -2.159987    0.021673
  H     -0.913925   -1.296092    1.382838

 Total Charge           Charge          ....    0
 Multiplicity           Mult            ....    1
 Number of Electrons    NEL             ....   54
 Basis Dimension        Dim             ....  277

ORBITAL ENERGIES
----------------

  NO   OCC          E(Eh)            E(eV)
   0   2.0000     -18.936002      -515.2748
   1   2.0000     -10.114956      -275.2419
   2   2.0000     -10.044639      -273.3285
   3   2.0000     -10.044637      -273.3285
   4   2.0000     -10.040650      -273.2200
   5   2.0000     -10.040630      -273.2194
   6   2.0000     -10.040626      -273.2193
   7   2.0000      -0.999654       -27.2020
   8   2.0000      -0.804071       -21.8799
   9   2.0000      -0.726544       -19.7703
  10   2.0000      -0.697809       -18.9883
  11   2.0000      -0.597822       -16.2676
  12   2.0000      -0.563652       -15.3377
  13   2.0000      -0.503633       -13.7046
  14   2.0000      -0.449777       -12.2391
  15   2.0000      -0.432540       -11.7700
  16   2.0000      -0.419382       -11.4120
  17   2.0000      -0.410859       -11.1801
  18   2.0000      -0.389279       -10.5928
  19   2.0000      -0.374593       -10.1932
  20   2.0000      -0.365142        -9.9360
  21   2.0000      -0.334301        -9.0968
  22   2.0000      -0.331450        -9.0192
  23   2.0000      -0.306649        -8.3443
  24   2.0000      -0.302863        -8.2413
  25   2.0000      -0.300582        -8.1792
  26   2.0000      -0.208545        -5.6748
  27   0.0000      -0.047659        -1.2969
  28   0.0000       0.041742         1.1358
  29   0.0000       0.057176         1.5558
  30   0.0000       0.071934         1.9574
  31   0.0000       0.081427         2.2157

MULLIKEN ATOMIC CHARGES
-----------------------
   0 C :   -0.173470
   1 C :   -0.166167
   2 C :   -0.136815
   3 C :    0.131003
   4 O :   -0.308648
   5 C :   -0.136820
   6 C :   -0.166167
   7 H :    0.080690
   8 H :    0.097382
   9 H :    0.096491
  10 H :    0.093964
  11 H :    0.092113
  12 H :    0.106935
  13 H :    0.092116
  14 H :    0.106934
  15 H :    0.096491
  16 H :    0.093965
Sum of atomic charges:   -0.0000000

LOEWDIN ATOMIC CHARGES
----------------------
   0 C :   -0.263421
   1 C :   -0.251596
   2 C :   -0.217636
   3 C :   -0.329154
   4 O :    0.124149
   5 C :   -0.217635
   6 C :   -0.251596
   7 H :    0.135627
   8 H :    0.136532
   9 H :    0.135181
  10 H :    0.139110
  11 H :    0.149970
  12 H :    0.143104
  13 H :    0.149969
  14 H :    0.143104
  15 H :    0.135181
  16 H :    0.139110

  Mayer bond orders larger than 0.100000
B(  0-C ,  1-C ) :   0.9878 B(  0-C ,  6-C ) :   0.9878 B(  0-C ,  7-H ) :   0.9655
B(  0-C ,  8-H ) :   0.9569 B(  1-C ,  2-C ) :   0.9494 B(  1-C ,  9-H ) :   0.9592
B(  1-C , 10-H ) :   0.9641 B(  2-C ,  3-C ) :   0.9680 B(  2-C , 11-H ) :   0.9340
B(  2-C , 12-H ) :   0.9506 B(  3-C ,  4-O ) :   2.1148 B(  3-C ,  5-C ) :   0.9680
B(  5-C ,  6-C ) :   0.9494 B(  5-C , 13-H ) :   0.9340 B(  5-C , 14-H ) :   0.9506
B(  6-C , 15-H ) :   0.9592 B(  6-C , 16-H ) :   0.9641

Dispersion correction           -0.004769920
FINAL SINGLE POINT ENERGY      -309.830073497301

DIPOLE MOMENT
-------------

Method             : SCF
Type of density    : Electron Density
Multiplicity       :   1
Irrep              :   0
Energy             :  -309.8321010000595948 Eh
Relativity type    :
Basis              : AO
                                X                 Y                 Z
Electronic contribution:      6.044320396      -0.000375010       0.556341972
Nuclear contribution   :     -7.303635931       0.000461266      -0.930648323
                        -----------------------------------------
Total Dipole Moment    :     -1.259315535       0.000086256      -0.374306351
                        -----------------------------------------
Magnitude (a.u.)       :      1.313765911
Magnitude (Debye)      :      3.339327565

VIBRATIONAL FREQUENCIES
-----------------------

Scaling factor for frequencies =  1.000000000  (already applied!)

     0:       0.00 cm**-1
     1:       0.00 cm**-1
     2:       0.00 cm**-1
     3:       0.00 cm**-1
     4:       0.00 cm**-1
     5:       0.00 cm**-1
     6:      96.45 cm**-1
     7:     187.20 cm**-1
     8:     312.33 cm**-1
     9:     412.37 cm**-1
    10:     414.85 cm**-1
    11:     487.04 cm**-1
    12:     498.88 cm**-1
    13:     665.78 cm**-1
    14:     754.00 cm**-1
    15:     764.75 cm**-1
    16:     843.40 cm**-1
    17:     875.60 cm**-1
    18:     895.32 cm**-1
    19:     916.59 cm**-1
    20:    1003.17 cm**-1
    21:    1027.77 cm**-1
    22:    1055.21 cm**-1
    23:    1078.60 cm**-1
    24:    1122.56 cm**-1
    25:    1131.62 cm**-1
    26:    1234.21 cm**-1
    27:    1242.73 cm**-1
    28:    1266.58 cm**-1
    29:    1287.00 cm**-1
    30:    1324.55 cm**-1
    31:    1333.78 cm**-1
    32:    1359.41 cm**-1
    33:    1368.64 cm**-1
    34:    1368.74 cm**-1
    35:    1451.37 cm**-1
    36:    1461.02 cm**-1
    37:    1480.76 cm**-1
    38:    1481.48 cm**-1
    39:    1496.52 cm**-1
    40:    1763.94 cm**-1
    41:    2991.05 cm**-1
    42:    2991.85 cm**-1
    43:    2997.40 cm**-1
    44:    3004.77 cm**-1
    45:    3006.10 cm**-1
    46:    3051.21 cm**-1
    47:    3055.21 cm**-1
    48:    3060.60 cm**-1
    49:    3091.28 cm**-1
    50:    3092.64 cm**-1

IR SPECTRUM
-----------

 Mode   freq       eps      Int      T**2         TX        TY        TZ
       cm**-1   L/(mol*cm) km/mol    a.u.
----------------------------------------------------------------------------
  6:     96.45   0.000625    3.16  0.002023  ( 0.013204  0.000000 -0.042991)
  7:    187.20   0.000151    0.76  0.000252  (-0.000001  0.015885 -0.000000)
  8:    312.33   0.000035    0.18  0.000035  (-0.005931  0.000001  0.000469)
  9:    412.37   0.000252    1.27  0.000191  (-0.013815 -0.000001  0.000141)
 10:    414.85   0.000398    2.01  0.000299  (-0.000004  0.017302 -0.000001)
 11:    487.04   0.000045    0.23  0.000029  ( 0.005332 -0.000000  0.000521)
 12:    498.88   0.001678    8.48  0.001050  (-0.000003  0.032401 -0.000002)
 13:    665.78   0.000240    1.21  0.000112  ( 0.006396 -0.000001  0.008451)
 14:    754.00   0.001011    5.11  0.000418  (-0.017102 -0.000000 -0.011220)
 15:    764.75   0.001287    6.50  0.000525  ( 0.000001 -0.022912  0.000001)
 16:    843.40   0.000047    0.24  0.000017  (-0.000089  0.000000 -0.004156)
 17:    875.60   0.000714    3.61  0.000254  ( 0.015945 -0.000000  0.000337)
 18:    895.32   0.000525    2.65  0.000183  ( 0.000001 -0.013531  0.000001)
 19:    916.59   0.000592    2.99  0.000202  ( 0.000000  0.014202  0.000000)
 20:   1003.17   0.000325    1.64  0.000101  (-0.008224  0.000000 -0.005787)
 21:   1027.77   0.000654    3.31  0.000199  ( 0.013203  0.000000 -0.004928)
 22:   1055.21   0.001439    7.27  0.000426  (-0.000001  0.020632 -0.000000)
 23:   1078.60   0.000027    0.13  0.000008  (-0.000001  0.002780 -0.000000)
 24:   1122.56   0.004374   22.10  0.001216  ( 0.000000  0.034870 -0.000000)
 25:   1131.62   0.000186    0.94  0.000051  ( 0.007070 -0.000002  0.001088)
 26:   1234.21   0.004961   25.07  0.001254  ( 0.000002 -0.035416  0.000002)
 27:   1242.73   0.000334    1.69  0.000084  ( 0.008194  0.000003  0.004094)
 28:   1266.58   0.000032    0.16  0.000008  (-0.002171  0.000000  0.001806)
 29:   1287.00   0.000249    1.26  0.000060  ( 0.000001 -0.007769  0.000001)
 30:   1324.55   0.002910   14.70  0.000685  (-0.000001 -0.026182  0.000000)
 31:   1333.78   0.001198    6.06  0.000280  ( 0.016697 -0.000002 -0.001250)
 32:   1359.41   0.001113    5.63  0.000256  (-0.000001  0.015987 -0.000000)
 33:   1368.64   0.000770    3.89  0.000176  ( 0.013254  0.000037  0.000059)
 34:   1368.74   0.000232    1.17  0.000053  ( 0.000070 -0.007272  0.000000)
 35:   1451.37   0.001760    8.89  0.000378  (-0.000001 -0.019450 -0.000000)
 36:   1461.02   0.001727    8.73  0.000369  ( 0.011659 -0.000000 -0.015262)
 37:   1480.76   0.001239    6.26  0.000261  (-0.000000 -0.016161  0.000003)
 38:   1481.48   0.001963    9.92  0.000414  ( 0.006145  0.000002  0.019386)
 39:   1496.52   0.000446    2.25  0.000093  (-0.003053  0.000000  0.009143)
 40:   1763.94   0.044114  222.93  0.007804  ( 0.084464 -0.000006  0.025886)
 41:   2991.05   0.000765    3.87  0.000080  (-0.000003  0.008936 -0.000009)
 42:   2991.85   0.003817   19.29  0.000398  (-0.017189 -0.000003 -0.010132)
 43:   2997.40   0.001535    7.76  0.000160  (-0.010049  0.000005  0.007673)
 44:   3004.77   0.004533   22.91  0.000471  ( 0.000001 -0.021698 -0.000014)
 45:   3006.10   0.008901   44.98  0.000924  ( 0.005934  0.000009 -0.029813)
 46:   3051.21   0.008703   43.98  0.000890  (-0.027992  0.000005  0.010322)
 47:   3055.21   0.006947   35.11  0.000710  ( 0.000004  0.026638 -0.000006)
 48:   3060.60   0.009528   48.15  0.000971  (-0.007083 -0.000003 -0.030353)
 49:   3091.28   0.004540   22.94  0.000458  ( 0.000005 -0.021407  0.000006)
 50:   3092.64   0.003095   15.64  0.000312  (-0.013225 -0.000010 -0.011723)

--------------------------
THERMOCHEMISTRY AT 298.15K
--------------------------

Temperature         ...   298.15 K
Pressure            ...     1.00 atm
Total Mass          ...    98.14 AMU
Quasi RRHO          ...     True
Cut-Off Frequency   ...     1.00 cm^-1

Throughout the following assumptions are being made:
  (1) The electronic state is orbitally nondegenerate
  (2) There are no thermally accessible electronically excited states
  (3) Hindered rotations indicated by low frequency modes are not
      treated as such but are treated as vibrations and this may
      cause some error
  (4) All equations used are the standard statistical mechanics
      equations for an ideal gas
  (5) All vibrations are strictly harmonic

freq.      96.45  E(vib)   ...       0.47
freq.     187.20  E(vib)   ...       0.36
freq.     312.33  E(vib)   ...       0.25
freq.     412.37  E(vib)   ...       0.19
freq.     414.85  E(vib)   ...       0.19
freq.     487.04  E(vib)   ...       0.15
freq.     498.88  E(vib)   ...       0.14
freq.     665.78  E(vib)   ...       0.08
freq.     754.00  E(vib)   ...       0.06
freq.     764.75  E(vib)   ...       0.06
freq.     843.40  E(vib)   ...       0.04
freq.     875.60  E(vib)   ...       0.04
freq.     895.32  E(vib)   ...       0.03
freq.     916.59  E(vib)   ...       0.03
freq.    1003.17  E(vib)   ...       0.02
freq.    1027.77  E(vib)   ...       0.02
freq.    1055.21  E(vib)   ...       0.02
freq.    1078.60  E(vib)   ...       0.02
freq.    1122.56  E(vib)   ...       0.01
freq.    1131.62  E(vib)   ...       0.01
freq.    1234.21  E(vib)   ...       0.01
freq.    1242.73  E(vib)   ...       0.01
freq.    1266.58  E(vib)   ...       0.01
freq.    1287.00  E(vib)   ...       0.01
freq.    1324.55  E(vib)   ...       0.01
freq.    1333.78  E(vib)   ...       0.01
freq.    1359.41  E(vib)   ...       0.01
freq.    1368.64  E(vib)   ...       0.01
freq.    1368.74  E(vib)   ...       0.01
freq.    1451.37  E(vib)   ...       0.00
freq.    1461.02  E(vib)   ...       0.00
freq.    1480.76  E(vib)   ...       0.00
freq.    1481.48  E(vib)   ...       0.00
freq.    1496.52  E(vib)   ...       0.00
freq.    1763.94  E(vib)   ...       0.00
freq.    2991.05  E(vib)   ...       0.00
freq.    2991.85  E(vib)   ...       0.00
freq.    2997.40  E(vib)   ...       0.00
freq.    3004.77  E(vib)   ...       0.00
freq.    3006.10  E(vib)   ...       0.00
freq.    3051.21  E(vib)   ...       0.00
freq.    3055.21  E(vib)   ...       0.00
freq.    3060.60  E(vib)   ...       0.00
freq.    3091.28  E(vib)   ...       0.00
freq.    3092.64  E(vib)   ...       0.00

------------
INNER ENERGY
------------

The inner energy is: U= E(el) + E(ZPE) + E(vib) + E(rot) + E(trans)
    E(el)   - is the total energy from the electronic structure calculation
              = E(kin-el) + E(nuc-el) + E(el-el) + E(nuc-nuc)
    E(ZPE)  - the the zero temperature vibrational energy from the frequency calculation
    E(vib)  - the the finite temperature correction to E(ZPE) due to population
              of excited vibrational states
    E(rot)  - is the rotational thermal energy
    E(trans)- is the translational thermal energy

Summary of contributions to the inner energy U:
Electronic energy                ...   -309.83007350 Eh
Zero point energy                ...      0.14991783 Eh      94.07 kcal/mol
Thermal vibrational correction   ...      0.00361911 Eh       2.27 kcal/mol
Thermal rotational correction    ...      0.00141627 Eh       0.89 kcal/mol
Thermal translational correction ...      0.00141627 Eh       0.89 kcal/mol
-----------------------------------------------------------------------
Total thermal energy                   -309.67370401 Eh

Summary of corrections to the electronic energy:
(perhaps to be used in another calculation)
Total thermal correction                  0.00645165 Eh       4.05 kcal/mol
Non-thermal (ZPE) correction              0.14991783 Eh      94.07 kcal/mol
-----------------------------------------------------------------------
Total correction                          0.15636948 Eh      98.12 kcal/mol

--------
ENTHALPY
--------

The enthalpy is H = U + kB*T
                kB is Boltzmann's constant
Total thermal energy              ...   -309.67370401 Eh
Thermal Enthalpy correction       ...      0.00094421 Eh       0.59 kcal/mol
-----------------------------------------------------------------------
Total Enthalpy                    ...   -309.67275980 Eh

Note: Rotational entropy computed according to Herzberg
Infrared and Raman Spectra, Chapter V,1, Van Nostrand Reinhold, 1945
Point Group:  Cs, Symmetry Number:   1
Rotational constants in cm-1:     0.139867     0.083713     0.058839

Vibrational entropy computed according to the QRRHO of S. Grimme
Chem.Eur.J. 2012 18 9955 using a reference frequency of 100.0 cm-1

-------
ENTROPY
-------

The entropy contributions are T*S = T*(S(el)+S(vib)+S(rot)+S(trans))
     S(el)   - electronic entropy
     S(vib)  - vibrational entropy
     S(rot)  - rotational entropy
     S(trans)- translational entropy
The entropies will be listed as multiplied by the temperature to get
units of energy

Electronic entropy                ...      0.00000000 Eh      0.00 kcal/mol
Vibrational entropy               ...      0.00577675 Eh      3.62 kcal/mol
Rotational entropy                ...      0.01294780 Eh      8.12 kcal/mol
Translational entropy             ...      0.01884472 Eh     11.83 kcal/mol
-----------------------------------------------------------------------
Final entropy term                ...      0.03756928 Eh     23.58 kcal/mol

In case the symmetry of your molecule has not been determined correctly
or in case you have a reason to use a different symmetry number we print
out the resulting rotational entropy values for sn=1,12:

 non-linear molecules -----------------------------------
|  sn= 1 | S(rot)=       0.01294780 Eh      8.12 kcal/mol|
|  sn= 2 | S(rot)=       0.01229335 Eh      7.71 kcal/mol|
|  sn= 3 | S(rot)=       0.01191051 Eh      7.47 kcal/mol|
|  sn= 4 | S(rot)=       0.01163889 Eh      7.30 kcal/mol|
|  sn= 5 | S(rot)=       0.01142820 Eh      7.17 kcal/mol|
|  sn= 6 | S(rot)=       0.01125606 Eh      7.06 kcal/mol|
|  sn= 7 | S(rot)=       0.01111051 Eh      6.97 kcal/mol|
|  sn= 8 | S(rot)=       0.01098443 Eh      6.89 kcal/mol|
|  sn= 9 | S(rot)=       0.01087322 Eh      6.82 kcal/mol|
|  sn=10 | S(rot)=       0.01077375 Eh      6.76 kcal/mol|
|  sn=11 | S(rot)=       0.01068376 Eh      6.70 kcal/mol|
|  sn=12 | S(rot)=       0.01060160 Eh      6.65 kcal/mol|
 linear molecules ---------------------------------------
|  Dinfh | S(rot)=       0.00800062 Eh      5.02 kcal/mol|
|  Cinfv | S(rot)=       0.00865508 Eh      5.43 kcal/mol|
 --------------------------------------------------------

-------------------
GIBBS FREE ENERGY

                             ****ORCA TERMINATED NORMALLY****
TOTAL RUN TIME: 0 days 0 hours 12 minutes 17 seconds 354 msec
