                         Program Version 6.0.1  -  RELEASE   -
|  1> ! r2scan-3c def2/J RI DEFGRID2 scfconv6 printgap
|  2> %output
|  3>     printlevel normal
|  4> end
|  5> * xyz 0 1
|  6> C -2.4643047472 0.635654162 -1.0323829801
|  7> C -1.6924328287 -0.0223158979 0.0862466233
|  8> O -2.2568910937 -0.6061162678 0.9837157577
|  9> C -0.2069732865 0.0194113227 0.014121025
| 10> C 0.50433323 1.1028191328 -0.4951895537
| 11> C 1.887148668 1.0796102979 -0.5136461187
| 12> C 2.5747862729 -0.02460483 -0.0373983815
| 13> C 1.8758304782 -1.1026430939 0.481378624
| 14> C 0.4953253269 -1.0752988302 0.5177449437
| 15> H -1.8554099206 1.2939184455 -1.640934824
| 16> H -3.3135316223 1.1763772494 -0.6206197628
| 17> H -2.8592831664 -0.1575169658 -1.666784892
| 18> H -0.0131625458 1.9831222082 -0.8462975469
| 19> H 2.4317677077 1.9281247042 -0.901233486
| 20> H 3.654363111 -0.0405066335 -0.0631777005
| 21> H 2.4088560645 -1.9608990951 0.8626922242
| 22> H -0.0650341401 -1.9017840176 0.9289587329
| 23> *
| 24>
| 25>                          ****END OF INPUT****

CARTESIAN COORDINATES (ANGSTROEM)
---------------------------------
  C     -2.464305    0.635654   -1.032383
  C     -1.692433   -0.022316    0.086247
  O     -2.256891   -0.606116    0.983716
  C     -0.206973    0.019411    0.014121
  C      0.504333    1.102819   -0.495190
  C      1.887149    1.079610   -0.513646
  C      2.574786   -0.024605   -0.037398
  C      1.875830   -1.102643    0.481379
  C      0.495325   -1.075299    0.517745
  H     -1.855410    1.293918   -1.640935
  H     -3.313532    1.176377   -0.620620
  H     -2.859283   -0.157517   -1.666785
  H     -0.013163    1.983122   -0.846298
  H      2.431768    1.928125   -0.901233
  H      3.654363   -0.040507   -0.063178
  H      2.408856   -1.960899    0.862692
  H     -0.065034   -1.901784    0.928959

 Total Charge           Charge          ....    0
 Multiplicity           Mult            ....    1
 Number of Electrons    NEL             ....   64
 Basis Dimension        Dim             ....  216

ORBITAL ENERGIES
----------------

  NO   OCC          E(Eh)            E(eV)
   0   2.0000     -18.936841      -515.2976
   1   2.0000     -10.122585      -275.4495
   2   2.0000     -10.053379      -273.5664
   3   2.0000     -10.052501      -273.5425
   4   2.0000     -10.050359      -273.4842
   5   2.0000     -10.048737      -273.4400
   6   2.0000     -10.047144      -273.3967
   7   2.0000     -10.046650      -273.3832
   8   2.0000     -10.035359      -273.0760
   9   2.0000      -1.008829       -27.4516
  10   2.0000      -0.841432       -22.8965
  11   2.0000      -0.749815       -20.4035
  12   2.0000      -0.730452       -19.8766
  13   2.0000      -0.704988       -19.1837
  14   2.0000      -0.606236       -16.4965
  15   2.0000      -0.587163       -15.9775
  16   2.0000      -0.530318       -14.4307
  17   2.0000      -0.485290       -13.2054
  18   2.0000      -0.444087       -12.0842
  19   2.0000      -0.435589       -11.8530
  20   2.0000      -0.422680       -11.5017
  21   2.0000      -0.417108       -11.3501
  22   2.0000      -0.402794       -10.9606
  23   2.0000      -0.390017       -10.6129
  24   2.0000      -0.368156       -10.0180
  25   2.0000      -0.358469        -9.7544
  26   2.0000      -0.337673        -9.1885
  27   2.0000      -0.328347        -8.9348
  28   2.0000      -0.320856        -8.7309
  29   2.0000      -0.251920        -6.8551
  30   2.0000      -0.249792        -6.7972
  31   2.0000      -0.218400        -5.9430
  32   0.0000      -0.083002        -2.2586
  33   0.0000      -0.044334        -1.2064
  34   0.0000      -0.002791        -0.0760
  35   0.0000       0.069833         1.9003
  36   0.0000       0.101595         2.7645

MULLIKEN ATOMIC CHARGES
-----------------------
   0 C :   -0.517253
   1 C :    0.264031
   2 O :   -0.342611
   3 C :    0.137867
   4 C :   -0.206948
   5 C :   -0.158932
   6 C :   -0.121640
   7 C :   -0.153183
   8 C :   -0.169203
   9 H :    0.148403
  10 H :    0.177962
  11 H :    0.178666
  12 H :    0.141799
  13 H :    0.147974
  14 H :    0.149519
  15 H :    0.148947
  16 H :    0.174601
Sum of atomic charges:   -0.0000000

LOEWDIN ATOMIC CHARGES
----------------------
   0 C :   -0.381752
   1 C :    0.239530
   2 O :   -0.457231
   3 C :   -0.075772
   4 C :   -0.140687
   5 C :   -0.160713
   6 C :   -0.147422
   7 C :   -0.157834
   8 C :   -0.106844
   9 H :    0.159692
  10 H :    0.178571
  11 H :    0.184548
  12 H :    0.170880
  13 H :    0.169167
  14 H :    0.169166
  15 H :    0.169995
  16 H :    0.186706

  Mayer bond orders larger than 0.100000
B(  0-C ,  1-C ) :   0.9248 B(  0-C ,  9-H ) :   0.9672 B(  0-C , 10-H ) :   0.9692
B(  0-C , 11-H ) :   0.9425 B(  1-C ,  2-O ) :   1.9469 B(  1-C ,  3-C ) :   0.8889
B(  2-O ,  3-C ) :  -0.1339 B(  3-C ,  4-C ) :   1.3823 B(  3-C ,  8-C ) :   1.4082
B(  4-C ,  5-C ) :   1.4379 B(  4-C , 12-H ) :   0.9360 B(  5-C ,  6-C ) :   1.4223
B(  5-C , 13-H ) :   0.9487 B(  6-C ,  7-C ) :   1.3971 B(  6-C , 14-H ) :   0.9461
B(  7-C ,  8-C ) :   1.4074 B(  7-C , 15-H ) :   0.9530 B(  8-C , 16-H ) :   0.9493

Dispersion correction           -0.005621647
FINAL SINGLE POINT ENERGY      -384.794791448882

DIPOLE MOMENT
-------------

Method             : SCF
Type of density    : Electron Density
Multiplicity       :   1
Irrep              :   0
Energy             :  -384.7942541279522857 Eh
Relativity type    :
Basis              : AO
                                X                 Y                 Z
Electronic contribution:      0.425357843      -1.713641473       2.884970835
Nuclear contribution   :      0.331106207       2.168359769      -3.688757211
                        -----------------------------------------
Total Dipole Moment    :      0.756464051       0.454718296      -0.803786375
                        -----------------------------------------
Magnitude (a.u.)       :      1.193766780
Magnitude (Debye)      :      3.034314015

Rotational constants in cm-1:             0.124204             0.040168             0.031671
Rotational constants in MHz :          3723.547339          1204.192280           949.483302

                             ****ORCA TERMINATED NORMALLY****
TOTAL RUN TIME: 0 days 0 hours 0 minutes 32 seconds 345 msec
