                         Program Version 6.0.1  -  RELEASE   -
|  1> ! r2scan-3c def2/J RI DEFGRID2 scfconv6 printgap
|  2> %output
|  3>     printlevel normal
|  4> end
|  5> * xyz 0 1
|  6> C -2.5578336392 -0.8840486352 0.2592844024
|  7> C -1.1422482042 -0.4283952314 0.637371695
|  8> H -1.056649735 -0.3471638657 1.7314038356
|  9> C -0.8334899942 0.9453985497 0.0279374199
| 10> H -1.0614171379 0.9194361527 -1.048953813
| 11> C 0.6513811248 1.2888543917 0.2009712754
| 12> H 0.865841157 1.420584477 1.2751691058
| 13> C 1.5184294597 0.1442247125 -0.322683617
| 14> H 1.3491051478 0.0184176208 -1.4036934427
| 15> C 1.096042002 -1.1550625187 0.3762574826
| 16> H 1.279798553 -1.0520679304 1.4680840004
| 17> O -0.2608351165 -1.42935918 0.1540804871
| 18> O 1.8469327879 -2.1944264739 -0.1533423892
| 19> O 2.8644006649 0.4533197058 -0.0647317486
| 20> O 0.9025329202 2.4891555307 -0.4864719606
| 21> O -1.6386918718 1.8910006041 0.6801442794
| 22> O -2.678035801 -1.1048401038 -1.11717126
| 23> H -3.2646927201 -0.096801192 0.5232076723
| 24> H -2.7958280211 -1.7978549731 0.8217804033
| 25> H 1.4026799217 -3.0253628803 0.0519439609
| 26> H 3.38889703 -0.3325698101 -0.2595971692
| 27> H 1.8596649876 2.6071216819 -0.5174200829
| 28> H -1.3636522892 2.7604737298 0.3626245175
| 29> H -1.9467964354 -1.6776601017 -1.3807226673
| 30> *
| 31>
| 32>                          ****END OF INPUT****

CARTESIAN COORDINATES (ANGSTROEM)
---------------------------------
  C     -2.557834   -0.884049    0.259284
  C     -1.142248   -0.428395    0.637372
  H     -1.056650   -0.347164    1.731404
  C     -0.833490    0.945399    0.027937
  H     -1.061417    0.919436   -1.048954
  C      0.651381    1.288854    0.200971
  H      0.865841    1.420584    1.275169
  C      1.518429    0.144225   -0.322684
  H      1.349105    0.018418   -1.403693
  C      1.096042   -1.155063    0.376257
  H      1.279799   -1.052068    1.468084
  O     -0.260835   -1.429359    0.154080
  O      1.846933   -2.194426   -0.153342
  O      2.864401    0.453320   -0.064732
  O      0.902533    2.489156   -0.486472
  O     -1.638692    1.891001    0.680144
  O     -2.678036   -1.104840   -1.117171
  H     -3.264693   -0.096801    0.523208
  H     -2.795828   -1.797855    0.821780
  H      1.402680   -3.025363    0.051944
  H      3.388897   -0.332570   -0.259597
  H      1.859665    2.607122   -0.517420
  H     -1.363652    2.760474    0.362625
  H     -1.946796   -1.677660   -1.380723

 Total Charge           Charge          ....    0
 Multiplicity           Mult            ....    1
 Number of Electrons    NEL             ....   96
 Basis Dimension        Dim             ....  318

ORBITAL ENERGIES
----------------

  NO   OCC          E(Eh)            E(eV)
   0   2.0000     -18.986833      -516.6580
   1   2.0000     -18.982704      -516.5456
   2   2.0000     -18.971342      -516.2364
   3   2.0000     -18.963705      -516.0286
   4   2.0000     -18.958253      -515.8803
   5   2.0000     -18.950128      -515.6592
   6   2.0000     -10.150980      -276.2222
   7   2.0000     -10.099571      -274.8233
   8   2.0000     -10.096062      -274.7278
   9   2.0000     -10.093739      -274.6646
  10   2.0000     -10.090515      -274.5769
  11   2.0000     -10.080437      -274.3026
  12   2.0000      -1.067763       -29.0553
  13   2.0000      -1.020552       -27.7706
  14   2.0000      -1.012797       -27.5596
  15   2.0000      -0.999247       -27.1909
  16   2.0000      -0.990160       -26.9436
  17   2.0000      -0.986141       -26.8343
  18   2.0000      -0.757027       -20.5997
  19   2.0000      -0.744317       -20.2539
  20   2.0000      -0.661855       -18.0100
  21   2.0000      -0.622723       -16.9452
  22   2.0000      -0.598343       -16.2817
  23   2.0000      -0.562326       -15.3017
  24   2.0000      -0.545620       -14.8471
  25   2.0000      -0.510157       -13.8821
  26   2.0000      -0.494989       -13.4693
  27   2.0000      -0.487882       -13.2759
  28   2.0000      -0.467692       -12.7266
  29   2.0000      -0.465122       -12.6566
  30   2.0000      -0.446125       -12.1397
  31   2.0000      -0.436781       -11.8854
  32   2.0000      -0.409549       -11.1444
  33   2.0000      -0.399212       -10.8631
  34   2.0000      -0.385330       -10.4854
  35   2.0000      -0.379598       -10.3294
  36   2.0000      -0.362475        -9.8635
  37   2.0000      -0.356642        -9.7047
  38   2.0000      -0.337859        -9.1936
  39   2.0000      -0.322505        -8.7758
  40   2.0000      -0.309805        -8.4302
  41   2.0000      -0.299832        -8.1588
  42   2.0000      -0.285313        -7.7638
  43   2.0000      -0.274574        -7.4715
  44   2.0000      -0.255329        -6.9479
  45   2.0000      -0.246701        -6.7131
  46   2.0000      -0.239331        -6.5125
  47   2.0000      -0.236124        -6.4253
  48   0.0000       0.027708         0.7540
  49   0.0000       0.043662         1.1881
  50   0.0000       0.064791         1.7631
  51   0.0000       0.073716         2.0059
  52   0.0000       0.086540         2.3549

MULLIKEN ATOMIC CHARGES
-----------------------
   0 C :   -0.235031
   1 C :    0.026599
   2 H :    0.167305
   3 C :   -0.065030
   4 H :    0.196342
   5 C :   -0.027750
   6 H :    0.171082
   7 C :    0.048983
   8 H :    0.174691
   9 C :   -0.064248
  10 H :    0.145998
  11 O :   -0.243661
  12 O :   -0.402310
  13 O :   -0.443748
  14 O :   -0.444357
  15 O :   -0.442227
  16 O :   -0.422374
  17 H :    0.159880
  18 H :    0.136552
  19 H :    0.310209
  20 H :    0.315092
  21 H :    0.315485
  22 H :    0.314092
  23 H :    0.308426
Sum of atomic charges:    0.0000000

LOEWDIN ATOMIC CHARGES
----------------------
   0 C :    0.045011
   1 C :    0.118531
   2 H :    0.189256
   3 C :    0.112739
   4 H :    0.193869
   5 C :    0.107133
   6 H :    0.185629
   7 C :    0.115293
   8 H :    0.188530
   9 C :    0.299075
  10 H :    0.180890
  11 O :   -0.694554
  12 O :   -0.503987
  13 O :   -0.569082
  14 O :   -0.571517
  15 O :   -0.572386
  16 O :   -0.588239
  17 H :    0.196347
  18 H :    0.163922
  19 H :    0.283265
  20 H :    0.282166
  21 H :    0.282043
  22 H :    0.282231
  23 H :    0.273835

  Mayer bond orders larger than 0.100000
B(  0-C ,  1-C ) :   0.9539 B(  0-C , 16-O ) :   1.0210 B(  0-C , 17-H ) :   0.9599
B(  0-C , 18-H ) :   0.9780 B(  1-C ,  2-H ) :   0.9266 B(  1-C ,  3-C ) :   0.8862
B(  1-C , 11-O ) :   0.7672 B(  3-C ,  4-H ) :   0.9924 B(  3-C ,  5-C ) :   0.8360
B(  3-C , 15-O ) :   0.8623 B(  5-C ,  6-H ) :   0.9821 B(  5-C ,  7-C ) :   0.8538
B(  5-C , 14-O ) :   0.8990 B(  7-C ,  8-H ) :   0.9727 B(  7-C ,  9-C ) :   0.8040
B(  7-C , 13-O ) :   0.9021 B(  9-C , 10-H ) :   1.0035 B(  9-C , 11-O ) :   0.9525
B(  9-C , 12-O ) :   1.0275 B( 12-O , 19-H ) :   0.8790 B( 13-O , 20-H ) :   0.8799
B( 14-O , 21-H ) :   0.8777 B( 15-O , 22-H ) :   0.8812 B( 16-O , 23-H ) :   0.8714

Dispersion correction           -0.008079204
FINAL SINGLE POINT ENERGY      -687.080146456515

DIPOLE MOMENT
-------------

Method             : SCF
Type of density    : Electron Density
Multiplicity       :   1
Irrep              :   0
Energy             :  -687.0917641176747566 Eh
Relativity type    :
Basis              : AO
                                X                 Y                 Z
Electronic contribution:      2.024525589      -0.076175792      -1.092455030
Nuclear contribution   :     -1.244656636      -0.564582728       1.508796131
                        -----------------------------------------
Total Dipole Moment    :      0.779868953      -0.640758520       0.416341101
                        -----------------------------------------
Magnitude (a.u.)       :      1.091836516
Magnitude (Debye)      :      2.775227872

Rotational constants in cm-1:             0.038882             0.027566             0.017982
Rotational constants in MHz :          1165.645000           826.416245           539.091652

                             ****ORCA TERMINATED NORMALLY****
TOTAL RUN TIME: 0 days 0 hours 0 minutes 46 seconds 732 msec
