                         Program Version 6.0.0  -   RELEASE  -
|  1> ! r2SCAN-3c DEF2-TZVP FREQ
|  2> * xyzfile 0 1 censo.xyz
|  3>
|  4>                          ****END OF INPUT****

CARTESIAN COORDINATES (ANGSTROEM)
---------------------------------
  C     -3.999439   -0.479597   -0.001232
  C     -2.546423   -0.101912    0.000006
  C     -2.178333    1.269274    0.000200
  C     -0.860302    1.655622    0.000385
  C      0.178803    0.691706    0.000351
  C      1.548476    1.053361    0.000039
  C      2.546427    0.101913   -0.000242
  C      2.178337   -1.269273    0.000113
  C      0.860306   -1.655620    0.000488
  C     -0.178799   -0.691703    0.000455
  C     -1.548471   -1.053358    0.000328
  C      3.999445    0.479595   -0.001105
  H     -4.507503   -0.076871   -0.884793
  H     -4.127778   -1.564727    0.004038
  H     -4.511711   -0.067498    0.875483
  H     -2.962695    2.021846    0.000156
  H     -0.596169    2.709838    0.000534
  H      1.806261    2.109998   -0.000138
  H      2.962699   -2.021845    0.000015
  H      0.596170   -2.709835    0.000703
  H     -1.806253   -2.109997    0.000349
  H      4.510224    0.072085    0.878649
  H      4.509009    0.072263   -0.881657
  H      4.127776    1.564739   -0.001117

 Total Charge           Charge          ....    0
 Multiplicity           Mult            ....    1
 Number of Electrons    NEL             ....   84
 Basis Dimension        Dim             ....  444

ORBITAL ENERGIES
----------------

  NO   OCC          E(Eh)            E(eV)
   0   2.0000     -10.043494      -273.2974
   1   2.0000     -10.043488      -273.2972
   2   2.0000     -10.041859      -273.2529
   3   2.0000     -10.041560      -273.2448
   4   2.0000     -10.035483      -273.0794
   5   2.0000     -10.035475      -273.0792
   6   2.0000     -10.033049      -273.0131
   7   2.0000     -10.033045      -273.0130
   8   2.0000     -10.031714      -272.9768
   9   2.0000     -10.031708      -272.9766
  10   2.0000     -10.029920      -272.9280
  11   2.0000     -10.029919      -272.9280
  12   2.0000      -0.838949       -22.8290
  13   2.0000      -0.795927       -21.6583
  14   2.0000      -0.740618       -20.1532
  15   2.0000      -0.739544       -20.1240
  16   2.0000      -0.689490       -18.7620
  17   2.0000      -0.678923       -18.4744
  18   2.0000      -0.629316       -17.1246
  19   2.0000      -0.588156       -16.0045
  20   2.0000      -0.562497       -15.3063
  21   2.0000      -0.548430       -14.9235
  22   2.0000      -0.472819       -12.8660
  23   2.0000      -0.472298       -12.8519
  24   2.0000      -0.448074       -12.1927
  25   2.0000      -0.413588       -11.2543
  26   2.0000      -0.401661       -10.9297
  27   2.0000      -0.397962       -10.8291
  28   2.0000      -0.394174       -10.7260
  29   2.0000      -0.389285       -10.5930
  30   2.0000      -0.381875       -10.3913
  31   2.0000      -0.360464        -9.8087
  32   2.0000      -0.352788        -9.5999
  33   2.0000      -0.351427        -9.5628
  34   2.0000      -0.347646        -9.4599
  35   2.0000      -0.324956        -8.8425
  36   2.0000      -0.303325        -8.2539
  37   2.0000      -0.294993        -8.0272
  38   2.0000      -0.289779        -7.8853
  39   2.0000      -0.262024        -7.1300
  40   2.0000      -0.219062        -5.9610
  41   2.0000      -0.196745        -5.3537
  42   0.0000      -0.062059        -1.6887
  43   0.0000      -0.035649        -0.9701
  44   0.0000      -0.002415        -0.0657
  45   0.0000       0.055796         1.5183
  46   0.0000       0.060031         1.6335

MULLIKEN ATOMIC CHARGES
-----------------------
   0 C :   -0.350339
   1 C :    0.220926
   2 C :   -0.188112
   3 C :   -0.189936
   4 C :    0.212838
   5 C :   -0.330723
   6 C :    0.220937
   7 C :   -0.188057
   8 C :   -0.190042
   9 C :    0.212917
  10 C :   -0.330691
  11 C :   -0.350355
  12 H :    0.116846
  13 H :    0.108684
  14 H :    0.116708
  15 H :    0.100542
  16 H :    0.095815
  17 H :    0.086727
  18 H :    0.100533
  19 H :    0.095800
  20 H :    0.086743
  21 H :    0.116773
  22 H :    0.116781
  23 H :    0.108683
Sum of atomic charges:   -0.0000000

LOEWDIN ATOMIC CHARGES
----------------------
   0 C :   -0.254110
   1 C :   -0.174433
   2 C :   -0.115458
   3 C :   -0.101246
   4 C :   -0.094228
   5 C :   -0.083026
   6 C :   -0.174433
   7 C :   -0.115458
   8 C :   -0.101246
   9 C :   -0.094228
  10 C :   -0.083025
  11 C :   -0.254110
  12 H :    0.129711
  13 H :    0.125630
  14 H :    0.129636
  15 H :    0.145345
  16 H :    0.145642
  17 H :    0.146538
  18 H :    0.145345
  19 H :    0.145642
  20 H :    0.146538
  21 H :    0.129667
  22 H :    0.129680
  23 H :    0.125630

  Mayer bond orders larger than 0.100000
B(  0-C ,  1-C ) :   0.9013 B(  0-C , 12-H ) :   0.9645 B(  0-C , 13-H ) :   0.9910
B(  0-C , 14-H ) :   0.9649 B(  1-C ,  2-C ) :   1.1823 B(  1-C , 10-C ) :   1.4884
B(  2-C ,  3-C ) :   1.5370 B(  2-C , 15-H ) :   0.9851 B(  3-C ,  4-C ) :   1.1692
B(  3-C , 16-H ) :   0.9881 B(  4-C ,  5-C ) :   1.1897 B(  4-C ,  9-C ) :   1.1970
B(  5-C ,  6-C ) :   1.4883 B(  5-C , 17-H ) :   0.9843 B(  6-C ,  7-C ) :   1.1822
B(  6-C , 11-C ) :   0.9014 B(  7-C ,  8-C ) :   1.5369 B(  7-C , 18-H ) :   0.9851
B(  8-C ,  9-C ) :   1.1691 B(  8-C , 19-H ) :   0.9882 B(  9-C , 10-C ) :   1.1898
B( 10-C , 20-H ) :   0.9843 B( 11-C , 21-H ) :   0.9647 B( 11-C , 22-H ) :   0.9647
B( 11-C , 23-H ) :   0.9910

Dispersion correction           -0.009259404
FINAL SINGLE POINT ENERGY      -464.430097925020

DIPOLE MOMENT
-------------

Method             : SCF
Type of density    : Electron Density
Multiplicity       :   1
Irrep              :   0
Energy             :  -464.4277278678067660 Eh
Relativity type    :
Basis              : AO
                                X                 Y                 Z
Electronic contribution:     -0.000001973       0.000007562       0.005758778
Nuclear contribution   :      0.000002358      -0.000010469      -0.006548518
                        -----------------------------------------
Total Dipole Moment    :      0.000000385      -0.000002907      -0.000789740
                        -----------------------------------------
Magnitude (a.u.)       :      0.000789746
Magnitude (Debye)      :      0.002007374

VIBRATIONAL FREQUENCIES
-----------------------

Scaling factor for frequencies =  1.000000000  (already applied!)

     0:       0.00 cm**-1
     1:       0.00 cm**-1
     2:       0.00 cm**-1
     3:       0.00 cm**-1
     4:       0.00 cm**-1
     5:       0.00 cm**-1
     6:      84.54 cm**-1
     7:     122.50 cm**-1
     8:     126.05 cm**-1
     9:     184.03 cm**-1
    10:     206.08 cm**-1
    11:     225.62 cm**-1
    12:     327.44 cm**-1
    13:     342.85 cm**-1
    14:     405.32 cm**-1
    15:     415.43 cm**-1
    16:     448.73 cm**-1
    17:     485.26 cm**-1
    18:     533.98 cm**-1
    19:     537.86 cm**-1
    20:     593.57 cm**-1
    21:     653.90 cm**-1
    22:     689.97 cm**-1
    23:     767.58 cm**-1
    24:     780.27 cm**-1
    25:     800.75 cm**-1
    26:     819.71 cm**-1
    27:     844.83 cm**-1
    28:     878.26 cm**-1
    29:     893.68 cm**-1
    30:     934.09 cm**-1
    31:     945.06 cm**-1
    32:     947.47 cm**-1
    33:     984.84 cm**-1
    34:    1018.50 cm**-1
    35:    1027.40 cm**-1
    36:    1055.53 cm**-1
    37:    1056.12 cm**-1
    38:    1152.89 cm**-1
    39:    1168.91 cm**-1
    40:    1184.80 cm**-1
    41:    1193.22 cm**-1
    42:    1246.34 cm**-1
    43:    1280.62 cm**-1
    44:    1293.21 cm**-1
    45:    1367.33 cm**-1
    46:    1394.35 cm**-1
    47:    1401.05 cm**-1
    48:    1401.26 cm**-1
    49:    1404.68 cm**-1
    50:    1427.64 cm**-1
    51:    1474.39 cm**-1
    52:    1474.45 cm**-1
    53:    1479.20 cm**-1
    54:    1491.54 cm**-1
    55:    1512.58 cm**-1
    56:    1533.70 cm**-1
    57:    1598.75 cm**-1
    58:    1640.73 cm**-1
    59:    1658.27 cm**-1
    60:    3003.42 cm**-1
    61:    3003.68 cm**-1
    62:    3063.23 cm**-1
    63:    3063.27 cm**-1
    64:    3101.27 cm**-1
    65:    3101.28 cm**-1
    66:    3142.89 cm**-1
    67:    3144.09 cm**-1
    68:    3144.71 cm**-1
    69:    3144.87 cm**-1
    70:    3161.45 cm**-1
    71:    3162.37 cm**-1

IR SPECTRUM
-----------

 Mode   freq       eps      Int      T**2         TX        TY        TZ
       cm**-1   L/(mol*cm) km/mol    a.u.
----------------------------------------------------------------------------
  6:     84.54   0.000336    1.70  0.001242  ( 0.000288 -0.000036 -0.035237)
  7:    122.50   0.000000    0.00  0.000000  ( 0.000059  0.000223 -0.000244)
  8:    126.05   0.000034    0.17  0.000084  (-0.000174 -0.000287 -0.009167)
  9:    184.03   0.000142    0.72  0.000241  (-0.000004  0.000042  0.015516)
 10:    206.08   0.000000    0.00  0.000000  (-0.000095 -0.000188  0.000069)
 11:    225.62   0.000216    1.09  0.000298  (-0.004379  0.016711 -0.000017)
 12:    327.44   0.000000    0.00  0.000000  (-0.000000  0.000000  0.000016)
 13:    342.85   0.000805    4.07  0.000733  ( 0.000102 -0.000116  0.027068)
 14:    405.32   0.000000    0.00  0.000000  (-0.000046  0.000085 -0.000046)
 15:    415.43   0.000000    0.00  0.000000  ( 0.000000 -0.000000  0.000011)
 16:    448.73   0.000467    2.36  0.000325  (-0.016511 -0.007210 -0.000026)
 17:    485.26   0.002638   13.33  0.001696  ( 0.000034 -0.000040 -0.041188)
 18:    533.98   0.000000    0.00  0.000000  ( 0.000085  0.000060  0.000022)
 19:    537.86   0.000000    0.00  0.000000  (-0.000000 -0.000000  0.000013)
 20:    593.57   0.000262    1.32  0.000137  (-0.008171  0.008410 -0.000013)
 21:    653.90   0.001197    6.05  0.000571  (-0.000036 -0.000094 -0.023901)
 22:    689.97   0.000120    0.61  0.000054  ( 0.007041  0.002164  0.000017)
 23:    767.58   0.000000    0.00  0.000000  ( 0.000000 -0.000000  0.000012)
 24:    780.27   0.000000    0.00  0.000000  ( 0.000137 -0.000016  0.000015)
 25:    800.75   0.000000    0.00  0.000000  ( 0.000023 -0.000052 -0.000062)
 26:    819.71   0.006731   34.01  0.002562  ( 0.000007 -0.000031  0.050620)
 27:    844.83   0.000000    0.00  0.000000  ( 0.000000  0.000000  0.000003)
 28:    878.26   0.005551   28.05  0.001973  (-0.000017 -0.000042  0.044413)
 29:    893.68   0.000000    0.00  0.000000  (-0.000015 -0.000038  0.000116)
 30:    934.09   0.000189    0.96  0.000063  (-0.007724 -0.001886 -0.000013)
 31:    945.06   0.000000    0.00  0.000000  (-0.000033 -0.000041 -0.000050)
 32:    947.47   0.000181    0.91  0.000059  ( 0.000013  0.000018  0.007711)
 33:    984.84   0.000000    0.00  0.000000  ( 0.000001  0.000000  0.000001)
 34:   1018.50   0.000000    0.00  0.000000  (-0.000005  0.000000  0.000037)
 35:   1027.40   0.003508   17.73  0.001066  ( 0.032505 -0.003014  0.000021)
 36:   1055.53   0.001042    5.27  0.000308  (-0.000204  0.000055 -0.017554)
 37:   1056.12   0.000001    0.01  0.000000  (-0.000328  0.000018 -0.000431)
 38:   1152.89   0.000674    3.41  0.000182  (-0.004879  0.012597 -0.000013)
 39:   1168.91   0.000000    0.00  0.000000  ( 0.000000  0.000000  0.000015)
 40:   1184.80   0.000947    4.79  0.000249  (-0.003801 -0.015329 -0.000012)
 41:   1193.22   0.000000    0.00  0.000000  (-0.000000 -0.000000  0.000028)
 42:   1246.34   0.000363    1.84  0.000091  (-0.008049 -0.005119 -0.000019)
 43:   1280.62   0.000000    0.00  0.000000  (-0.000000 -0.000000 -0.000021)
 44:   1293.21   0.000927    4.68  0.000224  (-0.006315  0.013556 -0.000009)
 45:   1367.33   0.000575    2.91  0.000131  (-0.008568 -0.007610  0.000001)
 46:   1394.35   0.000000    0.00  0.000000  ( 0.000000 -0.000000  0.000004)
 47:   1401.05   0.000081    0.41  0.000018  ( 0.000473 -0.004232 -0.000016)
 48:   1401.26   0.000000    0.00  0.000000  (-0.000020  0.000088  0.000041)
 49:   1404.68   0.001076    5.44  0.000239  ( 0.015234 -0.002637  0.000019)
 50:   1427.64   0.000000    0.00  0.000000  (-0.000000 -0.000002  0.000009)
 51:   1474.39   0.002689   13.59  0.000569  ( 0.000040 -0.000114 -0.023857)
 52:   1474.45   0.000150    0.76  0.000032  (-0.000105  0.000167  0.005633)
 53:   1479.20   0.003121   15.77  0.000659  ( 0.000985 -0.025642  0.000195)
 54:   1491.54   0.000000    0.00  0.000000  ( 0.000000  0.000008 -0.000067)
 55:   1512.58   0.000000    0.00  0.000000  ( 0.000000 -0.000001 -0.000009)
 56:   1533.70   0.003412   17.24  0.000694  (-0.025026  0.008246 -0.000013)
 57:   1598.75   0.000000    0.00  0.000000  ( 0.000000 -0.000000  0.000003)
 58:   1640.73   0.006698   33.85  0.001274  ( 0.033960  0.010981  0.000007)
 59:   1658.27   0.000000    0.00  0.000000  ( 0.000000 -0.000000 -0.000022)
 60:   3003.42   0.016662   84.20  0.001731  ( 0.041412  0.004037  0.000058)
 61:   3003.68   0.000083    0.42  0.000009  (-0.002926 -0.000288 -0.000109)
 62:   3063.23   0.001903    9.62  0.000194  ( 0.000084  0.000019  0.013924)
 63:   3063.27   0.004168   21.06  0.000425  (-0.000203 -0.000010  0.020605)
 64:   3101.27   0.005219   26.37  0.000525  (-0.001616 -0.022859  0.000010)
 65:   3101.28   0.000794    4.01  0.000080  ( 0.000625  0.008918  0.000010)
 66:   3142.89   0.002732   13.81  0.000271  (-0.000186 -0.016469  0.000002)
 67:   3144.09   0.000000    0.00  0.000000  ( 0.000002 -0.000002  0.000001)
 68:   3144.71   0.000000    0.00  0.000000  (-0.000022 -0.000016  0.000004)
 69:   3144.87   0.006327   31.97  0.000628  ( 0.020202  0.014821 -0.000002)
 70:   3161.45   0.008925   45.10  0.000881  ( 0.011035 -0.027554  0.000001)
 71:   3162.37   0.000000    0.00  0.000000  (-0.000002  0.000005  0.000005)

--------------------------
THERMOCHEMISTRY AT 298.15K
--------------------------

Temperature         ...   298.15 K
Pressure            ...     1.00 atm
Total Mass          ...   156.23 AMU
Quasi RRHO          ...     True
Cut-Off Frequency   ...     1.00 cm^-1

Throughout the following assumptions are being made:
  (1) The electronic state is orbitally nondegenerate
  (2) There are no thermally accessible electronically excited states
  (3) Hindered rotations indicated by low frequency modes are not
      treated as such but are treated as vibrations and this may
      cause some error
  (4) All equations used are the standard statistical mechanics
      equations for an ideal gas
  (5) All vibrations are strictly harmonic

freq.      84.54  E(vib)   ...       0.48
freq.     122.50  E(vib)   ...       0.43
freq.     126.05  E(vib)   ...       0.43
freq.     184.03  E(vib)   ...       0.37
freq.     206.08  E(vib)   ...       0.35
freq.     225.62  E(vib)   ...       0.33
freq.     327.44  E(vib)   ...       0.24
freq.     342.85  E(vib)   ...       0.23
freq.     405.32  E(vib)   ...       0.19
freq.     415.43  E(vib)   ...       0.18
freq.     448.73  E(vib)   ...       0.17
freq.     485.26  E(vib)   ...       0.15
freq.     533.98  E(vib)   ...       0.13
freq.     537.86  E(vib)   ...       0.12
freq.     593.57  E(vib)   ...       0.10
freq.     653.90  E(vib)   ...       0.08
freq.     689.97  E(vib)   ...       0.07
freq.     767.58  E(vib)   ...       0.06
freq.     780.27  E(vib)   ...       0.05
freq.     800.75  E(vib)   ...       0.05
freq.     819.71  E(vib)   ...       0.05
freq.     844.83  E(vib)   ...       0.04
freq.     878.26  E(vib)   ...       0.04
freq.     893.68  E(vib)   ...       0.03
freq.     934.09  E(vib)   ...       0.03
freq.     945.06  E(vib)   ...       0.03
freq.     947.47  E(vib)   ...       0.03
freq.     984.84  E(vib)   ...       0.02
freq.    1018.50  E(vib)   ...       0.02
freq.    1027.40  E(vib)   ...       0.02
freq.    1055.53  E(vib)   ...       0.02
freq.    1056.12  E(vib)   ...       0.02
freq.    1152.89  E(vib)   ...       0.01
freq.    1168.91  E(vib)   ...       0.01
freq.    1184.80  E(vib)   ...       0.01
freq.    1193.22  E(vib)   ...       0.01
freq.    1246.34  E(vib)   ...       0.01
freq.    1280.62  E(vib)   ...       0.01
freq.    1293.21  E(vib)   ...       0.01
freq.    1367.33  E(vib)   ...       0.01
freq.    1394.35  E(vib)   ...       0.00
freq.    1401.05  E(vib)   ...       0.00
freq.    1401.26  E(vib)   ...       0.00
freq.    1404.68  E(vib)   ...       0.00
freq.    1427.64  E(vib)   ...       0.00
freq.    1474.39  E(vib)   ...       0.00
freq.    1474.45  E(vib)   ...       0.00
freq.    1479.20  E(vib)   ...       0.00
freq.    1491.54  E(vib)   ...       0.00
freq.    1512.58  E(vib)   ...       0.00
freq.    1533.70  E(vib)   ...       0.00
freq.    1598.75  E(vib)   ...       0.00
freq.    1640.73  E(vib)   ...       0.00
freq.    1658.27  E(vib)   ...       0.00
freq.    3003.42  E(vib)   ...       0.00
freq.    3003.68  E(vib)   ...       0.00
freq.    3063.23  E(vib)   ...       0.00
freq.    3063.27  E(vib)   ...       0.00
freq.    3101.27  E(vib)   ...       0.00
freq.    3101.28  E(vib)   ...       0.00
freq.    3142.89  E(vib)   ...       0.00
freq.    3144.09  E(vib)   ...       0.00
freq.    3144.71  E(vib)   ...       0.00
freq.    3144.87  E(vib)   ...       0.00
freq.    3161.45  E(vib)   ...       0.00
freq.    3162.37  E(vib)   ...       0.00

------------
INNER ENERGY
------------

The inner energy is: U= E(el) + E(ZPE) + E(vib) + E(rot) + E(trans)
    E(el)   - is the total energy from the electronic structure calculation
              = E(kin-el) + E(nuc-el) + E(el-el) + E(nuc-nuc)
    E(ZPE)  - the the zero temperature vibrational energy from the frequency calculation
    E(vib)  - the the finite temperature correction to E(ZPE) due to population
              of excited vibrational states
    E(rot)  - is the rotational thermal energy
    E(trans)- is the translational thermal energy

Summary of contributions to the inner energy U:
Electronic energy                ...   -464.43009793 Eh
Zero point energy                ...      0.20082888 Eh     126.02 kcal/mol
Thermal vibrational correction   ...      0.00747172 Eh       4.69 kcal/mol
Thermal rotational correction    ...      0.00141627 Eh       0.89 kcal/mol
Thermal translational correction ...      0.00141627 Eh       0.89 kcal/mol
-----------------------------------------------------------------------
Total thermal energy                   -464.21896479 Eh

Summary of corrections to the electronic energy:
(perhaps to be used in another calculation)
Total thermal correction                  0.01030426 Eh       6.47 kcal/mol
Non-thermal (ZPE) correction              0.20082888 Eh     126.02 kcal/mol
-----------------------------------------------------------------------
Total correction                          0.21113314 Eh     132.49 kcal/mol

--------
ENTHALPY
--------

The enthalpy is H = U + kB*T
                kB is Boltzmann's constant
Total thermal energy              ...   -464.21896479 Eh
Thermal Enthalpy correction       ...      0.00094421 Eh       0.59 kcal/mol
-----------------------------------------------------------------------
Total Enthalpy                    ...   -464.21802058 Eh

Note: Only C1 symmetry has been detected, increase convergence thresholds
      if your molecule has a higher symmetry. Symmetry factor of 1.0 is
      used for the rotational entropy correction.

Note: Rotational entropy computed according to Herzberg
Infrared and Raman Spectra, Chapter V,1, Van Nostrand Reinhold, 1945
Point Group:  C1, Symmetry Number:   1
Rotational constants in cm-1:     0.089397     0.019275     0.015950

Vibrational entropy computed according to the QRRHO of S. Grimme
Chem.Eur.J. 2012 18 9955 using a reference frequency of 100.0 cm-1

-------
ENTROPY
-------

The entropy contributions are T*S = T*(S(el)+S(vib)+S(rot)+S(trans))
     S(el)   - electronic entropy
     S(vib)  - vibrational entropy
     S(rot)  - rotational entropy
     S(trans)- translational entropy
The entropies will be listed as multiplied by the temperature to get
units of energy

Electronic entropy                ...      0.00000000 Eh      0.00 kcal/mol
Vibrational entropy               ...      0.01240168 Eh      7.78 kcal/mol
Rotational entropy                ...      0.01446868 Eh      9.08 kcal/mol
Translational entropy             ...      0.01950311 Eh     12.24 kcal/mol
-----------------------------------------------------------------------
Final entropy term                ...      0.04637347 Eh     29.10 kcal/mol

                             ****ORCA TERMINATED NORMALLY****
TOTAL RUN TIME: 0 days 0 hours 31 minutes 35 seconds 516 msec
