                         Program Version 6.0.0  -   RELEASE  -
|  1> ! r2SCAN-3c DEF2-TZVP FREQ
|  2> * xyzfile 0 1 vacuum_censo.xyz
|  3>
|  4>                          ****END OF INPUT****

CARTESIAN COORDINATES (ANGSTROEM)
---------------------------------
  C     -3.998848   -0.479269    0.000608
  C     -2.544388   -0.100689    0.000072
  C     -2.176600    1.268485   -0.000096
  C     -0.859651    1.653191   -0.000223
  C      0.178595    0.690919   -0.000191
  C      1.547219    1.050109    0.000013
  C      2.544391    0.100698    0.000156
  C      2.176603   -1.268476   -0.000064
  C      0.859654   -1.653183   -0.000261
  C     -0.178594   -0.690911   -0.000229
  C     -1.547218   -1.050101   -0.000091
  C      3.998848    0.479285    0.000526
  H     -4.128129   -1.564112   -0.000086
  H     -4.509000   -0.076213    0.882682
  H     -4.510082   -0.074906   -0.880228
  H     -2.959946    2.022058   -0.000083
  H     -0.596496    2.707540   -0.000318
  H      1.805979    2.106526    0.000147
  H      2.959949   -2.022049   -0.000026
  H      0.596500   -2.707532   -0.000373
  H     -1.805979   -2.106518   -0.000024
  H      4.128122    1.564128    0.001940
  H      4.509603    0.074420    0.881412
  H      4.509486    0.076740   -0.881497

 Total Charge           Charge          ....    0
 Multiplicity           Mult            ....    1
 Number of Electrons    NEL             ....   84
 Basis Dimension        Dim             ....  444

ORBITAL ENERGIES
----------------

  NO   OCC          E(Eh)            E(eV)
   0   2.0000     -10.043129      -273.2874
   1   2.0000     -10.043123      -273.2873
   2   2.0000     -10.041273      -273.2369
   3   2.0000     -10.040970      -273.2287
   4   2.0000     -10.035012      -273.0666
   5   2.0000     -10.035004      -273.0663
   6   2.0000     -10.032618      -273.0014
   7   2.0000     -10.032615      -273.0013
   8   2.0000     -10.031231      -272.9637
   9   2.0000     -10.031225      -272.9635
  10   2.0000     -10.029922      -272.9280
  11   2.0000     -10.029921      -272.9280
  12   2.0000      -0.839783       -22.8517
  13   2.0000      -0.796489       -21.6736
  14   2.0000      -0.740934       -20.1618
  15   2.0000      -0.739595       -20.1254
  16   2.0000      -0.689834       -18.7713
  17   2.0000      -0.678953       -18.4753
  18   2.0000      -0.629650       -17.1336
  19   2.0000      -0.588429       -16.0120
  20   2.0000      -0.562648       -15.3104
  21   2.0000      -0.548864       -14.9353
  22   2.0000      -0.472896       -12.8682
  23   2.0000      -0.472715       -12.8632
  24   2.0000      -0.448271       -12.1981
  25   2.0000      -0.413232       -11.2446
  26   2.0000      -0.401702       -10.9309
  27   2.0000      -0.397891       -10.8272
  28   2.0000      -0.394448       -10.7335
  29   2.0000      -0.389477       -10.5982
  30   2.0000      -0.381755       -10.3881
  31   2.0000      -0.360386        -9.8066
  32   2.0000      -0.352446        -9.5905
  33   2.0000      -0.352009        -9.5786
  34   2.0000      -0.347512        -9.4563
  35   2.0000      -0.324904        -8.8411
  36   2.0000      -0.303413        -8.2563
  37   2.0000      -0.294709        -8.0194
  38   2.0000      -0.290348        -7.9008
  39   2.0000      -0.262297        -7.1375
  40   2.0000      -0.219409        -5.9704
  41   2.0000      -0.196898        -5.3579
  42   0.0000      -0.061885        -1.6840
  43   0.0000      -0.035348        -0.9619
  44   0.0000      -0.001902        -0.0518
  45   0.0000       0.056457         1.5363
  46   0.0000       0.060078         1.6348

MULLIKEN ATOMIC CHARGES
-----------------------
   0 C :   -0.350997
   1 C :    0.220245
   2 C :   -0.187223
   3 C :   -0.190086
   4 C :    0.213466
   5 C :   -0.329941
   6 C :    0.220307
   7 C :   -0.187253
   8 C :   -0.190090
   9 C :    0.213528
  10 C :   -0.329906
  11 C :   -0.351006
  12 H :    0.108651
  13 H :    0.116879
  14 H :    0.116856
  15 H :    0.100436
  16 H :    0.095403
  17 H :    0.086261
  18 H :    0.100431
  19 H :    0.095397
  20 H :    0.086255
  21 H :    0.108652
  22 H :    0.116853
  23 H :    0.116883
Sum of atomic charges:    0.0000000

LOEWDIN ATOMIC CHARGES
----------------------
   0 C :   -0.253738
   1 C :   -0.174458
   2 C :   -0.115607
   3 C :   -0.101115
   4 C :   -0.094728
   5 C :   -0.082913
   6 C :   -0.174458
   7 C :   -0.115607
   8 C :   -0.101115
   9 C :   -0.094727
  10 C :   -0.082913
  11 C :   -0.253738
  12 H :    0.125422
  13 H :    0.129497
  14 H :    0.129482
  15 H :    0.145562
  16 H :    0.145821
  17 H :    0.146774
  18 H :    0.145562
  19 H :    0.145821
  20 H :    0.146774
  21 H :    0.125422
  22 H :    0.129485
  23 H :    0.129494

  Mayer bond orders larger than 0.100000
B(  0-C ,  1-C ) :   0.9017 B(  0-C , 12-H ) :   0.9912 B(  0-C , 13-H ) :   0.9647
B(  0-C , 14-H ) :   0.9648 B(  1-C ,  2-C ) :   1.1827 B(  1-C , 10-C ) :   1.4897
B(  2-C ,  3-C ) :   1.5376 B(  2-C , 15-H ) :   0.9854 B(  3-C ,  4-C ) :   1.1690
B(  3-C , 16-H ) :   0.9884 B(  4-C ,  5-C ) :   1.1895 B(  4-C ,  9-C ) :   1.1967
B(  5-C ,  6-C ) :   1.4897 B(  5-C , 17-H ) :   0.9847 B(  6-C ,  7-C ) :   1.1827
B(  6-C , 11-C ) :   0.9016 B(  7-C ,  8-C ) :   1.5375 B(  7-C , 18-H ) :   0.9854
B(  8-C ,  9-C ) :   1.1690 B(  8-C , 19-H ) :   0.9885 B(  9-C , 10-C ) :   1.1895
B( 10-C , 20-H ) :   0.9847 B( 11-C , 21-H ) :   0.9912 B( 11-C , 22-H ) :   0.9648
B( 11-C , 23-H ) :   0.9647

Dispersion correction           -0.009265177
FINAL SINGLE POINT ENERGY      -464.430170484397

DIPOLE MOMENT
-------------

Method             : SCF
Type of density    : Electron Density
Multiplicity       :   1
Irrep              :   0
Energy             :  -464.4278024580953570 Eh
Relativity type    :
Basis              : AO
                                X                 Y                 Z
Electronic contribution:      0.000002874      -0.000018453      -0.002646267
Nuclear contribution   :     -0.000003812       0.000019800       0.002879967
                        -----------------------------------------
Total Dipole Moment    :     -0.000000938       0.000001347       0.000233700
                        -----------------------------------------
Magnitude (a.u.)       :      0.000233705
Magnitude (Debye)      :      0.000594032

VIBRATIONAL FREQUENCIES
-----------------------

Scaling factor for frequencies =  1.000000000  (already applied!)

     0:       0.00 cm**-1
     1:       0.00 cm**-1
     2:       0.00 cm**-1
     3:       0.00 cm**-1
     4:       0.00 cm**-1
     5:       0.00 cm**-1
     6:      84.60 cm**-1
     7:     113.50 cm**-1
     8:     117.11 cm**-1
     9:     180.24 cm**-1
    10:     206.39 cm**-1
    11:     225.25 cm**-1
    12:     327.06 cm**-1
    13:     342.19 cm**-1
    14:     402.93 cm**-1
    15:     415.69 cm**-1
    16:     447.70 cm**-1
    17:     482.77 cm**-1
    18:     532.79 cm**-1
    19:     538.66 cm**-1
    20:     593.48 cm**-1
    21:     653.03 cm**-1
    22:     690.50 cm**-1
    23:     769.52 cm**-1
    24:     779.94 cm**-1
    25:     800.83 cm**-1
    26:     819.91 cm**-1
    27:     845.65 cm**-1
    28:     879.45 cm**-1
    29:     894.59 cm**-1
    30:     935.49 cm**-1
    31:     945.85 cm**-1
    32:     948.25 cm**-1
    33:     986.42 cm**-1
    34:    1017.49 cm**-1
    35:    1026.64 cm**-1
    36:    1055.54 cm**-1
    37:    1056.12 cm**-1
    38:    1154.78 cm**-1
    39:    1170.54 cm**-1
    40:    1186.81 cm**-1
    41:    1194.34 cm**-1
    42:    1250.02 cm**-1
    43:    1281.71 cm**-1
    44:    1295.50 cm**-1
    45:    1369.86 cm**-1
    46:    1399.95 cm**-1
    47:    1401.16 cm**-1
    48:    1402.65 cm**-1
    49:    1410.55 cm**-1
    50:    1431.23 cm**-1
    51:    1475.41 cm**-1
    52:    1475.46 cm**-1
    53:    1479.05 cm**-1
    54:    1491.59 cm**-1
    55:    1515.63 cm**-1
    56:    1538.50 cm**-1
    57:    1605.00 cm**-1
    58:    1646.36 cm**-1
    59:    1665.04 cm**-1
    60:    3004.56 cm**-1
    61:    3004.82 cm**-1
    62:    3065.10 cm**-1
    63:    3065.11 cm**-1
    64:    3101.82 cm**-1
    65:    3101.82 cm**-1
    66:    3142.56 cm**-1
    67:    3143.59 cm**-1
    68:    3144.91 cm**-1
    69:    3144.94 cm**-1
    70:    3161.94 cm**-1
    71:    3162.83 cm**-1

IR SPECTRUM
-----------

 Mode   freq       eps      Int      T**2         TX        TY        TZ
       cm**-1   L/(mol*cm) km/mol    a.u.
----------------------------------------------------------------------------
  6:     84.60   0.000334    1.69  0.001233  (-0.000019  0.000046  0.035117)
  7:    113.50   0.000000    0.00  0.000000  ( 0.000029  0.000042 -0.000004)
  8:    117.11   0.000020    0.10  0.000053  ( 0.000052  0.000139 -0.007261)
  9:    180.24   0.000138    0.70  0.000239  ( 0.000049 -0.000075  0.015462)
 10:    206.39   0.000000    0.00  0.000000  (-0.000013  0.000049  0.000003)
 11:    225.25   0.000214    1.08  0.000296  (-0.004375  0.016635  0.000008)
 12:    327.06   0.000000    0.00  0.000000  (-0.000000  0.000000 -0.000003)
 13:    342.19   0.000816    4.12  0.000744  ( 0.000048 -0.000041 -0.027271)
 14:    402.93   0.000000    0.00  0.000000  ( 0.000021 -0.000049 -0.000000)
 15:    415.69   0.000000    0.00  0.000000  (-0.000000  0.000000  0.000003)
 16:    447.70   0.000469    2.37  0.000327  (-0.016679 -0.006976  0.000007)
 17:    482.77   0.002592   13.10  0.001675  ( 0.000001 -0.000008 -0.040929)
 18:    532.79   0.000000    0.00  0.000000  ( 0.000099  0.000068  0.000004)
 19:    538.66   0.000000    0.00  0.000000  ( 0.000000  0.000000 -0.000011)
 20:    593.48   0.000262    1.32  0.000138  ( 0.008146 -0.008449 -0.000005)
 21:    653.03   0.001193    6.03  0.000570  (-0.000022 -0.000026  0.023881)
 22:    690.50   0.000119    0.60  0.000054  (-0.006983 -0.002277  0.000004)
 23:    769.52   0.000000    0.00  0.000000  ( 0.000000  0.000000  0.000000)
 24:    779.94   0.000000    0.00  0.000000  ( 0.000071  0.000018  0.000003)
 25:    800.83   0.000000    0.00  0.000000  (-0.000003  0.000034  0.000000)
 26:    819.91   0.006780   34.26  0.002580  (-0.000007  0.000015  0.050797)
 27:    845.65   0.000000    0.00  0.000000  ( 0.000000  0.000000 -0.000002)
 28:    879.45   0.005478   27.68  0.001944  (-0.000017  0.000004 -0.044087)
 29:    894.59   0.000000    0.00  0.000000  ( 0.000006  0.000004  0.000002)
 30:    935.49   0.000193    0.98  0.000064  ( 0.007777  0.001974 -0.000002)
 31:    945.85   0.000000    0.00  0.000000  (-0.000011 -0.000008 -0.000026)
 32:    948.25   0.000178    0.90  0.000059  ( 0.000004  0.000016 -0.007652)
 33:    986.42   0.000000    0.00  0.000000  ( 0.000000  0.000000  0.000003)
 34:   1017.49   0.000000    0.00  0.000000  ( 0.000001 -0.000000 -0.000008)
 35:   1026.64   0.003492   17.65  0.001062  (-0.032434  0.003094  0.000009)
 36:   1055.54   0.001038    5.24  0.000307  (-0.000049 -0.000001  0.017517)
 37:   1056.12   0.000000    0.00  0.000000  ( 0.000040  0.000020 -0.000019)
 38:   1154.78   0.000646    3.27  0.000175  ( 0.004680 -0.012360 -0.000005)
 39:   1170.54   0.000000    0.00  0.000000  (-0.000000  0.000000 -0.000003)
 40:   1186.81   0.001029    5.20  0.000271  ( 0.003716  0.016024 -0.000005)
 41:   1194.34   0.000000    0.00  0.000000  ( 0.000000 -0.000000 -0.000002)
 42:   1250.02   0.000377    1.91  0.000094  (-0.008506 -0.004669  0.000008)
 43:   1281.71   0.000000    0.00  0.000000  (-0.000000  0.000000 -0.000001)
 44:   1295.50   0.000950    4.80  0.000229  ( 0.006195 -0.013805 -0.000004)
 45:   1369.86   0.000539    2.72  0.000123  (-0.008079 -0.007582 -0.000001)
 46:   1399.95   0.000000    0.00  0.000000  ( 0.000000  0.000001  0.000005)
 47:   1401.16   0.000093    0.47  0.000021  ( 0.003007  0.003415 -0.000008)
 48:   1402.65   0.000000    0.00  0.000000  ( 0.000000 -0.000000  0.000005)
 49:   1410.55   0.001054    5.33  0.000233  (-0.014826  0.003655  0.000005)
 50:   1431.23   0.000000    0.00  0.000000  (-0.000000  0.000000 -0.000001)
 51:   1475.41   0.002813   14.22  0.000595  (-0.000039  0.000101 -0.024393)
 52:   1475.46   0.000000    0.00  0.000000  ( 0.000002  0.000044 -0.000068)
 53:   1479.05   0.003212   16.23  0.000678  ( 0.001287 -0.026000 -0.000111)
 54:   1491.59   0.000000    0.00  0.000000  (-0.000000  0.000000 -0.000007)
 55:   1515.63   0.000000    0.00  0.000000  ( 0.000000 -0.000000  0.000007)
 56:   1538.50   0.003349   16.92  0.000679  ( 0.024905 -0.007680 -0.000006)
 57:   1605.00   0.000000    0.00  0.000000  (-0.000000 -0.000000 -0.000002)
 58:   1646.36   0.006559   33.14  0.001243  ( 0.033569  0.010785 -0.000003)
 59:   1665.04   0.000000    0.00  0.000000  (-0.000001 -0.000000  0.000010)
 60:   3004.56   0.016648   84.13  0.001729  (-0.041403 -0.003861  0.000022)
 61:   3004.82   0.000000    0.00  0.000000  ( 0.000158  0.000015  0.000013)
 62:   3065.10   0.000031    0.16  0.000003  (-0.000026 -0.000012 -0.001777)
 63:   3065.11   0.006021   30.43  0.000613  (-0.000029  0.000001 -0.024760)
 64:   3101.82   0.006114   30.90  0.000615  ( 0.002082  0.024713  0.000007)
 65:   3101.82   0.000001    0.00  0.000000  (-0.000019 -0.000230 -0.000012)
 66:   3142.56   0.003989   20.16  0.000396  ( 0.004256  0.019443  0.000001)
 67:   3143.59   0.000000    0.00  0.000000  (-0.000001 -0.000006 -0.000001)
 68:   3144.91   0.005239   26.48  0.000520  (-0.019893 -0.011141 -0.000001)
 69:   3144.94   0.000003    0.01  0.000000  (-0.000440 -0.000244  0.000001)
 70:   3161.94   0.009033   45.65  0.000891  (-0.010790  0.027840  0.000000)
 71:   3162.83   0.000000    0.00  0.000000  (-0.000010  0.000025 -0.000003)

--------------------------
THERMOCHEMISTRY AT 298.15K
--------------------------

Temperature         ...   298.15 K
Pressure            ...     1.00 atm
Total Mass          ...   156.23 AMU
Quasi RRHO          ...     True
Cut-Off Frequency   ...     1.00 cm^-1

Throughout the following assumptions are being made:
  (1) The electronic state is orbitally nondegenerate
  (2) There are no thermally accessible electronically excited states
  (3) Hindered rotations indicated by low frequency modes are not
      treated as such but are treated as vibrations and this may
      cause some error
  (4) All equations used are the standard statistical mechanics
      equations for an ideal gas
  (5) All vibrations are strictly harmonic

freq.      84.60  E(vib)   ...       0.48
freq.     113.50  E(vib)   ...       0.44
freq.     117.11  E(vib)   ...       0.44
freq.     180.24  E(vib)   ...       0.37
freq.     206.39  E(vib)   ...       0.35
freq.     225.25  E(vib)   ...       0.33
freq.     327.06  E(vib)   ...       0.24
freq.     342.19  E(vib)   ...       0.23
freq.     402.93  E(vib)   ...       0.19
freq.     415.69  E(vib)   ...       0.18
freq.     447.70  E(vib)   ...       0.17
freq.     482.77  E(vib)   ...       0.15
freq.     532.79  E(vib)   ...       0.13
freq.     538.66  E(vib)   ...       0.12
freq.     593.48  E(vib)   ...       0.10
freq.     653.03  E(vib)   ...       0.08
freq.     690.50  E(vib)   ...       0.07
freq.     769.52  E(vib)   ...       0.06
freq.     779.94  E(vib)   ...       0.05
freq.     800.83  E(vib)   ...       0.05
freq.     819.91  E(vib)   ...       0.05
freq.     845.65  E(vib)   ...       0.04
freq.     879.45  E(vib)   ...       0.04
freq.     894.59  E(vib)   ...       0.03
freq.     935.49  E(vib)   ...       0.03
freq.     945.85  E(vib)   ...       0.03
freq.     948.25  E(vib)   ...       0.03
freq.     986.42  E(vib)   ...       0.02
freq.    1017.49  E(vib)   ...       0.02
freq.    1026.64  E(vib)   ...       0.02
freq.    1055.54  E(vib)   ...       0.02
freq.    1056.12  E(vib)   ...       0.02
freq.    1154.78  E(vib)   ...       0.01
freq.    1170.54  E(vib)   ...       0.01
freq.    1186.81  E(vib)   ...       0.01
freq.    1194.34  E(vib)   ...       0.01
freq.    1250.02  E(vib)   ...       0.01
freq.    1281.71  E(vib)   ...       0.01
freq.    1295.50  E(vib)   ...       0.01
freq.    1369.86  E(vib)   ...       0.01
freq.    1399.95  E(vib)   ...       0.00
freq.    1401.16  E(vib)   ...       0.00
freq.    1402.65  E(vib)   ...       0.00
freq.    1410.55  E(vib)   ...       0.00
freq.    1431.23  E(vib)   ...       0.00
freq.    1475.41  E(vib)   ...       0.00
freq.    1475.46  E(vib)   ...       0.00
freq.    1479.05  E(vib)   ...       0.00
freq.    1491.59  E(vib)   ...       0.00
freq.    1515.63  E(vib)   ...       0.00
freq.    1538.50  E(vib)   ...       0.00
freq.    1605.00  E(vib)   ...       0.00
freq.    1646.36  E(vib)   ...       0.00
freq.    1665.04  E(vib)   ...       0.00
freq.    3004.56  E(vib)   ...       0.00
freq.    3004.82  E(vib)   ...       0.00
freq.    3065.10  E(vib)   ...       0.00
freq.    3065.11  E(vib)   ...       0.00
freq.    3101.82  E(vib)   ...       0.00
freq.    3101.82  E(vib)   ...       0.00
freq.    3142.56  E(vib)   ...       0.00
freq.    3143.59  E(vib)   ...       0.00
freq.    3144.91  E(vib)   ...       0.00
freq.    3144.94  E(vib)   ...       0.00
freq.    3161.94  E(vib)   ...       0.00
freq.    3162.83  E(vib)   ...       0.00

------------
INNER ENERGY
------------

The inner energy is: U= E(el) + E(ZPE) + E(vib) + E(rot) + E(trans)
    E(el)   - is the total energy from the electronic structure calculation
              = E(kin-el) + E(nuc-el) + E(el-el) + E(nuc-nuc)
    E(ZPE)  - the the zero temperature vibrational energy from the frequency calculation
    E(vib)  - the the finite temperature correction to E(ZPE) due to population
              of excited vibrational states
    E(rot)  - is the rotational thermal energy
    E(trans)- is the translational thermal energy

Summary of contributions to the inner energy U:
Electronic energy                ...   -464.43017048 Eh
Zero point energy                ...      0.20093603 Eh     126.09 kcal/mol
Thermal vibrational correction   ...      0.00751384 Eh       4.71 kcal/mol
Thermal rotational correction    ...      0.00141627 Eh       0.89 kcal/mol
Thermal translational correction ...      0.00141627 Eh       0.89 kcal/mol
-----------------------------------------------------------------------
Total thermal energy                   -464.21888807 Eh

Summary of corrections to the electronic energy:
(perhaps to be used in another calculation)
Total thermal correction                  0.01034639 Eh       6.49 kcal/mol
Non-thermal (ZPE) correction              0.20093603 Eh     126.09 kcal/mol
-----------------------------------------------------------------------
Total correction                          0.21128241 Eh     132.58 kcal/mol

--------
ENTHALPY
--------

The enthalpy is H = U + kB*T
                kB is Boltzmann's constant
Total thermal energy              ...   -464.21888807 Eh
Thermal Enthalpy correction       ...      0.00094421 Eh       0.59 kcal/mol
-----------------------------------------------------------------------
Total Enthalpy                    ...   -464.21794386 Eh

Note: Only C1 symmetry has been detected, increase convergence thresholds
      if your molecule has a higher symmetry. Symmetry factor of 1.0 is
      used for the rotational entropy correction.

Note: Rotational entropy computed according to Herzberg
Infrared and Raman Spectra, Chapter V,1, Van Nostrand Reinhold, 1945
Point Group:  C1, Symmetry Number:   1
Rotational constants in cm-1:     0.089631     0.019290     0.015968

Vibrational entropy computed according to the QRRHO of S. Grimme
Chem.Eur.J. 2012 18 9955 using a reference frequency of 100.0 cm-1

-------
ENTROPY
-------

The entropy contributions are T*S = T*(S(el)+S(vib)+S(rot)+S(trans))
     S(el)   - electronic entropy
     S(vib)  - vibrational entropy
     S(rot)  - rotational entropy
     S(trans)- translational entropy
The entropies will be listed as multiplied by the temperature to get
units of energy

Electronic entropy                ...      0.00000000 Eh      0.00 kcal/mol
Vibrational entropy               ...      0.01251480 Eh      7.85 kcal/mol
Rotational entropy                ...      0.01446654 Eh      9.08 kcal/mol
Translational entropy             ...      0.01950311 Eh     12.24 kcal/mol
-----------------------------------------------------------------------
Final entropy term                ...      0.04648444 Eh     29.17 kcal/mol

                             ****ORCA TERMINATED NORMALLY****
TOTAL RUN TIME: 0 days 0 hours 31 minutes 21 seconds 806 msec
