                         Program Version 6.0.1  -  RELEASE   -
|  1> ! r2scan-3c def2/J RI DEFGRID2 scfconv6 printgap
|  2> %output
|  3>     printlevel normal
|  4> end
|  5> * xyz 0 1
|  6> C -1.8282912129 1.4823599045 -0.0006514172
|  7> C -0.542414352 0.7111643399 0.0003859876
|  8> C 0.6648617092 1.4005501667 0.0004942424
|  9> C 1.8615000027 0.7052573835 0.0001473812
| 10> C 1.8016701195 -0.6782739269 -0.0001997856
| 11> N 0.6644725101 -1.3479234929 -0.0003879426
| 12> C -0.4859662818 -0.6874135264 -5.9216e-06
| 13> C -1.7148797522 -1.5463726015 0.0005078336
| 14> H -1.8842922072 2.1098347666 -0.8899473187
| 15> H -2.6944593804 0.8297285491 0.016403874
| 16> H -1.8697556768 2.1372070667 0.8693019565
| 17> H 0.6603601506 2.4823648524 0.0008198291
| 18> H 2.8086403709 1.2222161715 -9.73717e-05
| 19> H 2.6991455591 -1.2833347437 -0.0013952088
| 20> H -2.32233477 -1.3532158691 -0.8822549921
| 21> H -1.4099624873 -2.5887661429 -0.0014684702
| 22> H -2.3194689302 -1.3559759926 0.8859454619
| 23> *
| 24>
| 25>                          ****END OF INPUT****

CARTESIAN COORDINATES (ANGSTROEM)
---------------------------------
  C     -1.828291    1.482360   -0.000651
  C     -0.542414    0.711164    0.000386
  C      0.664862    1.400550    0.000494
  C      1.861500    0.705257    0.000147
  C      1.801670   -0.678274   -0.000200
  N      0.664473   -1.347923   -0.000388
  C     -0.485966   -0.687414   -0.000006
  C     -1.714880   -1.546373    0.000508
  H     -1.884292    2.109835   -0.889947
  H     -2.694459    0.829729    0.016404
  H     -1.869756    2.137207    0.869302
  H      0.660360    2.482365    0.000820
  H      2.808640    1.222216   -0.000097
  H      2.699146   -1.283335   -0.001395
  H     -2.322335   -1.353216   -0.882255
  H     -1.409962   -2.588766   -0.001468
  H     -2.319469   -1.355976    0.885945

 Total Charge           Charge          ....    0
 Multiplicity           Mult            ....    1
 Number of Electrons    NEL             ....   58
 Basis Dimension        Dim             ....  202

ORBITAL ENERGIES
----------------

  NO   OCC          E(Eh)            E(eV)
   0   2.0000     -14.144072      -384.8798
   1   2.0000     -10.068509      -273.9781
   2   2.0000     -10.057507      -273.6787
   3   2.0000     -10.047657      -273.4106
   4   2.0000     -10.045009      -273.3386
   5   2.0000     -10.036793      -273.1150
   6   2.0000     -10.034511      -273.0529
   7   2.0000     -10.022218      -272.7184
   8   2.0000      -0.910456       -24.7748
   9   2.0000      -0.782231       -21.2856
  10   2.0000      -0.755880       -20.5685
  11   2.0000      -0.688176       -18.7262
  12   2.0000      -0.653189       -17.7742
  13   2.0000      -0.580780       -15.8038
  14   2.0000      -0.566754       -15.4222
  15   2.0000      -0.474655       -12.9160
  16   2.0000      -0.464202       -12.6316
  17   2.0000      -0.414154       -11.2697
  18   2.0000      -0.413922       -11.2634
  19   2.0000      -0.383420       -10.4334
  20   2.0000      -0.378867       -10.3095
  21   2.0000      -0.374503       -10.1908
  22   2.0000      -0.367087        -9.9890
  23   2.0000      -0.347834        -9.4651
  24   2.0000      -0.342735        -9.3263
  25   2.0000      -0.318012        -8.6536
  26   2.0000      -0.260212        -7.0807
  27   2.0000      -0.227720        -6.1966
  28   2.0000      -0.215579        -5.8662
  29   0.0000      -0.047308        -1.2873
  30   0.0000      -0.030765        -0.8371
  31   0.0000       0.079899         2.1742
  32   0.0000       0.097147         2.6435
  33   0.0000       0.102507         2.7894

MULLIKEN ATOMIC CHARGES
-----------------------
   0 C :   -0.550598
   1 C :    0.159404
   2 C :   -0.201346
   3 C :   -0.113094
   4 C :   -0.103145
   5 N :   -0.174446
   6 C :    0.243515
   7 C :   -0.684014
   8 H :    0.166239
   9 H :    0.161164
  10 H :    0.164927
  11 H :    0.146901
  12 H :    0.146818
  13 H :    0.132926
  14 H :    0.160817
  15 H :    0.183094
  16 H :    0.160838
Sum of atomic charges:    0.0000000

LOEWDIN ATOMIC CHARGES
----------------------
   0 C :   -0.388592
   1 C :   -0.076253
   2 C :   -0.122078
   3 C :   -0.152867
   4 C :    0.076302
   5 N :   -0.627325
   6 C :    0.129616
   7 C :   -0.365406
   8 H :    0.167221
   9 H :    0.163697
  10 H :    0.166951
  11 H :    0.170179
  12 H :    0.168803
  13 H :    0.183227
  14 H :    0.163894
  15 H :    0.178719
  16 H :    0.163913

  Mayer bond orders larger than 0.100000
B(  0-C ,  1-C ) :   0.7532 B(  0-C ,  8-H ) :   0.9841 B(  0-C ,  9-H ) :   0.9732
B(  0-C , 10-H ) :   0.9848 B(  1-C ,  2-C ) :   1.3631 B(  1-C ,  6-C ) :   1.4028
B(  2-C ,  3-C ) :   1.4375 B(  2-C , 11-H ) :   0.9535 B(  3-C ,  4-C ) :   1.3509
B(  3-C , 12-H ) :   0.9369 B(  4-C ,  5-N ) :   1.4601 B(  4-C , 13-H ) :   0.9811
B(  5-N ,  6-C ) :   1.3265 B(  5-N ,  7-C ) :   0.1059 B(  6-C ,  7-C ) :   0.8008
B(  7-C , 14-H ) :   0.9744 B(  7-C , 15-H ) :   0.9920 B(  7-C , 16-H ) :   0.9746

Dispersion correction           -0.005364449
FINAL SINGLE POINT ENERGY      -326.821599642844

DIPOLE MOMENT
-------------

Method             : SCF
Type of density    : Electron Density
Multiplicity       :   1
Irrep              :   0
Energy             :  -326.8241400123945368 Eh
Relativity type    :
Basis              : AO
                                X                 Y                 Z
Electronic contribution:      5.629724698      -1.257012014       0.001574253
Nuclear contribution   :     -5.936959335       2.056635137      -0.002527902
                        -----------------------------------------
Total Dipole Moment    :     -0.307234637       0.799623124      -0.000953649
                        -----------------------------------------
Magnitude (a.u.)       :      0.856616117
Magnitude (Debye)      :      2.177345132

Rotational constants in cm-1:             0.105277             0.076591             0.045080
Rotational constants in MHz :          3156.135251          2296.143339          1351.451735

                             ****ORCA TERMINATED NORMALLY****
TOTAL RUN TIME: 0 days 0 hours 0 minutes 17 seconds 546 msec
