                         Program Version 6.0.1  -  RELEASE   -
|  1> ! pbe def2-sv(p) def2/J RI DEFGRID1 loosescf d4 GCP(DFT/SV(P)) printgap
|  2> %output
|  3>     printlevel normal
|  4> end
|  5> * xyz 0 1
|  6> C -2.3495646636 -1.02683246 -0.5404888462
|  7> C -1.4677932082 -0.0040078938 0.1375902527
|  8> O -1.6669535358 0.3458637931 1.2733644026
|  9> C -0.3552550465 0.5760816092 -0.7240210505
| 10> C 0.4960542731 -0.5028264169 -1.4044176521
| 11> C 1.3198280253 -1.2711774928 -0.3753099355
| 12> C 2.2320928238 -0.3151546384 0.3861698745
| 13> C 1.4038159059 0.7595605379 1.0820841919
| 14> C 0.5440009759 1.5223780157 0.0774591134
| 15> H -1.8599015631 -1.9984597907 -0.5025628673
| 16> H -3.2935108023 -1.1020652345 -0.0062073455
| 17> H -2.5290809748 -0.7697834622 -1.5804846849
| 18> H -0.8692373993 1.1542480226 -1.5042570392
| 19> H -0.1312395398 -1.1869261056 -1.977232204
| 20> H 1.1750174895 -0.0125992285 -2.106699856
| 21> H 0.6533588447 -1.7713284205 0.3313834558
| 22> H 1.9143804736 -2.0374794252 -0.8780258607
| 23> H 2.8191836217 -0.8672180806 1.1227435887
| 24> H 2.9283799695 0.1542394951 -0.3136913073
| 25> H 0.7549852504 0.2961884893 1.8261649376
| 26> H 2.0617333882 1.4592964961 1.6013602211
| 27> H -0.0780702702 2.24521101 0.6077167454
| 28> H 1.1886501895 2.0683990871 -0.6155322473
| 29> *
| 30>
| 31>                          ****END OF INPUT****

CARTESIAN COORDINATES (ANGSTROEM)
---------------------------------
  C     -2.349565   -1.026832   -0.540489
  C     -1.467793   -0.004008    0.137590
  O     -1.666954    0.345864    1.273364
  C     -0.355255    0.576082   -0.724021
  C      0.496054   -0.502826   -1.404418
  C      1.319828   -1.271177   -0.375310
  C      2.232093   -0.315155    0.386170
  C      1.403816    0.759561    1.082084
  C      0.544001    1.522378    0.077459
  H     -1.859902   -1.998460   -0.502563
  H     -3.293511   -1.102065   -0.006207
  H     -2.529081   -0.769783   -1.580485
  H     -0.869237    1.154248   -1.504257
  H     -0.131240   -1.186926   -1.977232
  H      1.175017   -0.012599   -2.106700
  H      0.653359   -1.771328    0.331383
  H      1.914380   -2.037479   -0.878026
  H      2.819184   -0.867218    1.122744
  H      2.928380    0.154239   -0.313691
  H      0.754985    0.296188    1.826165
  H      2.061733    1.459296    1.601360
  H     -0.078070    2.245211    0.607717
  H      1.188650    2.068399   -0.615532

 Total Charge           Charge          ....    0
 Multiplicity           Mult            ....    1
 Number of Electrons    NEL             ....   70
 Basis Dimension        Dim             ....  154

ORBITAL ENERGIES
----------------

  NO   OCC          E(Eh)            E(eV)
   0   2.0000     -18.739677      -509.9325
   1   2.0000      -9.973485      -271.3923
   2   2.0000      -9.900668      -269.4109
   3   2.0000      -9.893817      -269.2244
   4   2.0000      -9.886690      -269.0305
   5   2.0000      -9.886320      -269.0204
   6   2.0000      -9.880463      -268.8611
   7   2.0000      -9.879715      -268.8407
   8   2.0000      -9.874411      -268.6964
   9   2.0000      -0.942476       -25.6461
  10   2.0000      -0.761103       -20.7107
  11   2.0000      -0.691234       -18.8094
  12   2.0000      -0.668383       -18.1876
  13   2.0000      -0.652675       -17.7602
  14   2.0000      -0.560504       -15.2521
  15   2.0000      -0.541912       -14.7462
  16   2.0000      -0.510535       -13.8924
  17   2.0000      -0.448991       -12.2177
  18   2.0000      -0.443318       -12.0633
  19   2.0000      -0.418048       -11.3757
  20   2.0000      -0.409903       -11.1540
  21   2.0000      -0.394457       -10.7337
  22   2.0000      -0.382954       -10.4207
  23   2.0000      -0.372721       -10.1423
  24   2.0000      -0.357712        -9.7338
  25   2.0000      -0.344819        -9.3830
  26   2.0000      -0.335876        -9.1397
  27   2.0000      -0.329400        -8.9634
  28   2.0000      -0.318170        -8.6579
  29   2.0000      -0.312559        -8.5052
  30   2.0000      -0.301997        -8.2178
  31   2.0000      -0.280930        -7.6445
  32   2.0000      -0.262105        -7.1322
  33   2.0000      -0.259581        -7.0636
  34   2.0000      -0.195311        -5.3147
  35   0.0000      -0.049990        -1.3603
  36   0.0000       0.025299         0.6884
  37   0.0000       0.047326         1.2878
  38   0.0000       0.061686         1.6786
  39   0.0000       0.076248         2.0748

MULLIKEN ATOMIC CHARGES
-----------------------
   0 C :   -0.254300
   1 C :   -0.005509
   2 O :   -0.153376
   3 C :   -0.181785
   4 C :   -0.137750
   5 C :   -0.160603
   6 C :   -0.154465
   7 C :   -0.166097
   8 C :   -0.094786
   9 H :    0.133449
  10 H :    0.118784
  11 H :    0.118938
  12 H :    0.093264
  13 H :    0.088525
  14 H :    0.082261
  15 H :    0.088322
  16 H :    0.087062
  17 H :    0.085360
  18 H :    0.071354
  19 H :    0.098412
  20 H :    0.083215
  21 H :    0.089662
  22 H :    0.070060
Sum of atomic charges:    0.0000000

LOEWDIN ATOMIC CHARGES
----------------------
   0 C :   -0.364301
   1 C :    0.046340
   2 O :   -0.116944
   3 C :   -0.173332
   4 C :   -0.213446
   5 C :   -0.228096
   6 C :   -0.225880
   7 C :   -0.230278
   8 C :   -0.215753
   9 H :    0.145697
  10 H :    0.136102
  11 H :    0.133125
  12 H :    0.136307
  13 H :    0.114451
  14 H :    0.119702
  15 H :    0.115109
  16 H :    0.117734
  17 H :    0.116278
  18 H :    0.111819
  19 H :    0.121530
  20 H :    0.116723
  21 H :    0.122881
  22 H :    0.114232

  Mayer bond orders larger than 0.100000
B(  0-C ,  1-C ) :   1.0719 B(  0-C ,  9-H ) :   0.9147 B(  0-C , 10-H ) :   0.9299
B(  0-C , 11-H ) :   0.9327 B(  1-C ,  2-O ) :   2.1848 B(  1-C ,  3-C ) :   0.9157
B(  3-C ,  4-C ) :   1.0730 B(  3-C ,  8-C ) :   1.1014 B(  3-C , 12-H ) :   0.8581
B(  4-C ,  5-C ) :   1.1308 B(  4-C , 13-H ) :   0.9080 B(  4-C , 14-H ) :   0.9090
B(  5-C ,  6-C ) :   1.1304 B(  5-C , 15-H ) :   0.9089 B(  5-C , 16-H ) :   0.9178
B(  6-C ,  7-C ) :   1.1314 B(  6-C , 17-H ) :   0.9196 B(  6-C , 18-H ) :   0.9146
B(  7-C ,  8-C ) :   1.1322 B(  7-C , 19-H ) :   0.9107 B(  7-C , 20-H ) :   0.9178
B(  8-C , 21-H ) :   0.9050 B(  8-C , 22-H ) :   0.9112

Dispersion correction           -0.022978796
FINAL SINGLE POINT ENERGY      -387.609184849802

DIPOLE MOMENT
-------------

Method             : SCF
Type of density    : Electron Density
Multiplicity       :   1
Irrep              :   0
Energy             :  -387.6868075447038109 Eh
Relativity type    :
Basis              : AO
                                X                 Y                 Z
Electronic contribution:     -4.229007429       1.906118657       2.861861417
Nuclear contribution   :      4.417163849      -2.216707593      -3.729392322
                        -----------------------------------------
Total Dipole Moment    :      0.188156420      -0.310588937      -0.867530904
                        -----------------------------------------
Magnitude (a.u.)       :      0.940467009
Magnitude (Debye)      :      2.390477164

Rotational constants in cm-1:             0.082864             0.046279             0.038242
Rotational constants in MHz :          2484.186876          1387.407097          1146.476655

                             ****ORCA TERMINATED NORMALLY****
TOTAL RUN TIME: 0 days 0 hours 0 minutes 11 seconds 427 msec
