                         Program Version 6.0.1  -  RELEASE   -
|  1> ! r2scan-3c def2/J RI DEFGRID2 scfconv6 printgap
|  2> %output
|  3>     printlevel normal
|  4> end
|  5> * xyz 0 1
|  6> C -1.6796392112 0.6175228776 -0.6266907924
|  7> C -1.1983191269 -0.0821111826 0.6378691001
|  8> C 0.0381058607 -0.9487736817 0.3712972988
|  9> C 1.1775791633 -0.1460720068 -0.0242516379
| 10> C 2.1067847536 0.5366352635 -0.3437174867
| 11> H -2.5437740511 1.2423781051 -0.4127252995
| 12> H -0.8891254253 1.2448881822 -1.0326242458
| 13> H -1.9619611638 -0.1115693695 -1.3839154335
| 14> H -0.9550861845 0.6640946366 1.3975988151
| 15> H -1.9949624287 -0.7175098929 1.0322940234
| 16> H -0.1808674541 -1.6687912175 -0.4231289018
| 17> H 0.3007210383 -1.5070900618 1.2750574733
| 18> H 2.9278764856 1.1252888194 -0.6254280997
| 19> *
| 20>
| 21>                          ****END OF INPUT****

CARTESIAN COORDINATES (ANGSTROEM)
---------------------------------
  C     -1.679639    0.617523   -0.626691
  C     -1.198319   -0.082111    0.637869
  C      0.038106   -0.948774    0.371297
  C      1.177579   -0.146072   -0.024252
  C      2.106785    0.536635   -0.343717
  H     -2.543774    1.242378   -0.412725
  H     -0.889125    1.244888   -1.032624
  H     -1.961961   -0.111569   -1.383915
  H     -0.955086    0.664095    1.397599
  H     -1.994962   -0.717510    1.032294
  H     -0.180867   -1.668791   -0.423129
  H      0.300721   -1.507090    1.275057
  H      2.927876    1.125289   -0.625428

 Total Charge           Charge          ....    0
 Multiplicity           Mult            ....    1
 Number of Electrons    NEL             ....   38
 Basis Dimension        Dim             ....  135

ORBITAL ENERGIES
----------------

  NO   OCC          E(Eh)            E(eV)
   0   2.0000     -10.056224      -273.6438
   1   2.0000     -10.037394      -273.1314
   2   2.0000     -10.030639      -272.9476
   3   2.0000     -10.017839      -272.5993
   4   2.0000     -10.016375      -272.5594
   5   2.0000      -0.782496       -21.2928
   6   2.0000      -0.711491       -19.3607
   7   2.0000      -0.660263       -17.9667
   8   2.0000      -0.571156       -15.5419
   9   2.0000      -0.497003       -13.5241
  10   2.0000      -0.448271       -12.1981
  11   2.0000      -0.430759       -11.7216
  12   2.0000      -0.397830       -10.8255
  13   2.0000      -0.378756       -10.3065
  14   2.0000      -0.327113        -8.9012
  15   2.0000      -0.324122        -8.8198
  16   2.0000      -0.311232        -8.4691
  17   2.0000      -0.244965        -6.6658
  18   2.0000      -0.243720        -6.6320
  19   0.0000       0.022393         0.6093
  20   0.0000       0.027665         0.7528
  21   0.0000       0.091059         2.4778
  22   0.0000       0.120462         3.2779
  23   0.0000       0.132188         3.5970

MULLIKEN ATOMIC CHARGES
-----------------------
   0 C :   -0.473593
   1 C :   -0.232718
   2 C :   -0.387895
   3 C :    0.057366
   4 C :   -0.189514
   5 H :    0.145390
   6 H :    0.165719
   7 H :    0.138139
   8 H :    0.143386
   9 H :    0.146291
  10 H :    0.166605
  11 H :    0.164442
  12 H :    0.156381
Sum of atomic charges:    0.0000000

LOEWDIN ATOMIC CHARGES
----------------------
   0 C :   -0.420330
   1 C :   -0.298142
   2 C :   -0.281531
   3 C :   -0.083724
   4 C :   -0.220658
   5 H :    0.151729
   6 H :    0.160913
   7 H :    0.149799
   8 H :    0.158674
   9 H :    0.152450
  10 H :    0.175365
  11 H :    0.176245
  12 H :    0.179209

  Mayer bond orders larger than 0.100000
B(  0-C ,  1-C ) :   0.9200 B(  0-C ,  5-H ) :   0.9685 B(  0-C ,  6-H ) :   0.9768
B(  0-C ,  7-H ) :   0.9764 B(  1-C ,  2-C ) :   0.8918 B(  1-C ,  8-H ) :   0.9697
B(  1-C ,  9-H ) :   0.9692 B(  2-C ,  3-C ) :   0.9507 B(  2-C , 10-H ) :   1.0079
B(  2-C , 11-H ) :   0.9628 B(  3-C ,  4-C ) :   2.6515 B(  4-C , 12-H ) :   1.0492

Dispersion correction           -0.002798095
FINAL SINGLE POINT ENERGY      -195.210452732238

DIPOLE MOMENT
-------------

Method             : SCF
Type of density    : Electron Density
Multiplicity       :   1
Irrep              :   0
Energy             :  -195.2123230109056067 Eh
Relativity type    :
Basis              : AO
                                X                 Y                 Z
Electronic contribution:      4.662518733      -0.377724113       0.260415217
Nuclear contribution   :     -4.969630218       0.254889408      -0.162182218
                        -----------------------------------------
Total Dipole Moment    :     -0.307111485      -0.122834705       0.098232999
                        -----------------------------------------
Magnitude (a.u.)       :      0.345044274
Magnitude (Debye)      :      0.877032846

Rotational constants in cm-1:             0.333596             0.108191             0.090037
Rotational constants in MHz :         10000.953109          3243.491786          2699.247450

                             ****ORCA TERMINATED NORMALLY****
TOTAL RUN TIME: 0 days 0 hours 0 minutes 10 seconds 469 msec
