                         Program Version 6.0.1  -  RELEASE   -
|  1> ! r2scan-3c def2/J RI DEFGRID2 scfconv6 printgap
|  2> %output
|  3>     printlevel normal
|  4> end
|  5> * xyz 0 1
|  6> C 0.6538492467 1.04903e-05 -0.3856602099
|  7> C -0.6538743297 7.62525e-05 0.3855696736
|  8> Cl -1.5882254144 1.4497186082 -0.0332867412
|  9> Cl -1.588892988 -1.4492001151 -0.0332565185
| 10> Cl 1.5888212462 1.4489770201 0.0333092498
| 11> Cl 1.5883050229 -1.4495272307 0.0332676441
| 12> H 0.487606128 -8.48724e-05 -1.465467795
| 13> H -0.4875839302 0.0001668378 1.4653636149
| 14> *
| 15>
| 16>                          ****END OF INPUT****

CARTESIAN COORDINATES (ANGSTROEM)
---------------------------------
  C      0.653849    0.000010   -0.385660
  C     -0.653874    0.000076    0.385570
  Cl    -1.588225    1.449719   -0.033287
  Cl    -1.588893   -1.449200   -0.033257
  Cl     1.588821    1.448977    0.033309
  Cl     1.588305   -1.449527    0.033268
  H      0.487606   -0.000085   -1.465468
  H     -0.487584    0.000167    1.465364

 Total Charge           Charge          ....    0
 Multiplicity           Mult            ....    1
 Number of Electrons    NEL             ....   82
 Basis Dimension        Dim             ....  156

ORBITAL ENERGIES
----------------

  NO   OCC          E(Eh)            E(eV)
   0   2.0000    -101.239742     -2754.8734
   1   2.0000    -101.239734     -2754.8732
   2   2.0000    -101.239725     -2754.8730
   3   2.0000    -101.239710     -2754.8726
   4   2.0000     -10.190934      -277.3094
   5   2.0000     -10.190797      -277.3057
   6   2.0000      -9.395789      -255.6724
   7   2.0000      -9.395776      -255.6721
   8   2.0000      -9.395769      -255.6719
   9   2.0000      -9.395755      -255.6715
  10   2.0000      -7.142655      -194.3615
  11   2.0000      -7.142642      -194.3612
  12   2.0000      -7.142635      -194.3610
  13   2.0000      -7.142621      -194.3606
  14   2.0000      -7.131522      -194.0586
  15   2.0000      -7.131509      -194.0582
  16   2.0000      -7.131502      -194.0580
  17   2.0000      -7.131489      -194.0577
  18   2.0000      -7.131447      -194.0565
  19   2.0000      -7.131434      -194.0562
  20   2.0000      -7.131428      -194.0560
  21   2.0000      -7.131413      -194.0556
  22   2.0000      -0.925505       -25.1843
  23   2.0000      -0.863904       -23.5080
  24   2.0000      -0.816763       -22.2253
  25   2.0000      -0.795108       -21.6360
  26   2.0000      -0.691048       -18.8044
  27   2.0000      -0.604595       -16.4519
  28   2.0000      -0.497032       -13.5249
  29   2.0000      -0.476749       -12.9730
  30   2.0000      -0.472505       -12.8575
  31   2.0000      -0.431620       -11.7450
  32   2.0000      -0.415646       -11.3103
  33   2.0000      -0.330926        -9.0050
  34   2.0000      -0.319713        -8.6998
  35   2.0000      -0.317941        -8.6516
  36   2.0000      -0.316885        -8.6229
  37   2.0000      -0.305725        -8.3192
  38   2.0000      -0.301700        -8.2097
  39   2.0000      -0.292780        -7.9669
  40   2.0000      -0.276511        -7.5242
  41   0.0000      -0.051516        -1.4018
  42   0.0000      -0.045627        -1.2416
  43   0.0000      -0.035454        -0.9648
  44   0.0000       0.026595         0.7237
  45   0.0000       0.076996         2.0952

MULLIKEN ATOMIC CHARGES
-----------------------
   0 C :   -0.013728
   1 C :   -0.013660
   2 Cl:   -0.099432
   3 Cl:   -0.099402
   4 Cl:   -0.099289
   5 Cl:   -0.099448
   6 H :    0.212484
   7 H :    0.212475
Sum of atomic charges:   -0.0000000

LOEWDIN ATOMIC CHARGES
----------------------
   0 C :   -0.369729
   1 C :   -0.369651
   2 Cl:    0.095054
   3 Cl:    0.095064
   4 Cl:    0.095194
   5 Cl:    0.095031
   6 H :    0.179518
   7 H :    0.179520

  Mayer bond orders larger than 0.100000
B(  0-C ,  1-C ) :   0.9487 B(  0-C ,  4-Cl) :   1.0004 B(  0-C ,  5-Cl) :   1.0003
B(  0-C ,  6-H ) :   0.9263 B(  1-C ,  2-Cl) :   1.0003 B(  1-C ,  3-Cl) :   1.0003
B(  1-C ,  7-H ) :   0.9263

Dispersion correction           -0.003276203
FINAL SINGLE POINT ENERGY     -1918.093527227019

DIPOLE MOMENT
-------------

Method             : SCF
Type of density    : Electron Density
Multiplicity       :   1
Irrep              :   0
Energy             : -1918.1011860167532177 Eh
Relativity type    :
Basis              : AO
                                X                 Y                 Z
Electronic contribution:      0.000117102       0.000164538       0.000118521
Nuclear contribution   :      0.000010267       0.000119470      -0.000142884
                        -----------------------------------------
Total Dipole Moment    :      0.000127368       0.000284007      -0.000024362
                        -----------------------------------------
Magnitude (a.u.)       :      0.000312212
Magnitude (Debye)      :      0.000793580

Rotational constants in cm-1:             0.055099             0.044754             0.025292
Rotational constants in MHz :          1651.819544          1341.688337           758.246537

                             ****ORCA TERMINATED NORMALLY****
TOTAL RUN TIME: 0 days 0 hours 0 minutes 20 seconds 169 msec
