                         Program Version 6.0.0  -   RELEASE  -
|  1> ! r2SCAN-3c DEF2-TZVP FREQ
|  2> * xyzfile 0 1 censo.xyz
|  3>
|  4>                          ****END OF INPUT****

CARTESIAN COORDINATES (ANGSTROEM)
---------------------------------
  C     -1.001531   -1.599340    0.007710
  S     -0.480365    0.113042    0.062680
  O     -0.464311    0.611342    1.439478
  O     -1.137448    0.891859   -0.988525
  Cl     1.565303   -0.084946   -0.526405
  H     -0.395693   -2.162068    0.720613
  H     -2.056838   -1.589949    0.301945
  H     -0.878001   -1.958447   -1.015812

 Total Charge           Charge          ....    0
 Multiplicity           Mult            ....    1
 Number of Electrons    NEL             ....   58
 Basis Dimension        Dim             ....  185

ORBITAL ENERGIES
----------------

  NO   OCC          E(Eh)            E(eV)
   0   2.0000    -101.208213     -2754.0155
   1   2.0000     -88.764528     -2415.4056
   2   2.0000     -18.988253      -516.6966
   3   2.0000     -18.987910      -516.6873
   4   2.0000     -10.112173      -275.1662
   5   2.0000      -9.384116      -255.3548
   6   2.0000      -8.048855      -219.0205
   7   2.0000      -7.128564      -193.9781
   8   2.0000      -7.119269      -193.7252
   9   2.0000      -7.118998      -193.7178
  10   2.0000      -5.996762      -163.1802
  11   2.0000      -5.991531      -163.0379
  12   2.0000      -5.989816      -162.9912
  13   2.0000      -1.093013       -29.7424
  14   2.0000      -0.996041       -27.1037
  15   2.0000      -0.817822       -22.2541
  16   2.0000      -0.766784       -20.8652
  17   2.0000      -0.602746       -16.4016
  18   2.0000      -0.500461       -13.6182
  19   2.0000      -0.478111       -13.0101
  20   2.0000      -0.472739       -12.8639
  21   2.0000      -0.433678       -11.8010
  22   2.0000      -0.431062       -11.7298
  23   2.0000      -0.344596        -9.3769
  24   2.0000      -0.343939        -9.3591
  25   2.0000      -0.320635        -8.7249
  26   2.0000      -0.314184        -8.5494
  27   2.0000      -0.311137        -8.4665
  28   2.0000      -0.292142        -7.9496
  29   0.0000      -0.107914        -2.9365
  30   0.0000      -0.001705        -0.0464
  31   0.0000       0.028900         0.7864
  32   0.0000       0.029739         0.8092
  33   0.0000       0.042821         1.1652

MULLIKEN ATOMIC CHARGES
-----------------------
   0 C :   -0.313910
   1 S :    0.802994
   2 O :   -0.399788
   3 O :   -0.400004
   4 Cl:   -0.179850
   5 H :    0.164592
   6 H :    0.161388
   7 H :    0.164578
Sum of atomic charges:   -0.0000000

LOEWDIN ATOMIC CHARGES
----------------------
   0 C :   -0.419336
   1 S :    0.544862
   2 O :   -0.262721
   3 O :   -0.262744
   4 Cl:    0.000288
   5 H :    0.131936
   6 H :    0.135748
   7 H :    0.131967

  Mayer bond orders larger than 0.100000
B(  0-C ,  1-S ) :   0.8514 B(  0-C ,  5-H ) :   0.9379 B(  0-C ,  6-H ) :   0.9313
B(  0-C ,  7-H ) :   0.9379 B(  1-S ,  2-O ) :   1.8515 B(  1-S ,  3-O ) :   1.8514
B(  1-S ,  4-Cl) :   0.9158

Dispersion correction           -0.002209297
FINAL SINGLE POINT ENERGY     -1048.695954499955

DIPOLE MOMENT
-------------

Method             : SCF
Type of density    : Electron Density
Multiplicity       :   1
Irrep              :   0
Energy             : -1048.7072912118439945 Eh
Relativity type    :
Basis              : AO
                                X                 Y                 Z
Electronic contribution:      4.861000205       3.659895622      -0.918327089
Nuclear contribution   :     -5.223554939      -5.220546027       0.837817892
                        -----------------------------------------
Total Dipole Moment    :     -0.362554734      -1.560650404      -0.080509197
                        -----------------------------------------
Magnitude (a.u.)       :      1.604231078
Magnitude (Debye)      :      4.077631345

VIBRATIONAL FREQUENCIES
-----------------------

Scaling factor for frequencies =  1.000000000  (already applied!)

     0:       0.00 cm**-1
     1:       0.00 cm**-1
     2:       0.00 cm**-1
     3:       0.00 cm**-1
     4:       0.00 cm**-1
     5:       0.00 cm**-1
     6:     234.76 cm**-1
     7:     238.35 cm**-1
     8:     288.22 cm**-1
     9:     317.64 cm**-1
    10:     356.71 cm**-1
    11:     479.36 cm**-1
    12:     529.13 cm**-1
    13:     710.15 cm**-1
    14:     978.44 cm**-1
    15:     980.22 cm**-1
    16:    1075.97 cm**-1
    17:    1265.39 cm**-1
    18:    1331.66 cm**-1
    19:    1435.56 cm**-1
    20:    1443.08 cm**-1
    21:    3023.73 cm**-1
    22:    3133.43 cm**-1
    23:    3159.79 cm**-1

IR SPECTRUM
-----------

 Mode   freq       eps      Int      T**2         TX        TY        TZ
       cm**-1   L/(mol*cm) km/mol    a.u.
----------------------------------------------------------------------------
  6:    234.76   0.000416    2.10  0.000553  ( 0.022704  0.000891 -0.006063)
  7:    238.35   0.000001    0.01  0.000002  ( 0.000760 -0.000298  0.001112)
  8:    288.22   0.000206    1.04  0.000223  (-0.004216  0.001747 -0.014231)
  9:    317.64   0.005607   28.34  0.005509  ( 0.071107 -0.006192 -0.020357)
 10:    356.71   0.000155    0.78  0.000136  (-0.003482  0.001056 -0.011066)
 11:    479.36   0.008072   40.79  0.005255  (-0.050305 -0.051567  0.008055)
 12:    529.13   0.022310  112.75  0.013158  ( 0.107232 -0.024359 -0.032650)
 13:    710.15   0.012190   61.60  0.005357  ( 0.058266  0.042827 -0.011296)
 14:    978.44   0.005792   29.27  0.001847  ( 0.039091  0.015546 -0.008805)
 15:    980.22   0.000028    0.14  0.000009  ( 0.002894  0.000765 -0.000295)
 16:   1075.97   0.029084  146.98  0.008435  ( 0.054678 -0.069885 -0.023698)
 17:   1265.39   0.037718  190.61  0.009302  ( 0.025852 -0.010980  0.092266)
 18:   1331.66   0.001252    6.33  0.000293  ( 0.003696 -0.016482 -0.002833)
 19:   1435.56   0.001154    5.83  0.000251  (-0.004184  0.001966 -0.015148)
 20:   1443.08   0.000814    4.11  0.000176  ( 0.012512 -0.002413 -0.003686)
 21:   3023.73   0.000195    0.99  0.000020  (-0.001374 -0.004275  0.000023)
 22:   3133.43   0.000177    0.89  0.000018  ( 0.004016 -0.000429 -0.001144)
 23:   3159.79   0.000232    1.17  0.000023  ( 0.001156 -0.000592  0.004612)

--------------------------
THERMOCHEMISTRY AT 298.15K
--------------------------

Temperature         ...   298.15 K
Pressure            ...     1.00 atm
Total Mass          ...   114.55 AMU
Quasi RRHO          ...     True
Cut-Off Frequency   ...     1.00 cm^-1

Throughout the following assumptions are being made:
  (1) The electronic state is orbitally nondegenerate
  (2) There are no thermally accessible electronically excited states
  (3) Hindered rotations indicated by low frequency modes are not
      treated as such but are treated as vibrations and this may
      cause some error
  (4) All equations used are the standard statistical mechanics
      equations for an ideal gas
  (5) All vibrations are strictly harmonic

freq.     234.76  E(vib)   ...       0.32
freq.     238.35  E(vib)   ...       0.32
freq.     288.22  E(vib)   ...       0.27
freq.     317.64  E(vib)   ...       0.25
freq.     356.71  E(vib)   ...       0.22
freq.     479.36  E(vib)   ...       0.15
freq.     529.13  E(vib)   ...       0.13
freq.     710.15  E(vib)   ...       0.07
freq.     978.44  E(vib)   ...       0.03
freq.     980.22  E(vib)   ...       0.02
freq.    1075.97  E(vib)   ...       0.02
freq.    1265.39  E(vib)   ...       0.01
freq.    1331.66  E(vib)   ...       0.01
freq.    1435.56  E(vib)   ...       0.00
freq.    1443.08  E(vib)   ...       0.00
freq.    3023.73  E(vib)   ...       0.00
freq.    3133.43  E(vib)   ...       0.00
freq.    3159.79  E(vib)   ...       0.00

------------
INNER ENERGY
------------

The inner energy is: U= E(el) + E(ZPE) + E(vib) + E(rot) + E(trans)
    E(el)   - is the total energy from the electronic structure calculation
              = E(kin-el) + E(nuc-el) + E(el-el) + E(nuc-nuc)
    E(ZPE)  - the the zero temperature vibrational energy from the frequency calculation
    E(vib)  - the the finite temperature correction to E(ZPE) due to population
              of excited vibrational states
    E(rot)  - is the rotational thermal energy
    E(trans)- is the translational thermal energy

Summary of contributions to the inner energy U:
Electronic energy                ...  -1048.69595450 Eh
Zero point energy                ...      0.04779949 Eh      29.99 kcal/mol
Thermal vibrational correction   ...      0.00289354 Eh       1.82 kcal/mol
Thermal rotational correction    ...      0.00141627 Eh       0.89 kcal/mol
Thermal translational correction ...      0.00141627 Eh       0.89 kcal/mol
-----------------------------------------------------------------------
Total thermal energy                  -1048.64242894 Eh

Summary of corrections to the electronic energy:
(perhaps to be used in another calculation)
Total thermal correction                  0.00572608 Eh       3.59 kcal/mol
Non-thermal (ZPE) correction              0.04779949 Eh      29.99 kcal/mol
-----------------------------------------------------------------------
Total correction                          0.05352556 Eh      33.59 kcal/mol

--------
ENTHALPY
--------

The enthalpy is H = U + kB*T
                kB is Boltzmann's constant
Total thermal energy              ...  -1048.64242894 Eh
Thermal Enthalpy correction       ...      0.00094421 Eh       0.59 kcal/mol
-----------------------------------------------------------------------
Total Enthalpy                    ...  -1048.64148473 Eh

Note: Only C1 symmetry has been detected, increase convergence thresholds
      if your molecule has a higher symmetry. Symmetry factor of 1.0 is
      used for the rotational entropy correction.

Note: Rotational entropy computed according to Herzberg
Infrared and Raman Spectra, Chapter V,1, Van Nostrand Reinhold, 1945
Point Group:  C1, Symmetry Number:   1
Rotational constants in cm-1:     0.147453     0.086340     0.082867

Vibrational entropy computed according to the QRRHO of S. Grimme
Chem.Eur.J. 2012 18 9955 using a reference frequency of 100.0 cm-1

-------
ENTROPY
-------

The entropy contributions are T*S = T*(S(el)+S(vib)+S(rot)+S(trans))
     S(el)   - electronic entropy
     S(vib)  - vibrational entropy
     S(rot)  - rotational entropy
     S(trans)- translational entropy
The entropies will be listed as multiplied by the temperature to get
units of energy

Electronic entropy                ...      0.00000000 Eh      0.00 kcal/mol
Vibrational entropy               ...      0.00455082 Eh      2.86 kcal/mol
Rotational entropy                ...      0.01274662 Eh      8.00 kcal/mol
Translational entropy             ...      0.01906358 Eh     11.96 kcal/mol
-----------------------------------------------------------------------
Final entropy term                ...      0.03636102 Eh     22.82 kcal/mol

In case the symmetry of your molecule has not been determined correctly
or in case you have a reason to use a different symmetry number we print
out the resulting rotational entropy values for sn=1,12:

 non-linear molecules -----------------------------------
|  sn= 1 | S(rot)=       0.01274662 Eh      8.00 kcal/mol|
|  sn= 2 | S(rot)=       0.01209217 Eh      7.59 kcal/mol|
|  sn= 3 | S(rot)=       0.01170934 Eh      7.35 kcal/mol|
|  sn= 4 | S(rot)=       0.01143771 Eh      7.18 kcal/mol|
|  sn= 5 | S(rot)=       0.01122702 Eh      7.05 kcal/mol|
|  sn= 6 | S(rot)=       0.01105488 Eh      6.94 kcal/mol|
|  sn= 7 | S(rot)=       0.01090933 Eh      6.85 kcal/mol|
|  sn= 8 | S(rot)=       0.01078326 Eh      6.77 kcal/mol|
|  sn= 9 | S(rot)=       0.01067205 Eh      6.70 kcal/mol|
|  sn=10 | S(rot)=       0.01057257 Eh      6.63 kcal/mol|
|  sn=11 | S(rot)=       0.01048258 Eh      6.58 kcal/mol|
|  sn=12 | S(rot)=       0.01040042 Eh      6.53 kcal/mol|
 linear molecules ---------------------------------------
|  Dinfh | S(rot)=       0.00767731 Eh      4.82 kcal/mol|
|  Cinfv | S(rot)=       0.00833177 Eh      5.23 kcal/mol|
 --------------------------------------------------------

-------------------
GIBBS FREE ENERGY
-------------------

The Gibbs free energy is G = H - T*S

Total enthalpy                    ...  -1048.64148473 Eh
Total entropy correction          ...     -0.03636102 Eh    -22.82 kcal/mol
-----------------------------------------------------------------------
Final Gibbs free energy         ...  -1048.67784575 Eh

For completeness - the Gibbs free energy minus the electronic energy
G-E(el)                           ...      0.01810875 Eh     11.36 kcal/mol

                             ****ORCA TERMINATED NORMALLY****
TOTAL RUN TIME: 0 days 0 hours 2 minutes 36 seconds 25 msec
