                         Program Version 6.0.0  -   RELEASE  -
|  1> ! r2SCAN-3c DEF2-TZVP FREQ
|  2> * xyzfile 0 1 vacuum_censo.xyz
|  3>
|  4>                          ****END OF INPUT****

CARTESIAN COORDINATES (ANGSTROEM)
---------------------------------
  C     -0.921278   -1.626186    0.000721
  S     -0.486747    0.128075   -0.000004
  O     -0.861876    0.724193    1.276263
  O     -0.861950    0.723153   -1.276750
  Cl     1.642364   -0.055360   -0.000248
  H     -0.511605   -2.076207    0.905730
  H     -2.014686   -1.657164    0.000989
  H     -0.512013   -2.076926   -0.904131

 Total Charge           Charge          ....    0
 Multiplicity           Mult            ....    1
 Number of Electrons    NEL             ....   58
 Basis Dimension        Dim             ....  185

ORBITAL ENERGIES
----------------

  NO   OCC          E(Eh)            E(eV)
   0   2.0000    -101.208551     -2754.0247
   1   2.0000     -88.764379     -2415.4015
   2   2.0000     -18.990873      -516.7679
   3   2.0000     -18.990837      -516.7669
   4   2.0000     -10.107690      -275.0442
   5   2.0000      -9.384494      -255.3651
   6   2.0000      -8.048725      -219.0169
   7   2.0000      -7.128929      -193.9880
   8   2.0000      -7.119645      -193.7354
   9   2.0000      -7.119387      -193.7284
  10   2.0000      -5.996607      -163.1760
  11   2.0000      -5.991604      -163.0398
  12   2.0000      -5.989518      -162.9831
  13   2.0000      -1.097437       -29.8628
  14   2.0000      -1.002557       -27.2810
  15   2.0000      -0.817499       -22.2453
  16   2.0000      -0.760487       -20.6939
  17   2.0000      -0.601954       -16.3800
  18   2.0000      -0.499548       -13.5934
  19   2.0000      -0.479301       -13.0424
  20   2.0000      -0.470633       -12.8066
  21   2.0000      -0.431897       -11.7525
  22   2.0000      -0.431374       -11.7383
  23   2.0000      -0.347507        -9.4561
  24   2.0000      -0.346331        -9.4241
  25   2.0000      -0.319068        -8.6823
  26   2.0000      -0.318260        -8.6603
  27   2.0000      -0.312869        -8.5136
  28   2.0000      -0.294959        -8.0262
  29   0.0000      -0.107512        -2.9256
  30   0.0000      -0.002125        -0.0578
  31   0.0000       0.022814         0.6208
  32   0.0000       0.038929         1.0593
  33   0.0000       0.045947         1.2503

MULLIKEN ATOMIC CHARGES
-----------------------
   0 C :   -0.318820
   1 S :    0.807302
   2 O :   -0.395488
   3 O :   -0.395487
   4 Cl:   -0.180011
   5 H :    0.162080
   6 H :    0.158337
   7 H :    0.162088
Sum of atomic charges:   -0.0000000

LOEWDIN ATOMIC CHARGES
----------------------
   0 C :   -0.418074
   1 S :    0.538867
   2 O :   -0.256393
   3 O :   -0.256406
   4 Cl:    0.001412
   5 H :    0.129143
   6 H :    0.132300
   7 H :    0.129150

  Mayer bond orders larger than 0.100000
B(  0-C ,  1-S ) :   0.8490 B(  0-C ,  5-H ) :   0.9403 B(  0-C ,  6-H ) :   0.9339
B(  0-C ,  7-H ) :   0.9403 B(  1-S ,  2-O ) :   1.8563 B(  1-S ,  3-O ) :   1.8563
B(  1-S ,  4-Cl) :   0.9154

Dispersion correction           -0.002211817
FINAL SINGLE POINT ENERGY     -1048.697145884644

DIPOLE MOMENT
-------------

Method             : SCF
Type of density    : Electron Density
Multiplicity       :   1
Irrep              :   0
Energy             : -1048.7083305990524877 Eh
Relativity type    :
Basis              : AO
                                X                 Y                 Z
Electronic contribution:      4.809301062       3.879003106      -0.002141575
Nuclear contribution   :     -5.078014733      -5.357932099       0.002822887
                        -----------------------------------------
Total Dipole Moment    :     -0.268713672      -1.478928993       0.000681312
                        -----------------------------------------
Magnitude (a.u.)       :      1.503142864
Magnitude (Debye)      :      3.820685524

VIBRATIONAL FREQUENCIES
-----------------------

Scaling factor for frequencies =  1.000000000  (already applied!)

     0:       0.00 cm**-1
     1:       0.00 cm**-1
     2:       0.00 cm**-1
     3:       0.00 cm**-1
     4:       0.00 cm**-1
     5:       0.00 cm**-1
     6:     219.76 cm**-1
     7:     240.49 cm**-1
     8:     283.32 cm**-1
     9:     316.06 cm**-1
    10:     357.21 cm**-1
    11:     472.47 cm**-1
    12:     520.38 cm**-1
    13:     689.70 cm**-1
    14:     974.64 cm**-1
    15:     978.21 cm**-1
    16:    1090.07 cm**-1
    17:    1295.13 cm**-1
    18:    1326.26 cm**-1
    19:    1435.93 cm**-1
    20:    1443.83 cm**-1
    21:    3035.54 cm**-1
    22:    3146.61 cm**-1
    23:    3170.10 cm**-1

IR SPECTRUM
-----------

 Mode   freq       eps      Int      T**2         TX        TY        TZ
       cm**-1   L/(mol*cm) km/mol    a.u.
----------------------------------------------------------------------------
  6:    219.76   0.000003    0.01  0.000004  (-0.000016 -0.000002 -0.001922)
  7:    240.49   0.000269    1.36  0.000349  (-0.018582 -0.001991 -0.000002)
  8:    283.32   0.000231    1.17  0.000255  (-0.000056  0.000010  0.015958)
  9:    316.06   0.005291   26.74  0.005224  ( 0.072098 -0.005129 -0.000001)
 10:    357.21   0.000143    0.72  0.000125  ( 0.000025 -0.000005  0.011193)
 11:    472.47   0.007692   38.87  0.005081  ( 0.047842  0.052836 -0.000023)
 12:    520.38   0.022893  115.69  0.013729  (-0.115171  0.021548  0.000001)
 13:    689.70   0.012479   63.07  0.005646  ( 0.057243  0.048678 -0.000024)
 14:    974.64   0.005741   29.02  0.001838  (-0.040420 -0.014302  0.000012)
 15:    978.21   0.000017    0.09  0.000006  (-0.000006  0.000007  0.002356)
 16:   1090.07   0.029730  150.24  0.008511  ( 0.060561 -0.069594  0.000035)
 17:   1295.13   0.037716  190.60  0.009088  ( 0.000002 -0.000044 -0.095329)
 18:   1326.26   0.001215    6.14  0.000286  ( 0.005771 -0.015894 -0.000002)
 19:   1435.93   0.001015    5.13  0.000220  ( 0.000001 -0.000006 -0.014849)
 20:   1443.83   0.000805    4.07  0.000174  ( 0.013093 -0.001632  0.000008)
 21:   3035.54   0.000094    0.47  0.000010  (-0.000175 -0.003103 -0.000001)
 22:   3146.61   0.000079    0.40  0.000008  ( 0.002796 -0.000012 -0.000008)
 23:   3170.10   0.000139    0.70  0.000014  ( 0.000005  0.000000  0.003705)

--------------------------
THERMOCHEMISTRY AT 298.15K
--------------------------

Temperature         ...   298.15 K
Pressure            ...     1.00 atm
Total Mass          ...   114.55 AMU
Quasi RRHO          ...     True
Cut-Off Frequency   ...     1.00 cm^-1

Throughout the following assumptions are being made:
  (1) The electronic state is orbitally nondegenerate
  (2) There are no thermally accessible electronically excited states
  (3) Hindered rotations indicated by low frequency modes are not
      treated as such but are treated as vibrations and this may
      cause some error
  (4) All equations used are the standard statistical mechanics
      equations for an ideal gas
  (5) All vibrations are strictly harmonic

freq.     219.76  E(vib)   ...       0.33
freq.     240.49  E(vib)   ...       0.31
freq.     283.32  E(vib)   ...       0.28
freq.     316.06  E(vib)   ...       0.25
freq.     357.21  E(vib)   ...       0.22
freq.     472.47  E(vib)   ...       0.15
freq.     520.38  E(vib)   ...       0.13
freq.     689.70  E(vib)   ...       0.07
freq.     974.64  E(vib)   ...       0.03
freq.     978.21  E(vib)   ...       0.03
freq.    1090.07  E(vib)   ...       0.02
freq.    1295.13  E(vib)   ...       0.01
freq.    1326.26  E(vib)   ...       0.01
freq.    1435.93  E(vib)   ...       0.00
freq.    1443.83  E(vib)   ...       0.00
freq.    3035.54  E(vib)   ...       0.00
freq.    3146.61  E(vib)   ...       0.00
freq.    3170.10  E(vib)   ...       0.00

------------
INNER ENERGY
------------

The inner energy is: U= E(el) + E(ZPE) + E(vib) + E(rot) + E(trans)
    E(el)   - is the total energy from the electronic structure calculation
              = E(kin-el) + E(nuc-el) + E(el-el) + E(nuc-nuc)
    E(ZPE)  - the the zero temperature vibrational energy from the frequency calculation
    E(vib)  - the the finite temperature correction to E(ZPE) due to population
              of excited vibrational states
    E(rot)  - is the rotational thermal energy
    E(trans)- is the translational thermal energy

Summary of contributions to the inner energy U:
Electronic energy                ...  -1048.69714588 Eh
Zero point energy                ...      0.04783178 Eh      30.01 kcal/mol
Thermal vibrational correction   ...      0.00293814 Eh       1.84 kcal/mol
Thermal rotational correction    ...      0.00141627 Eh       0.89 kcal/mol
Thermal translational correction ...      0.00141627 Eh       0.89 kcal/mol
-----------------------------------------------------------------------
Total thermal energy                  -1048.64354343 Eh

Summary of corrections to the electronic energy:
(perhaps to be used in another calculation)
Total thermal correction                  0.00577068 Eh       3.62 kcal/mol
Non-thermal (ZPE) correction              0.04783178 Eh      30.01 kcal/mol
-----------------------------------------------------------------------
Total correction                          0.05360246 Eh      33.64 kcal/mol

--------
ENTHALPY
--------

The enthalpy is H = U + kB*T
                kB is Boltzmann's constant
Total thermal energy              ...  -1048.64354343 Eh
Thermal Enthalpy correction       ...      0.00094421 Eh       0.59 kcal/mol
-----------------------------------------------------------------------
Total Enthalpy                    ...  -1048.64259922 Eh

Note: Only C1 symmetry has been detected, increase convergence thresholds
      if your molecule has a higher symmetry. Symmetry factor of 1.0 is
      used for the rotational entropy correction.

Note: Rotational entropy computed according to Herzberg
Infrared and Raman Spectra, Chapter V,1, Van Nostrand Reinhold, 1945
Point Group:  C1, Symmetry Number:   1
Rotational constants in cm-1:     0.147393     0.086172     0.083281

Vibrational entropy computed according to the QRRHO of S. Grimme
Chem.Eur.J. 2012 18 9955 using a reference frequency of 100.0 cm-1

-------
ENTROPY
-------

The entropy contributions are T*S = T*(S(el)+S(vib)+S(rot)+S(trans))
     S(el)   - electronic entropy
     S(vib)  - vibrational entropy
     S(rot)  - rotational entropy
     S(trans)- translational entropy
The entropies will be listed as multiplied by the temperature to get
units of energy

Electronic entropy                ...      0.00000000 Eh      0.00 kcal/mol
Vibrational entropy               ...      0.00464394 Eh      2.91 kcal/mol
Rotational entropy                ...      0.01274539 Eh      8.00 kcal/mol
Translational entropy             ...      0.01906358 Eh     11.96 kcal/mol
-----------------------------------------------------------------------
Final entropy term                ...      0.03645291 Eh     22.87 kcal/mol

In case the symmetry of your molecule has not been determined correctly
or in case you have a reason to use a different symmetry number we print
out the resulting rotational entropy values for sn=1,12:

 non-linear molecules -----------------------------------
|  sn= 1 | S(rot)=       0.01274539 Eh      8.00 kcal/mol|
|  sn= 2 | S(rot)=       0.01209093 Eh      7.59 kcal/mol|
|  sn= 3 | S(rot)=       0.01170810 Eh      7.35 kcal/mol|
|  sn= 4 | S(rot)=       0.01143647 Eh      7.18 kcal/mol|
|  sn= 5 | S(rot)=       0.01122579 Eh      7.04 kcal/mol|
|  sn= 6 | S(rot)=       0.01105364 Eh      6.94 kcal/mol|
|  sn= 7 | S(rot)=       0.01090810 Eh      6.84 kcal/mol|
|  sn= 8 | S(rot)=       0.01078202 Eh      6.77 kcal/mol|
|  sn= 9 | S(rot)=       0.01067081 Eh      6.70 kcal/mol|
|  sn=10 | S(rot)=       0.01057133 Eh      6.63 kcal/mol|
|  sn=11 | S(rot)=       0.01048134 Eh      6.58 kcal/mol|
|  sn=12 | S(rot)=       0.01039919 Eh      6.53 kcal/mol|
 linear molecules ---------------------------------------
|  Dinfh | S(rot)=       0.00767260 Eh      4.81 kcal/mol|
|  Cinfv | S(rot)=       0.00832706 Eh      5.23 kcal/mol|
 --------------------------------------------------------

-------------------
GIBBS FREE ENERGY
-------------------

The Gibbs free energy is G = H - T*S

Total enthalpy                    ...  -1048.64259922 Eh
Total entropy correction          ...     -0.03645291 Eh    -22.87 kcal/mol
-----------------------------------------------------------------------
Final Gibbs free energy         ...  -1048.67905213 Eh

For completeness - the Gibbs free energy minus the electronic energy
G-E(el)                           ...      0.01809376 Eh     11.35 kcal/mol

                             ****ORCA TERMINATED NORMALLY****
TOTAL RUN TIME: 0 days 0 hours 2 minutes 32 seconds 189 msec
