                         Program Version 6.0.0  -   RELEASE  -
|  1> ! r2SCAN-3c DEF2-TZVP FREQ
|  2> * xyzfile 0 1 censo.xyz
|  3>
|  4>                          ****END OF INPUT****

CARTESIAN COORDINATES (ANGSTROEM)
---------------------------------
  C      1.645003    1.194790    0.000059
  C      0.255799    1.235238   -0.000010
  C     -0.414321    0.021178   -0.000074
  C      0.292093   -1.175874   -0.000056
  N      1.629418   -1.209251    0.000016
  C      2.283924   -0.038744    0.000063
  Cl    -2.169249   -0.020005   -0.000180
  H      2.222005    2.113131    0.000113
  H     -0.283024    2.176050   -0.000014
  H     -0.232980   -2.127451   -0.000119
  H      3.369494   -0.092046    0.000140

 Total Charge           Charge          ....    0
 Multiplicity           Mult            ....    1
 Number of Electrons    NEL             ....   58
 Basis Dimension        Dim             ....  247

ORBITAL ENERGIES
----------------

  NO   OCC          E(Eh)            E(eV)
   0   2.0000    -101.202576     -2753.8621
   1   2.0000     -14.175920      -385.7464
   2   2.0000     -10.114729      -275.2358
   3   2.0000     -10.086217      -274.4599
   4   2.0000     -10.081036      -274.3189
   5   2.0000     -10.074229      -274.1337
   6   2.0000     -10.063267      -273.8354
   7   2.0000      -9.378279      -255.1960
   8   2.0000      -7.123290      -193.8346
   9   2.0000      -7.113202      -193.5601
  10   2.0000      -7.112779      -193.5486
  11   2.0000      -0.925765       -25.1914
  12   2.0000      -0.845391       -23.0043
  13   2.0000      -0.778076       -21.1725
  14   2.0000      -0.725829       -19.7508
  15   2.0000      -0.620766       -16.8919
  16   2.0000      -0.601320       -16.3627
  17   2.0000      -0.508395       -13.8341
  18   2.0000      -0.476094       -12.9552
  19   2.0000      -0.450704       -12.2643
  20   2.0000      -0.415230       -11.2990
  21   2.0000      -0.400834       -10.9072
  22   2.0000      -0.394188       -10.7264
  23   2.0000      -0.358531        -9.7561
  24   2.0000      -0.334337        -9.0978
  25   2.0000      -0.301082        -8.1929
  26   2.0000      -0.283292        -7.7088
  27   2.0000      -0.246570        -6.7095
  28   2.0000      -0.241650        -6.5756
  29   0.0000      -0.074626        -2.0307
  30   0.0000      -0.057221        -1.5571
  31   0.0000      -0.008492        -0.2311
  32   0.0000       0.066974         1.8225
  33   0.0000       0.086231         2.3465

MULLIKEN ATOMIC CHARGES
-----------------------
   0 C :   -0.066445
   1 C :   -0.190284
   2 C :    0.175984
   3 C :   -0.051050
   4 N :   -0.249696
   5 C :   -0.021536
   6 Cl:   -0.109989
   7 H :    0.121265
   8 H :    0.136897
   9 H :    0.133522
  10 H :    0.121333
Sum of atomic charges:    0.0000000

LOEWDIN ATOMIC CHARGES
----------------------
   0 C :   -0.141023
   1 C :   -0.122968
   2 C :   -0.425758
   3 C :   -0.206574
   4 N :    0.135394
   5 C :   -0.201094
   6 Cl:    0.380917
   7 H :    0.148646
   8 H :    0.152036
   9 H :    0.141905
  10 H :    0.138520

  Mayer bond orders larger than 0.100000
B(  0-C ,  1-C ) :   1.3971 B(  0-C ,  5-C ) :   1.3910 B(  0-C ,  7-H ) :   0.9579
B(  1-C ,  2-C ) :   1.3961 B(  1-C ,  8-H ) :   0.9627 B(  2-C ,  3-C ) :   1.3320
B(  2-C ,  6-Cl) :   1.0070 B(  3-C ,  4-N ) :   1.4529 B(  3-C ,  9-H ) :   0.9775
B(  4-N ,  5-C ) :   1.4358 B(  5-C , 10-H ) :   0.9756

Dispersion correction           -0.003648292
FINAL SINGLE POINT ENERGY      -707.819432013434

DIPOLE MOMENT
-------------

Method             : SCF
Type of density    : Electron Density
Multiplicity       :   1
Irrep              :   0
Energy             :  -707.8216366234256611 Eh
Relativity type    :
Basis              : AO
                                X                 Y                 Z
Electronic contribution:     -7.454154649      -1.194601966      -0.000455351
Nuclear contribution   :      7.685930082       1.976992883       0.000485841
                        -----------------------------------------
Total Dipole Moment    :      0.231775433       0.782390918       0.000030491
                        -----------------------------------------
Magnitude (a.u.)       :      0.815999633
Magnitude (Debye)      :      2.074106234

VIBRATIONAL FREQUENCIES
-----------------------

Scaling factor for frequencies =  1.000000000  (already applied!)

     0:       0.00 cm**-1
     1:       0.00 cm**-1
     2:       0.00 cm**-1
     3:       0.00 cm**-1
     4:       0.00 cm**-1
     5:       0.00 cm**-1
     6:     190.54 cm**-1
     7:     296.77 cm**-1
     8:     408.60 cm**-1
     9:     413.96 cm**-1
    10:     470.55 cm**-1
    11:     625.44 cm**-1
    12:     721.48 cm**-1
    13:     732.19 cm**-1
    14:     805.12 cm**-1
    15:     925.74 cm**-1
    16:     951.09 cm**-1
    17:     987.02 cm**-1
    18:    1029.05 cm**-1
    19:    1057.59 cm**-1
    20:    1102.05 cm**-1
    21:    1132.76 cm**-1
    22:    1214.22 cm**-1
    23:    1279.91 cm**-1
    24:    1343.50 cm**-1
    25:    1441.35 cm**-1
    26:    1484.53 cm**-1
    27:    1585.76 cm**-1
    28:    1604.67 cm**-1
    29:    3153.33 cm**-1
    30:    3161.76 cm**-1
    31:    3179.17 cm**-1
    32:    3194.64 cm**-1

IR SPECTRUM
-----------

 Mode   freq       eps      Int      T**2         TX        TY        TZ
       cm**-1   L/(mol*cm) km/mol    a.u.
----------------------------------------------------------------------------
  6:    190.54   0.000005    0.03  0.000008  ( 0.000005  0.000002 -0.002897)
  7:    296.77   0.000200    1.01  0.000210  (-0.006644 -0.012896 -0.000001)
  8:    408.60   0.000587    2.97  0.000448  ( 0.000008  0.000001  0.021170)
  9:    413.96   0.001712    8.65  0.001291  (-0.035873  0.001922 -0.000002)
 10:    470.55   0.000052    0.26  0.000034  ( 0.000003  0.000003  0.005846)
 11:    625.44   0.001187    6.00  0.000592  ( 0.006333 -0.023501 -0.000000)
 12:    721.48   0.006023   30.44  0.002605  ( 0.000013 -0.000006  0.051041)
 13:    732.19   0.003819   19.30  0.001628  (-0.040156 -0.003897  0.000002)
 14:    805.12   0.004590   23.20  0.001779  (-0.000004 -0.000011 -0.042179)
 15:    925.74   0.000116    0.59  0.000039  (-0.000002  0.000008  0.006254)
 16:    951.09   0.000230    1.16  0.000075  ( 0.000006 -0.000003 -0.008679)
 17:    987.02   0.000023    0.12  0.000007  (-0.000002  0.000003 -0.002703)
 18:   1029.05   0.009196   46.47  0.002789  ( 0.048532 -0.020818  0.000003)
 19:   1057.59   0.000159    0.80  0.000047  (-0.001043 -0.006769 -0.000000)
 20:   1102.05   0.009904   50.05  0.002805  (-0.052739 -0.004805 -0.000003)
 21:   1132.76   0.001732    8.75  0.000477  ( 0.011368  0.018653  0.000001)
 22:   1214.22   0.000329    1.66  0.000085  ( 0.004603 -0.007959  0.000000)
 23:   1279.91   0.000005    0.03  0.000001  ( 0.000220  0.001107 -0.000001)
 24:   1343.50   0.000616    3.11  0.000143  ( 0.007888  0.008991  0.000001)
 25:   1441.35   0.006154   31.10  0.001332  ( 0.032187  0.017217  0.000002)
 26:   1484.53   0.005151   26.03  0.001083  (-0.032810  0.002506 -0.000002)
 27:   1585.76   0.001098    5.55  0.000216  ( 0.014406  0.002918  0.000001)
 28:   1604.67   0.001592    8.05  0.000310  (-0.007299  0.016010  0.000000)
 29:   3153.33   0.002435   12.31  0.000241  (-0.015466 -0.001328 -0.000001)
 30:   3161.76   0.001053    5.32  0.000104  (-0.007015 -0.007395 -0.000000)
 31:   3179.17   0.001888    9.54  0.000185  ( 0.011880  0.006645  0.000001)
 32:   3194.64   0.000651    3.29  0.000064  ( 0.003759  0.007030  0.000000)

--------------------------
THERMOCHEMISTRY AT 298.15K
--------------------------

Temperature         ...   298.15 K
Pressure            ...     1.00 atm
Total Mass          ...   113.55 AMU
Quasi RRHO          ...     True
Cut-Off Frequency   ...     1.00 cm^-1

Throughout the following assumptions are being made:
  (1) The electronic state is orbitally nondegenerate
  (2) There are no thermally accessible electronically excited states
  (3) Hindered rotations indicated by low frequency modes are not
      treated as such but are treated as vibrations and this may
      cause some error
  (4) All equations used are the standard statistical mechanics
      equations for an ideal gas
  (5) All vibrations are strictly harmonic

freq.     190.54  E(vib)   ...       0.36
freq.     296.77  E(vib)   ...       0.27
freq.     408.60  E(vib)   ...       0.19
freq.     413.96  E(vib)   ...       0.19
freq.     470.55  E(vib)   ...       0.15
freq.     625.44  E(vib)   ...       0.09
freq.     721.48  E(vib)   ...       0.07
freq.     732.19  E(vib)   ...       0.06
freq.     805.12  E(vib)   ...       0.05
freq.     925.74  E(vib)   ...       0.03
freq.     951.09  E(vib)   ...       0.03
freq.     987.02  E(vib)   ...       0.02
freq.    1029.05  E(vib)   ...       0.02
freq.    1057.59  E(vib)   ...       0.02
freq.    1102.05  E(vib)   ...       0.02
freq.    1132.76  E(vib)   ...       0.01
freq.    1214.22  E(vib)   ...       0.01
freq.    1279.91  E(vib)   ...       0.01
freq.    1343.50  E(vib)   ...       0.01
freq.    1441.35  E(vib)   ...       0.00
freq.    1484.53  E(vib)   ...       0.00
freq.    1585.76  E(vib)   ...       0.00
freq.    1604.67  E(vib)   ...       0.00
freq.    3153.33  E(vib)   ...       0.00
freq.    3161.76  E(vib)   ...       0.00
freq.    3179.17  E(vib)   ...       0.00
freq.    3194.64  E(vib)   ...       0.00

------------
INNER ENERGY
------------

The inner energy is: U= E(el) + E(ZPE) + E(vib) + E(rot) + E(trans)
    E(el)   - is the total energy from the electronic structure calculation
              = E(kin-el) + E(nuc-el) + E(el-el) + E(nuc-nuc)
    E(ZPE)  - the the zero temperature vibrational energy from the frequency calculation
    E(vib)  - the the finite temperature correction to E(ZPE) due to population
              of excited vibrational states
    E(rot)  - is the rotational thermal energy
    E(trans)- is the translational thermal energy

Summary of contributions to the inner energy U:
Electronic energy                ...   -707.81943201 Eh
Zero point energy                ...      0.07858031 Eh      49.31 kcal/mol
Thermal vibrational correction   ...      0.00256878 Eh       1.61 kcal/mol
Thermal rotational correction    ...      0.00141627 Eh       0.89 kcal/mol
Thermal translational correction ...      0.00141627 Eh       0.89 kcal/mol
-----------------------------------------------------------------------
Total thermal energy                   -707.73545038 Eh

Summary of corrections to the electronic energy:
(perhaps to be used in another calculation)
Total thermal correction                  0.00540133 Eh       3.39 kcal/mol
Non-thermal (ZPE) correction              0.07858031 Eh      49.31 kcal/mol
-----------------------------------------------------------------------
Total correction                          0.08398164 Eh      52.70 kcal/mol

--------
ENTHALPY
--------

The enthalpy is H = U + kB*T
                kB is Boltzmann's constant
Total thermal energy              ...   -707.73545038 Eh
Thermal Enthalpy correction       ...      0.00094421 Eh       0.59 kcal/mol
-----------------------------------------------------------------------
Total Enthalpy                    ...   -707.73450617 Eh

Note: Rotational entropy computed according to Herzberg
Infrared and Raman Spectra, Chapter V,1, Van Nostrand Reinhold, 1945
Point Group:  Cs, Symmetry Number:   1
Rotational constants in cm-1:     0.195022     0.052746     0.041517

Vibrational entropy computed according to the QRRHO of S. Grimme
Chem.Eur.J. 2012 18 9955 using a reference frequency of 100.0 cm-1

-------
ENTROPY
-------

The entropy contributions are T*S = T*(S(el)+S(vib)+S(rot)+S(trans))
     S(el)   - electronic entropy
     S(vib)  - vibrational entropy
     S(rot)  - rotational entropy
     S(trans)- translational entropy
The entropies will be listed as multiplied by the temperature to get
units of energy

Electronic entropy                ...      0.00000000 Eh      0.00 kcal/mol
Vibrational entropy               ...      0.00387614 Eh      2.43 kcal/mol
Rotational entropy                ...      0.01317356 Eh      8.27 kcal/mol
Translational entropy             ...      0.01905117 Eh     11.95 kcal/mol
-----------------------------------------------------------------------
Final entropy term                ...      0.03610087 Eh     22.65 kcal/mol

In case the symmetry of your molecule has not been determined correctly
or in case you have a reason to use a different symmetry number we print
out the resulting rotational entropy values for sn=1,12:

 non-linear molecules -----------------------------------
|  sn= 1 | S(rot)=       0.01317356 Eh      8.27 kcal/mol|
|  sn= 2 | S(rot)=       0.01251910 Eh      7.86 kcal/mol|
|  sn= 3 | S(rot)=       0.01213627 Eh      7.62 kcal/mol|
|  sn= 4 | S(rot)=       0.01186464 Eh      7.45 kcal/mol|
|  sn= 5 | S(rot)=       0.01165396 Eh      7.31 kcal/mol|
|  sn= 6 | S(rot)=       0.01148181 Eh      7.20 kcal/mol|
|  sn= 7 | S(rot)=       0.01133627 Eh      7.11 kcal/mol|
|  sn= 8 | S(rot)=       0.01121019 Eh      7.03 kcal/mol|
|  sn= 9 | S(rot)=       0.01109898 Eh      6.96 kcal/mol|
|  sn=10 | S(rot)=       0.01099950 Eh      6.90 kcal/mol|
|  sn=11 | S(rot)=       0.01090951 Eh      6.85 kcal/mol|
|  sn=12 | S(rot)=       0.01082736 Eh      6.79 kcal/mol|
 linear molecules ---------------------------------------
|  Dinfh | S(rot)=       0.00832986 Eh      5.23 kcal/mol|
|  Cinfv | S(rot)=       0.00898432 Eh      5.64 kcal/mol|
 --------------------------------------------------------

-------------------
GIBBS FREE ENERGY
-------------------

The Gibbs free energy is G = H - T*S

Total enthalpy                    ...   -707.73450617 Eh
Total entropy correction          ...     -0.03610087 Eh    -22.65 kcal/mol
-----------------------------------------------------------------------
Final Gibbs free energy         ...   -707.77060704 Eh

For completeness - the Gibbs free energy minus the electronic energy
G-E(el)                           ...      0.04882498 Eh     30.64 kcal/mol

                             ****ORCA TERMINATED NORMALLY****
TOTAL RUN TIME: 0 days 0 hours 5 minutes 59 seconds 642 msec
