                         Program Version 6.0.0  -   RELEASE  -
|  1> ! r2SCAN-3c DEF2-TZVP FREQ
|  2> * xyzfile 0 1 vacuum_censo.xyz
|  3>
|  4>                          ****END OF INPUT****

CARTESIAN COORDINATES (ANGSTROEM)
---------------------------------
  C      1.643472    1.196629    0.000047
  C      0.254272    1.233374   -0.000029
  C     -0.419936    0.020709   -0.000062
  C      0.295804   -1.174362   -0.000005
  N      1.628598   -1.203940    0.000073
  C      2.283389   -0.038704    0.000094
  Cl    -2.168970   -0.018365   -0.000178
  H      2.218657    2.116657    0.000071
  H     -0.291093    2.170296   -0.000065
  H     -0.228737   -2.127377   -0.000018
  H      3.369925   -0.097094    0.000146

 Total Charge           Charge          ....    0
 Multiplicity           Mult            ....    1
 Number of Electrons    NEL             ....   58
 Basis Dimension        Dim             ....  247

ORBITAL ENERGIES
----------------

  NO   OCC          E(Eh)            E(eV)
   0   2.0000    -101.203337     -2753.8828
   1   2.0000     -14.174868      -385.7178
   2   2.0000     -10.114395      -275.2267
   3   2.0000     -10.085801      -274.4486
   4   2.0000     -10.080803      -274.3126
   5   2.0000     -10.073709      -274.1196
   6   2.0000     -10.063269      -273.8355
   7   2.0000      -9.379084      -255.2179
   8   2.0000      -7.124091      -193.8564
   9   2.0000      -7.114008      -193.5820
  10   2.0000      -7.113571      -193.5701
  11   2.0000      -0.927023       -25.2256
  12   2.0000      -0.846883       -23.0449
  13   2.0000      -0.777685       -21.1619
  14   2.0000      -0.725778       -19.7494
  15   2.0000      -0.620019       -16.8716
  16   2.0000      -0.601578       -16.3698
  17   2.0000      -0.508069       -13.8253
  18   2.0000      -0.476139       -12.9564
  19   2.0000      -0.451071       -12.2743
  20   2.0000      -0.415183       -11.2977
  21   2.0000      -0.401160       -10.9161
  22   2.0000      -0.393362       -10.7039
  23   2.0000      -0.358988        -9.7686
  24   2.0000      -0.335391        -9.1265
  25   2.0000      -0.301622        -8.2076
  26   2.0000      -0.283182        -7.7058
  27   2.0000      -0.246112        -6.6970
  28   2.0000      -0.240801        -6.5525
  29   0.0000      -0.073469        -1.9992
  30   0.0000      -0.057532        -1.5655
  31   0.0000      -0.007072        -0.1924
  32   0.0000       0.067314         1.8317
  33   0.0000       0.086661         2.3582

MULLIKEN ATOMIC CHARGES
-----------------------
   0 C :   -0.068843
   1 C :   -0.187969
   2 C :    0.171687
   3 C :   -0.049873
   4 N :   -0.248732
   5 C :   -0.020431
   6 Cl:   -0.106305
   7 H :    0.121320
   8 H :    0.135789
   9 H :    0.132289
  10 H :    0.121068
Sum of atomic charges:   -0.0000000

LOEWDIN ATOMIC CHARGES
----------------------
   0 C :   -0.140413
   1 C :   -0.123900
   2 C :   -0.430570
   3 C :   -0.207853
   4 N :    0.137048
   5 C :   -0.202578
   6 Cl:    0.387698
   7 H :    0.148552
   8 H :    0.151647
   9 H :    0.141721
  10 H :    0.138648

  Mayer bond orders larger than 0.100000
B(  0-C ,  1-C ) :   1.3989 B(  0-C ,  5-C ) :   1.3887 B(  0-C ,  7-H ) :   0.9581
B(  1-C ,  2-C ) :   1.3955 B(  1-C ,  8-H ) :   0.9629 B(  2-C ,  3-C ) :   1.3273
B(  2-C ,  6-Cl) :   1.0127 B(  3-C ,  4-N ) :   1.4569 B(  3-C ,  9-H ) :   0.9778
B(  4-N ,  5-C ) :   1.4369 B(  5-C , 10-H ) :   0.9754

Dispersion correction           -0.003649151
FINAL SINGLE POINT ENERGY      -707.819600867359

DIPOLE MOMENT
-------------

Method             : SCF
Type of density    : Electron Density
Multiplicity       :   1
Irrep              :   0
Energy             :  -707.8218186006990891 Eh
Relativity type    :
Basis              : AO
                                X                 Y                 Z
Electronic contribution:     -7.461452302      -1.189543400      -0.000456018
Nuclear contribution   :      7.680809353       1.965128354       0.000462427
                        -----------------------------------------
Total Dipole Moment    :      0.219357051       0.775584954       0.000006409
                        -----------------------------------------
Magnitude (a.u.)       :      0.806008398
Magnitude (Debye)      :      2.048710534

VIBRATIONAL FREQUENCIES
-----------------------

Scaling factor for frequencies =  1.000000000  (already applied!)

     0:       0.00 cm**-1
     1:       0.00 cm**-1
     2:       0.00 cm**-1
     3:       0.00 cm**-1
     4:       0.00 cm**-1
     5:       0.00 cm**-1
     6:     187.91 cm**-1
     7:     295.77 cm**-1
     8:     408.09 cm**-1
     9:     416.66 cm**-1
    10:     468.30 cm**-1
    11:     624.80 cm**-1
    12:     721.48 cm**-1
    13:     735.29 cm**-1
    14:     807.69 cm**-1
    15:     928.87 cm**-1
    16:     953.94 cm**-1
    17:     988.47 cm**-1
    18:    1031.53 cm**-1
    19:    1057.74 cm**-1
    20:    1104.18 cm**-1
    21:    1135.52 cm**-1
    22:    1218.39 cm**-1
    23:    1288.28 cm**-1
    24:    1347.02 cm**-1
    25:    1443.79 cm**-1
    26:    1487.94 cm**-1
    27:    1591.46 cm**-1
    28:    1601.04 cm**-1
    29:    3142.20 cm**-1
    30:    3151.37 cm**-1
    31:    3175.47 cm**-1
    32:    3193.96 cm**-1

IR SPECTRUM
-----------

 Mode   freq       eps      Int      T**2         TX        TY        TZ
       cm**-1   L/(mol*cm) km/mol    a.u.
----------------------------------------------------------------------------
  6:    187.91   0.000005    0.02  0.000008  (-0.000002 -0.000017  0.002809)
  7:    295.77   0.000194    0.98  0.000205  (-0.006400 -0.012812 -0.000000)
  8:    408.09   0.000583    2.95  0.000446  (-0.000008  0.000006 -0.021115)
  9:    416.66   0.001599    8.08  0.001197  (-0.034536  0.002125 -0.000002)
 10:    468.30   0.000067    0.34  0.000044  (-0.000001 -0.000005 -0.006662)
 11:    624.80   0.001178    5.95  0.000588  ( 0.006357 -0.023411  0.000001)
 12:    721.48   0.005784   29.23  0.002502  (-0.000012  0.000011 -0.050018)
 13:    735.29   0.003592   18.15  0.001525  ( 0.038861  0.003786  0.000002)
 14:    807.69   0.004746   23.98  0.001834  (-0.000001  0.000006  0.042820)
 15:    928.87   0.000121    0.61  0.000041  ( 0.000005 -0.000007 -0.006388)
 16:    953.94   0.000216    1.09  0.000071  (-0.000006  0.000001  0.008403)
 17:    988.47   0.000021    0.10  0.000007  ( 0.000003 -0.000003  0.002557)
 18:   1031.53   0.008448   42.69  0.002556  ( 0.045789 -0.021429  0.000003)
 19:   1057.74   0.000200    1.01  0.000059  (-0.004693 -0.006072 -0.000000)
 20:   1104.18   0.010681   53.98  0.003019  (-0.054804 -0.003881 -0.000003)
 21:   1135.52   0.001659    8.38  0.000456  (-0.011110 -0.018233 -0.000001)
 22:   1218.39   0.000380    1.92  0.000097  (-0.004463  0.008793 -0.000000)
 23:   1288.28   0.000044    0.22  0.000011  (-0.001312 -0.003003 -0.000000)
 24:   1347.02   0.000675    3.41  0.000156  ( 0.008525  0.009154  0.000000)
 25:   1443.79   0.006400   32.34  0.001383  ( 0.032808  0.017517  0.000002)
 26:   1487.94   0.004940   24.97  0.001036  (-0.032064  0.002835 -0.000002)
 27:   1591.46   0.000862    4.36  0.000169  (-0.011656 -0.005758 -0.000001)
 28:   1601.04   0.001706    8.62  0.000332  (-0.009851  0.015343 -0.000001)
 29:   3142.20   0.002873   14.52  0.000285  (-0.016741 -0.002249 -0.000001)
 30:   3151.37   0.001085    5.48  0.000107  (-0.006807 -0.007817 -0.000000)
 31:   3175.47   0.001890    9.55  0.000186  ( 0.011524  0.007276  0.000001)
 32:   3193.96   0.000500    2.53  0.000049  ( 0.002162  0.006644  0.000000)

--------------------------
THERMOCHEMISTRY AT 298.15K
--------------------------

Temperature         ...   298.15 K
Pressure            ...     1.00 atm
Total Mass          ...   113.55 AMU
Quasi RRHO          ...     True
Cut-Off Frequency   ...     1.00 cm^-1

Throughout the following assumptions are being made:
  (1) The electronic state is orbitally nondegenerate
  (2) There are no thermally accessible electronically excited states
  (3) Hindered rotations indicated by low frequency modes are not
      treated as such but are treated as vibrations and this may
      cause some error
  (4) All equations used are the standard statistical mechanics
      equations for an ideal gas
  (5) All vibrations are strictly harmonic

freq.     187.91  E(vib)   ...       0.36
freq.     295.77  E(vib)   ...       0.27
freq.     408.09  E(vib)   ...       0.19
freq.     416.66  E(vib)   ...       0.18
freq.     468.30  E(vib)   ...       0.16
freq.     624.80  E(vib)   ...       0.09
freq.     721.48  E(vib)   ...       0.07
freq.     735.29  E(vib)   ...       0.06
freq.     807.69  E(vib)   ...       0.05
freq.     928.87  E(vib)   ...       0.03
freq.     953.94  E(vib)   ...       0.03
freq.     988.47  E(vib)   ...       0.02
freq.    1031.53  E(vib)   ...       0.02
freq.    1057.74  E(vib)   ...       0.02
freq.    1104.18  E(vib)   ...       0.02
freq.    1135.52  E(vib)   ...       0.01
freq.    1218.39  E(vib)   ...       0.01
freq.    1288.28  E(vib)   ...       0.01
freq.    1347.02  E(vib)   ...       0.01
freq.    1443.79  E(vib)   ...       0.00
freq.    1487.94  E(vib)   ...       0.00
freq.    1591.46  E(vib)   ...       0.00
freq.    1601.04  E(vib)   ...       0.00
freq.    3142.20  E(vib)   ...       0.00
freq.    3151.37  E(vib)   ...       0.00
freq.    3175.47  E(vib)   ...       0.00
freq.    3193.96  E(vib)   ...       0.00

------------
INNER ENERGY
------------

The inner energy is: U= E(el) + E(ZPE) + E(vib) + E(rot) + E(trans)
    E(el)   - is the total energy from the electronic structure calculation
              = E(kin-el) + E(nuc-el) + E(el-el) + E(nuc-nuc)
    E(ZPE)  - the the zero temperature vibrational energy from the frequency calculation
    E(vib)  - the the finite temperature correction to E(ZPE) due to population
              of excited vibrational states
    E(rot)  - is the rotational thermal energy
    E(trans)- is the translational thermal energy

Summary of contributions to the inner energy U:
Electronic energy                ...   -707.81960087 Eh
Zero point energy                ...      0.07861309 Eh      49.33 kcal/mol
Thermal vibrational correction   ...      0.00256949 Eh       1.61 kcal/mol
Thermal rotational correction    ...      0.00141627 Eh       0.89 kcal/mol
Thermal translational correction ...      0.00141627 Eh       0.89 kcal/mol
-----------------------------------------------------------------------
Total thermal energy                   -707.73558574 Eh

Summary of corrections to the electronic energy:
(perhaps to be used in another calculation)
Total thermal correction                  0.00540204 Eh       3.39 kcal/mol
Non-thermal (ZPE) correction              0.07861309 Eh      49.33 kcal/mol
-----------------------------------------------------------------------
Total correction                          0.08401513 Eh      52.72 kcal/mol

--------
ENTHALPY
--------

The enthalpy is H = U + kB*T
                kB is Boltzmann's constant
Total thermal energy              ...   -707.73558574 Eh
Thermal Enthalpy correction       ...      0.00094421 Eh       0.59 kcal/mol
-----------------------------------------------------------------------
Total Enthalpy                    ...   -707.73464153 Eh

Note: Rotational entropy computed according to Herzberg
Infrared and Raman Spectra, Chapter V,1, Van Nostrand Reinhold, 1945
Point Group:  Cs, Symmetry Number:   1
Rotational constants in cm-1:     0.195553     0.052763     0.041552

Vibrational entropy computed according to the QRRHO of S. Grimme
Chem.Eur.J. 2012 18 9955 using a reference frequency of 100.0 cm-1

-------
ENTROPY
-------

The entropy contributions are T*S = T*(S(el)+S(vib)+S(rot)+S(trans))
     S(el)   - electronic entropy
     S(vib)  - vibrational entropy
     S(rot)  - rotational entropy
     S(trans)- translational entropy
The entropies will be listed as multiplied by the temperature to get
units of energy

Electronic entropy                ...      0.00000000 Eh      0.00 kcal/mol
Vibrational entropy               ...      0.00388429 Eh      2.44 kcal/mol
Rotational entropy                ...      0.01317172 Eh      8.27 kcal/mol
Translational entropy             ...      0.01905117 Eh     11.95 kcal/mol
-----------------------------------------------------------------------
Final entropy term                ...      0.03610718 Eh     22.66 kcal/mol

In case the symmetry of your molecule has not been determined correctly
or in case you have a reason to use a different symmetry number we print
out the resulting rotational entropy values for sn=1,12:

 non-linear molecules -----------------------------------
|  sn= 1 | S(rot)=       0.01317172 Eh      8.27 kcal/mol|
|  sn= 2 | S(rot)=       0.01251726 Eh      7.85 kcal/mol|
|  sn= 3 | S(rot)=       0.01213443 Eh      7.61 kcal/mol|
|  sn= 4 | S(rot)=       0.01186280 Eh      7.44 kcal/mol|
|  sn= 5 | S(rot)=       0.01165212 Eh      7.31 kcal/mol|
|  sn= 6 | S(rot)=       0.01147997 Eh      7.20 kcal/mol|
|  sn= 7 | S(rot)=       0.01133443 Eh      7.11 kcal/mol|
|  sn= 8 | S(rot)=       0.01120835 Eh      7.03 kcal/mol|
|  sn= 9 | S(rot)=       0.01109714 Eh      6.96 kcal/mol|
|  sn=10 | S(rot)=       0.01099766 Eh      6.90 kcal/mol|
|  sn=11 | S(rot)=       0.01090767 Eh      6.84 kcal/mol|
|  sn=12 | S(rot)=       0.01082552 Eh      6.79 kcal/mol|
 linear molecules ---------------------------------------
|  Dinfh | S(rot)=       0.00832907 Eh      5.23 kcal/mol|
|  Cinfv | S(rot)=       0.00898352 Eh      5.64 kcal/mol|
 --------------------------------------------------------

-------------------
GIBBS FREE ENERGY
-------------------

The Gibbs free energy is G = H - T*S

Total enthalpy                    ...   -707.73464153 Eh
Total entropy correction          ...     -0.03610718 Eh    -22.66 kcal/mol
-----------------------------------------------------------------------
Final Gibbs free energy         ...   -707.77074871 Eh

For completeness - the Gibbs free energy minus the electronic energy
G-E(el)                           ...      0.04885216 Eh     30.66 kcal/mol

                             ****ORCA TERMINATED NORMALLY****
TOTAL RUN TIME: 0 days 0 hours 5 minutes 58 seconds 438 msec
