                         Program Version 6.0.1  -  RELEASE   -
|  1> ! pbe def2-sv(p) def2/J RI DEFGRID1 loosescf d4 GCP(DFT/SV(P)) printgap
|  2> %output
|  3>     printlevel normal
|  4> end
|  5> * xyz 0 1
|  6> C -2.3374561577 0.094802752 -0.2242771294
|  7> C -0.9359077368 0.4447362351 0.2651962415
|  8> C 0.002368677 -0.7177756173 0.1514139755
|  9> C 1.3123398194 -0.6294255641 -0.0227166528
| 10> C 2.0733816096 0.6557449981 -0.1379674798
| 11> H -3.0005700845 0.9522549413 -0.1314747784
| 12> H -2.7532371716 -0.7247823138 0.3581675964
| 13> H -2.309531317 -0.2066096596 -1.2692988097
| 14> H -0.5492206442 1.2924745928 -0.3041931116
| 15> H -0.988969616 0.7563811831 1.3142438579
| 16> H -0.458665008 -1.6929369252 0.2359877462
| 17> H 1.8990557774 -1.5359070554 -0.0817740265
| 18> H 1.6836038422 1.2645135378 -0.953898524
| 19> H 3.1269626231 0.4666099399 -0.3236575574
| 20> H 1.9833957609 1.238377237 0.7787415425
| 21> *
| 22>
| 23>                          ****END OF INPUT****

CARTESIAN COORDINATES (ANGSTROEM)
---------------------------------
  C     -2.337456    0.094803   -0.224277
  C     -0.935908    0.444736    0.265196
  C      0.002369   -0.717776    0.151414
  C      1.312340   -0.629426   -0.022717
  C      2.073382    0.655745   -0.137967
  H     -3.000570    0.952255   -0.131475
  H     -2.753237   -0.724782    0.358168
  H     -2.309531   -0.206610   -1.269299
  H     -0.549221    1.292475   -0.304193
  H     -0.988970    0.756381    1.314244
  H     -0.458665   -1.692937    0.235988
  H      1.899056   -1.535907   -0.081774
  H      1.683604    1.264514   -0.953899
  H      3.126963    0.466610   -0.323658
  H      1.983396    1.238377    0.778742

 Total Charge           Charge          ....    0
 Multiplicity           Mult            ....    1
 Number of Electrons    NEL             ....   40
 Basis Dimension        Dim             ....   90

ORBITAL ENERGIES
----------------

  NO   OCC          E(Eh)            E(eV)
   0   2.0000      -9.885427      -268.9961
   1   2.0000      -9.879034      -268.8222
   2   2.0000      -9.876725      -268.7594
   3   2.0000      -9.876539      -268.7543
   4   2.0000      -9.873889      -268.6822
   5   2.0000      -0.723301       -19.6820
   6   2.0000      -0.672568       -18.3015
   7   2.0000      -0.604532       -16.4502
   8   2.0000      -0.546023       -14.8581
   9   2.0000      -0.467534       -12.7222
  10   2.0000      -0.423244       -11.5170
  11   2.0000      -0.394906       -10.7459
  12   2.0000      -0.381082       -10.3698
  13   2.0000      -0.363507        -9.8915
  14   2.0000      -0.334751        -9.1090
  15   2.0000      -0.325126        -8.8471
  16   2.0000      -0.312621        -8.5068
  17   2.0000      -0.300664        -8.1815
  18   2.0000      -0.279592        -7.6081
  19   2.0000      -0.207934        -5.6582
  20   0.0000      -0.008950        -0.2435
  21   0.0000       0.044130         1.2008
  22   0.0000       0.062669         1.7053
  23   0.0000       0.067628         1.8402
  24   0.0000       0.089401         2.4327

MULLIKEN ATOMIC CHARGES
-----------------------
   0 C :   -0.293304
   1 C :   -0.131028
   2 C :   -0.139465
   3 C :   -0.164336
   4 C :   -0.237129
   5 H :    0.101353
   6 H :    0.103975
   7 H :    0.106418
   8 H :    0.089897
   9 H :    0.102642
  10 H :    0.058048
  11 H :    0.065229
  12 H :    0.119088
  13 H :    0.102017
  14 H :    0.116597
Sum of atomic charges:    0.0000000

LOEWDIN ATOMIC CHARGES
----------------------
   0 C :   -0.338066
   1 C :   -0.232912
   2 C :   -0.151170
   3 C :   -0.157246
   4 C :   -0.341684
   5 H :    0.118363
   6 H :    0.117640
   7 H :    0.119347
   8 H :    0.120652
   9 H :    0.127352
  10 H :    0.117126
  11 H :    0.117803
  12 H :    0.129287
  13 H :    0.123750
  14 H :    0.129759

  Mayer bond orders larger than 0.100000
B(  0-C ,  1-C ) :   1.1380 B(  0-C ,  5-H ) :   0.9525 B(  0-C ,  6-H ) :   0.9552
B(  0-C ,  7-H ) :   0.9602 B(  1-C ,  2-C ) :   1.0804 B(  1-C ,  8-H ) :   0.9094
B(  1-C ,  9-H ) :   0.9068 B(  2-C ,  3-C ) :   1.9942 B(  2-C , 10-H ) :   0.9367
B(  3-C ,  4-C ) :   1.1149 B(  3-C , 11-H ) :   0.9341 B(  4-C , 12-H ) :   0.9336
B(  4-C , 13-H ) :   0.9476 B(  4-C , 14-H ) :   0.9376

Dispersion correction           -0.009746078
FINAL SINGLE POINT ENERGY      -196.028605965982

DIPOLE MOMENT
-------------

Method             : SCF
Type of density    : Electron Density
Multiplicity       :   1
Irrep              :   0
Energy             :  -196.0767464835429621 Eh
Relativity type    :
Basis              : AO
                                X                 Y                 Z
Electronic contribution:      1.281648464      -1.567537921       0.378300835
Nuclear contribution   :     -1.282633840       1.698427361      -0.353833880
                        -----------------------------------------
Total Dipole Moment    :     -0.000985376       0.130889440       0.024466954
                        -----------------------------------------
Magnitude (a.u.)       :      0.133160235
Magnitude (Debye)      :      0.338466419

Rotational constants in cm-1:             0.440826             0.084468             0.075450
Rotational constants in MHz :         13215.622944          2532.290129          2261.939564

                             ****ORCA TERMINATED NORMALLY****
TOTAL RUN TIME: 0 days 0 hours 0 minutes 8 seconds 190 msec
