                         Program Version 6.0.0  -   RELEASE  -
|  1> ! r2SCAN-3c DEF2-TZVP FREQ
|  2> * xyzfile 0 1 censo.xyz
|  3>
|  4>                          ****END OF INPUT****

CARTESIAN COORDINATES (ANGSTROEM)
---------------------------------
  C     -2.581506   -0.263787    0.000003
  C     -1.880533   -1.485073   -0.000002
  C     -0.508048   -1.466844   -0.000002
  C      0.195100   -0.247000    0.000009
  C     -0.496114    1.002359    0.000003
  C     -1.914480    0.935384    0.000004
  N      0.088020    2.213518    0.000004
  N      1.620257   -0.315618    0.000035
  O      2.176786   -1.424444   -0.000020
  O      2.283157    0.742053   -0.000024
  H     -3.666787   -0.265095    0.000004
  H     -2.415363   -2.427477   -0.000002
  H      0.058688   -2.388743   -0.000003
  H     -2.463254    1.872155    0.000007
  H      1.091083    2.297795    0.000001
  H     -0.497276    3.033982    0.000007

 Total Charge           Charge          ....    0
 Multiplicity           Mult            ....    1
 Number of Electrons    NEL             ....   72
 Basis Dimension        Dim             ....  346

ORBITAL ENERGIES
----------------

  NO   OCC          E(Eh)            E(eV)
   0   2.0000     -18.973607      -516.2981
   1   2.0000     -18.969068      -516.1746
   2   2.0000     -14.383001      -391.3814
   3   2.0000     -14.198912      -386.3721
   4   2.0000     -10.120057      -275.3807
   5   2.0000     -10.097067      -274.7552
   6   2.0000     -10.063498      -273.8417
   7   2.0000     -10.059391      -273.7299
   8   2.0000     -10.057310      -273.6733
   9   2.0000     -10.048068      -273.4218
  10   2.0000      -1.172234       -31.8981
  11   2.0000      -0.996605       -27.1190
  12   2.0000      -0.925561       -25.1858
  13   2.0000      -0.838734       -22.8231
  14   2.0000      -0.778723       -21.1901
  15   2.0000      -0.725850       -19.7514
  16   2.0000      -0.668458       -18.1897
  17   2.0000      -0.604729       -16.4555
  18   2.0000      -0.582593       -15.8532
  19   2.0000      -0.529141       -14.3986
  20   2.0000      -0.506243       -13.7756
  21   2.0000      -0.499869       -13.6021
  22   2.0000      -0.492105       -13.3909
  23   2.0000      -0.475227       -12.9316
  24   2.0000      -0.450142       -12.2490
  25   2.0000      -0.420098       -11.4314
  26   2.0000      -0.418336       -11.3835
  27   2.0000      -0.387143       -10.5347
  28   2.0000      -0.363918        -9.9027
  29   2.0000      -0.342521        -9.3205
  30   2.0000      -0.319545        -8.6953
  31   2.0000      -0.278327        -7.5737
  32   2.0000      -0.272510        -7.4154
  33   2.0000      -0.263140        -7.1604
  34   2.0000      -0.247298        -6.7293
  35   2.0000      -0.213702        -5.8151
  36   0.0000      -0.114358        -3.1118
  37   0.0000      -0.042205        -1.1485
  38   0.0000      -0.024305        -0.6614
  39   0.0000       0.034428         0.9368
  40   0.0000       0.049862         1.3568

MULLIKEN ATOMIC CHARGES
-----------------------
   0 C :   -0.062281
   1 C :   -0.135090
   2 C :   -0.107086
   3 C :   -0.060204
   4 C :    0.229624
   5 C :   -0.224135
   6 N :   -0.386330
   7 N :    0.534650
   8 O :   -0.368068
   9 O :   -0.413453
  10 H :    0.119286
  11 H :    0.117963
  12 H :    0.147525
  13 H :    0.093952
  14 H :    0.278083
  15 H :    0.235565
Sum of atomic charges:    0.0000000

LOEWDIN ATOMIC CHARGES
----------------------
   0 C :   -0.120901
   1 C :   -0.154511
   2 C :   -0.095641
   3 C :   -0.153448
   4 C :   -0.199837
   5 C :   -0.126714
   6 N :    0.041494
   7 N :   -0.014100
   8 O :   -0.044200
   9 O :   -0.076405
  10 H :    0.148689
  11 H :    0.146151
  12 H :    0.160419
  13 H :    0.145189
  14 H :    0.171151
  15 H :    0.172665

  Mayer bond orders larger than 0.100000
B(  0-C ,  1-C ) :   1.2918 B(  0-C ,  5-C ) :   1.5211 B(  0-C , 10-H ) :   0.9638
B(  1-C ,  2-C ) :   1.4907 B(  1-C , 11-H ) :   0.9770 B(  2-C ,  3-C ) :   1.3234
B(  2-C , 12-H ) :   0.9368 B(  3-C ,  4-C ) :   1.3026 B(  3-C ,  7-N ) :   1.0560
B(  4-C ,  5-C ) :   1.2659 B(  4-C ,  6-N ) :   1.2693 B(  5-C , 13-H ) :   0.9667
B(  6-N , 14-H ) :   0.8655 B(  6-N , 15-H ) :   0.9063 B(  7-N ,  8-O ) :   1.4788
B(  7-N ,  9-O ) :   1.3742 B(  8-O ,  9-O ) :   0.1867

Dispersion correction           -0.005687581
FINAL SINGLE POINT ENERGY      -492.062191648235

DIPOLE MOMENT
-------------

Method             : SCF
Type of density    : Electron Density
Multiplicity       :   1
Irrep              :   0
Energy             :  -492.0696900726641161 Eh
Relativity type    :
Basis              : AO
                                X                 Y                 Z
Electronic contribution:      5.590569935      -1.018946711       0.000026351
Nuclear contribution   :     -7.371458376       2.012698988       0.000012402
                        -----------------------------------------
Total Dipole Moment    :     -1.780888442       0.993752277       0.000038753
                        -----------------------------------------
Magnitude (a.u.)       :      2.039388936
Magnitude (Debye)      :      5.183714718

VIBRATIONAL FREQUENCIES
-----------------------

Scaling factor for frequencies =  1.000000000  (already applied!)

     0:       0.00 cm**-1
     1:       0.00 cm**-1
     2:       0.00 cm**-1
     3:       0.00 cm**-1
     4:       0.00 cm**-1
     5:       0.00 cm**-1
     6:     103.64 cm**-1
     7:     131.94 cm**-1
     8:     234.87 cm**-1
     9:     302.05 cm**-1
    10:     304.51 cm**-1
    11:     389.57 cm**-1
    12:     411.57 cm**-1
    13:     435.08 cm**-1
    14:     530.33 cm**-1
    15:     551.05 cm**-1
    16:     573.14 cm**-1
    17:     613.03 cm**-1
    18:     683.87 cm**-1
    19:     704.48 cm**-1
    20:     750.19 cm**-1
    21:     789.11 cm**-1
    22:     830.51 cm**-1
    23:     840.36 cm**-1
    24:     891.90 cm**-1
    25:     958.10 cm**-1
    26:     964.71 cm**-1
    27:    1023.31 cm**-1
    28:    1067.49 cm**-1
    29:    1128.73 cm**-1
    30:    1185.55 cm**-1
    31:    1194.00 cm**-1
    32:    1279.39 cm**-1
    33:    1296.69 cm**-1
    34:    1371.59 cm**-1
    35:    1400.27 cm**-1
    36:    1430.36 cm**-1
    37:    1498.76 cm**-1
    38:    1531.23 cm**-1
    39:    1591.97 cm**-1
    40:    1615.33 cm**-1
    41:    1663.06 cm**-1
    42:    3159.41 cm**-1
    43:    3175.43 cm**-1
    44:    3191.73 cm**-1
    45:    3218.73 cm**-1
    46:    3546.53 cm**-1
    47:    3683.52 cm**-1

IR SPECTRUM
-----------

 Mode   freq       eps      Int      T**2         TX        TY        TZ
       cm**-1   L/(mol*cm) km/mol    a.u.
----------------------------------------------------------------------------
  6:    103.64   0.000205    1.03  0.000616  (-0.000004 -0.000037  0.024821)
  7:    131.94   0.000055    0.28  0.000129  (-0.000005  0.000019 -0.011358)
  8:    234.87   0.000157    0.79  0.000208  ( 0.000007 -0.000020 -0.014432)
  9:    302.05   0.000625    3.16  0.000646  (-0.003648 -0.025154 -0.000056)
 10:    304.51   0.032999  166.76  0.033818  (-0.000000  0.000007 -0.183897)
 11:    389.57   0.000666    3.36  0.000533  ( 0.014593 -0.017895  0.000006)
 12:    411.57   0.000278    1.41  0.000211  ( 0.000177  0.014526 -0.000002)
 13:    435.08   0.000000    0.00  0.000000  ( 0.000007 -0.000016  0.000066)
 14:    530.33   0.004111   20.78  0.002419  ( 0.000002  0.000006 -0.049184)
 15:    551.05   0.000505    2.55  0.000286  ( 0.016000  0.005471  0.000003)
 16:    573.14   0.000557    2.81  0.000303  (-0.007330  0.015789 -0.000001)
 17:    613.03   0.001490    7.53  0.000758  ( 0.000002  0.000007  0.027540)
 18:    683.87   0.001746    8.82  0.000797  ( 0.028207  0.000973  0.000002)
 19:    704.48   0.001056    5.34  0.000468  ( 0.000004 -0.000003  0.021632)
 20:    750.19   0.011313   57.17  0.004706  (-0.000003 -0.000007 -0.068601)
 21:    789.11   0.000634    3.21  0.000251  ( 0.000003  0.000002 -0.015840)
 22:    830.51   0.000359    1.81  0.000135  (-0.010153  0.005637 -0.000001)
 23:    840.36   0.000146    0.74  0.000054  ( 0.000005 -0.000005 -0.007372)
 24:    891.90   0.001528    7.72  0.000534  (-0.022777 -0.003957  0.000000)
 25:    958.10   0.000189    0.96  0.000062  (-0.000002 -0.000004 -0.007848)
 26:    964.71   0.000003    0.02  0.000001  ( 0.000001 -0.000001  0.001022)
 27:   1023.31   0.002548   12.88  0.000777  ( 0.013768  0.024236 -0.000000)
 28:   1067.49   0.000520    2.63  0.000152  ( 0.002064 -0.012156 -0.000000)
 29:   1128.73   0.002681   13.55  0.000741  (-0.026251  0.007211  0.000001)
 30:   1185.55   0.004138   20.91  0.001089  ( 0.012755  0.030437  0.000000)
 31:   1194.00   0.005975   30.20  0.001562  (-0.025270  0.030383  0.000000)
 32:   1279.39   0.076821  388.22  0.018738  (-0.130485  0.041370  0.000000)
 33:   1296.69   0.000777    3.93  0.000187  ( 0.001690  0.013567 -0.000000)
 34:   1371.59   0.026505  133.95  0.006031  (-0.077656  0.000073 -0.000000)
 35:   1400.27   0.002573   13.00  0.000573  ( 0.010483 -0.021529 -0.000000)
 36:   1430.36   0.028776  145.42  0.006278  ( 0.024674 -0.075295  0.000000)
 37:   1498.76   0.001334    6.74  0.000278  (-0.004908 -0.015926  0.000000)
 38:   1531.23   0.026309  132.96  0.005362  (-0.032610 -0.065562  0.000000)
 39:   1591.97   0.009052   45.74  0.001774  (-0.028005  0.031465  0.000000)
 40:   1615.33   0.023811  120.33  0.004600  ( 0.004388 -0.067681  0.000000)
 41:   1663.06   0.042988  217.24  0.008066  (-0.037915 -0.081418  0.000000)
 42:   3159.41   0.001114    5.63  0.000110  ( 0.002635  0.010152 -0.000000)
 43:   3175.43   0.002408   12.17  0.000237  (-0.011111  0.010640  0.000000)
 44:   3191.73   0.001113    5.62  0.000109  (-0.008060 -0.006621 -0.000000)
 45:   3218.73   0.000787    3.98  0.000076  ( 0.008547 -0.001806 -0.000000)
 46:   3546.53   0.015093   76.28  0.001328  ( 0.021875  0.029148  0.000000)
 47:   3683.52   0.015209   76.86  0.001289  (-0.033115  0.013853  0.000000)

--------------------------
THERMOCHEMISTRY AT 298.15K
--------------------------

Temperature         ...   298.15 K
Pressure            ...     1.00 atm
Total Mass          ...   138.13 AMU
Quasi RRHO          ...     True
Cut-Off Frequency   ...     1.00 cm^-1

Throughout the following assumptions are being made:
  (1) The electronic state is orbitally nondegenerate
  (2) There are no thermally accessible electronically excited states
  (3) Hindered rotations indicated by low frequency modes are not
      treated as such but are treated as vibrations and this may
      cause some error
  (4) All equations used are the standard statistical mechanics
      equations for an ideal gas
  (5) All vibrations are strictly harmonic

freq.     103.64  E(vib)   ...       0.46
freq.     131.94  E(vib)   ...       0.42
freq.     234.87  E(vib)   ...       0.32
freq.     302.05  E(vib)   ...       0.26
freq.     304.51  E(vib)   ...       0.26
freq.     389.57  E(vib)   ...       0.20
freq.     411.57  E(vib)   ...       0.19
freq.     435.08  E(vib)   ...       0.17
freq.     530.33  E(vib)   ...       0.13
freq.     551.05  E(vib)   ...       0.12
freq.     573.14  E(vib)   ...       0.11
freq.     613.03  E(vib)   ...       0.10
freq.     683.87  E(vib)   ...       0.07
freq.     704.48  E(vib)   ...       0.07
freq.     750.19  E(vib)   ...       0.06
freq.     789.11  E(vib)   ...       0.05
freq.     830.51  E(vib)   ...       0.04
freq.     840.36  E(vib)   ...       0.04
freq.     891.90  E(vib)   ...       0.03
freq.     958.10  E(vib)   ...       0.03
freq.     964.71  E(vib)   ...       0.03
freq.    1023.31  E(vib)   ...       0.02
freq.    1067.49  E(vib)   ...       0.02
freq.    1128.73  E(vib)   ...       0.01
freq.    1185.55  E(vib)   ...       0.01
freq.    1194.00  E(vib)   ...       0.01
freq.    1279.39  E(vib)   ...       0.01
freq.    1296.69  E(vib)   ...       0.01
freq.    1371.59  E(vib)   ...       0.01
freq.    1400.27  E(vib)   ...       0.00
freq.    1430.36  E(vib)   ...       0.00
freq.    1498.76  E(vib)   ...       0.00
freq.    1531.23  E(vib)   ...       0.00
freq.    1591.97  E(vib)   ...       0.00
freq.    1615.33  E(vib)   ...       0.00
freq.    1663.06  E(vib)   ...       0.00
freq.    3159.41  E(vib)   ...       0.00
freq.    3175.43  E(vib)   ...       0.00
freq.    3191.73  E(vib)   ...       0.00
freq.    3218.73  E(vib)   ...       0.00
freq.    3546.53  E(vib)   ...       0.00
freq.    3683.52  E(vib)   ...       0.00

------------
INNER ENERGY
------------

The inner energy is: U= E(el) + E(ZPE) + E(vib) + E(rot) + E(trans)
    E(el)   - is the total energy from the electronic structure calculation
              = E(kin-el) + E(nuc-el) + E(el-el) + E(nuc-nuc)
    E(ZPE)  - the the zero temperature vibrational energy from the frequency calculation
    E(vib)  - the the finite temperature correction to E(ZPE) due to population
              of excited vibrational states
    E(rot)  - is the rotational thermal energy
    E(trans)- is the translational thermal energy

Summary of contributions to the inner energy U:
Electronic energy                ...   -492.06219165 Eh
Zero point energy                ...      0.11902765 Eh      74.69 kcal/mol
Thermal vibrational correction   ...      0.00522579 Eh       3.28 kcal/mol
Thermal rotational correction    ...      0.00141627 Eh       0.89 kcal/mol
Thermal translational correction ...      0.00141627 Eh       0.89 kcal/mol
-----------------------------------------------------------------------
Total thermal energy                   -491.93510566 Eh

Summary of corrections to the electronic energy:
(perhaps to be used in another calculation)
Total thermal correction                  0.00805833 Eh       5.06 kcal/mol
Non-thermal (ZPE) correction              0.11902765 Eh      74.69 kcal/mol
-----------------------------------------------------------------------
Total correction                          0.12708598 Eh      79.75 kcal/mol

--------
ENTHALPY
--------

The enthalpy is H = U + kB*T
                kB is Boltzmann's constant
Total thermal energy              ...   -491.93510566 Eh
Thermal Enthalpy correction       ...      0.00094421 Eh       0.59 kcal/mol
-----------------------------------------------------------------------
Total Enthalpy                    ...   -491.93416146 Eh

Note: Rotational entropy computed according to Herzberg
Infrared and Raman Spectra, Chapter V,1, Van Nostrand Reinhold, 1945
Point Group:  Cs, Symmetry Number:   1
Rotational constants in cm-1:     0.077449     0.042554     0.027464

Vibrational entropy computed according to the QRRHO of S. Grimme
Chem.Eur.J. 2012 18 9955 using a reference frequency of 100.0 cm-1

-------
ENTROPY
-------

The entropy contributions are T*S = T*(S(el)+S(vib)+S(rot)+S(trans))
     S(el)   - electronic entropy
     S(vib)  - vibrational entropy
     S(rot)  - rotational entropy
     S(trans)- translational entropy
The entropies will be listed as multiplied by the temperature to get
units of energy

Electronic entropy                ...      0.00000000 Eh      0.00 kcal/mol
Vibrational entropy               ...      0.00841402 Eh      5.28 kcal/mol
Rotational entropy                ...      0.01390597 Eh      8.73 kcal/mol
Translational entropy             ...      0.01932869 Eh     12.13 kcal/mol
-----------------------------------------------------------------------
Final entropy term                ...      0.04164869 Eh     26.13 kcal/mol

In case the symmetry of your molecule has not been determined correctly
or in case you have a reason to use a different symmetry number we print
out the resulting rotational entropy values for sn=1,12:

 non-linear molecules -----------------------------------
|  sn= 1 | S(rot)=       0.01390597 Eh      8.73 kcal/mol|
|  sn= 2 | S(rot)=       0.01325152 Eh      8.32 kcal/mol|
|  sn= 3 | S(rot)=       0.01286868 Eh      8.08 kcal/mol|
|  sn= 4 | S(rot)=       0.01259706 Eh      7.90 kcal/mol|
|  sn= 5 | S(rot)=       0.01238637 Eh      7.77 kcal/mol|
|  sn= 6 | S(rot)=       0.01221423 Eh      7.66 kcal/mol|
|  sn= 7 | S(rot)=       0.01206868 Eh      7.57 kcal/mol|
|  sn= 8 | S(rot)=       0.01194260 Eh      7.49 kcal/mol|
|  sn= 9 | S(rot)=       0.01183140 Eh      7.42 kcal/mol|
|  sn=10 | S(rot)=       0.01173192 Eh      7.36 kcal/mol|
|  sn=11 | S(rot)=       0.01164193 Eh      7.31 kcal/mol|
|  sn=12 | S(rot)=       0.01155977 Eh      7.25 kcal/mol|
 linear molecules ---------------------------------------
|  Dinfh | S(rot)=       0.00872002 Eh      5.47 kcal/mol|
|  Cinfv | S(rot)=       0.00937448 Eh      5.88 kcal/mol|
 --------------------------------------------------------

-------------------
GIBBS FREE ENERGY
-------------------

The Gibbs free energy is G = H - T*S

                             ****ORCA TERMINATED NORMALLY****
TOTAL RUN TIME: 0 days 0 hours 14 minutes 31 seconds 225 msec
