                         Program Version 6.0.0  -   RELEASE  -
|  1> ! r2SCAN-3c DEF2-TZVP FREQ
|  2> * xyzfile 0 1 vacuum_censo.xyz
|  3>
|  4>                          ****END OF INPUT****

CARTESIAN COORDINATES (ANGSTROEM)
---------------------------------
  C     -2.588392    0.249922   -0.000030
  C     -1.898174    1.469957    0.000056
  C     -0.520919    1.455665    0.000149
  C      0.185008    0.246183    0.000138
  C     -0.494700   -1.002468    0.000050
  C     -1.909104   -0.946958   -0.000075
  N      0.117191   -2.209028   -0.000012
  N      1.633736    0.329952    0.000137
  O      2.158453    1.438022   -0.000112
  O      2.288549   -0.725843    0.000003
  H     -3.673782    0.241330   -0.000048
  H     -2.435875    2.410491    0.000081
  H      0.052951    2.373387    0.000140
  H     -2.457765   -1.884402   -0.000167
  H      1.123590   -2.249038   -0.000115
  H     -0.440141   -3.043518   -0.000366

 Total Charge           Charge          ....    0
 Multiplicity           Mult            ....    1
 Number of Electrons    NEL             ....   72
 Basis Dimension        Dim             ....  346

ORBITAL ENERGIES
----------------

  NO   OCC          E(Eh)            E(eV)
   0   2.0000     -18.977037      -516.3914
   1   2.0000     -18.974621      -516.3257
   2   2.0000     -14.386945      -391.4887
   3   2.0000     -14.194585      -386.2543
   4   2.0000     -10.117232      -275.3039
   5   2.0000     -10.095271      -274.7063
   6   2.0000     -10.061689      -273.7925
   7   2.0000     -10.058124      -273.6955
   8   2.0000     -10.055595      -273.6267
   9   2.0000     -10.047039      -273.3938
  10   2.0000      -1.181984       -32.1634
  11   2.0000      -1.008150       -27.4332
  12   2.0000      -0.921014       -25.0621
  13   2.0000      -0.837130       -22.7795
  14   2.0000      -0.774456       -21.0740
  15   2.0000      -0.724057       -19.7026
  16   2.0000      -0.666132       -18.1264
  17   2.0000      -0.603772       -16.4295
  18   2.0000      -0.581707       -15.8291
  19   2.0000      -0.529913       -14.4197
  20   2.0000      -0.505133       -13.7454
  21   2.0000      -0.498931       -13.5766
  22   2.0000      -0.497382       -13.5345
  23   2.0000      -0.479034       -13.0352
  24   2.0000      -0.449499       -12.2315
  25   2.0000      -0.418944       -11.4001
  26   2.0000      -0.418470       -11.3871
  27   2.0000      -0.385894       -10.5007
  28   2.0000      -0.362883        -9.8745
  29   2.0000      -0.342072        -9.3082
  30   2.0000      -0.317318        -8.6346
  31   2.0000      -0.283804        -7.7227
  32   2.0000      -0.273749        -7.4491
  33   2.0000      -0.262656        -7.1472
  34   2.0000      -0.254058        -6.9133
  35   2.0000      -0.211948        -5.7674
  36   0.0000      -0.112554        -3.0627
  37   0.0000      -0.041190        -1.1208
  38   0.0000      -0.024427        -0.6647
  39   0.0000       0.037692         1.0257
  40   0.0000       0.049452         1.3457

MULLIKEN ATOMIC CHARGES
-----------------------
   0 C :   -0.058408
   1 C :   -0.141998
   2 C :   -0.097722
   3 C :   -0.060511
   4 C :    0.220178
   5 C :   -0.231191
   6 N :   -0.394814
   7 N :    0.543487
   8 O :   -0.359721
   9 O :   -0.408783
  10 H :    0.118598
  11 H :    0.116948
  12 H :    0.147022
  13 H :    0.094432
  14 H :    0.278091
  15 H :    0.234391
Sum of atomic charges:   -0.0000000

LOEWDIN ATOMIC CHARGES
----------------------
   0 C :   -0.122781
   1 C :   -0.154878
   2 C :   -0.098047
   3 C :   -0.147840
   4 C :   -0.201804
   5 C :   -0.126247
   6 N :    0.033615
   7 N :   -0.024832
   8 O :   -0.026460
   9 O :   -0.069312
  10 H :    0.148519
  11 H :    0.145922
  12 H :    0.160131
  13 H :    0.145467
  14 H :    0.169489
  15 H :    0.169059

  Mayer bond orders larger than 0.100000
B(  0-C ,  1-C ) :   1.3087 B(  0-C ,  5-C ) :   1.5049 B(  0-C , 10-H ) :   0.9642
B(  1-C ,  2-C ) :   1.4722 B(  1-C , 11-H ) :   0.9784 B(  2-C ,  3-C ) :   1.3436
B(  2-C , 12-H ) :   0.9356 B(  3-C ,  4-C ) :   1.3084 B(  3-C ,  7-N ) :   1.0307
B(  4-C ,  5-C ) :   1.2809 B(  4-C ,  6-N ) :   1.2582 B(  5-C , 13-H ) :   0.9676
B(  6-N , 14-H ) :   0.8638 B(  6-N , 15-H ) :   0.9077 B(  7-N ,  8-O ) :   1.4989
B(  7-N ,  9-O ) :   1.3873 B(  8-O ,  9-O ) :   0.1911

Dispersion correction           -0.005687986
FINAL SINGLE POINT ENERGY      -492.063075166479

DIPOLE MOMENT
-------------

Method             : SCF
Type of density    : Electron Density
Multiplicity       :   1
Irrep              :   0
Energy             :  -492.0705953779511219 Eh
Relativity type    :
Basis              : AO
                                X                 Y                 Z
Electronic contribution:      5.651188399       1.109113433       0.000427442
Nuclear contribution   :     -7.311873300      -2.042702755      -0.000570625
                        -----------------------------------------
Total Dipole Moment    :     -1.660684902      -0.933589323      -0.000143183
                        -----------------------------------------
Magnitude (a.u.)       :      1.905115059
Magnitude (Debye)      :      4.842417646

VIBRATIONAL FREQUENCIES
-----------------------

Scaling factor for frequencies =  1.000000000  (already applied!)

     0:       0.00 cm**-1
     1:       0.00 cm**-1
     2:       0.00 cm**-1
     3:       0.00 cm**-1
     4:       0.00 cm**-1
     5:       0.00 cm**-1
     6:      76.67 cm**-1
     7:     100.02 cm**-1
     8:     190.85 cm**-1
     9:     241.40 cm**-1
    10:     303.73 cm**-1
    11:     389.35 cm**-1
    12:     406.70 cm**-1
    13:     431.67 cm**-1
    14:     532.88 cm**-1
    15:     547.75 cm**-1
    16:     571.71 cm**-1
    17:     607.96 cm**-1
    18:     683.71 cm**-1
    19:     702.72 cm**-1
    20:     748.35 cm**-1
    21:     786.24 cm**-1
    22:     834.00 cm**-1
    23:     842.19 cm**-1
    24:     889.63 cm**-1
    25:     956.38 cm**-1
    26:     964.60 cm**-1
    27:    1026.92 cm**-1
    28:    1072.85 cm**-1
    29:    1109.08 cm**-1
    30:    1179.75 cm**-1
    31:    1192.56 cm**-1
    32:    1283.10 cm**-1
    33:    1302.54 cm**-1
    34:    1371.32 cm**-1
    35:    1393.58 cm**-1
    36:    1465.28 cm**-1
    37:    1510.59 cm**-1
    38:    1544.60 cm**-1
    39:    1597.29 cm**-1
    40:    1606.02 cm**-1
    41:    1659.65 cm**-1
    42:    3155.70 cm**-1
    43:    3173.53 cm**-1
    44:    3192.85 cm**-1
    45:    3215.85 cm**-1
    46:    3555.99 cm**-1
    47:    3714.24 cm**-1

IR SPECTRUM
-----------

 Mode   freq       eps      Int      T**2         TX        TY        TZ
       cm**-1   L/(mol*cm) km/mol    a.u.
----------------------------------------------------------------------------
  6:     76.67   0.002763   13.96  0.011247  ( 0.000012  0.000009 -0.106054)
  7:    100.02   0.005344   27.01  0.016674  ( 0.000085  0.000005  0.129127)
  8:    190.85   0.024641  124.53  0.040292  ( 0.000004  0.000052  0.200729)
  9:    241.40   0.000136    0.69  0.000176  (-0.000028 -0.000018 -0.013273)
 10:    303.73   0.000531    2.68  0.000546  (-0.005567  0.022687  0.000023)
 11:    389.35   0.000403    2.04  0.000323  (-0.010090 -0.014876 -0.000008)
 12:    406.70   0.000505    2.55  0.000388  ( 0.006071  0.018732  0.000012)
 13:    431.67   0.000001    0.01  0.000001  ( 0.000027  0.000042 -0.000996)
 14:    532.88   0.003964   20.03  0.002321  ( 0.000035  0.000011 -0.048178)
 15:    547.75   0.000607    3.07  0.000346  (-0.018588  0.000569  0.000007)
 16:    571.71   0.000515    2.60  0.000281  (-0.005561 -0.015813  0.000013)
 17:    607.96   0.002616   13.22  0.001343  ( 0.000015 -0.000102  0.036641)
 18:    683.71   0.001214    6.13  0.000554  (-0.023508  0.001186 -0.000011)
 19:    702.72   0.001178    5.95  0.000523  ( 0.000009 -0.000051  0.022873)
 20:    748.35   0.010799   54.57  0.004503  (-0.000020 -0.000071 -0.067107)
 21:    786.24   0.000971    4.91  0.000385  ( 0.000017 -0.000009 -0.019632)
 22:    834.00   0.000781    3.95  0.000292  ( 0.014047  0.009739  0.000001)
 23:    842.19   0.000160    0.81  0.000059  (-0.000018 -0.000014 -0.007710)
 24:    889.63   0.003265   16.50  0.001145  (-0.033763  0.002290  0.000005)
 25:    956.38   0.000224    1.13  0.000073  ( 0.000011 -0.000011 -0.008555)
 26:    964.60   0.000001    0.00  0.000000  (-0.000003  0.000018  0.000488)
 27:   1026.92   0.002055   10.39  0.000625  (-0.013498  0.021034  0.000002)
 28:   1072.85   0.000775    3.92  0.000225  (-0.001070  0.014977  0.000000)
 29:   1109.08   0.009266   46.83  0.002607  ( 0.048362  0.016382  0.000001)
 30:   1179.75   0.004090   20.67  0.001082  (-0.002177  0.032819  0.000002)
 31:   1192.56   0.004551   23.00  0.001191  ( 0.021151  0.027268  0.000001)
 32:   1283.10   0.066581  336.47  0.016193  ( 0.122852  0.033175 -0.000002)
 33:   1302.54   0.000742    3.75  0.000178  ( 0.005849  0.011982 -0.000000)
 34:   1371.32   0.027182  137.37  0.006186  ( 0.077608 -0.012751 -0.000001)
 35:   1393.58   0.001797    9.08  0.000402  (-0.007160 -0.018740 -0.000002)
 36:   1465.28   0.019996  101.05  0.004259  (-0.036469 -0.054117  0.000000)
 37:   1510.59   0.002398   12.12  0.000495  (-0.020305 -0.009112 -0.000001)
 38:   1544.60   0.048573  245.47  0.009814  ( 0.016301 -0.097713  0.000002)
 39:   1597.29   0.006706   33.89  0.001310  ( 0.030829  0.018968 -0.000008)
 40:   1606.02   0.017374   87.80  0.003376  (-0.006603 -0.057727 -0.000014)
 41:   1659.65   0.041754  211.01  0.007851  ( 0.034689 -0.081533 -0.000003)
 42:   3155.70   0.001276    6.45  0.000126  (-0.001867  0.011076  0.000001)
 43:   3173.53   0.002336   11.80  0.000230  ( 0.011891  0.009397  0.000001)
 44:   3192.85   0.001052    5.32  0.000103  ( 0.007181 -0.007158  0.000001)
 45:   3215.85   0.000816    4.12  0.000079  (-0.008856 -0.000853  0.000001)
 46:   3555.99   0.016411   82.94  0.001440  (-0.030471  0.022622  0.000006)
 47:   3714.24   0.015246   77.05  0.001281  ( 0.027992  0.022302  0.000005)

--------------------------
THERMOCHEMISTRY AT 298.15K
--------------------------

Temperature         ...   298.15 K
Pressure            ...     1.00 atm
Total Mass          ...   138.13 AMU
Quasi RRHO          ...     True
Cut-Off Frequency   ...     1.00 cm^-1

Throughout the following assumptions are being made:
  (1) The electronic state is orbitally nondegenerate
  (2) There are no thermally accessible electronically excited states
  (3) Hindered rotations indicated by low frequency modes are not
      treated as such but are treated as vibrations and this may
      cause some error
  (4) All equations used are the standard statistical mechanics
      equations for an ideal gas
  (5) All vibrations are strictly harmonic

freq.      76.67  E(vib)   ...       0.49
freq.     100.02  E(vib)   ...       0.46
freq.     190.85  E(vib)   ...       0.36
freq.     241.40  E(vib)   ...       0.31
freq.     303.73  E(vib)   ...       0.26
freq.     389.35  E(vib)   ...       0.20
freq.     406.70  E(vib)   ...       0.19
freq.     431.67  E(vib)   ...       0.18
freq.     532.88  E(vib)   ...       0.13
freq.     547.75  E(vib)   ...       0.12
freq.     571.71  E(vib)   ...       0.11
freq.     607.96  E(vib)   ...       0.10
freq.     683.71  E(vib)   ...       0.07
freq.     702.72  E(vib)   ...       0.07
freq.     748.35  E(vib)   ...       0.06
freq.     786.24  E(vib)   ...       0.05
freq.     834.00  E(vib)   ...       0.04
freq.     842.19  E(vib)   ...       0.04
freq.     889.63  E(vib)   ...       0.04
freq.     956.38  E(vib)   ...       0.03
freq.     964.60  E(vib)   ...       0.03
freq.    1026.92  E(vib)   ...       0.02
freq.    1072.85  E(vib)   ...       0.02
freq.    1109.08  E(vib)   ...       0.02
freq.    1179.75  E(vib)   ...       0.01
freq.    1192.56  E(vib)   ...       0.01
freq.    1283.10  E(vib)   ...       0.01
freq.    1302.54  E(vib)   ...       0.01
freq.    1371.32  E(vib)   ...       0.01
freq.    1393.58  E(vib)   ...       0.00
freq.    1465.28  E(vib)   ...       0.00
freq.    1510.59  E(vib)   ...       0.00
freq.    1544.60  E(vib)   ...       0.00
freq.    1597.29  E(vib)   ...       0.00
freq.    1606.02  E(vib)   ...       0.00
freq.    1659.65  E(vib)   ...       0.00
freq.    3155.70  E(vib)   ...       0.00
freq.    3173.53  E(vib)   ...       0.00
freq.    3192.85  E(vib)   ...       0.00
freq.    3215.85  E(vib)   ...       0.00
freq.    3555.99  E(vib)   ...       0.00
freq.    3714.24  E(vib)   ...       0.00

------------
INNER ENERGY
------------

The inner energy is: U= E(el) + E(ZPE) + E(vib) + E(rot) + E(trans)
    E(el)   - is the total energy from the electronic structure calculation
              = E(kin-el) + E(nuc-el) + E(el-el) + E(nuc-nuc)
    E(ZPE)  - the the zero temperature vibrational energy from the frequency calculation
    E(vib)  - the the finite temperature correction to E(ZPE) due to population
              of excited vibrational states
    E(rot)  - is the rotational thermal energy
    E(trans)- is the translational thermal energy

Summary of contributions to the inner energy U:
Electronic energy                ...   -492.06307517 Eh
Zero point energy                ...      0.11876495 Eh      74.53 kcal/mol
Thermal vibrational correction   ...      0.00550014 Eh       3.45 kcal/mol
Thermal rotational correction    ...      0.00141627 Eh       0.89 kcal/mol
Thermal translational correction ...      0.00141627 Eh       0.89 kcal/mol
-----------------------------------------------------------------------
Total thermal energy                   -491.93597753 Eh

Summary of corrections to the electronic energy:
(perhaps to be used in another calculation)
Total thermal correction                  0.00833268 Eh       5.23 kcal/mol
Non-thermal (ZPE) correction              0.11876495 Eh      74.53 kcal/mol
-----------------------------------------------------------------------
Total correction                          0.12709763 Eh      79.75 kcal/mol

--------
ENTHALPY
--------

The enthalpy is H = U + kB*T
                kB is Boltzmann's constant
Total thermal energy              ...   -491.93597753 Eh
Thermal Enthalpy correction       ...      0.00094421 Eh       0.59 kcal/mol
-----------------------------------------------------------------------
Total Enthalpy                    ...   -491.93503332 Eh

Note: Only C1 symmetry has been detected, increase convergence thresholds
      if your molecule has a higher symmetry. Symmetry factor of 1.0 is
      used for the rotational entropy correction.

Note: Rotational entropy computed according to Herzberg
Infrared and Raman Spectra, Chapter V,1, Van Nostrand Reinhold, 1945
Point Group:  C1, Symmetry Number:   1
Rotational constants in cm-1:     0.077791     0.042442     0.027460

Vibrational entropy computed according to the QRRHO of S. Grimme
Chem.Eur.J. 2012 18 9955 using a reference frequency of 100.0 cm-1

-------
ENTROPY
-------

The entropy contributions are T*S = T*(S(el)+S(vib)+S(rot)+S(trans))
     S(el)   - electronic entropy
     S(vib)  - vibrational entropy
     S(rot)  - rotational entropy
     S(trans)- translational entropy
The entropies will be listed as multiplied by the temperature to get
units of energy

Electronic entropy                ...      0.00000000 Eh      0.00 kcal/mol
Vibrational entropy               ...      0.00905442 Eh      5.68 kcal/mol
Rotational entropy                ...      0.01390521 Eh      8.73 kcal/mol
Translational entropy             ...      0.01932869 Eh     12.13 kcal/mol
-----------------------------------------------------------------------
Final entropy term                ...      0.04228832 Eh     26.54 kcal/mol

In case the symmetry of your molecule has not been determined correctly
or in case you have a reason to use a different symmetry number we print
out the resulting rotational entropy values for sn=1,12:

 non-linear molecules -----------------------------------
|  sn= 1 | S(rot)=       0.01390521 Eh      8.73 kcal/mol|
|  sn= 2 | S(rot)=       0.01325076 Eh      8.31 kcal/mol|
|  sn= 3 | S(rot)=       0.01286792 Eh      8.07 kcal/mol|
|  sn= 4 | S(rot)=       0.01259630 Eh      7.90 kcal/mol|
|  sn= 5 | S(rot)=       0.01238561 Eh      7.77 kcal/mol|
|  sn= 6 | S(rot)=       0.01221347 Eh      7.66 kcal/mol|
|  sn= 7 | S(rot)=       0.01206792 Eh      7.57 kcal/mol|
|  sn= 8 | S(rot)=       0.01194184 Eh      7.49 kcal/mol|
|  sn= 9 | S(rot)=       0.01183063 Eh      7.42 kcal/mol|
|  sn=10 | S(rot)=       0.01173115 Eh      7.36 kcal/mol|
|  sn=11 | S(rot)=       0.01164116 Eh      7.30 kcal/mol|
|  sn=12 | S(rot)=       0.01155901 Eh      7.25 kcal/mol|
 linear molecules ---------------------------------------
|  Dinfh | S(rot)=       0.00872017 Eh      5.47 kcal/mol|
|  Cinfv | S(rot)=       0.00937462 Eh      5.88 kcal/mol|
 --------------------------------------------------------

                             ****ORCA TERMINATED NORMALLY****
TOTAL RUN TIME: 0 days 0 hours 14 minutes 18 seconds 543 msec
