                         Program Version 6.0.1  -  RELEASE   -
|  1> ! pbe def2-sv(p) def2/J RI DEFGRID1 loosescf d4 GCP(DFT/SV(P)) printgap
|  2> %output
|  3>     printlevel normal
|  4> end
|  5> * xyz 0 1
|  6> C -1.9451186785 0.0995590807 0.0384760823
|  7> C -0.5600155193 -0.5311191192 -0.0123732759
|  8> C 0.5449922005 0.5224252761 -0.0174351407
|  9> N 1.8475238655 -0.1232310037 0.0403474984
| 10> H -2.1022574235 0.7483487518 -0.8210061679
| 11> H -2.7139986052 -0.6691848743 0.0331903756
| 12> H -2.0600452657 0.6950033438 0.941420197
| 13> H -0.4700344032 -1.1469328783 -0.91074306
| 14> H -0.4118235082 -1.1804855778 0.851399052
| 15> H 0.420306378 1.1728025796 -0.9015356697
| 16> H 0.4524321892 1.151000747 0.8732842109
| 17> H 2.5874866482 0.5702581051 0.0462760769
| 18> H 1.9817845737 -0.7111075166 -0.7762820767
| 19> *
| 20>
| 21>                          ****END OF INPUT****

CARTESIAN COORDINATES (ANGSTROEM)
---------------------------------
  C     -1.945119    0.099559    0.038476
  C     -0.560016   -0.531119   -0.012373
  C      0.544992    0.522425   -0.017435
  N      1.847524   -0.123231    0.040347
  H     -2.102257    0.748349   -0.821006
  H     -2.713999   -0.669185    0.033190
  H     -2.060045    0.695003    0.941420
  H     -0.470034   -1.146933   -0.910743
  H     -0.411824   -1.180486    0.851399
  H      0.420306    1.172803   -0.901536
  H      0.452432    1.151001    0.873284
  H      2.587487    0.570258    0.046276
  H      1.981785   -0.711108   -0.776282

 Total Charge           Charge          ....    0
 Multiplicity           Mult            ....    1
 Number of Electrons    NEL             ....   34
 Basis Dimension        Dim             ....   74

ORBITAL ENERGIES
----------------

  NO   OCC          E(Eh)            E(eV)
   0   2.0000     -13.952709      -379.6725
   1   2.0000      -9.902273      -269.4546
   2   2.0000      -9.878200      -268.7995
   3   2.0000      -9.871246      -268.6103
   4   2.0000      -0.789203       -21.4753
   5   2.0000      -0.686325       -18.6758
   6   2.0000      -0.583690       -15.8830
   7   2.0000      -0.516962       -14.0673
   8   2.0000      -0.433112       -11.7856
   9   2.0000      -0.412336       -11.2202
  10   2.0000      -0.393362       -10.7039
  11   2.0000      -0.357835        -9.7372
  12   2.0000      -0.332461        -9.0467
  13   2.0000      -0.307408        -8.3650
  14   2.0000      -0.289215        -7.8699
  15   2.0000      -0.286064        -7.7842
  16   2.0000      -0.177126        -4.8198
  17   0.0000       0.036911         1.0044
  18   0.0000       0.052693         1.4339
  19   0.0000       0.074120         2.0169
  20   0.0000       0.090615         2.4658
  21   0.0000       0.114340         3.1113

MULLIKEN ATOMIC CHARGES
-----------------------
   0 C :   -0.273945
   1 C :   -0.197368
   2 C :   -0.084029
   3 N :   -0.454478
   4 H :    0.096317
   5 H :    0.103946
   6 H :    0.099465
   7 H :    0.079310
   8 H :    0.093813
   9 H :    0.061095
  10 H :    0.077359
  11 H :    0.200027
  12 H :    0.198488
Sum of atomic charges:   -0.0000000

LOEWDIN ATOMIC CHARGES
----------------------
   0 C :   -0.340501
   1 C :   -0.242516
   2 C :   -0.176656
   3 N :   -0.419226
   4 H :    0.115467
   5 H :    0.119686
   6 H :    0.117342
   7 H :    0.110322
   8 H :    0.119170
   9 H :    0.085651
  10 H :    0.108904
  11 H :    0.202494
  12 H :    0.199862

  Mayer bond orders larger than 0.100000
B(  0-C ,  1-C ) :   1.1489 B(  0-C ,  4-H ) :   0.9539 B(  0-C ,  5-H ) :   0.9540
B(  0-C ,  6-H ) :   0.9557 B(  1-C ,  2-C ) :   1.1339 B(  1-C ,  7-H ) :   0.9284
B(  1-C ,  8-H ) :   0.9231 B(  2-C ,  3-N ) :   1.1118 B(  2-C ,  9-H ) :   0.9206
B(  2-C , 10-H ) :   0.9281 B(  3-N , 11-H ) :   0.9052 B(  3-N , 12-H ) :   0.9041

Dispersion correction           -0.007083089
FINAL SINGLE POINT ENERGY      -174.032448806578

DIPOLE MOMENT
-------------

Method             : SCF
Type of density    : Electron Density
Multiplicity       :   1
Irrep              :   0
Energy             :  -174.0823991925933285 Eh
Relativity type    :
Basis              : AO
                                X                 Y                 Z
Electronic contribution:      2.243837031      -0.346214692       0.194377568
Nuclear contribution   :     -2.162829202       0.590089897      -0.622716444
                        -----------------------------------------
Total Dipole Moment    :      0.081007829       0.243875205      -0.428338876
                        -----------------------------------------
Magnitude (a.u.)       :      0.499511338
Magnitude (Debye)      :      1.269656919

Rotational constants in cm-1:             0.838448             0.126149             0.117824
Rotational constants in MHz :         25136.045045          3781.861545          3532.268555

                             ****ORCA TERMINATED NORMALLY****
TOTAL RUN TIME: 0 days 0 hours 0 minutes 14 seconds 402 msec
