                         Program Version 6.0.1  -  RELEASE   -
|  1> ! r2scan-3c def2/J RI DEFGRID2 scfconv6 printgap
|  2> %output
|  3>     printlevel normal
|  4> end
|  5> * xyz 0 1
|  6> C -2.7927826023 -0.3918543171 -3.17545e-05
|  7> O -1.3868727294 -0.646545033 4.07937e-05
|  8> C -0.6004923024 0.406272815 0.0001689924
|  9> O -0.9206770994 1.5561877887 1.68536e-05
| 10> C 0.8838569598 -0.0703080886 3.30947e-05
| 11> F 1.7277790291 0.9570620994 0.0006693327
| 12> F 1.1505894545 -0.8176503393 1.0773485546
| 13> F 1.150677371 -0.8163665254 -1.0781765112
| 14> H -3.2714864736 -1.3667353153 -0.0162706011
| 15> H -3.0673882875 0.1906285746 -0.8805430207
| 16> H -3.0721710735 0.1627214664 0.89685868
| 17> *
| 18>
| 19>                          ****END OF INPUT****

CARTESIAN COORDINATES (ANGSTROEM)
---------------------------------
  C     -2.792783   -0.391854   -0.000032
  O     -1.386873   -0.646545    0.000041
  C     -0.600492    0.406273    0.000169
  O     -0.920677    1.556188    0.000017
  C      0.883857   -0.070308    0.000033
  F      1.727779    0.957062    0.000669
  F      1.150589   -0.817650    1.077349
  F      1.150677   -0.816367   -1.078177
  H     -3.271486   -1.366735   -0.016271
  H     -3.067388    0.190629   -0.880543
  H     -3.072171    0.162721    0.896859

 Total Charge           Charge          ....    0
 Multiplicity           Mult            ....    1
 Number of Electrons    NEL             ....   64
 Basis Dimension        Dim             ....  192

ORBITAL ENERGIES
----------------

  NO   OCC          E(Eh)            E(eV)
   0   2.0000     -24.531922      -667.5475
   1   2.0000     -24.531912      -667.5473
   2   2.0000     -24.530854      -667.5185
   3   2.0000     -19.038917      -518.0753
   4   2.0000     -18.975914      -516.3609
   5   2.0000     -10.300706      -280.2965
   6   2.0000     -10.197457      -277.4869
   7   2.0000     -10.113305      -275.1970
   8   2.0000      -1.292846       -35.1801
   9   2.0000      -1.202361       -32.7179
  10   2.0000      -1.201819       -32.7032
  11   2.0000      -1.117043       -30.3963
  12   2.0000      -1.028464       -27.9859
  13   2.0000      -0.758468       -20.6390
  14   2.0000      -0.689732       -18.7686
  15   2.0000      -0.606011       -16.4904
  16   2.0000      -0.572030       -15.5657
  17   2.0000      -0.571221       -15.5437
  18   2.0000      -0.550814       -14.9884
  19   2.0000      -0.485627       -13.2146
  20   2.0000      -0.472753       -12.8643
  21   2.0000      -0.451550       -12.2873
  22   2.0000      -0.439990       -11.9727
  23   2.0000      -0.439404       -11.9568
  24   2.0000      -0.410701       -11.1757
  25   2.0000      -0.403113       -10.9693
  26   2.0000      -0.389135       -10.5889
  27   2.0000      -0.388972       -10.5845
  28   2.0000      -0.379695       -10.3320
  29   2.0000      -0.354657        -9.6507
  30   2.0000      -0.311727        -8.4825
  31   2.0000      -0.280418        -7.6306
  32   0.0000      -0.065924        -1.7939
  33   0.0000       0.042037         1.1439
  34   0.0000       0.068739         1.8705
  35   0.0000       0.112026         3.0484
  36   0.0000       0.127619         3.4727

MULLIKEN ATOMIC CHARGES
-----------------------
   0 C :   -0.280218
   1 O :   -0.158892
   2 C :    0.358244
   3 O :   -0.371736
   4 C :    0.525779
   5 F :   -0.177916
   6 F :   -0.195486
   7 F :   -0.195489
   8 H :    0.162004
   9 H :    0.167098
  10 H :    0.166611
Sum of atomic charges:    0.0000000

LOEWDIN ATOMIC CHARGES
----------------------
   0 C :   -0.029485
   1 O :   -0.556234
   2 C :    0.366854
   3 O :   -0.343107
   4 C :    0.558926
   5 F :   -0.171624
   6 F :   -0.185364
   7 F :   -0.185388
   8 H :    0.182997
   9 H :    0.181379
  10 H :    0.181047

  Mayer bond orders larger than 0.100000
B(  0-C ,  1-O ) :   0.8371 B(  0-C ,  8-H ) :   0.9670 B(  0-C ,  9-H ) :   0.9589
B(  0-C , 10-H ) :   0.9586 B(  1-O ,  2-C ) :   1.1101 B(  2-C ,  3-O ) :   1.8549
B(  2-C ,  4-C ) :   0.9665 B(  4-C ,  5-F ) :   1.0548 B(  4-C ,  6-F ) :   1.0237
B(  4-C ,  7-F ) :   1.0236

Dispersion correction           -0.002406454
FINAL SINGLE POINT ENERGY      -566.066090881693

DIPOLE MOMENT
-------------

Method             : SCF
Type of density    : Electron Density
Multiplicity       :   1
Irrep              :   0
Energy             :  -566.0766245371131618 Eh
Relativity type    :
Basis              : AO
                                X                 Y                 Z
Electronic contribution:     11.481212816      -0.213200520      -0.000221487
Nuclear contribution   :    -12.596394552      -0.310059633       0.000190095
                        -----------------------------------------
Total Dipole Moment    :     -1.115181736      -0.523260153      -0.000031391
                        -----------------------------------------
Magnitude (a.u.)       :      1.231840693
Magnitude (Debye)      :      3.131090210

Rotational constants in cm-1:             0.120621             0.050432             0.044065
Rotational constants in MHz :          3616.126281          1511.926778          1321.033990

                             ****ORCA TERMINATED NORMALLY****
TOTAL RUN TIME: 0 days 0 hours 0 minutes 17 seconds 688 msec
