                         Program Version 6.0.1  -  RELEASE   -
|  1> ! pbe def2-sv(p) def2/J RI DEFGRID1 loosescf d4 GCP(DFT/SV(P)) printgap
|  2> %output
|  3>     printlevel normal
|  4> end
|  5> * xyz 0 1
|  6> C -2.7686128551 0.3392004607 1.3121034663
|  7> O -1.4500751324 0.0967872164 0.845269403
|  8> C -1.3239414652 -0.1304678047 -0.4695471838
|  9> O -2.261007383 -0.1371835886 -1.2250335365
| 10> C 0.1174621806 -0.3296285058 -0.8884857203
| 11> C 0.841289172 -1.3489704228 0.0040548444
| 12> C 2.3439213058 -1.0930554141 -0.0186088477
| 13> C 2.670723718 0.2452343501 0.6555482221
| 14> C 1.5304085307 1.2544138131 0.4756377363
| 15> C 0.835428833 1.0373607318 -0.862153698
| 16> H -2.6920920471 0.4734580031 2.3881036197
| 17> H -3.4159443399 -0.5073636851 1.0750019993
| 18> H -3.1789680476 1.2351164695 0.8418404227
| 19> H 0.0873274412 -0.6904286077 -1.9208570624
| 20> H 0.4805697641 -1.2649483746 1.0293945402
| 21> H 0.6224971742 -2.3588257351 -0.3473126614
| 22> H 2.8670102828 -1.9029946304 0.4920728439
| 23> H 2.6855656396 -1.0863336382 -1.0553681071
| 24> H 2.8454057636 0.0905698354 1.7216288725
| 25> H 3.5922171389 0.6458792991 0.2289765949
| 26> H 0.7959676257 1.1398541557 1.2735285028
| 27> H 1.9231238647 2.2711242197 0.5308200553
| 28> H 0.11372549 1.8345666423 -1.0521213708
| 29> H 1.576230512 1.0703769023 -1.6625805483
| 30> *
| 31>
| 32>                          ****END OF INPUT****

CARTESIAN COORDINATES (ANGSTROEM)
---------------------------------
  C     -2.768613    0.339200    1.312103
  O     -1.450075    0.096787    0.845269
  C     -1.323941   -0.130468   -0.469547
  O     -2.261007   -0.137184   -1.225034
  C      0.117462   -0.329629   -0.888486
  C      0.841289   -1.348970    0.004055
  C      2.343921   -1.093055   -0.018609
  C      2.670724    0.245234    0.655548
  C      1.530409    1.254414    0.475638
  C      0.835429    1.037361   -0.862154
  H     -2.692092    0.473458    2.388104
  H     -3.415944   -0.507364    1.075002
  H     -3.178968    1.235116    0.841840
  H      0.087327   -0.690429   -1.920857
  H      0.480570   -1.264948    1.029395
  H      0.622497   -2.358826   -0.347313
  H      2.867010   -1.902995    0.492073
  H      2.685566   -1.086334   -1.055368
  H      2.845406    0.090570    1.721629
  H      3.592217    0.645879    0.228977
  H      0.795968    1.139854    1.273529
  H      1.923124    2.271124    0.530820
  H      0.113725    1.834567   -1.052121
  H      1.576231    1.070377   -1.662581

 Total Charge           Charge          ....    0
 Multiplicity           Mult            ....    1
 Number of Electrons    NEL             ....   78
 Basis Dimension        Dim             ....  168

ORBITAL ENERGIES
----------------

  NO   OCC          E(Eh)            E(eV)
   0   2.0000     -18.798268      -511.5269
   1   2.0000     -18.733842      -509.7738
   2   2.0000     -10.001457      -272.1535
   3   2.0000      -9.939980      -270.4806
   4   2.0000      -9.902528      -269.4615
   5   2.0000      -9.891126      -269.1512
   6   2.0000      -9.886218      -269.0177
   7   2.0000      -9.884226      -268.9635
   8   2.0000      -9.882643      -268.9204
   9   2.0000      -9.881215      -268.8815
  10   2.0000      -1.006111       -27.3777
  11   2.0000      -0.912776       -24.8379
  12   2.0000      -0.763380       -20.7726
  13   2.0000      -0.690610       -18.7925
  14   2.0000      -0.666884       -18.1468
  15   2.0000      -0.647855       -17.6290
  16   2.0000      -0.560985       -15.2652
  17   2.0000      -0.556011       -15.1298
  18   2.0000      -0.508834       -13.8461
  19   2.0000      -0.476248       -12.9594
  20   2.0000      -0.455622       -12.3981
  21   2.0000      -0.443611       -12.0713
  22   2.0000      -0.433212       -11.7883
  23   2.0000      -0.417123       -11.3505
  24   2.0000      -0.396989       -10.8026
  25   2.0000      -0.381136       -10.3712
  26   2.0000      -0.367313        -9.9951
  27   2.0000      -0.357331        -9.7235
  28   2.0000      -0.339770        -9.2456
  29   2.0000      -0.335134        -9.1195
  30   2.0000      -0.326448        -8.8831
  31   2.0000      -0.323082        -8.7915
  32   2.0000      -0.313740        -8.5373
  33   2.0000      -0.304285        -8.2800
  34   2.0000      -0.273625        -7.4457
  35   2.0000      -0.265502        -7.2247
  36   2.0000      -0.264388        -7.1943
  37   2.0000      -0.256019        -6.9666
  38   2.0000      -0.213441        -5.8080
  39   0.0000      -0.017691        -0.4814
  40   0.0000       0.027503         0.7484
  41   0.0000       0.044527         1.2116
  42   0.0000       0.060706         1.6519
  43   0.0000       0.073235         1.9928

MULLIKEN ATOMIC CHARGES
-----------------------
   0 C :   -0.107176
   1 O :   -0.247962
   2 C :    0.121582
   3 O :   -0.188726
   4 C :   -0.139777
   5 C :   -0.127362
   6 C :   -0.148273
   7 C :   -0.161823
   8 C :   -0.150959
   9 C :   -0.143126
  10 H :    0.118909
  11 H :    0.117857
  12 H :    0.116110
  13 H :    0.079027
  14 H :    0.091602
  15 H :    0.089699
  16 H :    0.086339
  17 H :    0.075672
  18 H :    0.081764
  19 H :    0.080854
  20 H :    0.087723
  21 H :    0.085284
  22 H :    0.097646
  23 H :    0.085115
Sum of atomic charges:    0.0000000

LOEWDIN ATOMIC CHARGES
----------------------
   0 C :   -0.206842
   1 O :   -0.072845
   2 C :    0.042676
   3 O :   -0.153995
   4 C :   -0.158438
   5 C :   -0.220197
   6 C :   -0.228512
   7 C :   -0.228834
   8 C :   -0.234625
   9 C :   -0.208808
  10 H :    0.118635
  11 H :    0.118720
  12 H :    0.117700
  13 H :    0.131440
  14 H :    0.120056
  15 H :    0.120840
  16 H :    0.119082
  17 H :    0.114445
  18 H :    0.116707
  19 H :    0.115477
  20 H :    0.117072
  21 H :    0.118384
  22 H :    0.122191
  23 H :    0.119672

  Mayer bond orders larger than 0.100000
B(  0-C ,  1-O ) :   0.9481 B(  0-C , 10-H ) :   0.9577 B(  0-C , 11-H ) :   0.9509
B(  0-C , 12-H ) :   0.9523 B(  1-O ,  2-C ) :   1.1785 B(  2-C ,  3-O ) :   2.0879
B(  2-C ,  4-C ) :   0.9754 B(  4-C ,  5-C ) :   1.0847 B(  4-C ,  9-C ) :   1.0701
B(  4-C , 13-H ) :   0.8780 B(  5-C ,  6-C ) :   1.1849 B(  5-C , 14-H ) :   0.8970
B(  5-C , 15-H ) :   0.9183 B(  6-C ,  7-C ) :   1.1411 B(  6-C , 16-H ) :   0.9217
B(  6-C , 17-H ) :   0.9067 B(  7-C ,  8-C ) :   1.1438 B(  7-C , 18-H ) :   0.9217
B(  7-C , 19-H ) :   0.9221 B(  8-C ,  9-C ) :   1.1790 B(  8-C , 20-H ) :   0.8975
B(  8-C , 21-H ) :   0.9195 B(  9-C , 22-H ) :   0.9179 B(  9-C , 23-H ) :   0.9041

Dispersion correction           -0.023326299
FINAL SINGLE POINT ENERGY      -462.696450791947

DIPOLE MOMENT
-------------

Method             : SCF
Type of density    : Electron Density
Multiplicity       :   1
Irrep              :   0
Energy             :  -462.7845502178215611 Eh
Relativity type    :
Basis              : AO
                                X                 Y                 Z
Electronic contribution:     -7.401905452      -0.788493281      -2.677647574
Nuclear contribution   :      7.734238945       0.890707582       3.318415541
                        -----------------------------------------
Total Dipole Moment    :      0.332333494       0.102214302       0.640767967
                        -----------------------------------------
Magnitude (a.u.)       :      0.729024624
Magnitude (Debye)      :      1.853033330

Rotational constants in cm-1:             0.082050             0.028708             0.027320
Rotational constants in MHz :          2459.793102           860.643641           819.029282

                             ****ORCA TERMINATED NORMALLY****
TOTAL RUN TIME: 0 days 0 hours 0 minutes 8 seconds 486 msec
