                         Program Version 6.0.0  -   RELEASE  -
|  1> ! r2SCAN-3c DEF2-TZVP FREQ
|  2> * xyzfile 0 1 censo.xyz
|  3>
|  4>                          ****END OF INPUT****

CARTESIAN COORDINATES (ANGSTROEM)
---------------------------------
  C      0.723280    0.554120   -0.241834
  C     -0.723084    0.554046    0.242070
  Cl    -1.820752    0.677206   -1.183854
  Cl    -1.132210   -0.885484    1.229257
  Cl     1.820955    0.676582    1.184138
  Cl     1.132321   -0.884982   -1.229674
  H      0.896496    1.440992   -0.855360
  H     -0.896254    1.440651    0.855998

 Total Charge           Charge          ....    0
 Multiplicity           Mult            ....    1
 Number of Electrons    NEL             ....   82
 Basis Dimension        Dim             ....  222

ORBITAL ENERGIES
----------------

  NO   OCC          E(Eh)            E(eV)
   0   2.0000    -101.212035     -2754.1195
   1   2.0000    -101.212031     -2754.1194
   2   2.0000    -101.207992     -2754.0095
   3   2.0000    -101.207989     -2754.0094
   4   2.0000     -10.191493      -277.3246
   5   2.0000     -10.191373      -277.3214
   6   2.0000      -9.388118      -255.4637
   7   2.0000      -9.388113      -255.4636
   8   2.0000      -9.384105      -255.3545
   9   2.0000      -9.384103      -255.3544
  10   2.0000      -7.133387      -194.1093
  11   2.0000      -7.133385      -194.1093
  12   2.0000      -7.129478      -194.0030
  13   2.0000      -7.129476      -194.0029
  14   2.0000      -7.122858      -193.8228
  15   2.0000      -7.122857      -193.8228
  16   2.0000      -7.122497      -193.8130
  17   2.0000      -7.122496      -193.8130
  18   2.0000      -7.118764      -193.7114
  19   2.0000      -7.118763      -193.7114
  20   2.0000      -7.118432      -193.7024
  21   2.0000      -7.118432      -193.7024
  22   2.0000      -0.911329       -24.7985
  23   2.0000      -0.851624       -23.1739
  24   2.0000      -0.804167       -21.8825
  25   2.0000      -0.796556       -21.6754
  26   2.0000      -0.696491       -18.9525
  27   2.0000      -0.591998       -16.1091
  28   2.0000      -0.501330       -13.6419
  29   2.0000      -0.475046       -12.9267
  30   2.0000      -0.459803       -12.5119
  31   2.0000      -0.418843       -11.3973
  32   2.0000      -0.413235       -11.2447
  33   2.0000      -0.330713        -8.9992
  34   2.0000      -0.320516        -8.7217
  35   2.0000      -0.313286        -8.5250
  36   2.0000      -0.310477        -8.4485
  37   2.0000      -0.296915        -8.0795
  38   2.0000      -0.296256        -8.0615
  39   2.0000      -0.292117        -7.9489
  40   2.0000      -0.288487        -7.8501
  41   0.0000      -0.064626        -1.7586
  42   0.0000      -0.059864        -1.6290
  43   0.0000      -0.017506        -0.4764
  44   0.0000      -0.004601        -0.1252
  45   0.0000       0.041212         1.1214

MULLIKEN ATOMIC CHARGES
-----------------------
   0 C :    0.037822
   1 C :    0.037821
   2 Cl:   -0.102103
   3 Cl:   -0.088897
   4 Cl:   -0.102101
   5 Cl:   -0.088897
   6 H :    0.153178
   7 H :    0.153179
Sum of atomic charges:   -0.0000000

LOEWDIN ATOMIC CHARGES
----------------------
   0 C :   -0.782078
   1 C :   -0.782072
   2 Cl:    0.317900
   3 Cl:    0.328223
   4 Cl:    0.317905
   5 Cl:    0.328225
   6 H :    0.135948
   7 H :    0.135949

  Mayer bond orders larger than 0.100000
B(  0-C ,  1-C ) :   0.9649 B(  0-C ,  4-Cl) :   1.0599 B(  0-C ,  5-Cl) :   1.0920
B(  0-C ,  6-H ) :   0.9409 B(  1-C ,  2-Cl) :   1.0599 B(  1-C ,  3-Cl) :   1.0920
B(  1-C ,  7-H ) :   0.9409

Dispersion correction           -0.003296918
FINAL SINGLE POINT ENERGY     -1918.120145533314

DIPOLE MOMENT
-------------

Method             : SCF
Type of density    : Electron Density
Multiplicity       :   1
Irrep              :   0
Energy             : -1918.1272053719733321 Eh
Relativity type    :
Basis              : AO
                                X                 Y                 Z
Electronic contribution:     -0.000066612      -2.581147162      -0.000586841
Nuclear contribution   :      0.000090946       3.292769773       0.000751685
                        -----------------------------------------
Total Dipole Moment    :      0.000024334       0.711622612       0.000164844
                        -----------------------------------------
Magnitude (a.u.)       :      0.711622631
Magnitude (Debye)      :      1.808800981

VIBRATIONAL FREQUENCIES
-----------------------

Scaling factor for frequencies =  1.000000000  (already applied!)

     0:       0.00 cm**-1
     1:       0.00 cm**-1
     2:       0.00 cm**-1
     3:       0.00 cm**-1
     4:       0.00 cm**-1
     5:       0.00 cm**-1
     6:      88.86 cm**-1
     7:     173.24 cm**-1
     8:     176.54 cm**-1
     9:     238.07 cm**-1
    10:     285.60 cm**-1
    11:     339.08 cm**-1
    12:     533.64 cm**-1
    13:     614.82 cm**-1
    14:     684.30 cm**-1
    15:     738.06 cm**-1
    16:     757.52 cm**-1
    17:    1012.91 cm**-1
    18:    1205.24 cm**-1
    19:    1221.15 cm**-1
    20:    1247.12 cm**-1
    21:    1288.01 cm**-1
    22:    3099.75 cm**-1
    23:    3106.75 cm**-1

IR SPECTRUM
-----------

 Mode   freq       eps      Int      T**2         TX        TY        TZ
       cm**-1   L/(mol*cm) km/mol    a.u.
----------------------------------------------------------------------------
  6:     88.86   0.000061    0.31  0.000213  ( 0.000000  0.014607  0.000004)
  7:    173.24   0.000171    0.87  0.000309  (-0.013567 -0.000003  0.011174)
  8:    176.54   0.000016    0.08  0.000029  (-0.000002  0.005348  0.000003)
  9:    238.07   0.000006    0.03  0.000007  (-0.000000 -0.002720 -0.000001)
 10:    285.60   0.000258    1.30  0.000282  ( 0.013069  0.000002 -0.010527)
 11:    339.08   0.000149    0.75  0.000137  ( 0.000000 -0.011706 -0.000002)
 12:    533.64   0.006688   33.80  0.003911  (-0.037364 -0.000014  0.050152)
 13:    614.82   0.009067   45.82  0.004602  (-0.000001  0.067841  0.000013)
 14:    684.30   0.034883  176.28  0.015908  ( 0.074875 -0.000026  0.101496)
 15:    738.06   0.006510   32.90  0.002752  (-0.000006 -0.052464 -0.000016)
 16:    757.52   0.008894   44.95  0.003664  (-0.014121 -0.000010  0.058860)
 17:   1012.91   0.002137   10.80  0.000658  ( 0.000001  0.025657  0.000006)
 18:   1205.24   0.002738   13.84  0.000709  ( 0.011216 -0.000008  0.024150)
 19:   1221.15   0.001585    8.01  0.000405  (-0.000002 -0.020123 -0.000008)
 20:   1247.12   0.000197    1.00  0.000049  ( 0.000001  0.007027  0.000001)
 21:   1288.01   0.003368   17.02  0.000816  (-0.017119 -0.000005  0.022870)
 22:   3099.75   0.000949    4.79  0.000096  ( 0.009250  0.000001 -0.003155)
 23:   3106.75   0.000000    0.00  0.000000  ( 0.000007 -0.000187 -0.000002)

--------------------------
THERMOCHEMISTRY AT 298.15K
--------------------------

Temperature         ...   298.15 K
Pressure            ...     1.00 atm
Total Mass          ...   167.85 AMU
Quasi RRHO          ...     True
Cut-Off Frequency   ...     1.00 cm^-1

Throughout the following assumptions are being made:
  (1) The electronic state is orbitally nondegenerate
  (2) There are no thermally accessible electronically excited states
  (3) Hindered rotations indicated by low frequency modes are not
      treated as such but are treated as vibrations and this may
      cause some error
  (4) All equations used are the standard statistical mechanics
      equations for an ideal gas
  (5) All vibrations are strictly harmonic

freq.      88.86  E(vib)   ...       0.47
freq.     173.24  E(vib)   ...       0.38
freq.     176.54  E(vib)   ...       0.38
freq.     238.07  E(vib)   ...       0.32
freq.     285.60  E(vib)   ...       0.28
freq.     339.08  E(vib)   ...       0.23
freq.     533.64  E(vib)   ...       0.13
freq.     614.82  E(vib)   ...       0.10
freq.     684.30  E(vib)   ...       0.07
freq.     738.06  E(vib)   ...       0.06
freq.     757.52  E(vib)   ...       0.06
freq.    1012.91  E(vib)   ...       0.02
freq.    1205.24  E(vib)   ...       0.01
freq.    1221.15  E(vib)   ...       0.01
freq.    1247.12  E(vib)   ...       0.01
freq.    1288.01  E(vib)   ...       0.01
freq.    3099.75  E(vib)   ...       0.00
freq.    3106.75  E(vib)   ...       0.00

------------
INNER ENERGY
------------

The inner energy is: U= E(el) + E(ZPE) + E(vib) + E(rot) + E(trans)
    E(el)   - is the total energy from the electronic structure calculation
              = E(kin-el) + E(nuc-el) + E(el-el) + E(nuc-nuc)
    E(ZPE)  - the the zero temperature vibrational energy from the frequency calculation
    E(vib)  - the the finite temperature correction to E(ZPE) due to population
              of excited vibrational states
    E(rot)  - is the rotational thermal energy
    E(trans)- is the translational thermal energy

Summary of contributions to the inner energy U:
Electronic energy                ...  -1918.12014553 Eh
Zero point energy                ...      0.03829748 Eh      24.03 kcal/mol
Thermal vibrational correction   ...      0.00402795 Eh       2.53 kcal/mol
Thermal rotational correction    ...      0.00141627 Eh       0.89 kcal/mol
Thermal translational correction ...      0.00141627 Eh       0.89 kcal/mol
-----------------------------------------------------------------------
Total thermal energy                  -1918.07498756 Eh

Summary of corrections to the electronic energy:
(perhaps to be used in another calculation)
Total thermal correction                  0.00686049 Eh       4.31 kcal/mol
Non-thermal (ZPE) correction              0.03829748 Eh      24.03 kcal/mol
-----------------------------------------------------------------------
Total correction                          0.04515797 Eh      28.34 kcal/mol

--------
ENTHALPY
--------

The enthalpy is H = U + kB*T
                kB is Boltzmann's constant
Total thermal energy              ...  -1918.07498756 Eh
Thermal Enthalpy correction       ...      0.00094421 Eh       0.59 kcal/mol
-----------------------------------------------------------------------
Total Enthalpy                    ...  -1918.07404335 Eh

Note: Rotational entropy computed according to Herzberg
Infrared and Raman Spectra, Chapter V,1, Van Nostrand Reinhold, 1945
Point Group:  C2, Symmetry Number:   2
Rotational constants in cm-1:     0.057517     0.036989     0.030670

Vibrational entropy computed according to the QRRHO of S. Grimme
Chem.Eur.J. 2012 18 9955 using a reference frequency of 100.0 cm-1

-------
ENTROPY
-------

The entropy contributions are T*S = T*(S(el)+S(vib)+S(rot)+S(trans))
     S(el)   - electronic entropy
     S(vib)  - vibrational entropy
     S(rot)  - rotational entropy
     S(trans)- translational entropy
The entropies will be listed as multiplied by the temperature to get
units of energy

Electronic entropy                ...      0.00000000 Eh      0.00 kcal/mol
Vibrational entropy               ...      0.00694246 Eh      4.36 kcal/mol
Rotational entropy                ...      0.01340602 Eh      8.41 kcal/mol
Translational entropy             ...      0.01960473 Eh     12.30 kcal/mol
-----------------------------------------------------------------------
Final entropy term                ...      0.03995320 Eh     25.07 kcal/mol

In case the symmetry of your molecule has not been determined correctly
or in case you have a reason to use a different symmetry number we print
out the resulting rotational entropy values for sn=1,12:

 non-linear molecules -----------------------------------
|  sn= 1 | S(rot)=       0.01406047 Eh      8.82 kcal/mol|
|  sn= 2 | S(rot)=       0.01340602 Eh      8.41 kcal/mol|
|  sn= 3 | S(rot)=       0.01302318 Eh      8.17 kcal/mol|
|  sn= 4 | S(rot)=       0.01275156 Eh      8.00 kcal/mol|
|  sn= 5 | S(rot)=       0.01254087 Eh      7.87 kcal/mol|
|  sn= 6 | S(rot)=       0.01236873 Eh      7.76 kcal/mol|
|  sn= 7 | S(rot)=       0.01222318 Eh      7.67 kcal/mol|
|  sn= 8 | S(rot)=       0.01209710 Eh      7.59 kcal/mol|
|  sn= 9 | S(rot)=       0.01198589 Eh      7.52 kcal/mol|
|  sn=10 | S(rot)=       0.01188641 Eh      7.46 kcal/mol|
|  sn=11 | S(rot)=       0.01179642 Eh      7.40 kcal/mol|
|  sn=12 | S(rot)=       0.01171427 Eh      7.35 kcal/mol|
 linear molecules ---------------------------------------
|  Dinfh | S(rot)=       0.00861576 Eh      5.41 kcal/mol|
|  Cinfv | S(rot)=       0.00927022 Eh      5.82 kcal/mol|
 --------------------------------------------------------

-------------------
GIBBS FREE ENERGY
-------------------

The Gibbs free energy is G = H - T*S

Total enthalpy                    ...  -1918.07404335 Eh
Total entropy correction          ...     -0.03995320 Eh    -25.07 kcal/mol
-----------------------------------------------------------------------
Final Gibbs free energy         ...  -1918.11399656 Eh

For completeness - the Gibbs free energy minus the electronic energy
G-E(el)                           ...      0.00614898 Eh      3.86 kcal/mol

                             ****ORCA TERMINATED NORMALLY****
TOTAL RUN TIME: 0 days 0 hours 3 minutes 12 seconds 825 msec
