                         Program Version 6.0.0  -   RELEASE  -
|  1> ! r2SCAN-3c DEF2-TZVP FREQ
|  2> * xyzfile 0 1 vacuum_censo.xyz
|  3>
|  4>                          ****END OF INPUT****

CARTESIAN COORDINATES (ANGSTROEM)
---------------------------------
  C      0.724263   -0.537261   -0.245319
  C     -0.724443   -0.536985    0.245435
  Cl    -1.134812    0.904035    1.211826
  Cl    -1.821099   -0.711686   -1.173566
  Cl     1.135102    0.903460   -1.211958
  Cl     1.820864   -0.712076    1.173713
  H      0.881996   -1.414036   -0.877398
  H     -0.882458   -1.413600    0.877664

 Total Charge           Charge          ....    0
 Multiplicity           Mult            ....    1
 Number of Electrons    NEL             ....   82
 Basis Dimension        Dim             ....  222

ORBITAL ENERGIES
----------------

  NO   OCC          E(Eh)            E(eV)
   0   2.0000    -101.211855     -2754.1146
   1   2.0000    -101.211851     -2754.1145
   2   2.0000    -101.208866     -2754.0333
   3   2.0000    -101.208864     -2754.0332
   4   2.0000     -10.190060      -277.2856
   5   2.0000     -10.189944      -277.2825
   6   2.0000      -9.387979      -255.4599
   7   2.0000      -9.387974      -255.4598
   8   2.0000      -9.385048      -255.3801
   9   2.0000      -9.385046      -255.3801
  10   2.0000      -7.133215      -194.1047
  11   2.0000      -7.133214      -194.1046
  12   2.0000      -7.130387      -194.0277
  13   2.0000      -7.130386      -194.0277
  14   2.0000      -7.122726      -193.8192
  15   2.0000      -7.122726      -193.8192
  16   2.0000      -7.122372      -193.8096
  17   2.0000      -7.122372      -193.8096
  18   2.0000      -7.119736      -193.7379
  19   2.0000      -7.119736      -193.7379
  20   2.0000      -7.119358      -193.7276
  21   2.0000      -7.119358      -193.7276
  22   2.0000      -0.912219       -24.8227
  23   2.0000      -0.852951       -23.2100
  24   2.0000      -0.805219       -21.9111
  25   2.0000      -0.798426       -21.7263
  26   2.0000      -0.694546       -18.8996
  27   2.0000      -0.591789       -16.1034
  28   2.0000      -0.500154       -13.6099
  29   2.0000      -0.475674       -12.9437
  30   2.0000      -0.460160       -12.5216
  31   2.0000      -0.419546       -11.4164
  32   2.0000      -0.414638       -11.2829
  33   2.0000      -0.331436        -9.0188
  34   2.0000      -0.320189        -8.7128
  35   2.0000      -0.312447        -8.5021
  36   2.0000      -0.311016        -8.4632
  37   2.0000      -0.296558        -8.0698
  38   2.0000      -0.296216        -8.0604
  39   2.0000      -0.293414        -7.9842
  40   2.0000      -0.289663        -7.8821
  41   0.0000      -0.061927        -1.6851
  42   0.0000      -0.059122        -1.6088
  43   0.0000      -0.012749        -0.3469
  44   0.0000      -0.004614        -0.1255
  45   0.0000       0.042580         1.1586

MULLIKEN ATOMIC CHARGES
-----------------------
   0 C :    0.038101
   1 C :    0.038102
   2 Cl:   -0.085763
   3 Cl:   -0.103848
   4 Cl:   -0.085763
   5 Cl:   -0.103849
   6 H :    0.151510
   7 H :    0.151509
Sum of atomic charges:   -0.0000000

LOEWDIN ATOMIC CHARGES
----------------------
   0 C :   -0.791925
   1 C :   -0.791927
   2 Cl:    0.338039
   3 Cl:    0.318512
   4 Cl:    0.338038
   5 Cl:    0.318510
   6 H :    0.135377
   7 H :    0.135377

  Mayer bond orders larger than 0.100000
B(  0-C ,  1-C ) :   0.9613 B(  0-C ,  4-Cl) :   1.0979 B(  0-C ,  5-Cl) :   1.0585
B(  0-C ,  6-H ) :   0.9426 B(  1-C ,  2-Cl) :   1.0979 B(  1-C ,  3-Cl) :   1.0585
B(  1-C ,  7-H ) :   0.9426

Dispersion correction           -0.003296793
FINAL SINGLE POINT ENERGY     -1918.120528261372

DIPOLE MOMENT
-------------

Method             : SCF
Type of density    : Electron Density
Multiplicity       :   1
Irrep              :   0
Energy             : -1918.1277221006498621 Eh
Relativity type    :
Basis              : AO
                                X                 Y                 Z
Electronic contribution:      0.000408878       2.535699879      -0.000218362
Nuclear contribution   :     -0.000521203      -3.212574837       0.000275292
                        -----------------------------------------
Total Dipole Moment    :     -0.000112325      -0.676874958       0.000056929
                        -----------------------------------------
Magnitude (a.u.)       :      0.676874970
Magnitude (Debye)      :      1.720479445

VIBRATIONAL FREQUENCIES
-----------------------

Scaling factor for frequencies =  1.000000000  (already applied!)

     0:       0.00 cm**-1
     1:       0.00 cm**-1
     2:       0.00 cm**-1
     3:       0.00 cm**-1
     4:       0.00 cm**-1
     5:       0.00 cm**-1
     6:      85.05 cm**-1
     7:     170.97 cm**-1
     8:     174.17 cm**-1
     9:     236.59 cm**-1
    10:     284.73 cm**-1
    11:     341.01 cm**-1
    12:     539.29 cm**-1
    13:     627.63 cm**-1
    14:     688.44 cm**-1
    15:     743.61 cm**-1
    16:     769.15 cm**-1
    17:    1008.03 cm**-1
    18:    1214.84 cm**-1
    19:    1229.79 cm**-1
    20:    1251.45 cm**-1
    21:    1293.33 cm**-1
    22:    3097.60 cm**-1
    23:    3104.00 cm**-1

IR SPECTRUM
-----------

 Mode   freq       eps      Int      T**2         TX        TY        TZ
       cm**-1   L/(mol*cm) km/mol    a.u.
----------------------------------------------------------------------------
  6:     85.05   0.000073    0.37  0.000267  ( 0.000002  0.016355 -0.000002)
  7:    170.97   0.000182    0.92  0.000331  (-0.013678  0.000002  0.012009)
  8:    174.17   0.000016    0.08  0.000029  ( 0.000001 -0.005369 -0.000002)
  9:    236.59   0.000012    0.06  0.000016  ( 0.000001  0.003976 -0.000000)
 10:    284.73   0.000276    1.40  0.000303  (-0.013085  0.000003  0.011469)
 11:    341.01   0.000154    0.78  0.000141  ( 0.000002  0.011888 -0.000001)
 12:    539.29   0.006054   30.59  0.003503  ( 0.036479 -0.000008 -0.046609)
 13:    627.63   0.008789   44.41  0.004370  ( 0.000010  0.066104 -0.000004)
 14:    688.44   0.033269  168.13  0.015081  (-0.075589  0.000005 -0.096783)
 15:    743.61   0.007712   38.98  0.003237  (-0.000011 -0.056891  0.000004)
 16:    769.15   0.011008   55.63  0.004466  ( 0.010324 -0.000007 -0.066027)
 17:   1008.03   0.002431   12.29  0.000753  (-0.000004 -0.027434  0.000002)
 18:   1214.84   0.002727   13.78  0.000700  ( 0.011854  0.000000  0.023662)
 19:   1229.79   0.001431    7.23  0.000363  (-0.000003 -0.019053  0.000002)
 20:   1251.45   0.000449    2.27  0.000112  (-0.000002 -0.010577  0.000001)
 21:   1293.33   0.003312   16.74  0.000799  (-0.015862  0.000005  0.023398)
 22:   3097.60   0.000922    4.66  0.000093  (-0.009142  0.000002  0.003056)
 23:   3104.00   0.000004    0.02  0.000000  ( 0.000001  0.000628 -0.000000)

--------------------------
THERMOCHEMISTRY AT 298.15K
--------------------------

Temperature         ...   298.15 K
Pressure            ...     1.00 atm
Total Mass          ...   167.85 AMU
Quasi RRHO          ...     True
Cut-Off Frequency   ...     1.00 cm^-1

Throughout the following assumptions are being made:
  (1) The electronic state is orbitally nondegenerate
  (2) There are no thermally accessible electronically excited states
  (3) Hindered rotations indicated by low frequency modes are not
      treated as such but are treated as vibrations and this may
      cause some error
  (4) All equations used are the standard statistical mechanics
      equations for an ideal gas
  (5) All vibrations are strictly harmonic

freq.      85.05  E(vib)   ...       0.48
freq.     170.97  E(vib)   ...       0.38
freq.     174.17  E(vib)   ...       0.38
freq.     236.59  E(vib)   ...       0.32
freq.     284.73  E(vib)   ...       0.28
freq.     341.01  E(vib)   ...       0.23
freq.     539.29  E(vib)   ...       0.12
freq.     627.63  E(vib)   ...       0.09
freq.     688.44  E(vib)   ...       0.07
freq.     743.61  E(vib)   ...       0.06
freq.     769.15  E(vib)   ...       0.06
freq.    1008.03  E(vib)   ...       0.02
freq.    1214.84  E(vib)   ...       0.01
freq.    1229.79  E(vib)   ...       0.01
freq.    1251.45  E(vib)   ...       0.01
freq.    1293.33  E(vib)   ...       0.01
freq.    3097.60  E(vib)   ...       0.00
freq.    3104.00  E(vib)   ...       0.00

------------
INNER ENERGY
------------

The inner energy is: U= E(el) + E(ZPE) + E(vib) + E(rot) + E(trans)
    E(el)   - is the total energy from the electronic structure calculation
              = E(kin-el) + E(nuc-el) + E(el-el) + E(nuc-nuc)
    E(ZPE)  - the the zero temperature vibrational energy from the frequency calculation
    E(vib)  - the the finite temperature correction to E(ZPE) due to population
              of excited vibrational states
    E(rot)  - is the rotational thermal energy
    E(trans)- is the translational thermal energy

Summary of contributions to the inner energy U:
Electronic energy                ...  -1918.12052826 Eh
Zero point energy                ...      0.03840918 Eh      24.10 kcal/mol
Thermal vibrational correction   ...      0.00402534 Eh       2.53 kcal/mol
Thermal rotational correction    ...      0.00141627 Eh       0.89 kcal/mol
Thermal translational correction ...      0.00141627 Eh       0.89 kcal/mol
-----------------------------------------------------------------------
Total thermal energy                  -1918.07526120 Eh

Summary of corrections to the electronic energy:
(perhaps to be used in another calculation)
Total thermal correction                  0.00685788 Eh       4.30 kcal/mol
Non-thermal (ZPE) correction              0.03840918 Eh      24.10 kcal/mol
-----------------------------------------------------------------------
Total correction                          0.04526706 Eh      28.41 kcal/mol

--------
ENTHALPY
--------

The enthalpy is H = U + kB*T
                kB is Boltzmann's constant
Total thermal energy              ...  -1918.07526120 Eh
Thermal Enthalpy correction       ...      0.00094421 Eh       0.59 kcal/mol
-----------------------------------------------------------------------
Total Enthalpy                    ...  -1918.07431699 Eh

Note: Rotational entropy computed according to Herzberg
Infrared and Raman Spectra, Chapter V,1, Van Nostrand Reinhold, 1945
Point Group:  C2, Symmetry Number:   2
Rotational constants in cm-1:     0.057294     0.036586     0.030907

Vibrational entropy computed according to the QRRHO of S. Grimme
Chem.Eur.J. 2012 18 9955 using a reference frequency of 100.0 cm-1

-------
ENTROPY
-------

The entropy contributions are T*S = T*(S(el)+S(vib)+S(rot)+S(trans))
     S(el)   - electronic entropy
     S(vib)  - vibrational entropy
     S(rot)  - rotational entropy
     S(trans)- translational entropy
The entropies will be listed as multiplied by the temperature to get
units of energy

Electronic entropy                ...      0.00000000 Eh      0.00 kcal/mol
Vibrational entropy               ...      0.00695496 Eh      4.36 kcal/mol
Rotational entropy                ...      0.01340939 Eh      8.41 kcal/mol
Translational entropy             ...      0.01960473 Eh     12.30 kcal/mol
-----------------------------------------------------------------------
Final entropy term                ...      0.03996909 Eh     25.08 kcal/mol

In case the symmetry of your molecule has not been determined correctly
or in case you have a reason to use a different symmetry number we print
out the resulting rotational entropy values for sn=1,12:

 non-linear molecules -----------------------------------
|  sn= 1 | S(rot)=       0.01406385 Eh      8.83 kcal/mol|
|  sn= 2 | S(rot)=       0.01340939 Eh      8.41 kcal/mol|
|  sn= 3 | S(rot)=       0.01302656 Eh      8.17 kcal/mol|
|  sn= 4 | S(rot)=       0.01275494 Eh      8.00 kcal/mol|
|  sn= 5 | S(rot)=       0.01254425 Eh      7.87 kcal/mol|
|  sn= 6 | S(rot)=       0.01237211 Eh      7.76 kcal/mol|
|  sn= 7 | S(rot)=       0.01222656 Eh      7.67 kcal/mol|
|  sn= 8 | S(rot)=       0.01210048 Eh      7.59 kcal/mol|
|  sn= 9 | S(rot)=       0.01198927 Eh      7.52 kcal/mol|
|  sn=10 | S(rot)=       0.01188979 Eh      7.46 kcal/mol|
|  sn=11 | S(rot)=       0.01179980 Eh      7.40 kcal/mol|
|  sn=12 | S(rot)=       0.01171765 Eh      7.35 kcal/mol|
 linear molecules ---------------------------------------
|  Dinfh | S(rot)=       0.00860852 Eh      5.40 kcal/mol|
|  Cinfv | S(rot)=       0.00926297 Eh      5.81 kcal/mol|
 --------------------------------------------------------

-------------------
GIBBS FREE ENERGY
-------------------

The Gibbs free energy is G = H - T*S

Total enthalpy                    ...  -1918.07431699 Eh
Total entropy correction          ...     -0.03996909 Eh    -25.08 kcal/mol
-----------------------------------------------------------------------
Final Gibbs free energy         ...  -1918.11428608 Eh

For completeness - the Gibbs free energy minus the electronic energy
G-E(el)                           ...      0.00624218 Eh      3.92 kcal/mol

                             ****ORCA TERMINATED NORMALLY****
TOTAL RUN TIME: 0 days 0 hours 3 minutes 15 seconds 26 msec
