                         Program Version 6.0.1  -  RELEASE   -
|  1> ! pbe def2-sv(p) def2/J RI DEFGRID1 loosescf d4 GCP(DFT/SV(P)) printgap
|  2> %output
|  3>     printlevel normal
|  4> end
|  5> * xyz 0 1
|  6> C 2.4905820081 1.1842277503 -0.0028897797
|  7> C 1.718018373 -0.1091434918 0.000170688
|  8> O 2.2661181863 -1.1863558342 0.0026672528
|  9> C 0.227946697 -0.0055150245 0.0001585607
| 10> C -0.4680973004 1.2019071707 0.0016092345
| 11> C -1.8542296251 1.162577505 0.0014932113
| 12> N -2.55580939 0.0429225322 -0.0002312811
| 13> C -1.8986564134 -1.1042580131 -0.0015714429
| 14> C -0.5163348882 -1.1856015179 -0.0013458105
| 15> H 3.5554490013 0.9664353847 -0.0042592891
| 16> H 2.2434454894 1.7689776518 0.8808527027
| 17> H 2.2403779962 1.7667877166 -0.8871593006
| 18> H 0.0410646691 2.1520550516 0.0028913821
| 19> H -2.4349726533 2.0759520132 0.0020788712
| 20> H -2.512644414 -1.9950849393 -0.0029147102
| 21> H -0.0029588599 -2.1346071328 -0.0023089517
| 22> *
| 23>
| 24>                          ****END OF INPUT****

CARTESIAN COORDINATES (ANGSTROEM)
---------------------------------
  C      2.490582    1.184228   -0.002890
  C      1.718018   -0.109143    0.000171
  O      2.266118   -1.186356    0.002667
  C      0.227947   -0.005515    0.000159
  C     -0.468097    1.201907    0.001609
  C     -1.854230    1.162578    0.001493
  N     -2.555809    0.042923   -0.000231
  C     -1.898656   -1.104258   -0.001571
  C     -0.516335   -1.185602   -0.001346
  H      3.555449    0.966435   -0.004259
  H      2.243445    1.768978    0.880853
  H      2.240378    1.766788   -0.887159
  H      0.041065    2.152055    0.002891
  H     -2.434973    2.075952    0.002079
  H     -2.512644   -1.995085   -0.002915
  H     -0.002959   -2.134607   -0.002309

 Total Charge           Charge          ....    0
 Multiplicity           Mult            ....    1
 Number of Electrons    NEL             ....   64
 Basis Dimension        Dim             ....  140

ORBITAL ENERGIES
----------------

  NO   OCC          E(Eh)            E(eV)
   0   2.0000     -18.755959      -510.3756
   1   2.0000     -13.995185      -380.8283
   2   2.0000      -9.989469      -271.8273
   3   2.0000      -9.935698      -270.3641
   4   2.0000      -9.933072      -270.2926
   5   2.0000      -9.926770      -270.1211
   6   2.0000      -9.920006      -269.9371
   7   2.0000      -9.911849      -269.7151
   8   2.0000      -9.898743      -269.3585
   9   2.0000      -0.956187       -26.0192
  10   2.0000      -0.872425       -23.7399
  11   2.0000      -0.749975       -20.4079
  12   2.0000      -0.700003       -19.0480
  13   2.0000      -0.679984       -18.5033
  14   2.0000      -0.593302       -16.1446
  15   2.0000      -0.579846       -15.7784
  16   2.0000      -0.515422       -14.0253
  17   2.0000      -0.460912       -12.5420
  18   2.0000      -0.450682       -12.2637
  19   2.0000      -0.422647       -11.5008
  20   2.0000      -0.417695       -11.3661
  21   2.0000      -0.401817       -10.9340
  22   2.0000      -0.394406       -10.7323
  23   2.0000      -0.382219       -10.4007
  24   2.0000      -0.375180       -10.2092
  25   2.0000      -0.350265        -9.5312
  26   2.0000      -0.338329        -9.2064
  27   2.0000      -0.328072        -8.9273
  28   2.0000      -0.273737        -7.4488
  29   2.0000      -0.254236        -6.9181
  30   2.0000      -0.219941        -5.9849
  31   2.0000      -0.212413        -5.7800
  32   0.0000      -0.107253        -2.9185
  33   0.0000      -0.057865        -1.5746
  34   0.0000      -0.014427        -0.3926
  35   0.0000       0.034772         0.9462
  36   0.0000       0.066498         1.8095

MULLIKEN ATOMIC CHARGES
-----------------------
   0 C :   -0.252332
   1 C :   -0.003477
   2 O :   -0.137791
   3 C :    0.094658
   4 C :   -0.128976
   5 C :   -0.042552
   6 N :   -0.048080
   7 C :   -0.041996
   8 C :   -0.110341
   9 H :    0.123110
  10 H :    0.131077
  11 H :    0.131004
  12 H :    0.060690
  13 H :    0.072168
  14 H :    0.076200
  15 H :    0.076638
Sum of atomic charges:   -0.0000000

LOEWDIN ATOMIC CHARGES
----------------------
   0 C :   -0.362169
   1 C :    0.047645
   2 O :   -0.108688
   3 C :   -0.059966
   4 C :   -0.127976
   5 C :   -0.077044
   6 N :   -0.062402
   7 C :   -0.075980
   8 C :   -0.104107
   9 H :    0.138644
  10 H :    0.143951
  11 H :    0.143883
  12 H :    0.130220
  13 H :    0.117281
  14 H :    0.118395
  15 H :    0.138315

  Mayer bond orders larger than 0.100000
B(  0-C ,  1-C ) :   1.1249 B(  0-C ,  9-H ) :   0.9296 B(  0-C , 10-H ) :   0.9155
B(  0-C , 11-H ) :   0.9158 B(  1-C ,  2-O ) :   2.1912 B(  1-C ,  3-C ) :   0.9103
B(  3-C ,  4-C ) :   1.3848 B(  3-C ,  8-C ) :   1.4033 B(  4-C ,  5-C ) :   1.3673
B(  4-C , 12-H ) :   0.9306 B(  5-C ,  6-N ) :   1.5584 B(  5-C , 13-H ) :   0.9505
B(  6-N ,  7-C ) :   1.5317 B(  7-C ,  8-C ) :   1.3578 B(  7-C , 14-H ) :   0.9539
B(  8-C , 15-H ) :   0.9373

Dispersion correction           -0.016446394
FINAL SINGLE POINT ENERGY      -400.084553509095

DIPOLE MOMENT
-------------

Method             : SCF
Type of density    : Electron Density
Multiplicity       :   1
Irrep              :   0
Energy             :  -400.1300178514017034 Eh
Relativity type    :
Basis              : AO
                                X                 Y                 Z
Electronic contribution:     -2.721150230      -3.476740501       0.008309392
Nuclear contribution   :      2.955782482       4.298734842      -0.010112114
                        -----------------------------------------
Total Dipole Moment    :      0.234632252       0.821994341      -0.001802723
                        -----------------------------------------
Magnitude (a.u.)       :      0.854827608
Magnitude (Debye)      :      2.172799105

Rotational constants in cm-1:             0.128605             0.040971             0.031253
Rotational constants in MHz :          3855.477287          1228.269298           936.953562

                             ****ORCA TERMINATED NORMALLY****
TOTAL RUN TIME: 0 days 0 hours 0 minutes 5 seconds 705 msec
