                         Program Version 6.0.1  -  RELEASE   -
|  1> ! pbe def2-sv(p) def2/J RI DEFGRID1 loosescf d4 GCP(DFT/SV(P)) printgap
|  2> %output
|  3>     printlevel normal
|  4> end
|  5> * xyz 0 1
|  6> C 2.7220802394 0.1529131336 0.704210025
|  7> C 1.9362523795 -0.138972313 -0.5757495457
|  8> C 0.4644101088 -0.0696139278 -0.3094753121
|  9> C -0.2190150895 1.1445346138 -0.2201914616
| 10> N -1.5099699687 1.206265171 0.0530314237
| 11> C -2.1442411866 0.0572467909 0.2402152558
| 12> C -1.4768266951 -1.1551635449 0.1467747666
| 13> N -0.1825004894 -1.2149322761 -0.1245620215
| 14> H 3.7901812416 0.0986042535 0.5093306963
| 15> H 2.4713500776 -0.5752955621 1.4717977383
| 16> H 2.4873073615 1.1463673398 1.0805169121
| 17> H 2.1778472056 -1.1405472218 -0.9323084032
| 18> H 2.204748242 0.5895782476 -1.3434669324
| 19> H 0.2824003839 2.0907152341 -0.376376067
| 20> H -3.1997297697 0.1213547447 0.4644992707
| 21> H -1.9792603836 -2.1024209308 0.2894746581
| 22> *
| 23>
| 24>                          ****END OF INPUT****

CARTESIAN COORDINATES (ANGSTROEM)
---------------------------------
  C      2.722080    0.152913    0.704210
  C      1.936252   -0.138972   -0.575750
  C      0.464410   -0.069614   -0.309475
  C     -0.219015    1.144535   -0.220191
  N     -1.509970    1.206265    0.053031
  C     -2.144241    0.057247    0.240215
  C     -1.476827   -1.155164    0.146775
  N     -0.182500   -1.214932   -0.124562
  H      3.790181    0.098604    0.509331
  H      2.471350   -0.575296    1.471798
  H      2.487307    1.146367    1.080517
  H      2.177847   -1.140547   -0.932308
  H      2.204748    0.589578   -1.343467
  H      0.282400    2.090715   -0.376376
  H     -3.199730    0.121355    0.464499
  H     -1.979260   -2.102421    0.289475

 Total Charge           Charge          ....    0
 Multiplicity           Mult            ....    1
 Number of Electrons    NEL             ....   58
 Basis Dimension        Dim             ....  128

ORBITAL ENERGIES
----------------

  NO   OCC          E(Eh)            E(eV)
   0   2.0000     -14.000045      -380.9606
   1   2.0000     -13.999425      -380.9437
   2   2.0000      -9.942521      -270.5498
   3   2.0000      -9.931832      -270.2589
   4   2.0000      -9.931369      -270.2463
   5   2.0000      -9.929423      -270.1933
   6   2.0000      -9.897424      -269.3226
   7   2.0000      -9.887731      -269.0588
   8   2.0000      -0.899330       -24.4720
   9   2.0000      -0.824688       -22.4409
  10   2.0000      -0.731226       -19.8977
  11   2.0000      -0.675413       -18.3789
  12   2.0000      -0.600478       -16.3398
  13   2.0000      -0.592152       -16.1133
  14   2.0000      -0.542944       -14.7742
  15   2.0000      -0.477380       -12.9902
  16   2.0000      -0.465750       -12.6737
  17   2.0000      -0.429217       -11.6796
  18   2.0000      -0.403513       -10.9801
  19   2.0000      -0.395796       -10.7702
  20   2.0000      -0.387141       -10.5346
  21   2.0000      -0.361201        -9.8288
  22   2.0000      -0.340800        -9.2737
  23   2.0000      -0.319054        -8.6819
  24   2.0000      -0.312561        -8.5052
  25   2.0000      -0.298759        -8.1296
  26   2.0000      -0.250510        -6.8167
  27   2.0000      -0.245220        -6.6728
  28   2.0000      -0.198157        -5.3921
  29   0.0000      -0.076902        -2.0926
  30   0.0000      -0.056537        -1.5385
  31   0.0000       0.043454         1.1825
  32   0.0000       0.068451         1.8626
  33   0.0000       0.075516         2.0549

MULLIKEN ATOMIC CHARGES
-----------------------
   0 C :   -0.292053
   1 C :   -0.088937
   2 C :   -0.081156
   3 C :   -0.075449
   4 N :   -0.037369
   5 C :   -0.061740
   6 C :   -0.049056
   7 N :   -0.049396
   8 H :    0.113584
   9 H :    0.113897
  10 H :    0.105656
  11 H :    0.094814
  12 H :    0.092715
  13 H :    0.062597
  14 H :    0.076517
  15 H :    0.075375
Sum of atomic charges:   -0.0000000

LOEWDIN ATOMIC CHARGES
----------------------
   0 C :   -0.331421
   1 C :   -0.226901
   2 C :   -0.022300
   3 C :   -0.095376
   4 N :   -0.049344
   5 C :   -0.104235
   6 C :   -0.095471
   7 N :   -0.054484
   8 H :    0.123007
   9 H :    0.124585
  10 H :    0.118925
  11 H :    0.130325
  12 H :    0.126244
  13 H :    0.117520
  14 H :    0.119456
  15 H :    0.119471

  Mayer bond orders larger than 0.100000
B(  0-C ,  1-C ) :   1.1440 B(  0-C ,  8-H ) :   0.9504 B(  0-C ,  9-H ) :   0.9507
B(  0-C , 10-H ) :   0.9563 B(  1-C ,  2-C ) :   1.0594 B(  1-C , 11-H ) :   0.9014
B(  1-C , 12-H ) :   0.9089 B(  2-C ,  3-C ) :   1.3273 B(  2-C ,  5-C ) :   0.1029
B(  2-C ,  7-N ) :   1.5569 B(  3-C ,  4-N ) :   1.5708 B(  3-C , 13-H ) :   0.9484
B(  4-N ,  5-C ) :   1.5363 B(  5-C ,  6-C ) :   1.3626 B(  5-C , 14-H ) :   0.9473
B(  6-C ,  7-N ) :   1.5294 B(  6-C , 15-H ) :   0.9456

Dispersion correction           -0.015151969
FINAL SINGLE POINT ENERGY      -342.198834676568

DIPOLE MOMENT
-------------

Method             : SCF
Type of density    : Electron Density
Multiplicity       :   1
Irrep              :   0
Energy             :  -342.2469601912767985 Eh
Relativity type    :
Basis              : AO
                                X                 Y                 Z
Electronic contribution:     -7.457166049      -0.252163564      -1.086417730
Nuclear contribution   :      7.716394976       0.214189179       1.091137630
                        -----------------------------------------
Total Dipole Moment    :      0.259228927      -0.037974385       0.004719900
                        -----------------------------------------
Magnitude (a.u.)       :      0.262038104
Magnitude (Debye)      :      0.666047929

Rotational constants in cm-1:             0.160129             0.052424             0.043497
Rotational constants in MHz :          4800.535240          1571.639586          1304.019664

                             ****ORCA TERMINATED NORMALLY****
TOTAL RUN TIME: 0 days 0 hours 0 minutes 4 seconds 786 msec
