                         Program Version 6.0.1  -  RELEASE   -
|  1> ! pbe def2-sv(p) def2/J RI DEFGRID1 loosescf d4 GCP(DFT/SV(P)) printgap
|  2> %output
|  3>     printlevel normal
|  4> end
|  5> * xyz 0 1
|  6> C -2.1040763665 -1.2209978325 -0.1681711483
|  7> C -1.243263095 -0.3523576831 0.7714576533
|  8> H -1.8184823785 -0.1598347197 1.6823180423
|  9> C -0.9153601578 1.0065055346 0.1298563459
| 10> H -1.1728028648 0.9797715275 -0.9410126387
| 11> C 0.5868649993 1.2868884136 0.2413049184
| 12> H 0.8526059283 1.386414673 1.30927223
| 13> C 1.362922404 0.1121560098 -0.3629483975
| 14> H 1.0834506564 -0.0087945741 -1.4150845799
| 15> C 1.0065147249 -1.1777229135 0.4019538699
| 16> H 1.8390540961 -1.4417721532 1.076196365
| 17> O -0.0857094496 -1.0325483967 1.2596707919
| 18> O 0.8166706445 -2.2036452267 -0.53608025
| 19> O 2.7411803099 0.380901055 -0.3770957434
| 20> O 0.8795506386 2.485164503 -0.4340242842
| 21> O -1.6662829698 1.9957436138 0.7840642247
| 22> O -1.6333743008 -1.2885086918 -1.4845956407
| 23> H -3.0964738094 -0.7694451035 -0.2259653546
| 24> H -2.1955897336 -2.2233154896 0.2745873422
| 25> H 0.6363619419 -3.0307894768 -0.0710033042
| 26> H 3.0648202224 0.4547532407 0.529785886
| 27> H 1.7849070211 2.4217890823 -0.7671652603
| 28> H -1.360696401 2.8505359125 0.4547140061
| 29> H -0.7489995833 -1.6929323018 -1.4741447637
| 30> *
| 31>
| 32>                          ****END OF INPUT****

CARTESIAN COORDINATES (ANGSTROEM)
---------------------------------
  C     -2.104076   -1.220998   -0.168171
  C     -1.243263   -0.352358    0.771458
  H     -1.818482   -0.159835    1.682318
  C     -0.915360    1.006506    0.129856
  H     -1.172803    0.979772   -0.941013
  C      0.586865    1.286888    0.241305
  H      0.852606    1.386415    1.309272
  C      1.362922    0.112156   -0.362948
  H      1.083451   -0.008795   -1.415085
  C      1.006515   -1.177723    0.401954
  H      1.839054   -1.441772    1.076196
  O     -0.085709   -1.032548    1.259671
  O      0.816671   -2.203645   -0.536080
  O      2.741180    0.380901   -0.377096
  O      0.879551    2.485165   -0.434024
  O     -1.666283    1.995744    0.784064
  O     -1.633374   -1.288509   -1.484596
  H     -3.096474   -0.769445   -0.225965
  H     -2.195590   -2.223315    0.274587
  H      0.636362   -3.030789   -0.071003
  H      3.064820    0.454753    0.529786
  H      1.784907    2.421789   -0.767165
  H     -1.360696    2.850536    0.454714
  H     -0.749000   -1.692932   -1.474145

 Total Charge           Charge          ....    0
 Multiplicity           Mult            ....    1
 Number of Electrons    NEL             ....   96
 Basis Dimension        Dim             ....  192

ORBITAL ENERGIES
----------------

  NO   OCC          E(Eh)            E(eV)
   0   2.0000     -18.792417      -511.3677
   1   2.0000     -18.779627      -511.0196
   2   2.0000     -18.776869      -510.9446
   3   2.0000     -18.755531      -510.3640
   4   2.0000     -18.744579      -510.0659
   5   2.0000     -18.737092      -509.8622
   6   2.0000     -10.005419      -272.2613
   7   2.0000      -9.956068      -270.9184
   8   2.0000      -9.944107      -270.5929
   9   2.0000      -9.943416      -270.5741
  10   2.0000      -9.937068      -270.4014
  11   2.0000      -9.928793      -270.1762
  12   2.0000      -0.999774       -27.2052
  13   2.0000      -0.960460       -26.1355
  14   2.0000      -0.939874       -25.5753
  15   2.0000      -0.930158       -25.3109
  16   2.0000      -0.916398       -24.9365
  17   2.0000      -0.914616       -24.8880
  18   2.0000      -0.706971       -19.2377
  19   2.0000      -0.701102       -19.0779
  20   2.0000      -0.625392       -17.0178
  21   2.0000      -0.592116       -16.1123
  22   2.0000      -0.575710       -15.6659
  23   2.0000      -0.535790       -14.5796
  24   2.0000      -0.511086       -13.9074
  25   2.0000      -0.497821       -13.5464
  26   2.0000      -0.469415       -12.7734
  27   2.0000      -0.465671       -12.6716
  28   2.0000      -0.445887       -12.1332
  29   2.0000      -0.431715       -11.7476
  30   2.0000      -0.428514       -11.6605
  31   2.0000      -0.411586       -11.1998
  32   2.0000      -0.397030       -10.8037
  33   2.0000      -0.371012       -10.0958
  34   2.0000      -0.364427        -9.9166
  35   2.0000      -0.349558        -9.5120
  36   2.0000      -0.339747        -9.2450
  37   2.0000      -0.326665        -8.8890
  38   2.0000      -0.307729        -8.3737
  39   2.0000      -0.303018        -8.2455
  40   2.0000      -0.291285        -7.9263
  41   2.0000      -0.278709        -7.5841
  42   2.0000      -0.260570        -7.0905
  43   2.0000      -0.256303        -6.9744
  44   2.0000      -0.245399        -6.6776
  45   2.0000      -0.224028        -6.0961
  46   2.0000      -0.213505        -5.8098
  47   2.0000      -0.204503        -5.5648
  48   0.0000       0.008337         0.2269
  49   0.0000       0.009906         0.2696
  50   0.0000       0.033336         0.9071
  51   0.0000       0.056121         1.5271
  52   0.0000       0.058398         1.5891

MULLIKEN ATOMIC CHARGES
-----------------------
   0 C :    0.022135
   1 C :    0.037603
   2 H :    0.084087
   3 C :    0.060512
   4 H :    0.076100
   5 C :    0.044370
   6 H :    0.044276
   7 C :   -0.013644
   8 H :    0.085140
   9 C :    0.206100
  10 H :    0.057040
  11 O :   -0.304858
  12 O :   -0.400393
  13 O :   -0.410287
  14 O :   -0.421009
  15 O :   -0.415887
  16 O :   -0.441962
  17 H :    0.097512
  18 H :    0.067834
  19 H :    0.312289
  20 H :    0.302827
  21 H :    0.302681
  22 H :    0.308126
  23 H :    0.299409
Sum of atomic charges:    0.0000000

LOEWDIN ATOMIC CHARGES
----------------------
   0 C :   -0.135874
   1 C :   -0.065922
   2 H :    0.129542
   3 C :   -0.071095
   4 H :    0.110289
   5 C :   -0.086456
   6 H :    0.098270
   7 C :   -0.092604
   8 H :    0.126768
   9 C :   -0.007100
  10 H :    0.100369
  11 O :   -0.141622
  12 O :   -0.298820
  13 O :   -0.302244
  14 O :   -0.326501
  15 O :   -0.318986
  16 O :   -0.344430
  17 H :    0.122576
  18 H :    0.094422
  19 H :    0.291122
  20 H :    0.285554
  21 H :    0.282353
  22 H :    0.287960
  23 H :    0.262429

  Mayer bond orders larger than 0.100000
B(  0-C ,  1-C ) :   1.0411 B(  0-C , 16-O ) :   1.0985 B(  0-C , 17-H ) :   0.9188
B(  0-C , 18-H ) :   0.9106 B(  1-C ,  2-H ) :   0.8761 B(  1-C ,  3-C ) :   0.9916
B(  1-C , 11-O ) :   0.9875 B(  3-C ,  4-H ) :   0.8739 B(  3-C ,  5-C ) :   1.0264
B(  3-C , 15-O ) :   1.0734 B(  5-C ,  6-H ) :   0.8601 B(  5-C ,  7-C ) :   1.0174
B(  5-C , 14-O ) :   1.0961 B(  7-C ,  8-H ) :   0.8671 B(  7-C ,  9-C ) :   0.9829
B(  7-C , 13-O ) :   1.0126 B(  9-C , 10-H ) :   0.8891 B(  9-C , 11-O ) :   1.1058
B(  9-C , 12-O ) :   1.0614 B( 12-O , 19-H ) :   0.8318 B( 12-O , 23-H ) :   0.1177
B( 13-O , 20-H ) :   0.8454 B( 14-O , 21-H ) :   0.8250 B( 15-O , 22-H ) :   0.8407
B( 16-O , 23-H ) :   0.7901

Dispersion correction           -0.025236053
FINAL SINGLE POINT ENERGY      -685.698868833428

DIPOLE MOMENT
-------------

Method             : SCF
Type of density    : Electron Density
Multiplicity       :   1
Irrep              :   0
Energy             :  -685.8323561803107395 Eh
Relativity type    :
Basis              : AO
                                X                 Y                 Z
Electronic contribution:      2.031187031       0.623711456       0.306994324
Nuclear contribution   :     -1.046277706      -1.152350775       0.394081950
                        -----------------------------------------
Total Dipole Moment    :      0.984909325      -0.528639319       0.701076275
                        -----------------------------------------
Magnitude (a.u.)       :      1.319474839
Magnitude (Debye)      :      3.353838506

Rotational constants in cm-1:             0.036434             0.032262             0.021380
Rotational constants in MHz :          1092.265955           967.189568           640.954027

                             ****ORCA TERMINATED NORMALLY****
TOTAL RUN TIME: 0 days 0 hours 0 minutes 10 seconds 337 msec
