                         Program Version 6.0.1  -  RELEASE   -
|  1> ! pbe def2-sv(p) def2/J RI DEFGRID1 loosescf d4 GCP(DFT/SV(P)) printgap
|  2> %output
|  3>     printlevel normal
|  4> end
|  5> * xyz 0 1
|  6> C 2.3663975427 -0.6158282014 0.1331687192
|  7> C 0.9312279771 -0.2217757321 0.4473066103
|  8> H 0.6989297214 -0.5081106069 1.4867698301
|  9> C 0.6393305847 1.2795639758 0.243281622
| 10> C -0.7316938072 1.3123627299 -0.4468942886
| 11> C -1.1427236406 -0.1712380604 -0.5351358655
| 12> H -1.57027369 -0.4234160806 -1.5116100293
| 13> O 0.0586111609 -0.9083735454 -0.4325888846
| 14> C -2.142980354 -0.552763662 0.559305313
| 15> H 3.0496593703 -0.0954681392 0.7992401923
| 16> H 2.4895533011 -1.6877255067 0.2607708979
| 17> H 2.6016086176 -0.3616501201 -0.8971053245
| 18> H 0.6343707887 1.8097297543 1.1938939613
| 19> H 1.4048290292 1.7239301777 -0.3918358657
| 20> H -1.4644598976 1.8851351376 0.1183631815
| 21> H -0.6534213912 1.7444622591 -1.4434499343
| 22> H -2.3005452012 -1.6283663195 0.5518606346
| 23> H -3.0931613467 -0.055225471 0.3830203088
| 24> H -1.768870415 -0.26196601 1.5379538838
| 25> *
| 26>
| 27>                          ****END OF INPUT****

CARTESIAN COORDINATES (ANGSTROEM)
---------------------------------
  C      2.366398   -0.615828    0.133169
  C      0.931228   -0.221776    0.447307
  H      0.698930   -0.508111    1.486770
  C      0.639331    1.279564    0.243282
  C     -0.731694    1.312363   -0.446894
  C     -1.142724   -0.171238   -0.535136
  H     -1.570274   -0.423416   -1.511610
  O      0.058611   -0.908374   -0.432589
  C     -2.142980   -0.552764    0.559305
  H      3.049659   -0.095468    0.799240
  H      2.489553   -1.687726    0.260771
  H      2.601609   -0.361650   -0.897105
  H      0.634371    1.809730    1.193894
  H      1.404829    1.723930   -0.391836
  H     -1.464460    1.885135    0.118363
  H     -0.653421    1.744462   -1.443450
  H     -2.300545   -1.628366    0.551861
  H     -3.093161   -0.055225    0.383020
  H     -1.768870   -0.261966    1.537954

 Total Charge           Charge          ....    0
 Multiplicity           Mult            ....    1
 Number of Electrons    NEL             ....   56
 Basis Dimension        Dim             ....  122

ORBITAL ENERGIES
----------------

  NO   OCC          E(Eh)            E(eV)
   0   2.0000     -18.741931      -509.9939
   1   2.0000      -9.932610      -270.2801
   2   2.0000      -9.932362      -270.2733
   3   2.0000      -9.884554      -268.9724
   4   2.0000      -9.884460      -268.9698
   5   2.0000      -9.871997      -268.6307
   6   2.0000      -9.871967      -268.6299
   7   2.0000      -0.937473       -25.5099
   8   2.0000      -0.702520       -19.1165
   9   2.0000      -0.700200       -19.0534
  10   2.0000      -0.635561       -17.2945
  11   2.0000      -0.578143       -15.7321
  12   2.0000      -0.527182       -14.3454
  13   2.0000      -0.493089       -13.4176
  14   2.0000      -0.442300       -12.0356
  15   2.0000      -0.434325       -11.8186
  16   2.0000      -0.402829       -10.9615
  17   2.0000      -0.372012       -10.1230
  18   2.0000      -0.365841        -9.9551
  19   2.0000      -0.355376        -9.6703
  20   2.0000      -0.345928        -9.4132
  21   2.0000      -0.330749        -9.0001
  22   2.0000      -0.321247        -8.7416
  23   2.0000      -0.299639        -8.1536
  24   2.0000      -0.285020        -7.7558
  25   2.0000      -0.277583        -7.5534
  26   2.0000      -0.261878        -7.1261
  27   2.0000      -0.198459        -5.4004
  28   0.0000       0.029145         0.7931
  29   0.0000       0.050523         1.3748
  30   0.0000       0.062938         1.7126
  31   0.0000       0.082546         2.2462
  32   0.0000       0.089812         2.4439

MULLIKEN ATOMIC CHARGES
-----------------------
   0 C :   -0.225177
   1 C :    0.017577
   2 H :    0.057358
   3 C :   -0.151238
   4 C :   -0.128395
   5 C :   -0.005908
   6 H :    0.069142
   7 O :   -0.322633
   8 C :   -0.249873
   9 H :    0.098910
  10 H :    0.108120
  11 H :    0.097289
  12 H :    0.083200
  13 H :    0.078737
  14 H :    0.082368
  15 H :    0.087517
  16 H :    0.108411
  17 H :    0.098283
  18 H :    0.096313
Sum of atomic charges:   -0.0000000

LOEWDIN ATOMIC CHARGES
----------------------
   0 C :   -0.339685
   1 C :   -0.047882
   2 H :    0.094237
   3 C :   -0.235296
   4 C :   -0.234105
   5 C :   -0.050638
   6 H :    0.107852
   7 O :   -0.158273
   8 C :   -0.351288
   9 H :    0.122810
  10 H :    0.124554
  11 H :    0.119863
  12 H :    0.121845
  13 H :    0.121043
  14 H :    0.120486
  15 H :    0.122648
  16 H :    0.123264
  17 H :    0.121506
  18 H :    0.117058

  Mayer bond orders larger than 0.100000
B(  0-C ,  1-C ) :   1.1278 B(  0-C ,  9-H ) :   0.9450 B(  0-C , 10-H ) :   0.9449
B(  0-C , 11-H ) :   0.9392 B(  1-C ,  2-H ) :   0.8939 B(  1-C ,  3-C ) :   1.1062
B(  1-C ,  7-O ) :   1.0259 B(  3-C ,  4-C ) :   1.1817 B(  3-C , 12-H ) :   0.9105
B(  3-C , 13-H ) :   0.9113 B(  4-C ,  5-C ) :   1.1025 B(  4-C , 14-H ) :   0.9163
B(  4-C , 15-H ) :   0.9109 B(  5-C ,  6-H ) :   0.9169 B(  5-C ,  7-O ) :   1.0336
B(  5-C ,  8-C ) :   1.1011 B(  8-C , 16-H ) :   0.9451 B(  8-C , 17-H ) :   0.9412
B(  8-C , 18-H ) :   0.9449

Dispersion correction           -0.015541491
FINAL SINGLE POINT ENERGY      -310.344649343559

DIPOLE MOMENT
-------------

Method             : SCF
Type of density    : Electron Density
Multiplicity       :   1
Irrep              :   0
Energy             :  -310.4149056344307382 Eh
Relativity type    :
Basis              : AO
                                X                 Y                 Z
Electronic contribution:     -0.111870859      -1.531538183      -1.758375347
Nuclear contribution   :      0.027343433       1.995445236       1.952351364
                        -----------------------------------------
Total Dipole Moment    :     -0.084527426       0.463907053       0.193976017
                        -----------------------------------------
Magnitude (a.u.)       :      0.509883648
Magnitude (Debye)      :      1.296021237

Rotational constants in cm-1:             0.153677             0.071104             0.057950
Rotational constants in MHz :          4607.134365          2131.635079          1737.308837

                             ****ORCA TERMINATED NORMALLY****
TOTAL RUN TIME: 0 days 0 hours 0 minutes 15 seconds 567 msec
