                         Program Version 6.0.1  -  RELEASE   -
|  1> ! r2scan-3c def2/J RI DEFGRID2 scfconv6 printgap
|  2> %output
|  3>     printlevel normal
|  4> end
|  5> * xyz 0 1
|  6> C 1.083789825 1.4959372756 -0.032899676
|  7> C 0.4572036684 0.1317064098 -0.0268776331
|  8> C 1.1875174028 -0.9729887146 0.0979156511
|  9> C -0.9958048442 0.1211808319 -0.1926145899
| 10> C -1.8135548921 -0.8684429531 0.1418665628
| 11> H 2.1569879989 1.4349893603 0.1268656826
| 12> H 0.6466180089 2.1147097453 0.7503069561
| 13> H 0.900145816 1.9886911805 -0.9875540309
| 14> H 0.7497076829 -1.9552986787 0.074074683
| 15> H 2.2569228306 -0.9317883609 0.2168303853
| 16> H -1.4123703884 1.0315080421 -0.6070557658
| 17> H -2.8771486813 -0.7973516783 -0.0100370385
| 18> H -1.4573992165 -1.7818734567 0.5868369402
| 19> *
| 20>
| 21>                          ****END OF INPUT****

CARTESIAN COORDINATES (ANGSTROEM)
---------------------------------
  C      1.083790    1.495937   -0.032900
  C      0.457204    0.131706   -0.026878
  C      1.187517   -0.972989    0.097916
  C     -0.995805    0.121181   -0.192615
  C     -1.813555   -0.868443    0.141867
  H      2.156988    1.434989    0.126866
  H      0.646618    2.114710    0.750307
  H      0.900146    1.988691   -0.987554
  H      0.749708   -1.955299    0.074075
  H      2.256923   -0.931788    0.216830
  H     -1.412370    1.031508   -0.607056
  H     -2.877149   -0.797352   -0.010037
  H     -1.457399   -1.781873    0.586837

 Total Charge           Charge          ....    0
 Multiplicity           Mult            ....    1
 Number of Electrons    NEL             ....   38
 Basis Dimension        Dim             ....  135

ORBITAL ENERGIES
----------------

  NO   OCC          E(Eh)            E(eV)
   0   2.0000     -10.044487      -273.3244
   1   2.0000     -10.037136      -273.1244
   2   2.0000     -10.027291      -272.8565
   3   2.0000     -10.027015      -272.8490
   4   2.0000     -10.017953      -272.6024
   5   2.0000      -0.790546       -21.5118
   6   2.0000      -0.712209       -19.3802
   7   2.0000      -0.655518       -17.8376
   8   2.0000      -0.577621       -15.7179
   9   2.0000      -0.487642       -13.2694
  10   2.0000      -0.447973       -12.1900
  11   2.0000      -0.423106       -11.5133
  12   2.0000      -0.393088       -10.6965
  13   2.0000      -0.381441       -10.3795
  14   2.0000      -0.352424        -9.5899
  15   2.0000      -0.328151        -8.9295
  16   2.0000      -0.312164        -8.4944
  17   2.0000      -0.283664        -7.7189
  18   2.0000      -0.211594        -5.7578
  19   0.0000      -0.058558        -1.5934
  20   0.0000       0.043198         1.1755
  21   0.0000       0.094789         2.5794
  22   0.0000       0.117196         3.1891
  23   0.0000       0.128804         3.5049

MULLIKEN ATOMIC CHARGES
-----------------------
   0 C :   -0.491211
   1 C :    0.122853
   2 C :   -0.346330
   3 C :   -0.133694
   4 C :   -0.316822
   5 H :    0.148590
   6 H :    0.160460
   7 H :    0.152883
   8 H :    0.135419
   9 H :    0.141636
  10 H :    0.146569
  11 H :    0.143025
  12 H :    0.136624
Sum of atomic charges:   -0.0000000

LOEWDIN ATOMIC CHARGES
----------------------
   0 C :   -0.393674
   1 C :   -0.129539
   2 C :   -0.300395
   3 C :   -0.181295
   4 C :   -0.279936
   5 H :    0.159077
   6 H :    0.162992
   7 H :    0.162591
   8 H :    0.158914
   9 H :    0.158631
  10 H :    0.166356
  11 H :    0.158364
  12 H :    0.157913

  Mayer bond orders larger than 0.100000
B(  0-C ,  1-C ) :   0.8601 B(  0-C ,  5-H ) :   0.9877 B(  0-C ,  6-H ) :   0.9733
B(  0-C ,  7-H ) :   0.9722 B(  1-C ,  2-C ) :   1.8315 B(  1-C ,  3-C ) :   1.0052
B(  2-C ,  4-C ) :   0.1036 B(  2-C ,  8-H ) :   0.9777 B(  2-C ,  9-H ) :   0.9686
B(  3-C ,  4-C ) :   1.8911 B(  3-C , 10-H ) :   0.9484 B(  4-C , 11-H ) :   0.9585
B(  4-C , 12-H ) :   0.9762

Dispersion correction           -0.002965037
FINAL SINGLE POINT ENERGY      -195.234577485341

DIPOLE MOMENT
-------------

Method             : SCF
Type of density    : Electron Density
Multiplicity       :   1
Irrep              :   0
Energy             :  -195.2359946470696173 Eh
Relativity type    :
Basis              : AO
                                X                 Y                 Z
Electronic contribution:     -0.911416064      -0.870502363      -0.153329929
Nuclear contribution   :      0.903888635       1.035346343       0.140976062
                        -----------------------------------------
Total Dipole Moment    :     -0.007527428       0.164843981      -0.012353867
                        -----------------------------------------
Magnitude (a.u.)       :      0.165477546
Magnitude (Debye)      :      0.420610495

Rotational constants in cm-1:             0.304999             0.132276             0.094911
Rotational constants in MHz :          9143.634634          3965.548483          2845.368292

                             ****ORCA TERMINATED NORMALLY****
TOTAL RUN TIME: 0 days 0 hours 0 minutes 7 seconds 340 msec
