                         Program Version 6.0.1  -  RELEASE   -
|  1> ! pbe def2-sv(p) def2/J RI DEFGRID1 loosescf d4 GCP(DFT/SV(P)) printgap
|  2> %output
|  3>     printlevel normal
|  4> end
|  5> * xyz 0 1
|  6> C 3.7235027414 -0.1805890189 -0.0510024515
|  7> C 2.2476499545 -0.3276842097 0.3082747857
|  8> H 2.1678401595 -0.5452583555 1.3793289277
|  9> C 1.601234128 -1.472409054 -0.4695245881
| 10> C 0.121366573 -1.5967373531 -0.122555651
| 11> C -0.6435540518 -0.3025968177 -0.4209570097
| 12> H -0.5129856256 -0.0752105055 -1.4878331901
| 13> C -0.0005084011 0.8433983078 0.3803210019
| 14> H -0.0895621253 0.6375746219 1.4510775912
| 15> C 1.4850803688 0.9627973302 0.0187781915
| 16> O -0.649769012 2.0842557366 0.1993461012
| 17> C -2.1576149587 -0.4930578597 -0.1765967086
| 18> C -2.5426686084 -0.4328281133 1.2997396712
| 19> C -2.9954737738 0.516450067 -0.9620634438
| 20> H 4.2630582276 -1.0990155615 0.1689218928
| 21> H 3.8374301752 0.0376710115 -1.1109665678
| 22> H 4.1769867361 0.6288575863 0.5163770344
| 23> H 1.7109251795 -1.2866246285 -1.5409828905
| 24> H 2.1116154203 -2.4105534203 -0.2412082475
| 25> H -0.3181964835 -2.4160922143 -0.6959257627
| 26> H 0.0216369165 -1.8412130104 0.936790682
| 27> H 1.5744707802 1.2048679306 -1.0452942259
| 28> H 1.9151683356 1.7911213267 0.586273449
| 29> H -0.562663209 2.3335361756 -0.7280314688
| 30> H -2.4079386991 -1.4935304316 -0.5526616218
| 31> H -1.9479294421 -1.1238596248 1.8919168911
| 32> H -3.5903091294 -0.7018227447 1.4171737091
| 33> H -2.4050115912 0.5736955087 1.6849851423
| 34> H -4.0524793551 0.2781163896 -0.8634284577
| 35> H -2.7406992401 0.4943917981 -2.0202991917
| 36> H -2.8353360832 1.5204969221 -0.5798600235
| 37> *
| 38>
| 39>                          ****END OF INPUT****

CARTESIAN COORDINATES (ANGSTROEM)
---------------------------------
  C      3.723503   -0.180589   -0.051002
  C      2.247650   -0.327684    0.308275
  H      2.167840   -0.545258    1.379329
  C      1.601234   -1.472409   -0.469525
  C      0.121367   -1.596737   -0.122556
  C     -0.643554   -0.302597   -0.420957
  H     -0.512986   -0.075211   -1.487833
  C     -0.000508    0.843398    0.380321
  H     -0.089562    0.637575    1.451078
  C      1.485080    0.962797    0.018778
  O     -0.649769    2.084256    0.199346
  C     -2.157615   -0.493058   -0.176597
  C     -2.542669   -0.432828    1.299740
  C     -2.995474    0.516450   -0.962063
  H      4.263058   -1.099016    0.168922
  H      3.837430    0.037671   -1.110967
  H      4.176987    0.628858    0.516377
  H      1.710925   -1.286625   -1.540983
  H      2.111615   -2.410553   -0.241208
  H     -0.318196   -2.416092   -0.695926
  H      0.021637   -1.841213    0.936791
  H      1.574471    1.204868   -1.045294
  H      1.915168    1.791121    0.586273
  H     -0.562663    2.333536   -0.728031
  H     -2.407939   -1.493530   -0.552662
  H     -1.947929   -1.123860    1.891917
  H     -3.590309   -0.701823    1.417174
  H     -2.405012    0.573696    1.684985
  H     -4.052479    0.278116   -0.863428
  H     -2.740699    0.494392   -2.020299
  H     -2.835336    1.520497   -0.579860

 Total Charge           Charge          ....    0
 Multiplicity           Mult            ....    1
 Number of Electrons    NEL             ....   88
 Basis Dimension        Dim             ....  194

ORBITAL ENERGIES
----------------

  NO   OCC          E(Eh)            E(eV)
   0   2.0000     -18.740322      -509.9501
   1   2.0000      -9.932176      -270.2682
   2   2.0000      -9.894529      -269.2438
   3   2.0000      -9.888778      -269.0873
   4   2.0000      -9.888148      -269.0702
   5   2.0000      -9.882581      -268.9187
   6   2.0000      -9.881823      -268.8981
   7   2.0000      -9.880482      -268.8616
   8   2.0000      -9.873244      -268.6646
   9   2.0000      -9.865428      -268.4520
  10   2.0000      -9.862395      -268.3694
  11   2.0000      -0.921448       -25.0739
  12   2.0000      -0.760010       -20.6809
  13   2.0000      -0.720432       -19.6040
  14   2.0000      -0.670282       -18.2393
  15   2.0000      -0.655136       -17.8272
  16   2.0000      -0.603573       -16.4241
  17   2.0000      -0.602189       -16.3864
  18   2.0000      -0.552528       -15.0351
  19   2.0000      -0.533146       -14.5077
  20   2.0000      -0.504663       -13.7326
  21   2.0000      -0.496375       -13.5070
  22   2.0000      -0.437732       -11.9113
  23   2.0000      -0.419569       -11.4171
  24   2.0000      -0.416907       -11.3446
  25   2.0000      -0.402255       -10.9459
  26   2.0000      -0.395513       -10.7624
  27   2.0000      -0.370380       -10.0786
  28   2.0000      -0.366345        -9.9688
  29   2.0000      -0.359603        -9.7853
  30   2.0000      -0.351568        -9.5667
  31   2.0000      -0.336975        -9.1696
  32   2.0000      -0.328388        -8.9359
  33   2.0000      -0.323818        -8.8115
  34   2.0000      -0.318589        -8.6693
  35   2.0000      -0.305393        -8.3102
  36   2.0000      -0.302651        -8.2355
  37   2.0000      -0.289294        -7.8721
  38   2.0000      -0.285818        -7.7775
  39   2.0000      -0.280317        -7.6278
  40   2.0000      -0.272209        -7.4072
  41   2.0000      -0.262654        -7.1472
  42   2.0000      -0.252033        -6.8582
  43   2.0000      -0.205058        -5.5799
  44   0.0000       0.026600         0.7238
  45   0.0000       0.036026         0.9803
  46   0.0000       0.042511         1.1568
  47   0.0000       0.048360         1.3159
  48   0.0000       0.076850         2.0912

MULLIKEN ATOMIC CHARGES
-----------------------
   0 C :   -0.197178
   1 C :   -0.214352
   2 H :    0.066041
   3 C :   -0.095719
   4 C :   -0.103589
   5 C :   -0.179409
   6 H :    0.038102
   7 C :    0.060335
   8 H :    0.062133
   9 C :   -0.085157
  10 O :   -0.404893
  11 C :   -0.082706
  12 C :   -0.272448
  13 C :   -0.254635
  14 H :    0.095830
  15 H :    0.089162
  16 H :    0.097040
  17 H :    0.064311
  18 H :    0.078166
  19 H :    0.078349
  20 H :    0.074478
  21 H :    0.049685
  22 H :    0.083683
  23 H :    0.294233
  24 H :    0.060031
  25 H :    0.098960
  26 H :    0.095389
  27 H :    0.122659
  28 H :    0.091023
  29 H :    0.085035
  30 H :    0.105441
Sum of atomic charges:   -0.0000000

LOEWDIN ATOMIC CHARGES
----------------------
   0 C :   -0.326459
   1 C :   -0.153062
   2 H :    0.115109
   3 C :   -0.216148
   4 C :   -0.214021
   5 C :   -0.149060
   6 H :    0.107270
   7 C :   -0.051516
   8 H :    0.112922
   9 C :   -0.225302
  10 O :   -0.311464
  11 C :   -0.143671
  12 C :   -0.332569
  13 C :   -0.339647
  14 H :    0.117327
  15 H :    0.116183
  16 H :    0.117705
  17 H :    0.112869
  18 H :    0.115765
  19 H :    0.116441
  20 H :    0.115437
  21 H :    0.107786
  22 H :    0.118226
  23 H :    0.280219
  24 H :    0.111514
  25 H :    0.112829
  26 H :    0.118511
  27 H :    0.124526
  28 H :    0.114831
  29 H :    0.109519
  30 H :    0.117926

  Mayer bond orders larger than 0.100000
B(  0-C ,  1-C ) :   1.1112 B(  0-C , 14-H ) :   0.9481 B(  0-C , 15-H ) :   0.9460
B(  0-C , 16-H ) :   0.9487 B(  1-C ,  2-H ) :   0.8922 B(  1-C ,  3-C ) :   1.0923
B(  1-C ,  9-C ) :   1.0796 B(  3-C ,  4-C ) :   1.1439 B(  3-C , 17-H ) :   0.9033
B(  3-C , 18-H ) :   0.9119 B(  4-C ,  5-C ) :   1.0858 B(  4-C , 19-H ) :   0.9061
B(  4-C , 20-H ) :   0.8965 B(  5-C ,  6-H ) :   0.8752 B(  5-C ,  7-C ) :   1.0257
B(  5-C , 11-C ) :   1.0212 B(  7-C ,  8-H ) :   0.8713 B(  7-C ,  9-C ) :   1.0998
B(  7-C , 10-O ) :   1.0414 B(  9-C , 21-H ) :   0.8904 B(  9-C , 22-H ) :   0.9063
B( 10-O , 23-H ) :   0.8442 B( 11-C , 12-C ) :   1.1118 B( 11-C , 13-C ) :   1.1111
B( 11-C , 24-H ) :   0.8986 B( 12-C , 25-H ) :   0.9454 B( 12-C , 26-H ) :   0.9459
B( 12-C , 27-H ) :   0.9362 B( 13-C , 28-H ) :   0.9464 B( 13-C , 29-H ) :   0.9476
B( 13-C , 30-H ) :   0.9325

Dispersion correction           -0.031771134
FINAL SINGLE POINT ENERGY      -467.199586504697

DIPOLE MOMENT
-------------

Method             : SCF
Type of density    : Electron Density
Multiplicity       :   1
Irrep              :   0
Energy             :  -467.3123568340422480 Eh
Relativity type    :
Basis              : AO
                                X                 Y                 Z
Electronic contribution:      0.027286955       2.965752990       0.411451265
Nuclear contribution   :      0.286838742      -3.245943812      -0.779139536
                        -----------------------------------------
Total Dipole Moment    :      0.314125698      -0.280190821      -0.367688272
                        -----------------------------------------
Magnitude (a.u.)       :      0.558906536
Magnitude (Debye)      :      1.420627515

Rotational constants in cm-1:             0.065735             0.022764             0.019554
Rotational constants in MHz :          1970.678580           682.440862           586.222200

                             ****ORCA TERMINATED NORMALLY****
TOTAL RUN TIME: 0 days 0 hours 0 minutes 11 seconds 906 msec
