                         Program Version 6.0.1  -  RELEASE   -
|  1> ! r2scan-3c def2/J RI DEFGRID2 scfconv6 printgap
|  2> %output
|  3>     printlevel normal
|  4> end
|  5> * xyz 0 1
|  6> C 1.841445157 0.9810997928 -0.2291139467
|  7> C 0.9774378563 -0.1005071342 0.4062633335
|  8> C -0.3742793207 -0.2864263953 -0.2961251709
|  9> H -0.1922277363 -0.472056308 -1.3696635533
| 10> C -1.2820965213 0.929051691 -0.1503932944
| 11> O -1.0783657431 -1.3860859314 0.2530059374
| 12> H 1.9778174113 0.7852015646 -1.2907353589
| 13> H 2.8203569898 1.0034576224 0.2440730199
| 14> H 1.387049359 1.9612029432 -0.1146667663
| 15> H 0.7953396426 0.1364036501 1.4566747454
| 16> H 1.5177231206 -1.0523086593 0.3698413364
| 17> H -0.8690230684 1.7833085681 -0.6772126876
| 18> H -2.258737217 0.6948924228 -0.5647028735
| 19> H -1.4045054354 1.1735636679 0.901375811
| 20> H -0.5092517092 -2.1629140054 0.2388339753
| 21> *
| 22>
| 23>                          ****END OF INPUT****

CARTESIAN COORDINATES (ANGSTROEM)
---------------------------------
  C      1.841445    0.981100   -0.229114
  C      0.977438   -0.100507    0.406263
  C     -0.374279   -0.286426   -0.296125
  H     -0.192228   -0.472056   -1.369664
  C     -1.282097    0.929052   -0.150393
  O     -1.078366   -1.386086    0.253006
  H      1.977817    0.785202   -1.290735
  H      2.820357    1.003458    0.244073
  H      1.387049    1.961203   -0.114667
  H      0.795340    0.136404    1.456675
  H      1.517723   -1.052309    0.369841
  H     -0.869023    1.783309   -0.677213
  H     -2.258737    0.694892   -0.564703
  H     -1.404505    1.173564    0.901376
  H     -0.509252   -2.162914    0.238834

 Total Charge           Charge          ....    0
 Multiplicity           Mult            ....    1
 Number of Electrons    NEL             ....   42
 Basis Dimension        Dim             ....  150

ORBITAL ENERGIES
----------------

  NO   OCC          E(Eh)            E(eV)
   0   2.0000     -18.942763      -515.4588
   1   2.0000     -10.079511      -274.2774
   2   2.0000     -10.028020      -272.8763
   3   2.0000     -10.022296      -272.7205
   4   2.0000     -10.014856      -272.5181
   5   2.0000      -0.982824       -26.7440
   6   2.0000      -0.755520       -20.5587
   7   2.0000      -0.691144       -18.8070
   8   2.0000      -0.606591       -16.5062
   9   2.0000      -0.544465       -14.8157
  10   2.0000      -0.482163       -13.1203
  11   2.0000      -0.435692       -11.8558
  12   2.0000      -0.401465       -10.9244
  13   2.0000      -0.379396       -10.3239
  14   2.0000      -0.361785        -9.8447
  15   2.0000      -0.350455        -9.5364
  16   2.0000      -0.340557        -9.2670
  17   2.0000      -0.314916        -8.5693
  18   2.0000      -0.311164        -8.4672
  19   2.0000      -0.283645        -7.7184
  20   2.0000      -0.231982        -6.3125
  21   0.0000       0.066917         1.8209
  22   0.0000       0.093544         2.5455
  23   0.0000       0.127357         3.4656
  24   0.0000       0.131617         3.5815
  25   0.0000       0.136632         3.7180

MULLIKEN ATOMIC CHARGES
-----------------------
   0 C :   -0.503087
   1 C :   -0.206390
   2 C :    0.056043
   3 H :    0.122126
   4 C :   -0.504712
   5 O :   -0.415655
   6 H :    0.145994
   7 H :    0.147527
   8 H :    0.151852
   9 H :    0.146869
  10 H :    0.121077
  11 H :    0.147240
  12 H :    0.157146
  13 H :    0.152774
  14 H :    0.281196
Sum of atomic charges:   -0.0000000

LOEWDIN ATOMIC CHARGES
----------------------
   0 C :   -0.421801
   1 C :   -0.296547
   2 C :    0.044758
   3 H :    0.157494
   4 C :   -0.383635
   5 O :   -0.615417
   6 H :    0.151409
   7 H :    0.152795
   8 H :    0.151649
   9 H :    0.160700
  10 H :    0.151880
  11 H :    0.156176
  12 H :    0.165356
  13 H :    0.160242
  14 H :    0.264940

  Mayer bond orders larger than 0.100000
B(  0-C ,  1-C ) :   0.8904 B(  0-C ,  6-H ) :   0.9809 B(  0-C ,  7-H ) :   0.9652
B(  0-C ,  8-H ) :   0.9816 B(  1-C ,  2-C ) :   0.9101 B(  1-C ,  9-H ) :   0.9730
B(  1-C , 10-H ) :   0.9614 B(  2-C ,  3-H ) :   0.9583 B(  2-C ,  4-C ) :   0.9317
B(  2-C ,  5-O ) :   0.8910 B(  4-C , 11-H ) :   0.9724 B(  4-C , 12-H ) :   0.9635
B(  4-C , 13-H ) :   0.9803 B(  5-O , 14-H ) :   0.9020

Dispersion correction           -0.003192444
FINAL SINGLE POINT ENERGY      -233.603931887687

DIPOLE MOMENT
-------------

Method             : SCF
Type of density    : Electron Density
Multiplicity       :   1
Irrep              :   0
Energy             :  -233.6089743856151415 Eh
Relativity type    :
Basis              : AO
                                X                 Y                 Z
Electronic contribution:     -2.454225893      -3.577873128       0.574673191
Nuclear contribution   :      3.046671373       3.592065872      -0.752576440
                        -----------------------------------------
Total Dipole Moment    :      0.592445480       0.014192743      -0.177903250
                        -----------------------------------------
Magnitude (a.u.)       :      0.618742796
Magnitude (Debye)      :      1.572719200

Rotational constants in cm-1:             0.258178             0.116151             0.088673
Rotational constants in MHz :          7739.994992          3482.134007          2658.346511

                             ****ORCA TERMINATED NORMALLY****
TOTAL RUN TIME: 0 days 0 hours 0 minutes 10 seconds 522 msec
