                         Program Version 6.0.1  -  RELEASE   -
|  1> ! pbe def2-sv(p) def2/J RI DEFGRID1 loosescf d4 GCP(DFT/SV(P)) printgap
|  2> %output
|  3>     printlevel normal
|  4> end
|  5> * xyz 0 1
|  6> C -1.5787866575 0.1683286265 0.4924194936
|  7> C -0.6751829982 -0.4944975912 -0.5401948058
|  8> C 0.6836299732 0.2027166204 -0.6296661571
|  9> O 1.4146358998 0.1402503465 0.5718505589
| 10> H -2.5053369916 -0.3890314073 0.6070540956
| 11> H -1.075427247 0.2127391588 1.4553669045
| 12> H -1.8196721631 1.1838243549 0.1872213861
| 13> H -1.1462150252 -0.467757808 -1.5242938593
| 14> H -0.5188141585 -1.5439099449 -0.2722206939
| 15> H 1.2682689844 -0.234046379 -1.4539907334
| 16> H 0.5477193099 1.2679412011 -0.8300106093
| 17> H 1.5070666468 -0.7849286222 0.8262933477
| 18> *
| 19>
| 20>                          ****END OF INPUT****

CARTESIAN COORDINATES (ANGSTROEM)
---------------------------------
  C     -1.578787    0.168329    0.492419
  C     -0.675183   -0.494498   -0.540195
  C      0.683630    0.202717   -0.629666
  O      1.414636    0.140250    0.571851
  H     -2.505337   -0.389031    0.607054
  H     -1.075427    0.212739    1.455367
  H     -1.819672    1.183824    0.187221
  H     -1.146215   -0.467758   -1.524294
  H     -0.518814   -1.543910   -0.272221
  H      1.268269   -0.234046   -1.453991
  H      0.547719    1.267941   -0.830011
  H      1.507067   -0.784929    0.826293

 Total Charge           Charge          ....    0
 Multiplicity           Mult            ....    1
 Number of Electrons    NEL             ....   34
 Basis Dimension        Dim             ....   72

ORBITAL ENERGIES
----------------

  NO   OCC          E(Eh)            E(eV)
   0   2.0000     -18.739714      -509.9335
   1   2.0000      -9.926123      -270.1036
   2   2.0000      -9.887062      -269.0406
   3   2.0000      -9.871971      -268.6300
   4   2.0000      -0.918632       -24.9972
   5   2.0000      -0.697463       -18.9789
   6   2.0000      -0.602484       -16.3944
   7   2.0000      -0.533964       -14.5299
   8   2.0000      -0.437913       -11.9162
   9   2.0000      -0.414040       -11.2666
  10   2.0000      -0.404813       -11.0155
  11   2.0000      -0.357412        -9.7257
  12   2.0000      -0.323987        -8.8161
  13   2.0000      -0.314680        -8.5629
  14   2.0000      -0.299293        -8.1442
  15   2.0000      -0.267267        -7.2727
  16   2.0000      -0.212081        -5.7710
  17   0.0000       0.026750         0.7279
  18   0.0000       0.060648         1.6503
  19   0.0000       0.083508         2.2724
  20   0.0000       0.085206         2.3186
  21   0.0000       0.111882         3.0445

MULLIKEN ATOMIC CHARGES
-----------------------
   0 C :   -0.273558
   1 C :   -0.230134
   2 C :    0.017136
   3 O :   -0.434696
   4 H :    0.103208
   5 H :    0.102804
   6 H :    0.098664
   7 H :    0.087073
   8 H :    0.078957
   9 H :    0.074825
  10 H :    0.084559
  11 H :    0.291161
Sum of atomic charges:    0.0000000

LOEWDIN ATOMIC CHARGES
----------------------
   0 C :   -0.344462
   1 C :   -0.260254
   2 C :   -0.123777
   3 O :   -0.339352
   4 H :    0.117957
   5 H :    0.118252
   6 H :    0.118406
   7 H :    0.119733
   8 H :    0.109708
   9 H :    0.092358
  10 H :    0.111415
  11 H :    0.280016

  Mayer bond orders larger than 0.100000
B(  0-C ,  1-C ) :   1.1405 B(  0-C ,  4-H ) :   0.9545 B(  0-C ,  5-H ) :   0.9490
B(  0-C ,  6-H ) :   0.9573 B(  1-C ,  2-C ) :   1.1011 B(  1-C ,  7-H ) :   0.9168
B(  1-C ,  8-H ) :   0.9266 B(  2-C ,  3-O ) :   1.0605 B(  2-C ,  9-H ) :   0.9283
B(  2-C , 10-H ) :   0.9298 B(  3-O , 11-H ) :   0.8548

Dispersion correction           -0.006454893
FINAL SINGLE POINT ENERGY      -193.874975961893

DIPOLE MOMENT
-------------

Method             : SCF
Type of density    : Electron Density
Multiplicity       :   1
Irrep              :   0
Energy             :  -193.9246695412713279 Eh
Relativity type    :
Basis              : AO
                                X                 Y                 Z
Electronic contribution:      3.283529919       0.179538788       0.694547885
Nuclear contribution   :     -3.490002295      -0.706391491      -0.933974953
                        -----------------------------------------
Total Dipole Moment    :     -0.206472376      -0.526852703      -0.239427068
                        -----------------------------------------
Magnitude (a.u.)       :      0.614434646
Magnitude (Debye)      :      1.561768753

Rotational constants in cm-1:             0.478809             0.169808             0.145469
Rotational constants in MHz :         14354.325490          5090.712479          4361.052861

                             ****ORCA TERMINATED NORMALLY****
TOTAL RUN TIME: 0 days 0 hours 0 minutes 6 seconds 547 msec
