                         Program Version 6.0.1  -  RELEASE   -
|  1> ! r2scan-3c def2/J RI DEFGRID2 scfconv6 printgap
|  2> %output
|  3>     printlevel normal
|  4> end
|  5> * xyz 0 1
|  6> C 1.6862524757 0.3961870313 0.6284610867
|  7> C 0.8932261964 0.3698935724 -0.6725179026
|  8> C -0.5663272058 -0.0599824752 -0.4856224932
|  9> H -1.0582827005 -0.0168800592 -1.4746126502
| 10> C -1.3358430642 0.8470823664 0.4747970167
| 11> O -0.5601511408 -1.4013146204 -0.0330612993
| 12> H 2.74114404 0.5543188515 0.4175658998
| 13> H 1.5732325949 -0.5536485912 1.1436978873
| 14> H 1.3461816947 1.1962705653 1.2809146175
| 15> H 1.3557210076 -0.3451908491 -1.3548204849
| 16> H 0.9093945915 1.3533440987 -1.1458397163
| 17> H -2.3927519801 0.5829224101 0.4794862927
| 18> H -0.9494275283 0.7385950896 1.4846651117
| 19> H -1.2420046864 1.8848643187 0.1671882881
| 20> H -1.4627576396 -1.659163537 0.1805940896
| 21> *
| 22>
| 23>                          ****END OF INPUT****

CARTESIAN COORDINATES (ANGSTROEM)
---------------------------------
  C      1.686252    0.396187    0.628461
  C      0.893226    0.369894   -0.672518
  C     -0.566327   -0.059982   -0.485622
  H     -1.058283   -0.016880   -1.474613
  C     -1.335843    0.847082    0.474797
  O     -0.560151   -1.401315   -0.033061
  H      2.741144    0.554319    0.417566
  H      1.573233   -0.553649    1.143698
  H      1.346182    1.196271    1.280915
  H      1.355721   -0.345191   -1.354820
  H      0.909395    1.353344   -1.145840
  H     -2.392752    0.582922    0.479486
  H     -0.949428    0.738595    1.484665
  H     -1.242005    1.884864    0.167188
  H     -1.462758   -1.659164    0.180594

 Total Charge           Charge          ....    0
 Multiplicity           Mult            ....    1
 Number of Electrons    NEL             ....   42
 Basis Dimension        Dim             ....  150

ORBITAL ENERGIES
----------------

  NO   OCC          E(Eh)            E(eV)
   0   2.0000     -18.944294      -515.5004
   1   2.0000     -10.079695      -274.2825
   2   2.0000     -10.022364      -272.7224
   3   2.0000     -10.020578      -272.6738
   4   2.0000     -10.009943      -272.3844
   5   2.0000      -0.984717       -26.7955
   6   2.0000      -0.751122       -20.4391
   7   2.0000      -0.686984       -18.6938
   8   2.0000      -0.613690       -16.6993
   9   2.0000      -0.533780       -14.5249
  10   2.0000      -0.474890       -12.9224
  11   2.0000      -0.432226       -11.7615
  12   2.0000      -0.403331       -10.9752
  13   2.0000      -0.390396       -10.6232
  14   2.0000      -0.360210        -9.8018
  15   2.0000      -0.353317        -9.6142
  16   2.0000      -0.328607        -8.9419
  17   2.0000      -0.311499        -8.4763
  18   2.0000      -0.302427        -8.2295
  19   2.0000      -0.281496        -7.6599
  20   2.0000      -0.233111        -6.3433
  21   0.0000       0.062195         1.6924
  22   0.0000       0.108979         2.9655
  23   0.0000       0.121240         3.2991
  24   0.0000       0.131434         3.5765
  25   0.0000       0.148772         4.0483

MULLIKEN ATOMIC CHARGES
-----------------------
   0 C :   -0.519546
   1 C :   -0.220080
   2 C :    0.062009
   3 H :    0.131847
   4 C :   -0.510324
   5 O :   -0.430446
   6 H :    0.144799
   7 H :    0.175758
   8 H :    0.145455
   9 H :    0.146789
  10 H :    0.132762
  11 H :    0.137813
  12 H :    0.169442
  13 H :    0.148961
  14 H :    0.284760
Sum of atomic charges:   -0.0000000

LOEWDIN ATOMIC CHARGES
----------------------
   0 C :   -0.421794
   1 C :   -0.283932
   2 C :    0.043609
   3 H :    0.159723
   4 C :   -0.404149
   5 O :   -0.618951
   6 H :    0.150682
   7 H :    0.164531
   8 H :    0.148808
   9 H :    0.164460
  10 H :    0.156620
  11 H :    0.151300
  12 H :    0.162041
  13 H :    0.160403
  14 H :    0.266651

  Mayer bond orders larger than 0.100000
B(  0-C ,  1-C ) :   0.8836 B(  0-C ,  6-H ) :   0.9700 B(  0-C ,  7-H ) :   0.9791
B(  0-C ,  8-H ) :   0.9788 B(  1-C ,  2-C ) :   0.9513 B(  1-C ,  9-H ) :   0.9701
B(  1-C , 10-H ) :   0.9704 B(  2-C ,  3-H ) :   0.9574 B(  2-C ,  4-C ) :   0.9133
B(  2-C ,  5-O ) :   0.8836 B(  4-C , 11-H ) :   0.9657 B(  4-C , 12-H ) :   0.9791
B(  4-C , 13-H ) :   0.9702 B(  5-O , 14-H ) :   0.9039

Dispersion correction           -0.003243544
FINAL SINGLE POINT ENERGY      -233.603313824534

DIPOLE MOMENT
-------------

Method             : SCF
Type of density    : Electron Density
Multiplicity       :   1
Irrep              :   0
Energy             :  -233.6082976663679460 Eh
Relativity type    :
Basis              : AO
                                X                 Y                 Z
Electronic contribution:     -1.228230360      -3.147519203      -1.140323081
Nuclear contribution   :      0.761403225       3.483651615       1.105453689
                        -----------------------------------------
Total Dipole Moment    :     -0.466827135       0.336132413      -0.034869392
                        -----------------------------------------
Magnitude (a.u.)       :      0.576305863
Magnitude (Debye)      :      1.464853089

Rotational constants in cm-1:             0.215301             0.131286             0.107458
Rotational constants in MHz :          6454.567481          3935.849240          3221.517141

                             ****ORCA TERMINATED NORMALLY****
TOTAL RUN TIME: 0 days 0 hours 0 minutes 10 seconds 461 msec
