                         Program Version 6.0.1  -  RELEASE   -
|  1> ! r2scan-3c def2/J RI DEFGRID2 scfconv6 printgap
|  2> %output
|  3>     printlevel normal
|  4> end
|  5> * xyz 0 1
|  6> C -3.5803370958 0.1954373816 -0.382723769
|  7> O -2.2040565225 0.2047814551 -0.7411084042
|  8> C -1.3101712212 -0.1127864113 0.2046291299
|  9> O -1.6020147093 -0.4167999407 1.3313735956
| 10> C 0.1003415306 -0.0202294072 -0.3340177607
| 11> C 0.8847140724 -1.2831016881 0.0310703284
| 12> C 2.3332462492 -1.1682011313 -0.4312658421
| 13> C 2.9975469314 0.0598773057 0.182633948
| 14> C 2.2217165085 1.3202499372 -0.1857150491
| 15> C 0.7743622748 1.2128708394 0.2825292622
| 16> H -4.1250761154 -0.3050477361 -1.1816993561
| 17> H -3.930155346 1.2240094757 -0.2813531352
| 18> H -3.7132052166 -0.3332803478 0.5629410382
| 19> H 0.0489696904 0.0950063079 -1.4202490494
| 20> H 0.847120874 -1.4139179942 1.1140963804
| 21> H 0.413121545 -2.1542674646 -0.4289576994
| 22> H 2.8799943706 -2.0693760062 -0.1473532269
| 23> H 2.3611455902 -1.0889285435 -1.5206949936
| 24> H 3.020119757 -0.0462983004 1.2692318294
| 25> H 4.0281711158 0.141056324 -0.1687366374
| 26> H 2.6892656184 2.1942890683 0.2718596151
| 27> H 2.2435630196 1.4568904864 -1.2694431133
| 28> H 0.7431434125 1.1205139683 1.3701623556
| 29> H 0.2219588563 2.1125002428 0.0020281027
| 30> *
| 31>
| 32>                          ****END OF INPUT****

CARTESIAN COORDINATES (ANGSTROEM)
---------------------------------
  C     -3.580337    0.195437   -0.382724
  O     -2.204057    0.204781   -0.741108
  C     -1.310171   -0.112786    0.204629
  O     -1.602015   -0.416800    1.331374
  C      0.100342   -0.020229   -0.334018
  C      0.884714   -1.283102    0.031070
  C      2.333246   -1.168201   -0.431266
  C      2.997547    0.059877    0.182634
  C      2.221717    1.320250   -0.185715
  C      0.774362    1.212871    0.282529
  H     -4.125076   -0.305048   -1.181699
  H     -3.930155    1.224009   -0.281353
  H     -3.713205   -0.333280    0.562941
  H      0.048970    0.095006   -1.420249
  H      0.847121   -1.413918    1.114096
  H      0.413122   -2.154267   -0.428958
  H      2.879994   -2.069376   -0.147353
  H      2.361146   -1.088929   -1.520695
  H      3.020120   -0.046298    1.269232
  H      4.028171    0.141056   -0.168737
  H      2.689266    2.194289    0.271860
  H      2.243563    1.456890   -1.269443
  H      0.743143    1.120514    1.370162
  H      0.221959    2.112500    0.002028

 Total Charge           Charge          ....    0
 Multiplicity           Mult            ....    1
 Number of Electrons    NEL             ....   78
 Basis Dimension        Dim             ....  270

ORBITAL ENERGIES
----------------

  NO   OCC          E(Eh)            E(eV)
   0   2.0000     -18.997203      -516.9402
   1   2.0000     -18.930434      -515.1233
   2   2.0000     -10.149239      -276.1748
   3   2.0000     -10.081477      -274.3309
   4   2.0000     -10.044161      -273.3155
   5   2.0000     -10.031632      -272.9746
   6   2.0000     -10.027656      -272.8664
   7   2.0000     -10.027206      -272.8541
   8   2.0000     -10.025911      -272.8189
   9   2.0000     -10.024554      -272.7820
  10   2.0000      -1.070956       -29.1422
  11   2.0000      -0.981468       -26.7071
  12   2.0000      -0.809241       -22.0206
  13   2.0000      -0.735989       -20.0273
  14   2.0000      -0.712953       -19.4004
  15   2.0000      -0.688926       -18.7466
  16   2.0000      -0.593958       -16.1624
  17   2.0000      -0.580047       -15.7839
  18   2.0000      -0.536958       -14.6114
  19   2.0000      -0.517213       -14.0741
  20   2.0000      -0.477290       -12.9877
  21   2.0000      -0.449746       -12.2382
  22   2.0000      -0.445477       -12.1220
  23   2.0000      -0.434778       -11.8309
  24   2.0000      -0.411500       -11.1975
  25   2.0000      -0.409145       -11.1334
  26   2.0000      -0.398427       -10.8417
  27   2.0000      -0.380449       -10.3525
  28   2.0000      -0.357793        -9.7360
  29   2.0000      -0.351470        -9.5640
  30   2.0000      -0.334107        -9.0915
  31   2.0000      -0.320591        -8.7237
  32   2.0000      -0.318557        -8.6684
  33   2.0000      -0.315848        -8.5947
  34   2.0000      -0.294517        -8.0142
  35   2.0000      -0.280571        -7.6347
  36   2.0000      -0.272455        -7.4139
  37   2.0000      -0.270212        -7.3528
  38   2.0000      -0.236861        -6.4453
  39   0.0000      -0.012664        -0.3446
  40   0.0000       0.066889         1.8201
  41   0.0000       0.092502         2.5171
  42   0.0000       0.100978         2.7477
  43   0.0000       0.108414         2.9501

MULLIKEN ATOMIC CHARGES
-----------------------
   0 C :   -0.310031
   1 O :   -0.194801
   2 C :    0.387414
   3 O :   -0.441198
   4 C :   -0.096839
   5 C :   -0.353989
   6 C :   -0.265727
   7 C :   -0.297133
   8 C :   -0.270152
   9 C :   -0.344143
  10 H :    0.145977
  11 H :    0.147511
  12 H :    0.185684
  13 H :    0.184516
  14 H :    0.178171
  15 H :    0.145011
  16 H :    0.147789
  17 H :    0.144323
  18 H :    0.146337
  19 H :    0.148505
  20 H :    0.147868
  21 H :    0.145758
  22 H :    0.174155
  23 H :    0.144997
Sum of atomic charges:   -0.0000000

LOEWDIN ATOMIC CHARGES
----------------------
   0 C :   -0.050039
   1 O :   -0.603359
   2 C :    0.364026
   3 O :   -0.432845
   4 C :   -0.155425
   5 C :   -0.272120
   6 C :   -0.300269
   7 C :   -0.303581
   8 C :   -0.299590
   9 C :   -0.268545
  10 H :    0.173045
  11 H :    0.171121
  12 H :    0.192683
  13 H :    0.182162
  14 H :    0.172498
  15 H :    0.162133
  16 H :    0.156998
  17 H :    0.155184
  18 H :    0.156184
  19 H :    0.155377
  20 H :    0.157100
  21 H :    0.155656
  22 H :    0.169378
  23 H :    0.162230

  Mayer bond orders larger than 0.100000
B(  0-C ,  1-O ) :   0.8466 B(  0-C , 10-H ) :   0.9675 B(  0-C , 11-H ) :   0.9617
B(  0-C , 12-H ) :   0.9709 B(  1-O ,  2-C ) :   1.0362 B(  2-C ,  3-O ) :   1.8452
B(  2-C ,  4-C ) :   0.9589 B(  4-C ,  5-C ) :   0.9029 B(  4-C ,  9-C ) :   0.9231
B(  4-C , 13-H ) :   0.9546 B(  5-C ,  6-C ) :   0.8928 B(  5-C , 14-H ) :   0.9958
B(  5-C , 15-H ) :   0.9405 B(  6-C ,  7-C ) :   0.9173 B(  6-C , 16-H ) :   0.9442
B(  6-C , 17-H ) :   0.9905 B(  7-C ,  8-C ) :   0.9210 B(  7-C , 18-H ) :   0.9941
B(  7-C , 19-H ) :   0.9512 B(  8-C ,  9-C ) :   0.8947 B(  8-C , 20-H ) :   0.9435
B(  8-C , 21-H ) :   0.9933 B(  9-C , 22-H ) :   0.9959 B(  9-C , 23-H ) :   0.9315

Dispersion correction           -0.007522434
FINAL SINGLE POINT ENERGY      -463.635793120628

DIPOLE MOMENT
-------------

Method             : SCF
Type of density    : Electron Density
Multiplicity       :   1
Irrep              :   0
Energy             :  -463.6414681955761807 Eh
Relativity type    :
Basis              : AO
                                X                 Y                 Z
Electronic contribution:     -7.139498046      -0.656235260       1.075237391
Nuclear contribution   :      7.193854432       0.872306741      -1.706375610
                        -----------------------------------------
Total Dipole Moment    :      0.054356387       0.216071481      -0.631138219
                        -----------------------------------------
Magnitude (a.u.)       :      0.669310804
Magnitude (Debye)      :      1.701252864

Rotational constants in cm-1:             0.103285             0.024083             0.022516
Rotational constants in MHz :          3096.412590           721.992078           675.027506

                             ****ORCA TERMINATED NORMALLY****
TOTAL RUN TIME: 0 days 0 hours 0 minutes 24 seconds 282 msec
