                         Program Version 6.0.1  -  RELEASE   -
|  1> ! pbe def2-sv(p) def2/J RI DEFGRID1 loosescf d4 GCP(DFT/SV(P)) printgap
|  2> %output
|  3>     printlevel normal
|  4> end
|  5> * xyz 0 1
|  6> C -2.8756022779 -0.6247917023 -0.9034665481
|  7> C -1.4184433969 -0.5426483868 -0.4538270586
|  8> H -0.7755879072 -0.8180906413 -1.3003100024
|  9> C -1.1090822805 -1.4786918299 0.7111895987
| 10> C 0.3903979023 -1.5120917331 1.0018612252
| 11> C 1.0406752932 -0.1043328755 0.9991487069
| 12> H 1.6225926509 -2.79946e-05 1.9227104013
| 13> C -0.0316426953 0.9883529496 1.0275123614
| 14> C -1.0487809094 0.8820552439 -0.0831102012
| 15> O -1.5443040921 1.8495282589 -0.6069421604
| 16> C 2.0353870969 0.0408274139 -0.1425401169
| 17> C 3.0639717974 -0.7908836418 -0.2258546119
| 18> C 1.8624370681 1.1482313628 -1.1351798488
| 19> H -3.5395926851 -0.4346405201 -0.0627084888
| 20> H -3.0699169749 0.1237731799 -1.6671724844
| 21> H -3.0977503566 -1.6095456897 -1.3072281163
| 22> H -1.6649386928 -1.1521983015 1.5929032319
| 23> H -1.4490454633 -2.487859317 0.4698322953
| 24> H 0.5523921757 -1.9970383931 1.9658421791
| 25> H 0.8787796011 -2.1259482432 0.243524297
| 26> H -0.5937590769 0.8996970725 1.9624757077
| 27> H 0.4133942596 1.9838579686 1.0174366773
| 28> H 3.7909707901 -0.7176370204 -1.0161704454
| 29> H 3.2256571821 -1.5764158406 0.4932498382
| 30> H 2.5910959679 1.0512452609 -1.9362065858
| 31> H 0.8654542477 1.1475753991 -1.5696621433
| 32> H 2.0114659322 2.1157430797 -0.6565615507
| 33> *
| 34>
| 35>                          ****END OF INPUT****

CARTESIAN COORDINATES (ANGSTROEM)
---------------------------------
  C     -2.875602   -0.624792   -0.903467
  C     -1.418443   -0.542648   -0.453827
  H     -0.775588   -0.818091   -1.300310
  C     -1.109082   -1.478692    0.711190
  C      0.390398   -1.512092    1.001861
  C      1.040675   -0.104333    0.999149
  H      1.622593   -0.000028    1.922710
  C     -0.031643    0.988353    1.027512
  C     -1.048781    0.882055   -0.083110
  O     -1.544304    1.849528   -0.606942
  C      2.035387    0.040827   -0.142540
  C      3.063972   -0.790884   -0.225855
  C      1.862437    1.148231   -1.135180
  H     -3.539593   -0.434641   -0.062708
  H     -3.069917    0.123773   -1.667172
  H     -3.097750   -1.609546   -1.307228
  H     -1.664939   -1.152198    1.592903
  H     -1.449045   -2.487859    0.469832
  H      0.552392   -1.997038    1.965842
  H      0.878780   -2.125948    0.243524
  H     -0.593759    0.899697    1.962476
  H      0.413394    1.983858    1.017437
  H      3.790971   -0.717637   -1.016170
  H      3.225657   -1.576416    0.493250
  H      2.591096    1.051245   -1.936207
  H      0.865454    1.147575   -1.569662
  H      2.011466    2.115743   -0.656562

 Total Charge           Charge          ....    0
 Multiplicity           Mult            ....    1
 Number of Electrons    NEL             ....   84
 Basis Dimension        Dim             ....  186

ORBITAL ENERGIES
----------------

  NO   OCC          E(Eh)            E(eV)
   0   2.0000     -18.740993      -509.9683
   1   2.0000      -9.971709      -271.3440
   2   2.0000      -9.908739      -269.6305
   3   2.0000      -9.902595      -269.4633
   4   2.0000      -9.901829      -269.4425
   5   2.0000      -9.895481      -269.2697
   6   2.0000      -9.893682      -269.2208
   7   2.0000      -9.891341      -269.1571
   8   2.0000      -9.883613      -268.9468
   9   2.0000      -9.877945      -268.7926
  10   2.0000      -9.872999      -268.6580
  11   2.0000      -0.941292       -25.6139
  12   2.0000      -0.773044       -21.0356
  13   2.0000      -0.727454       -19.7950
  14   2.0000      -0.683791       -18.6069
  15   2.0000      -0.661574       -18.0024
  16   2.0000      -0.621362       -16.9081
  17   2.0000      -0.599862       -16.3231
  18   2.0000      -0.556447       -15.1417
  19   2.0000      -0.530827       -14.4445
  20   2.0000      -0.475388       -12.9360
  21   2.0000      -0.467588       -12.7237
  22   2.0000      -0.437057       -11.8929
  23   2.0000      -0.427687       -11.6379
  24   2.0000      -0.415296       -11.3008
  25   2.0000      -0.396504       -10.7894
  26   2.0000      -0.384825       -10.4716
  27   2.0000      -0.376492       -10.2449
  28   2.0000      -0.375541       -10.2190
  29   2.0000      -0.361631        -9.8405
  30   2.0000      -0.353609        -9.6222
  31   2.0000      -0.344388        -9.3713
  32   2.0000      -0.336636        -9.1603
  33   2.0000      -0.327371        -8.9082
  34   2.0000      -0.323971        -8.8157
  35   2.0000      -0.315852        -8.5948
  36   2.0000      -0.301448        -8.2028
  37   2.0000      -0.291932        -7.9439
  38   2.0000      -0.282930        -7.6989
  39   2.0000      -0.272606        -7.4180
  40   2.0000      -0.217301        -5.9131
  41   2.0000      -0.192992        -5.2516
  42   0.0000      -0.052649        -1.4327
  43   0.0000      -0.022321        -0.6074
  44   0.0000       0.024542         0.6678
  45   0.0000       0.050914         1.3854
  46   0.0000       0.057557         1.5662

MULLIKEN ATOMIC CHARGES
-----------------------
   0 C :   -0.210092
   1 C :   -0.191458
   2 H :    0.096964
   3 C :   -0.124090
   4 C :   -0.095984
   5 C :   -0.151888
   6 H :    0.087141
   7 C :   -0.043402
   8 C :   -0.034493
   9 O :   -0.156522
  10 C :   -0.088801
  11 C :   -0.229333
  12 C :   -0.216093
  13 H :    0.094764
  14 H :    0.118011
  15 H :    0.096805
  16 H :    0.075546
  17 H :    0.088669
  18 H :    0.079593
  19 H :    0.090468
  20 H :    0.104673
  21 H :    0.091018
  22 H :    0.085438
  23 H :    0.086098
  24 H :    0.099698
  25 H :    0.130772
  26 H :    0.116498
Sum of atomic charges:    0.0000000

LOEWDIN ATOMIC CHARGES
----------------------
   0 C :   -0.323042
   1 C :   -0.179355
   2 H :    0.140820
   3 C :   -0.216656
   4 C :   -0.215013
   5 C :   -0.132981
   6 H :    0.135903
   7 C :   -0.239885
   8 C :    0.045796
   9 O :   -0.121250
  10 C :   -0.054294
  11 C :   -0.267387
  12 C :   -0.324943
  13 H :    0.120089
  14 H :    0.127344
  15 H :    0.118660
  16 H :    0.115214
  17 H :    0.123042
  18 H :    0.119770
  19 H :    0.123157
  20 H :    0.146505
  21 H :    0.131516
  22 H :    0.118310
  23 H :    0.116390
  24 H :    0.127008
  25 H :    0.131258
  26 H :    0.134024

  Mayer bond orders larger than 0.100000
B(  0-C ,  1-C ) :   1.1271 B(  0-C , 13-H ) :   0.9519 B(  0-C , 14-H ) :   0.9381
B(  0-C , 15-H ) :   0.9481 B(  1-C ,  2-H ) :   0.8481 B(  1-C ,  3-C ) :   1.1159
B(  1-C ,  8-C ) :   0.9215 B(  3-C ,  4-C ) :   1.1767 B(  3-C , 16-H ) :   0.8924
B(  3-C , 17-H ) :   0.9125 B(  4-C ,  5-C ) :   1.0507 B(  4-C , 18-H ) :   0.9081
B(  4-C , 19-H ) :   0.9104 B(  5-C ,  6-H ) :   0.8709 B(  5-C ,  7-C ) :   1.1362
B(  5-C , 10-C ) :   0.9912 B(  7-C ,  8-C ) :   1.0370 B(  7-C , 20-H ) :   0.8544
B(  7-C , 21-H ) :   0.8839 B(  8-C ,  9-O ) :   2.1787 B( 10-C , 11-C ) :   2.0376
B( 10-C , 12-C ) :   1.1585 B( 11-C , 22-H ) :   0.9070 B( 11-C , 23-H ) :   0.9105
B( 12-C , 24-H ) :   0.9311 B( 12-C , 25-H ) :   0.9086 B( 12-C , 26-H ) :   0.9166

Dispersion correction           -0.029498935
FINAL SINGLE POINT ENERGY      -464.819391277016

DIPOLE MOMENT
-------------

Method             : SCF
Type of density    : Electron Density
Multiplicity       :   1
Irrep              :   0
Energy             :  -464.9053740270753678 Eh
Relativity type    :
Basis              : AO
                                X                 Y                 Z
Electronic contribution:     -1.317050416       4.523052674       0.321644986
Nuclear contribution   :      1.629409710      -5.223970383       0.133558710
                        -----------------------------------------
Total Dipole Moment    :      0.312359295      -0.700917709       0.455203696
                        -----------------------------------------
Magnitude (a.u.)       :      0.892224394
Magnitude (Debye)      :      2.267854180

Rotational constants in cm-1:             0.056101             0.029394             0.023913
Rotational constants in MHz :          1681.878321           881.219484           716.886651

                             ****ORCA TERMINATED NORMALLY****
TOTAL RUN TIME: 0 days 0 hours 0 minutes 26 seconds 920 msec
